                         Program Version 4.2.0 -  RELEASE  -
|  1> # ORCA input file
|  2> # SCF done       -189.348196481260          0.000614720463
|  3> ! CAM-B3LYP def2-SVP def2/J RIJCOSX Grid4 TightSCF
|  4> %maxcore 5000
|  5> %tddft
|  6>     Mode sTDDFT
|  7>     Ethresh 5.0
|  8>     maxcore 5000
|  9> end
| 10>
| 11> %pal
| 12>   nprocs 6
| 13>   end
| 14> * xyz 0 1
| 15>    C        0.14390        12.50617         0.87912
| 16>    C        0.24382        12.17187         2.20652
| 17>    C        0.98065        12.91196         3.15453
| 18>    N        1.55964        13.46897         3.97484
| 19>    C       -0.36626        11.06278         2.82774
| 20>    N       -0.82337        10.18473         3.41108
| 21>    C        0.77449        13.66695         0.25621
| 22>    C        0.41850        13.69724        -1.11469
| 23>    C        0.85882        14.67089        -1.97705
| 24>    C        1.69577        15.66652        -1.46188
| 25>    C        2.04746        15.62969        -0.09193
| 26>    C        1.59964        14.64421         0.78001
| 27>    S        3.09172        16.95096         0.33532
| 28>    C        3.04237        17.52670        -1.30976
| 29>    C        2.28348        16.77044        -2.13802
| 30>   Br        3.99869        19.07023        -1.77905
| 31>    C       -0.45478        12.54806        -1.40997
| 32>    O       -0.94970        12.27937        -2.49091
| 33>    C       -0.59543        11.80698        -0.15319
| 34>    C       -1.28950        10.63341         0.00672
| 35>    C       -2.02415         9.87779        -0.91696
| 36>    S       -2.30373        10.26311        -2.61263
| 37>    C       -3.23098         8.82202        -2.79533
| 38>    C       -3.30780         8.08268        -1.59608
| 39>    C       -2.63799         8.67589        -0.54789
| 40>    S       -4.22679         6.60685        -1.75482
| 41>    C       -4.50774         6.97796        -3.43340
| 42>    C       -5.19007         6.31704        -4.44343
| 43>    C       -5.14342         7.01112        -5.64735
| 44>    S       -4.23153         8.51365        -5.49435
| 45>    C       -3.91648         8.19090        -3.83115
| 46>    C       -5.68928         6.69699        -6.90249
| 47>    C       -6.36250         5.55709        -7.26864
| 48>    C       -6.89079         5.29319        -8.55868
| 49>    C       -7.49404         4.07859        -8.68687
| 50>    C       -7.47773         3.30782        -7.50449
| 51>    S       -6.67752         4.18789        -6.22147
| 52>    C       -7.97720         2.03884        -7.28257
| 53>    C       -8.64453         1.17276        -8.17543
| 54>    C       -8.99357        -0.02259        -7.62311
| 55>    C       -8.62394        -0.17485        -6.26172
| 56>    S       -7.81383         1.27971        -5.71520
| 57>    C       -8.85631        -1.28871        -5.49237
| 58>    C       -8.50960        -1.49179        -4.14649
| 59>    S       -8.91219        -3.04475        -3.41058
| 60>    C       -8.22460        -2.54846        -1.91048
| 61>    C       -7.71621        -1.24048        -1.99809
| 62>    C       -7.87277        -0.64973        -3.24328
| 63>    S       -7.00866        -0.68520        -0.50754
| 64>    C       -7.40144        -2.20950         0.23546
| 65>    C       -7.22633        -2.71214         1.51445
| 66>    C       -7.71926        -4.00275         1.64261
| 67>    S       -8.39309        -4.59567         0.12904
| 68>    C       -8.04315        -3.10152        -0.64473
| 69>    C       -7.67369        -4.86534         2.75595
| 70>    C       -7.46395        -4.55714         4.06935
| 71>    C       -7.52651        -3.31819         4.80992
| 72>    C       -8.33141        -2.24073         4.53563
| 73>    C       -8.42365        -1.09994         5.35736
| 74>    N       -8.51784        -0.14204         5.98304
| 75>    C       -9.22508        -2.18913         3.44783
| 76>    N       -9.99515        -2.11309         2.59977
| 77>    C       -6.79394        -3.51996         6.05659
| 78>    C       -6.49577        -4.89953         6.18908
| 79>    C       -6.98092        -5.61827         4.99273
| 80>    O       -6.94971        -6.80838         4.77818
| 81>    C       -5.83698        -5.40837         7.28152
| 82>    C       -5.44317        -4.51271         8.28205
| 83>    C       -5.73387        -3.13566         8.13257
| 84>    C       -6.40968        -2.62126         7.03243
| 85>    S       -5.14547        -2.20782         9.47807
| 86>    C       -4.52759        -3.66220        10.21548
| 87>    C       -4.74954        -4.78577         9.49294
| 88>   Br       -3.64885        -3.55931        11.86904
| 89>    H        0.56832        14.66435        -3.01588
| 90>    H        1.89859        14.66176         1.81448
| 91>    H        2.14340        16.98023        -3.18269
| 92>    H       -1.27849        10.19211         0.99583
| 93>    H       -2.57873         8.27686         0.44855
| 94>    H       -5.70117         5.38422        -4.30452
| 95>    H       -5.55053         7.43925        -7.67794
| 96>    H       -6.80393         6.01434        -9.35206
| 97>    H       -7.94350         3.71757        -9.59438
| 98>    H       -8.84689         1.45204        -9.19376
| 99>    H       -9.50677        -0.80754        -8.14996
|100>    H       -9.36414        -2.11023        -5.98078
|101>    H       -7.54090         0.34377        -3.47339
|102>    H       -6.72247        -2.18539         2.30398
|103>    H       -7.73632        -5.92751         2.54036
|104>    H       -5.63002        -6.46385         7.36299
|105>    H       -6.60455        -1.56412         6.95716
|106>    H       -4.43689        -5.76744         9.79878
|107> *
|108>
|109>                          ****END OF INPUT****

CARTESIAN COORDINATES (ANGSTROEM)
---------------------------------
  C      0.143900   12.506170    0.879120
  C      0.243820   12.171870    2.206520
  C      0.980650   12.911960    3.154530
  N      1.559640   13.468970    3.974840
  C     -0.366260   11.062780    2.827740
  N     -0.823370   10.184730    3.411080
  C      0.774490   13.666950    0.256210
  C      0.418500   13.697240   -1.114690
  C      0.858820   14.670890   -1.977050
  C      1.695770   15.666520   -1.461880
  C      2.047460   15.629690   -0.091930
  C      1.599640   14.644210    0.780010
  S      3.091720   16.950960    0.335320
  C      3.042370   17.526700   -1.309760
  C      2.283480   16.770440   -2.138020
  Br     3.998690   19.070230   -1.779050
  C     -0.454780   12.548060   -1.409970
  O     -0.949700   12.279370   -2.490910
  C     -0.595430   11.806980   -0.153190
  C     -1.289500   10.633410    0.006720
  C     -2.024150    9.877790   -0.916960
  S     -2.303730   10.263110   -2.612630
  C     -3.230980    8.822020   -2.795330
  C     -3.307800    8.082680   -1.596080
  C     -2.637990    8.675890   -0.547890
  S     -4.226790    6.606850   -1.754820
  C     -4.507740    6.977960   -3.433400
  C     -5.190070    6.317040   -4.443430
  C     -5.143420    7.011120   -5.647350
  S     -4.231530    8.513650   -5.494350
  C     -3.916480    8.190900   -3.831150
  C     -5.689280    6.696990   -6.902490
  C     -6.362500    5.557090   -7.268640
  C     -6.890790    5.293190   -8.558680
  C     -7.494040    4.078590   -8.686870
  C     -7.477730    3.307820   -7.504490
  S     -6.677520    4.187890   -6.221470
  C     -7.977200    2.038840   -7.282570
  C     -8.644530    1.172760   -8.175430
  C     -8.993570   -0.022590   -7.623110
  C     -8.623940   -0.174850   -6.261720
  S     -7.813830    1.279710   -5.715200
  C     -8.856310   -1.288710   -5.492370
  C     -8.509600   -1.491790   -4.146490
  S     -8.912190   -3.044750   -3.410580
  C     -8.224600   -2.548460   -1.910480
  C     -7.716210   -1.240480   -1.998090
  C     -7.872770   -0.649730   -3.243280
  S     -7.008660   -0.685200   -0.507540
  C     -7.401440   -2.209500    0.235460
  C     -7.226330   -2.712140    1.514450
  C     -7.719260   -4.002750    1.642610
  S     -8.393090   -4.595670    0.129040
  C     -8.043150   -3.101520   -0.644730
  C     -7.673690   -4.865340    2.755950
  C     -7.463950   -4.557140    4.069350
  C     -7.526510   -3.318190    4.809920
  C     -8.331410   -2.240730    4.535630
  C     -8.423650   -1.099940    5.357360
  N     -8.517840   -0.142040    5.983040
  C     -9.225080   -2.189130    3.447830
  N     -9.995150   -2.113090    2.599770
  C     -6.793940   -3.519960    6.056590
  C     -6.495770   -4.899530    6.189080
  C     -6.980920   -5.618270    4.992730
  O     -6.949710   -6.808380    4.778180
  C     -5.836980   -5.408370    7.281520
  C     -5.443170   -4.512710    8.282050
  C     -5.733870   -3.135660    8.132570
  C     -6.409680   -2.621260    7.032430
  S     -5.145470   -2.207820    9.478070
  C     -4.527590   -3.662200   10.215480
  C     -4.749540   -4.785770    9.492940
  Br    -3.648850   -3.559310   11.869040
  H      0.568320   14.664350   -3.015880
  H      1.898590   14.661760    1.814480
  H      2.143400   16.980230   -3.182690
  H     -1.278490   10.192110    0.995830
  H     -2.578730    8.276860    0.448550
  H     -5.701170    5.384220   -4.304520
  H     -5.550530    7.439250   -7.677940
  H     -6.803930    6.014340   -9.352060
  H     -7.943500    3.717570   -9.594380
  H     -8.846890    1.452040   -9.193760
  H     -9.506770   -0.807540   -8.149960
  H     -9.364140   -2.110230   -5.980780
  H     -7.540900    0.343770   -3.473390
  H     -6.722470   -2.185390    2.303980
  H     -7.736320   -5.927510    2.540360
  H     -5.630020   -6.463850    7.362990
  H     -6.604550   -1.564120    6.957160
  H     -4.436890   -5.767440    9.798780

 Total Charge           Charge          ....    0
 Multiplicity           Mult            ....    1
 Number of Electrons    NEL             ....  628
 Basis Dimension        Dim             .... 1202

ORBITAL ENERGIES
----------------

  NO   OCC          E(Eh)            E(eV)
   0   2.0000    -482.883789    -13139.9359
   1   2.0000    -482.883212    -13139.9202
   2   2.0000     -88.973215     -2421.0843
   3   2.0000     -88.973019     -2421.0789
   4   2.0000     -88.972059     -2421.0528
   5   2.0000     -88.969130     -2420.9731
   6   2.0000     -88.967730     -2420.9350
   7   2.0000     -88.966115     -2420.8911
   8   2.0000     -88.964515     -2420.8475
   9   2.0000     -88.963669     -2420.8245
  10   2.0000     -88.959784     -2420.7188
  11   2.0000     -88.959693     -2420.7163
  12   2.0000     -62.561495     -1702.3848
  13   2.0000     -62.560940     -1702.3697
  14   2.0000     -56.395444     -1534.5981
  15   2.0000     -56.394892     -1534.5830
  16   2.0000     -56.392732     -1534.5242
  17   2.0000     -56.392697     -1534.5233
  18   2.0000     -56.392174     -1534.5091
  19   2.0000     -56.392140     -1534.5081
  20   2.0000     -19.217521      -522.9353
  21   2.0000     -19.210807      -522.7526
  22   2.0000     -14.412946      -392.1962
  23   2.0000     -14.412437      -392.1824
  24   2.0000     -14.410807      -392.1380
  25   2.0000     -14.409609      -392.1054
  26   2.0000     -10.365554      -282.0611
  27   2.0000     -10.362338      -281.9735
  28   2.0000     -10.356524      -281.8153
  29   2.0000     -10.356297      -281.8092
  30   2.0000     -10.339392      -281.3492
  31   2.0000     -10.338646      -281.3288
  32   2.0000     -10.337618      -281.3009
  33   2.0000     -10.336068      -281.2587
  34   2.0000     -10.323944      -280.9288
  35   2.0000     -10.323436      -280.9150
  36   2.0000     -10.323375      -280.9133
  37   2.0000     -10.323093      -280.9057
  38   2.0000     -10.322706      -280.8951
  39   2.0000     -10.322292      -280.8838
  40   2.0000     -10.321884      -280.8727
  41   2.0000     -10.321372      -280.8588
  42   2.0000     -10.321127      -280.8521
  43   2.0000     -10.319050      -280.7956
  44   2.0000     -10.319037      -280.7953
  45   2.0000     -10.317576      -280.7555
  46   2.0000     -10.316237      -280.7191
  47   2.0000     -10.316167      -280.7172
  48   2.0000     -10.315667      -280.7036
  49   2.0000     -10.315634      -280.7027
  50   2.0000     -10.315536      -280.7000
  51   2.0000     -10.315366      -280.6954
  52   2.0000     -10.313755      -280.6516
  53   2.0000     -10.313301      -280.6392
  54   2.0000     -10.313163      -280.6354
  55   2.0000     -10.312894      -280.6281
  56   2.0000     -10.312103      -280.6066
  57   2.0000     -10.309452      -280.5345
  58   2.0000     -10.306130      -280.4441
  59   2.0000     -10.304915      -280.4110
  60   2.0000     -10.304898      -280.4105
  61   2.0000     -10.304782      -280.4074
  62   2.0000     -10.303361      -280.3687
  63   2.0000     -10.303211      -280.3646
  64   2.0000     -10.302256      -280.3386
  65   2.0000     -10.301575      -280.3201
  66   2.0000     -10.299375      -280.2602
  67   2.0000     -10.299089      -280.2524
  68   2.0000     -10.299002      -280.2501
  69   2.0000     -10.298864      -280.2463
  70   2.0000     -10.298642      -280.2403
  71   2.0000     -10.298314      -280.2314
  72   2.0000     -10.297719      -280.2152
  73   2.0000     -10.297487      -280.2089
  74   2.0000     -10.294576      -280.1297
  75   2.0000     -10.294356      -280.1237
  76   2.0000     -10.293052      -280.0882
  77   2.0000     -10.291458      -280.0448
  78   2.0000     -10.291274      -280.0398
  79   2.0000     -10.290672      -280.0234
  80   2.0000     -10.290085      -280.0074
  81   2.0000     -10.289284      -279.9856
  82   2.0000      -8.790915      -239.2130
  83   2.0000      -8.790378      -239.1983
  84   2.0000      -8.069220      -219.5746
  85   2.0000      -8.069094      -219.5712
  86   2.0000      -8.067202      -219.5197
  87   2.0000      -8.064326      -219.4415
  88   2.0000      -8.063032      -219.4063
  89   2.0000      -8.061419      -219.3624
  90   2.0000      -8.059018      -219.2970
  91   2.0000      -8.057510      -219.2560
  92   2.0000      -8.055781      -219.2089
  93   2.0000      -8.055704      -219.2069
  94   2.0000      -6.627218      -180.3358
  95   2.0000      -6.626697      -180.3216
  96   2.0000      -6.612645      -179.9392
  97   2.0000      -6.612454      -179.9340
  98   2.0000      -6.612099      -179.9243
  99   2.0000      -6.611908      -179.9192
 100   2.0000      -6.038899      -164.3268
 101   2.0000      -6.038780      -164.3236
 102   2.0000      -6.036702      -164.2670
 103   2.0000      -6.034644      -164.2110
 104   2.0000      -6.034500      -164.2071
 105   2.0000      -6.033883      -164.1903
 106   2.0000      -6.032667      -164.1572
 107   2.0000      -6.032559      -164.1543
 108   2.0000      -6.031128      -164.1153
 109   2.0000      -6.030442      -164.0967
 110   2.0000      -6.030297      -164.0927
 111   2.0000      -6.029913      -164.0823
 112   2.0000      -6.028828      -164.0527
 113   2.0000      -6.028788      -164.0517
 114   2.0000      -6.028569      -164.0457
 115   2.0000      -6.027335      -164.0121
 116   2.0000      -6.027306      -164.0113
 117   2.0000      -6.025784      -163.9699
 118   2.0000      -6.025529      -163.9630
 119   2.0000      -6.025461      -163.9611
 120   2.0000      -6.024967      -163.9477
 121   2.0000      -6.024515      -163.9354
 122   2.0000      -6.022666      -163.8851
 123   2.0000      -6.022343      -163.8763
 124   2.0000      -6.021388      -163.8503
 125   2.0000      -6.021328      -163.8487
 126   2.0000      -6.019820      -163.8076
 127   2.0000      -6.019076      -163.7874
 128   2.0000      -6.016776      -163.7248
 129   2.0000      -6.016706      -163.7229
 130   2.0000      -2.743080       -74.6430
 131   2.0000      -2.742525       -74.6279
 132   2.0000      -2.738996       -74.5319
 133   2.0000      -2.738863       -74.5283
 134   2.0000      -2.738485       -74.5180
 135   2.0000      -2.738340       -74.5140
 136   2.0000      -2.727287       -74.2133
 137   2.0000      -2.727263       -74.2126
 138   2.0000      -2.726734       -74.1982
 139   2.0000      -2.726716       -74.1977
 140   2.0000      -1.132990       -30.8302
 141   2.0000      -1.126192       -30.6452
 142   2.0000      -1.029089       -28.0029
 143   2.0000      -1.025118       -27.8949
 144   2.0000      -1.020235       -27.7620
 145   2.0000      -1.019863       -27.7519
 146   2.0000      -1.010257       -27.4905
 147   2.0000      -1.010157       -27.4878
 148   2.0000      -1.009091       -27.4587
 149   2.0000      -0.993387       -27.0314
 150   2.0000      -0.990394       -26.9500
 151   2.0000      -0.990156       -26.9435
 152   2.0000      -0.987734       -26.8776
 153   2.0000      -0.986590       -26.8465
 154   2.0000      -0.984771       -26.7970
 155   2.0000      -0.980996       -26.6943
 156   2.0000      -0.944189       -25.6927
 157   2.0000      -0.942742       -25.6533
 158   2.0000      -0.935337       -25.4518
 159   2.0000      -0.933377       -25.3985
 160   2.0000      -0.905651       -24.6440
 161   2.0000      -0.905595       -24.6425
 162   2.0000      -0.903899       -24.5963
 163   2.0000      -0.896769       -24.4023
 164   2.0000      -0.895338       -24.3634
 165   2.0000      -0.886094       -24.1118
 166   2.0000      -0.883385       -24.0381
 167   2.0000      -0.883019       -24.0282
 168   2.0000      -0.873361       -23.7654
 169   2.0000      -0.868108       -23.6224
 170   2.0000      -0.861464       -23.4416
 171   2.0000      -0.851609       -23.1735
 172   2.0000      -0.846967       -23.0472
 173   2.0000      -0.843771       -22.9602
 174   2.0000      -0.841614       -22.9015
 175   2.0000      -0.834159       -22.6986
 176   2.0000      -0.827015       -22.5042
 177   2.0000      -0.826627       -22.4937
 178   2.0000      -0.822004       -22.3679
 179   2.0000      -0.799804       -21.7638
 180   2.0000      -0.798055       -21.7162
 181   2.0000      -0.794781       -21.6271
 182   2.0000      -0.783043       -21.3077
 183   2.0000      -0.769654       -20.9434
 184   2.0000      -0.759670       -20.6717
 185   2.0000      -0.757238       -20.6055
 186   2.0000      -0.748288       -20.3619
 187   2.0000      -0.735109       -20.0033
 188   2.0000      -0.717536       -19.5252
 189   2.0000      -0.707100       -19.2412
 190   2.0000      -0.698044       -18.9948
 191   2.0000      -0.688931       -18.7468
 192   2.0000      -0.688427       -18.7330
 193   2.0000      -0.683544       -18.6002
 194   2.0000      -0.682882       -18.5822
 195   2.0000      -0.673015       -18.3137
 196   2.0000      -0.663283       -18.0488
 197   2.0000      -0.661778       -18.0079
 198   2.0000      -0.658845       -17.9281
 199   2.0000      -0.655684       -17.8421
 200   2.0000      -0.650703       -17.7065
 201   2.0000      -0.642995       -17.4968
 202   2.0000      -0.641154       -17.4467
 203   2.0000      -0.638515       -17.3749
 204   2.0000      -0.635545       -17.2941
 205   2.0000      -0.631959       -17.1965
 206   2.0000      -0.630012       -17.1435
 207   2.0000      -0.621186       -16.9033
 208   2.0000      -0.620193       -16.8763
 209   2.0000      -0.610165       -16.6034
 210   2.0000      -0.603897       -16.4329
 211   2.0000      -0.596900       -16.2425
 212   2.0000      -0.596087       -16.2204
 213   2.0000      -0.590893       -16.0790
 214   2.0000      -0.583112       -15.8673
 215   2.0000      -0.580999       -15.8098
 216   2.0000      -0.574644       -15.6368
 217   2.0000      -0.569107       -15.4862
 218   2.0000      -0.563739       -15.3401
 219   2.0000      -0.556495       -15.1430
 220   2.0000      -0.555079       -15.1045
 221   2.0000      -0.546801       -14.8792
 222   2.0000      -0.542544       -14.7634
 223   2.0000      -0.539258       -14.6740
 224   2.0000      -0.537943       -14.6382
 225   2.0000      -0.537051       -14.6139
 226   2.0000      -0.533110       -14.5067
 227   2.0000      -0.530979       -14.4487
 228   2.0000      -0.529702       -14.4139
 229   2.0000      -0.528622       -14.3845
 230   2.0000      -0.526026       -14.3139
 231   2.0000      -0.524696       -14.2777
 232   2.0000      -0.523554       -14.2466
 233   2.0000      -0.519226       -14.1289
 234   2.0000      -0.516863       -14.0646
 235   2.0000      -0.514942       -14.0123
 236   2.0000      -0.510688       -13.8965
 237   2.0000      -0.508727       -13.8432
 238   2.0000      -0.506457       -13.7814
 239   2.0000      -0.505507       -13.7555
 240   2.0000      -0.503982       -13.7140
 241   2.0000      -0.501781       -13.6541
 242   2.0000      -0.496060       -13.4985
 243   2.0000      -0.493326       -13.4241
 244   2.0000      -0.492982       -13.4147
 245   2.0000      -0.492769       -13.4089
 246   2.0000      -0.491595       -13.3770
 247   2.0000      -0.486952       -13.2506
 248   2.0000      -0.485556       -13.2127
 249   2.0000      -0.484633       -13.1875
 250   2.0000      -0.479412       -13.0455
 251   2.0000      -0.476625       -12.9696
 252   2.0000      -0.473519       -12.8851
 253   2.0000      -0.469505       -12.7759
 254   2.0000      -0.468663       -12.7530
 255   2.0000      -0.467339       -12.7169
 256   2.0000      -0.463463       -12.6115
 257   2.0000      -0.459005       -12.4902
 258   2.0000      -0.456798       -12.4301
 259   2.0000      -0.455365       -12.3911
 260   2.0000      -0.453341       -12.3360
 261   2.0000      -0.448975       -12.2172
 262   2.0000      -0.446155       -12.1405
 263   2.0000      -0.445774       -12.1301
 264   2.0000      -0.445677       -12.1275
 265   2.0000      -0.443955       -12.0806
 266   2.0000      -0.441231       -12.0065
 267   2.0000      -0.439868       -11.9694
 268   2.0000      -0.439670       -11.9640
 269   2.0000      -0.436988       -11.8910
 270   2.0000      -0.436462       -11.8767
 271   2.0000      -0.435723       -11.8566
 272   2.0000      -0.433312       -11.7910
 273   2.0000      -0.430066       -11.7027
 274   2.0000      -0.426063       -11.5938
 275   2.0000      -0.425513       -11.5788
 276   2.0000      -0.423841       -11.5333
 277   2.0000      -0.422878       -11.5071
 278   2.0000      -0.420791       -11.4503
 279   2.0000      -0.420016       -11.4292
 280   2.0000      -0.418240       -11.3809
 281   2.0000      -0.410320       -11.1654
 282   2.0000      -0.408141       -11.1061
 283   2.0000      -0.407143       -11.0789
 284   2.0000      -0.406731       -11.0677
 285   2.0000      -0.404687       -11.0121
 286   2.0000      -0.400738       -10.9046
 287   2.0000      -0.397163       -10.8073
 288   2.0000      -0.387146       -10.5348
 289   2.0000      -0.386608       -10.5201
 290   2.0000      -0.383952       -10.4479
 291   2.0000      -0.380057       -10.3419
 292   2.0000      -0.373206       -10.1555
 293   2.0000      -0.372742       -10.1428
 294   2.0000      -0.370311       -10.0767
 295   2.0000      -0.358495        -9.7551
 296   2.0000      -0.350483        -9.5371
 297   2.0000      -0.349628        -9.5139
 298   2.0000      -0.342740        -9.3264
 299   2.0000      -0.340940        -9.2775
 300   2.0000      -0.336393        -9.1537
 301   2.0000      -0.333636        -9.0787
 302   2.0000      -0.332422        -9.0457
 303   2.0000      -0.326620        -8.8878
 304   2.0000      -0.313598        -8.5334
 305   2.0000      -0.312834        -8.5126
 306   2.0000      -0.309371        -8.4184
 307   2.0000      -0.292838        -7.9685
 308   2.0000      -0.291944        -7.9442
 309   2.0000      -0.291008        -7.9187
 310   2.0000      -0.289690        -7.8829
 311   2.0000      -0.278054        -7.5662
 312   2.0000      -0.256712        -6.9855
 313   2.0000      -0.217400        -5.9158
 314   0.0000      -0.106935        -2.9099
 315   0.0000      -0.090487        -2.4623
 316   0.0000      -0.076799        -2.0898
 317   0.0000      -0.058743        -1.5985
 318   0.0000      -0.053905        -1.4668

MULLIKEN ATOMIC CHARGES
-----------------------
   0 C :    0.329704
   1 C :   -0.360685
   2 C :   -0.188233
   3 N :    0.148408
   4 C :   -0.187709
   5 N :    0.141406
   6 C :    0.010101
   7 C :   -0.009774
   8 C :   -0.073943
   9 C :    0.119219
  10 C :   -0.092708
  11 C :   -0.020521
  12 S :    0.185636
  13 C :   -0.122684
  14 C :    0.036983
  15 Br:    0.021510
  16 C :    0.163694
  17 O :   -0.182540
  18 C :   -0.096621
  19 C :   -0.024365
  20 C :   -0.055056
  21 S :    0.207431
  22 C :   -0.053354
  23 C :    0.005596
  24 C :   -0.052281
  25 S :    0.162770
  26 C :   -0.027875
  27 C :   -0.038495
  28 C :   -0.089623
  29 S :    0.154944
  30 C :   -0.083194
  31 C :    0.037475
  32 C :   -0.030006
  33 C :    0.036594
  34 C :    0.032784
  35 C :   -0.033751
  36 S :    0.056125
  37 C :   -0.029030
  38 C :    0.030622
  39 C :    0.036812
  40 C :   -0.030581
  41 S :    0.054739
  42 C :    0.041799
  43 C :   -0.092155
  44 S :    0.152457
  45 C :   -0.078809
  46 C :   -0.032825
  47 C :   -0.032663
  48 S :    0.170980
  49 C :   -0.040091
  50 C :    0.014754
  51 C :   -0.119549
  52 S :    0.176007
  53 C :   -0.054310
  54 C :    0.088560
  55 C :   -0.139149
  56 C :    0.260352
  57 C :   -0.343788
  58 C :   -0.177346
  59 N :    0.152965
  60 C :   -0.207300
  61 N :    0.177126
  62 C :    0.002190
  63 C :    0.005104
  64 C :    0.134828
  65 O :   -0.146367
  66 C :   -0.075619
  67 C :    0.115310
  68 C :   -0.087952
  69 C :   -0.025813
  70 S :    0.185581
  71 C :   -0.125098
  72 C :    0.039033
  73 Br:    0.022662
  74 H :   -0.011664
  75 H :   -0.007694
  76 H :   -0.003810
  77 H :    0.007708
  78 H :    0.009310
  79 H :    0.000414
  80 H :   -0.011545
  81 H :   -0.006675
  82 H :   -0.009904
  83 H :   -0.009502
  84 H :   -0.007008
  85 H :   -0.011945
  86 H :   -0.000149
  87 H :    0.005050
  88 H :    0.023219
  89 H :   -0.009099
  90 H :   -0.003760
  91 H :   -0.003347
Sum of atomic charges:   -0.0000000

LOEWDIN ATOMIC CHARGES
----------------------
   0 C :    0.077974
   1 C :   -0.147962
   2 C :   -0.018371
   3 N :   -0.058431
   4 C :   -0.020807
   5 N :   -0.057944
   6 C :   -0.019654
   7 C :   -0.049745
   8 C :    0.020849
   9 C :   -0.033784
  10 C :   -0.144458
  11 C :   -0.009828
  12 S :    0.432520
  13 C :   -0.272419
  14 C :   -0.070662
  15 Br:    0.135262
  16 C :    0.084407
  17 O :   -0.169366
  18 C :   -0.116699
  19 C :    0.055570
  20 C :   -0.180119
  21 S :    0.492227
  22 C :   -0.199877
  23 C :   -0.196798
  24 C :   -0.021469
  25 S :    0.404265
  26 C :   -0.170892
  27 C :   -0.081861
  28 C :   -0.148181
  29 S :    0.430551
  30 C :   -0.224918
  31 C :   -0.076991
  32 C :   -0.140483
  33 C :   -0.027791
  34 C :   -0.032884
  35 C :   -0.175506
  36 S :    0.389074
  37 C :   -0.173831
  38 C :   -0.034332
  39 C :   -0.026383
  40 C :   -0.141980
  41 S :    0.389805
  42 C :   -0.074267
  43 C :   -0.150655
  44 S :    0.428324
  45 C :   -0.220856
  46 C :   -0.173775
  47 C :   -0.079031
  48 S :    0.415721
  49 C :   -0.188030
  50 C :   -0.021596
  51 C :   -0.179259
  52 S :    0.449999
  53 C :   -0.193574
  54 C :    0.048437
  55 C :   -0.100054
  56 C :    0.064877
  57 C :   -0.146375
  58 C :   -0.021641
  59 N :   -0.054733
  60 C :   -0.020595
  61 N :   -0.042297
  62 C :   -0.018199
  63 C :   -0.052429
  64 C :    0.082483
  65 O :   -0.146391
  66 C :    0.021939
  67 C :   -0.034014
  68 C :   -0.143709
  69 C :   -0.013540
  70 S :    0.432110
  71 C :   -0.272510
  72 C :   -0.069998
  73 Br:    0.136035
  74 H :    0.040470
  75 H :    0.040956
  76 H :    0.038516
  77 H :    0.050819
  78 H :    0.042478
  79 H :    0.020616
  80 H :    0.035434
  81 H :    0.035609
  82 H :    0.033871
  83 H :    0.033908
  84 H :    0.035650
  85 H :    0.035550
  86 H :    0.020212
  87 H :    0.038503
  88 H :    0.046232
  89 H :    0.041317
  90 H :    0.040662
  91 H :    0.038723

  Mayer bond orders larger than 0.100000
B(  0-C ,  1-C ) :   1.6106 B(  0-C ,  6-C ) :   0.9947 B(  0-C , 18-C ) :   1.0906
B(  1-C ,  2-C ) :   1.1472 B(  1-C ,  4-C ) :   1.1476 B(  2-C ,  3-N ) :   2.9668
B(  4-C ,  5-N ) :   2.9554 B(  6-C ,  7-C ) :   1.2748 B(  6-C , 11-C ) :   1.4167
B(  7-C ,  8-C ) :   1.4231 B(  7-C , 16-C ) :   0.9578 B(  8-C ,  9-C ) :   1.2422
B(  8-C , 74-H ) :   1.0170 B(  9-C , 10-C ) :   1.3085 B(  9-C , 14-C ) :   1.1624
B( 10-C , 11-C ) :   1.3260 B( 10-C , 12-S ) :   1.0864 B( 11-C , 75-H ) :   0.9791
B( 12-S , 13-C ) :   1.0868 B( 13-C , 14-C ) :   1.6177 B( 13-C , 15-Br) :   1.0174
B( 14-C , 76-H ) :   1.0005 B( 16-C , 17-O ) :   2.1268 B( 16-C , 18-C ) :   0.9823
B( 18-C , 19-C ) :   1.4705 B( 19-C , 20-C ) :   1.2900 B( 19-C , 77-H ) :   0.9382
B( 20-C , 21-S ) :   1.0653 B( 20-C , 24-C ) :   1.3547 B( 21-S , 22-C ) :   1.0585
B( 22-C , 23-C ) :   1.3697 B( 22-C , 30-C ) :   1.3363 B( 23-C , 24-C ) :   1.3417
B( 23-C , 25-S ) :   1.0285 B( 24-C , 78-H ) :   1.0122 B( 25-S , 26-C ) :   1.0545
B( 26-C , 27-C ) :   1.3215 B( 26-C , 30-C ) :   1.4271 B( 27-C , 28-C ) :   1.4507
B( 27-C , 79-H ) :   0.9763 B( 28-C , 29-S ) :   1.0883 B( 28-C , 31-C ) :   1.1845
B( 29-S , 30-C ) :   1.0658 B( 31-C , 32-C ) :   1.5892 B( 31-C , 80-H ) :   0.9509
B( 32-C , 33-C ) :   1.1510 B( 32-C , 36-S ) :   1.0446 B( 33-C , 34-C ) :   1.5851
B( 33-C , 81-H ) :   0.9988 B( 34-C , 35-C ) :   1.1923 B( 34-C , 82-H ) :   0.9932
B( 35-C , 36-S ) :   1.0422 B( 35-C , 37-C ) :   1.5009 B( 37-C , 38-C ) :   1.1909
B( 37-C , 41-S ) :   1.0436 B( 38-C , 39-C ) :   1.5851 B( 38-C , 83-H ) :   0.9937
B( 39-C , 40-C ) :   1.1523 B( 39-C , 84-H ) :   0.9985 B( 40-C , 41-S ) :   1.0432
B( 40-C , 42-C ) :   1.5899 B( 42-C , 43-C ) :   1.1840 B( 42-C , 85-H ) :   0.9514
B( 43-C , 44-S ) :   1.0844 B( 43-C , 47-C ) :   1.4565 B( 44-S , 45-C ) :   1.0669
B( 45-C , 46-C ) :   1.4352 B( 45-C , 53-C ) :   1.3314 B( 46-C , 47-C ) :   1.3196
B( 46-C , 48-S ) :   1.0577 B( 47-C , 86-H ) :   0.9750 B( 48-S , 49-C ) :   1.0416
B( 49-C , 50-C ) :   1.3574 B( 49-C , 53-C ) :   1.4135 B( 50-C , 51-C ) :   1.4340
B( 50-C , 87-H ) :   0.9872 B( 51-C , 52-S ) :   1.0735 B( 51-C , 54-C ) :   1.1598
B( 52-S , 53-C ) :   1.0976 B( 54-C , 55-C ) :   1.6386 B( 54-C , 88-H ) :   0.9308
B( 55-C , 56-C ) :   1.0523 B( 55-C , 64-C ) :   0.9478 B( 56-C , 57-C ) :   1.6371
B( 56-C , 62-C ) :   1.0110 B( 57-C , 58-C ) :   1.1292 B( 57-C , 60-C ) :   1.1662
B( 58-C , 59-N ) :   2.9891 B( 60-C , 61-N ) :   3.0103 B( 62-C , 63-C ) :   1.2755
B( 62-C , 69-C ) :   1.4150 B( 63-C , 64-C ) :   0.9178 B( 63-C , 66-C ) :   1.4266
B( 64-C , 65-O ) :   2.2650 B( 66-C , 67-C ) :   1.2481 B( 66-C , 89-H ) :   1.0169
B( 67-C , 68-C ) :   1.3090 B( 67-C , 72-C ) :   1.1627 B( 68-C , 69-C ) :   1.3246
B( 68-C , 70-S ) :   1.0843 B( 69-C , 90-H ) :   0.9846 B( 70-S , 71-C ) :   1.0870
B( 71-C , 72-C ) :   1.6197 B( 71-C , 73-Br) :   1.0180 B( 72-C , 91-H ) :   1.0005

-----------------------------------------------------------------------------
         ABSORPTION SPECTRUM VIA TRANSITION ELECTRIC DIPOLE MOMENTS
-----------------------------------------------------------------------------
State   Energy  Wavelength   fosc         T2         TX        TY        TZ
        (cm-1)    (nm)                  (au**2)     (au)      (au)      (au)
-----------------------------------------------------------------------------
   0   11252.7    888.7   1.521105575  44.50203  -2.64900  -5.95843   1.40783
   1   16357.0    611.4   1.130955682  22.76239  -1.77490  -1.38099  -4.20773
   2   19435.4    514.5   0.188495417   3.19289   0.45838   1.19961   1.24247
   3   19876.0    503.1   0.927079227  15.35550  -1.49162  -0.43399  -3.59753
   4   23181.8    431.4   0.065140465   0.92508   0.88427   0.30787   0.21990
   5   23581.4    424.1   0.172132085   2.40308   0.64426   0.08175   1.40759
   6   24663.2    405.5   0.138850289   1.85342  -0.07279   0.40203  -1.29865
   7   25432.5    393.2   0.025133752   0.32535  -0.07434  -0.05859   0.56248
   8   25810.2    387.4   0.110386913   1.40800   0.46098   1.07877   0.17816
   9   26203.3    381.6   0.012658690   0.15904   0.17797   0.34953   0.07207
  10   26663.8    375.0   0.047288471   0.58386   0.11210   0.75574   0.01254
  11   27265.7    366.8   0.387400820   4.67756   1.34168  -0.12274   1.69186
  12   27826.9    359.4   0.235489147   2.78600   0.50028   1.28208  -0.94445
  13   28327.2    353.0   0.124490321   1.44680  -0.07019   0.44440  -1.11552
  14   29564.7    338.2   0.028206595   0.31409  -0.11582  -0.17114  -0.52095
  15   29591.6    337.9   0.009238460   0.10278   0.07097   0.23570   0.20540
  16   29712.5    336.6   0.026229383   0.29062  -0.02195  -0.38866   0.37293
  17   29840.4    335.1   0.021606352   0.23837   0.21870  -0.07763   0.42955
  18   30231.2    330.8   0.155823259   1.69688   0.54826   1.14917  -0.27515
  19   30496.0    327.9   0.010305006   0.11125  -0.02507   0.23682  -0.23352
  20   30701.6    325.7   0.072679956   0.77934   0.17140  -0.45507   0.73680
  21   30742.4    325.3   0.010886379   0.11658   0.00944   0.33861   0.04284
  22   31682.9    315.6   0.042920388   0.44598  -0.55435  -0.36770   0.05885
  23   31868.0    313.8   0.050177866   0.51836  -0.28410   0.01714  -0.66133
  24   32940.9    303.6   0.594214472   5.93858   0.42659  -1.41350   1.93872
  25   33066.1    302.4   0.066050549   0.65761  -0.74943  -0.30397   0.05973
  26   33072.9    302.4   0.101793706   1.01327   0.45223   0.63048  -0.64129
  27   33313.6    300.2   0.000745252   0.00736  -0.06699  -0.04639  -0.02693
  28   33373.5    299.6   0.076438361   0.75402  -0.82121  -0.26750   0.08991
  29   33578.9    297.8   0.088062755   0.86338   0.77700   0.46298   0.21282
  30   33787.4    296.0   0.317205041   3.09073   0.45668  -0.82175   1.48557
  31   34073.7    293.5   0.000489730   0.00473  -0.01729   0.03569   0.05620
  32   34721.5    288.0   0.100768523   0.95544   0.18145  -0.69732   0.66049
  33   34902.6    286.5   0.016037320   0.15127  -0.26317  -0.23789  -0.15944
  34   35106.4    284.8   0.026213957   0.24582  -0.37571  -0.16395  -0.27889
  35   35549.3    281.3   0.004847294   0.04489   0.03185  -0.11466  -0.17530
  36   35787.6    279.4   0.045809867   0.42141  -0.20081  -0.39225  -0.47668
  37   35837.5    279.0   0.016522280   0.15178  -0.37901  -0.08514  -0.02967
  38   35918.1    278.4   0.005662453   0.05190   0.07702  -0.18490  -0.10853
  39   36290.6    275.6   0.069134712   0.62716   0.23474   0.59961  -0.46101
  40   36601.4    273.2   0.025519126   0.22953   0.05657   0.25817  -0.39960
  41   36761.8    272.0   0.054222090   0.48557   0.19934  -0.10535   0.65935
  42   37050.2    269.9   0.032138679   0.28557  -0.07342   0.22821  -0.47760
  43   37512.8    266.6   0.003776204   0.03314   0.08716   0.09127   0.13120
  44   37742.0    265.0   0.015733615   0.13724  -0.06291   0.35682   0.07723
  45   37817.6    264.4   0.011757715   0.10235  -0.20822   0.20437  -0.13127
  46   38087.3    262.6   0.075465918   0.65230   0.19592  -0.77844   0.08914
  47   38505.9    259.7   0.094596540   0.80877   0.29656   0.04549   0.84779
  48   38846.9    257.4   0.078168491   0.66245   0.55129   0.39645   0.44872
  49   39275.4    254.6   0.039815581   0.33374  -0.14033  -0.32939   0.45338
  50   39389.0    253.9   0.040398199   0.33765   0.07548   0.48678   0.30821
  51   39412.9    253.7   0.068367903   0.57107   0.16554  -0.62818   0.38608
  52   39657.7    252.2   0.039173512   0.32519  -0.37185  -0.14321  -0.40793
  53   40158.9    249.0   0.048070062   0.39407   0.30230   0.43293   0.33949

FINAL SINGLE POINT ENERGY    -11639.582527300967

DIPOLE MOMENT
-------------
                                X             Y             Z
Electronic contribution:     96.03971      75.28060     117.69334
Nuclear contribution   :    -95.89561     -76.10159    -122.27124
                        -----------------------------------------
Total Dipole Moment    :      0.14410      -0.82098      -4.57790
                        -----------------------------------------
Magnitude (a.u.)       :      4.65317
Magnitude (Debye)      :     11.82742

Rotational constants in cm-1:     0.000478     0.000167     0.000125
Rotational constants in MHz :    14.330124     5.018871     3.755652

                             ****ORCA TERMINATED NORMALLY****
TOTAL RUN TIME: 0 days 0 hours 10 minutes 11 seconds 520 msec
