                         Program Version 4.2.0 -  RELEASE  -
|  1> # ORCA input file
|  2> # SCF done       -181.881546019088          0.000723968695
|  3> ! CAM-B3LYP def2-SVP def2/J RIJCOSX Grid4 TightSCF
|  4> %maxcore 5000
|  5> %tddft
|  6>     Mode sTDDFT
|  7>     Ethresh 5.0
|  8>     maxcore 5000
|  9> end
| 10>
| 11> %pal
| 12>   nprocs 6
| 13>   end
| 14> * xyz 0 1
| 15>    C       -0.62661         3.67214         2.21818
| 16>    C       -0.35878         3.67507         3.56308
| 17>    C        0.90490         3.39587         4.12113
| 18>    N        1.91105         3.17766         4.62902
| 19>    C       -1.31558         3.96681         4.55614
| 20>    N       -2.06335         4.20105         5.39516
| 21>    C        0.33541         3.38823         1.15524
| 22>    C       -0.31558         3.51192        -0.10003
| 23>    C        0.33180         3.30195        -1.29359
| 24>    C        1.68516         2.95036        -1.24904
| 25>    C        2.32543         2.82800         0.00669
| 26>    C        1.67083         3.04279         1.21477
| 27>    S        3.99453         2.38219        -0.16748
| 28>    C        3.81365         2.36593        -1.90155
| 29>    C        2.56734         2.67864        -2.33009
| 30>   Br        5.28528         1.93793        -2.98256
| 31>    C       -1.71863         3.87372         0.13073
| 32>    O       -2.58894         4.07013        -0.71781
| 33>    C       -1.88999         3.95415         1.58026
| 34>    C       -3.11232         4.24448         2.14521
| 35>    N       -4.16695         4.46977         1.35943
| 36>    C       -5.44237         4.74561         1.73299
| 37>    S       -5.90381         4.83836         3.40522
| 38>    C       -7.52585         5.18257         2.90791
| 39>    N       -8.49373         5.38786         3.90121
| 40>    O       -9.62971         5.62827         3.53663
| 41>    O       -8.12194         5.30806         5.05779
| 42>    C       -7.69355         5.22198         1.54974
| 43>    C       -6.50045         4.97275         0.84208
| 44>    C       -6.35495         4.96050        -0.58596
| 45>    C       -7.36873         5.14271        -1.45581
| 46>    N       -7.19351         5.19263        -2.80176
| 47>    C       -8.21606         5.25184        -3.73852
| 48>    C       -9.49523         4.81753        -3.54695
| 49>    S      -10.48216         5.07054        -4.92769
| 50>    C       -9.17402         5.76440        -5.79287
| 51>    C       -8.02732         5.81378        -5.04930
| 52>    N       -6.81778         6.34672        -5.44217
| 53>    C       -6.55923         6.96753        -6.62055
| 54>    C       -5.35172         7.51712        -6.89503
| 55>    C       -4.98266         8.21475        -8.07767
| 56>    C       -5.82375         8.50767        -9.17785
| 57>    C       -5.35598         9.25782       -10.32164
| 58>    N       -6.19011         9.51965       -11.33108
| 59>    C       -7.43414         9.09268       -11.28352
| 60>    C       -7.89746         8.34894       -10.15666
| 61>    N       -7.09681         8.08123        -9.15154
| 62>    C       -9.23016         7.87530       -10.08581
| 63>    N      -10.30532         7.48405       -10.01491
| 64>    C       -8.30686         9.38074       -12.35814
| 65>    N       -9.04290         9.59571       -13.21055
| 66>    C       -4.01687         9.74975       -10.42828
| 67>    C       -3.17903         9.43883        -9.32814
| 68>    C       -3.65561         8.69542        -8.18889
| 69>    N       -2.70044         8.52261        -7.27417
| 70>    S       -1.34304         9.21802        -7.78723
| 71>    N       -1.90190         9.77207        -9.19339
| 72>    C       -3.66126        10.47931       -11.57133
| 73>    C       -2.48489        11.08278       -11.95958
| 74>    C       -2.37361        11.79067       -13.18584
| 75>    C       -1.14993        12.33509       -13.42270
| 76>    C       -0.22107        12.08293       -12.38855
| 77>    S       -0.95728        11.13257       -11.11149
| 78>    C        1.09476        12.49153       -12.31645
| 79>    C        1.81546        13.26428       -13.26717
| 80>    C        3.09965        13.51496       -12.92387
| 81>    C        3.49377        12.95317       -11.66475
| 82>    S        2.11785        12.08972       -10.95735
| 83>    C        4.69195        13.03399       -11.06821
| 84>    H       -0.18761         3.40295        -2.23361
| 85>    H        2.20238         2.93618         2.14546
| 86>    H        2.28107         2.71558        -3.36526
| 87>    H       -3.26352         4.29507         3.21541
| 88>    H       -3.94692         4.40164         0.34913
| 89>    H       -8.64872         5.43020         1.10550
| 90>    H       -5.36168         4.80247        -0.98342
| 91>    H       -8.38418         5.29544        -1.12773
| 92>    H       -6.24949         5.07223        -3.14258
| 93>    H       -9.91171         4.35176        -2.67765
| 94>    H       -9.33824         6.10819        -6.79312
| 95>    H       -6.07746         6.36632        -4.75288
| 96>    H       -7.36353         7.00439        -7.33435
| 97>    H       -4.55895         7.44658        -6.16014
| 98>    H       -4.47757        10.58841       -12.27662
| 99>    H       -3.21286        11.87337       -13.85416
|100>    H       -0.89948        12.90163       -14.30158
|101>    H        1.35239        13.60822       -14.17483
|102>    H        3.79664        14.08174       -13.51498
|103>    H        5.50149        13.56884       -11.53256
|104>    H        4.88216        12.57227       -10.11682
|105> *
|106>
|107>                          ****END OF INPUT****

CARTESIAN COORDINATES (ANGSTROEM)
---------------------------------
  C     -0.626610    3.672140    2.218180
  C     -0.358780    3.675070    3.563080
  C      0.904900    3.395870    4.121130
  N      1.911050    3.177660    4.629020
  C     -1.315580    3.966810    4.556140
  N     -2.063350    4.201050    5.395160
  C      0.335410    3.388230    1.155240
  C     -0.315580    3.511920   -0.100030
  C      0.331800    3.301950   -1.293590
  C      1.685160    2.950360   -1.249040
  C      2.325430    2.828000    0.006690
  C      1.670830    3.042790    1.214770
  S      3.994530    2.382190   -0.167480
  C      3.813650    2.365930   -1.901550
  C      2.567340    2.678640   -2.330090
  Br     5.285280    1.937930   -2.982560
  C     -1.718630    3.873720    0.130730
  O     -2.588940    4.070130   -0.717810
  C     -1.889990    3.954150    1.580260
  C     -3.112320    4.244480    2.145210
  N     -4.166950    4.469770    1.359430
  C     -5.442370    4.745610    1.732990
  S     -5.903810    4.838360    3.405220
  C     -7.525850    5.182570    2.907910
  N     -8.493730    5.387860    3.901210
  O     -9.629710    5.628270    3.536630
  O     -8.121940    5.308060    5.057790
  C     -7.693550    5.221980    1.549740
  C     -6.500450    4.972750    0.842080
  C     -6.354950    4.960500   -0.585960
  C     -7.368730    5.142710   -1.455810
  N     -7.193510    5.192630   -2.801760
  C     -8.216060    5.251840   -3.738520
  C     -9.495230    4.817530   -3.546950
  S    -10.482160    5.070540   -4.927690
  C     -9.174020    5.764400   -5.792870
  C     -8.027320    5.813780   -5.049300
  N     -6.817780    6.346720   -5.442170
  C     -6.559230    6.967530   -6.620550
  C     -5.351720    7.517120   -6.895030
  C     -4.982660    8.214750   -8.077670
  C     -5.823750    8.507670   -9.177850
  C     -5.355980    9.257820  -10.321640
  N     -6.190110    9.519650  -11.331080
  C     -7.434140    9.092680  -11.283520
  C     -7.897460    8.348940  -10.156660
  N     -7.096810    8.081230   -9.151540
  C     -9.230160    7.875300  -10.085810
  N    -10.305320    7.484050  -10.014910
  C     -8.306860    9.380740  -12.358140
  N     -9.042900    9.595710  -13.210550
  C     -4.016870    9.749750  -10.428280
  C     -3.179030    9.438830   -9.328140
  C     -3.655610    8.695420   -8.188890
  N     -2.700440    8.522610   -7.274170
  S     -1.343040    9.218020   -7.787230
  N     -1.901900    9.772070   -9.193390
  C     -3.661260   10.479310  -11.571330
  C     -2.484890   11.082780  -11.959580
  C     -2.373610   11.790670  -13.185840
  C     -1.149930   12.335090  -13.422700
  C     -0.221070   12.082930  -12.388550
  S     -0.957280   11.132570  -11.111490
  C      1.094760   12.491530  -12.316450
  C      1.815460   13.264280  -13.267170
  C      3.099650   13.514960  -12.923870
  C      3.493770   12.953170  -11.664750
  S      2.117850   12.089720  -10.957350
  C      4.691950   13.033990  -11.068210
  H     -0.187610    3.402950   -2.233610
  H      2.202380    2.936180    2.145460
  H      2.281070    2.715580   -3.365260
  H     -3.263520    4.295070    3.215410
  H     -3.946920    4.401640    0.349130
  H     -8.648720    5.430200    1.105500
  H     -5.361680    4.802470   -0.983420
  H     -8.384180    5.295440   -1.127730
  H     -6.249490    5.072230   -3.142580
  H     -9.911710    4.351760   -2.677650
  H     -9.338240    6.108190   -6.793120
  H     -6.077460    6.366320   -4.752880
  H     -7.363530    7.004390   -7.334350
  H     -4.558950    7.446580   -6.160140
  H     -4.477570   10.588410  -12.276620
  H     -3.212860   11.873370  -13.854160
  H     -0.899480   12.901630  -14.301580
  H      1.352390   13.608220  -14.174830
  H      3.796640   14.081740  -13.514980
  H      5.501490   13.568840  -11.532560
  H      4.882160   12.572270  -10.116820

 Total Charge           Charge          ....    0
 Multiplicity           Mult            ....    1
 Number of Electrons    NEL             ....  542
 Basis Dimension        Dim             .... 1113

ORBITAL ENERGIES
----------------

  NO   OCC          E(Eh)            E(eV)
   0   2.0000    -482.891460    -13140.1447
   1   2.0000     -89.036840     -2422.8156
   2   2.0000     -88.988367     -2421.4966
   3   2.0000     -88.982563     -2421.3386
   4   2.0000     -88.959020     -2420.6980
   5   2.0000     -88.950530     -2420.4670
   6   2.0000     -88.949953     -2420.4513
   7   2.0000     -62.569184     -1702.5941
   8   2.0000     -56.403142     -1534.8075
   9   2.0000     -56.400412     -1534.7332
  10   2.0000     -56.400380     -1534.7324
  11   2.0000     -19.239919      -523.5448
  12   2.0000     -19.238986      -523.5194
  13   2.0000     -19.237127      -523.4688
  14   2.0000     -14.651229      -398.6802
  15   2.0000     -14.497871      -394.5071
  16   2.0000     -14.468410      -393.7054
  17   2.0000     -14.468246      -393.7010
  18   2.0000     -14.453932      -393.3115
  19   2.0000     -14.453798      -393.3078
  20   2.0000     -14.450112      -393.2075
  21   2.0000     -14.446380      -393.1060
  22   2.0000     -14.427262      -392.5857
  23   2.0000     -14.421499      -392.4289
  24   2.0000     -14.420989      -392.4150
  25   2.0000     -14.417455      -392.3189
  26   2.0000     -10.383558      -282.5510
  27   2.0000     -10.373029      -282.2645
  28   2.0000     -10.371888      -282.2334
  29   2.0000     -10.368672      -282.1459
  30   2.0000     -10.365889      -282.0702
  31   2.0000     -10.365238      -282.0525
  32   2.0000     -10.349033      -281.6115
  33   2.0000     -10.348487      -281.5967
  34   2.0000     -10.344525      -281.4888
  35   2.0000     -10.338523      -281.3255
  36   2.0000     -10.338285      -281.3190
  37   2.0000     -10.336878      -281.2808
  38   2.0000     -10.335797      -281.2513
  39   2.0000     -10.333571      -281.1908
  40   2.0000     -10.332591      -281.1641
  41   2.0000     -10.330036      -281.0946
  42   2.0000     -10.329194      -281.0717
  43   2.0000     -10.323968      -280.9294
  44   2.0000     -10.323137      -280.9068
  45   2.0000     -10.323035      -280.9041
  46   2.0000     -10.321556      -280.8638
  47   2.0000     -10.320768      -280.8424
  48   2.0000     -10.318826      -280.7895
  49   2.0000     -10.317706      -280.7591
  50   2.0000     -10.315696      -280.7044
  51   2.0000     -10.315515      -280.6994
  52   2.0000     -10.314620      -280.6751
  53   2.0000     -10.312495      -280.6173
  54   2.0000     -10.311293      -280.5845
  55   2.0000     -10.310905      -280.5740
  56   2.0000     -10.310523      -280.5636
  57   2.0000     -10.307190      -280.4729
  58   2.0000     -10.306437      -280.4524
  59   2.0000     -10.303600      -280.3752
  60   2.0000     -10.303586      -280.3748
  61   2.0000     -10.302526      -280.3460
  62   2.0000     -10.300575      -280.2929
  63   2.0000     -10.299265      -280.2572
  64   2.0000     -10.297356      -280.2053
  65   2.0000     -10.296601      -280.1848
  66   2.0000     -10.293003      -280.0868
  67   2.0000     -10.292818      -280.0818
  68   2.0000     -10.287894      -279.9478
  69   2.0000     -10.284754      -279.8624
  70   2.0000     -10.284136      -279.8456
  71   2.0000     -10.283888      -279.8388
  72   2.0000     -10.271716      -279.5076
  73   2.0000      -8.798626      -239.4228
  74   2.0000      -8.128141      -221.1780
  75   2.0000      -8.083566      -219.9650
  76   2.0000      -8.078533      -219.8280
  77   2.0000      -8.054882      -219.1845
  78   2.0000      -8.047255      -218.9769
  79   2.0000      -8.044463      -218.9010
  80   2.0000      -6.634970      -180.5467
  81   2.0000      -6.620337      -180.1485
  82   2.0000      -6.620134      -180.1430
  83   2.0000      -6.099351      -165.9718
  84   2.0000      -6.091719      -165.7641
  85   2.0000      -6.090539      -165.7320
  86   2.0000      -6.053211      -164.7162
  87   2.0000      -6.048918      -164.5994
  88   2.0000      -6.048221      -164.5805
  89   2.0000      -6.044993      -164.4926
  90   2.0000      -6.043905      -164.4630
  91   2.0000      -6.039795      -164.3512
  92   2.0000      -6.024355      -163.9310
  93   2.0000      -6.019997      -163.8125
  94   2.0000      -6.017026      -163.7316
  95   2.0000      -6.016833      -163.7263
  96   2.0000      -6.014285      -163.6570
  97   2.0000      -6.013056      -163.6236
  98   2.0000      -6.009915      -163.5381
  99   2.0000      -6.007917      -163.4837
 100   2.0000      -6.005519      -163.4185
 101   2.0000      -2.750811       -74.8534
 102   2.0000      -2.746727       -74.7422
 103   2.0000      -2.746590       -74.7385
 104   2.0000      -2.734959       -74.4220
 105   2.0000      -2.734941       -74.4215
 106   2.0000      -1.321077       -35.9483
 107   2.0000      -1.150641       -31.3105
 108   2.0000      -1.140157       -31.0252
 109   2.0000      -1.135429       -30.8966
 110   2.0000      -1.111041       -30.2330
 111   2.0000      -1.104462       -30.0539
 112   2.0000      -1.082609       -29.4593
 113   2.0000      -1.056320       -28.7439
 114   2.0000      -1.038171       -28.2501
 115   2.0000      -1.029829       -28.0231
 116   2.0000      -1.018838       -27.7240
 117   2.0000      -1.010451       -27.4958
 118   2.0000      -1.008394       -27.4398
 119   2.0000      -1.001431       -27.2503
 120   2.0000      -0.999110       -27.1872
 121   2.0000      -0.997854       -27.1530
 122   2.0000      -0.995638       -27.0927
 123   2.0000      -0.991335       -26.9756
 124   2.0000      -0.978155       -26.6169
 125   2.0000      -0.976594       -26.5745
 126   2.0000      -0.966795       -26.3078
 127   2.0000      -0.948459       -25.8089
 128   2.0000      -0.921618       -25.0785
 129   2.0000      -0.915356       -24.9081
 130   2.0000      -0.907229       -24.6869
 131   2.0000      -0.901271       -24.5248
 132   2.0000      -0.900655       -24.5081
 133   2.0000      -0.893141       -24.3036
 134   2.0000      -0.887679       -24.1550
 135   2.0000      -0.883117       -24.0308
 136   2.0000      -0.868378       -23.6298
 137   2.0000      -0.854922       -23.2636
 138   2.0000      -0.853820       -23.2336
 139   2.0000      -0.851832       -23.1795
 140   2.0000      -0.841535       -22.8993
 141   2.0000      -0.836833       -22.7714
 142   2.0000      -0.829245       -22.5649
 143   2.0000      -0.823410       -22.4061
 144   2.0000      -0.810743       -22.0614
 145   2.0000      -0.807490       -21.9729
 146   2.0000      -0.797887       -21.7116
 147   2.0000      -0.796893       -21.6846
 148   2.0000      -0.777733       -21.1632
 149   2.0000      -0.769297       -20.9336
 150   2.0000      -0.760576       -20.6963
 151   2.0000      -0.749645       -20.3989
 152   2.0000      -0.739381       -20.1196
 153   2.0000      -0.729335       -19.8462
 154   2.0000      -0.725989       -19.7552
 155   2.0000      -0.717126       -19.5140
 156   2.0000      -0.704998       -19.1840
 157   2.0000      -0.696947       -18.9649
 158   2.0000      -0.696381       -18.9495
 159   2.0000      -0.695413       -18.9232
 160   2.0000      -0.687663       -18.7123
 161   2.0000      -0.685145       -18.6437
 162   2.0000      -0.680297       -18.5118
 163   2.0000      -0.670257       -18.2386
 164   2.0000      -0.663206       -18.0468
 165   2.0000      -0.660745       -17.9798
 166   2.0000      -0.650566       -17.7028
 167   2.0000      -0.650309       -17.6958
 168   2.0000      -0.644789       -17.5456
 169   2.0000      -0.637383       -17.3441
 170   2.0000      -0.636986       -17.3333
 171   2.0000      -0.632565       -17.2130
 172   2.0000      -0.627668       -17.0797
 173   2.0000      -0.624924       -17.0051
 174   2.0000      -0.622641       -16.9429
 175   2.0000      -0.618679       -16.8351
 176   2.0000      -0.613882       -16.7046
 177   2.0000      -0.608885       -16.5686
 178   2.0000      -0.607478       -16.5303
 179   2.0000      -0.600332       -16.3359
 180   2.0000      -0.598082       -16.2746
 181   2.0000      -0.593658       -16.1543
 182   2.0000      -0.583970       -15.8906
 183   2.0000      -0.575022       -15.6471
 184   2.0000      -0.571208       -15.5434
 185   2.0000      -0.570856       -15.5338
 186   2.0000      -0.563694       -15.3389
 187   2.0000      -0.561838       -15.2884
 188   2.0000      -0.560841       -15.2613
 189   2.0000      -0.560121       -15.2417
 190   2.0000      -0.553323       -15.0567
 191   2.0000      -0.550857       -14.9896
 192   2.0000      -0.543521       -14.7900
 193   2.0000      -0.541575       -14.7370
 194   2.0000      -0.539602       -14.6833
 195   2.0000      -0.538269       -14.6471
 196   2.0000      -0.530680       -14.4405
 197   2.0000      -0.530188       -14.4271
 198   2.0000      -0.528152       -14.3718
 199   2.0000      -0.525148       -14.2900
 200   2.0000      -0.518664       -14.1136
 201   2.0000      -0.514947       -14.0124
 202   2.0000      -0.514765       -14.0075
 203   2.0000      -0.508203       -13.8289
 204   2.0000      -0.504696       -13.7335
 205   2.0000      -0.502874       -13.6839
 206   2.0000      -0.502691       -13.6789
 207   2.0000      -0.501758       -13.6535
 208   2.0000      -0.496213       -13.5026
 209   2.0000      -0.490914       -13.3585
 210   2.0000      -0.488488       -13.2924
 211   2.0000      -0.485720       -13.2171
 212   2.0000      -0.483158       -13.1474
 213   2.0000      -0.482076       -13.1180
 214   2.0000      -0.480529       -13.0759
 215   2.0000      -0.478368       -13.0170
 216   2.0000      -0.476838       -12.9754
 217   2.0000      -0.474150       -12.9023
 218   2.0000      -0.470965       -12.8156
 219   2.0000      -0.468421       -12.7464
 220   2.0000      -0.467734       -12.7277
 221   2.0000      -0.466317       -12.6891
 222   2.0000      -0.465884       -12.6773
 223   2.0000      -0.455440       -12.3932
 224   2.0000      -0.455181       -12.3861
 225   2.0000      -0.453185       -12.3318
 226   2.0000      -0.452293       -12.3075
 227   2.0000      -0.447721       -12.1831
 228   2.0000      -0.447297       -12.1716
 229   2.0000      -0.446557       -12.1514
 230   2.0000      -0.445780       -12.1303
 231   2.0000      -0.442823       -12.0498
 232   2.0000      -0.439936       -11.9713
 233   2.0000      -0.437118       -11.8946
 234   2.0000      -0.435552       -11.8520
 235   2.0000      -0.432606       -11.7718
 236   2.0000      -0.431739       -11.7482
 237   2.0000      -0.431521       -11.7423
 238   2.0000      -0.428854       -11.6697
 239   2.0000      -0.419336       -11.4107
 240   2.0000      -0.418004       -11.3745
 241   2.0000      -0.415674       -11.3111
 242   2.0000      -0.414552       -11.2805
 243   2.0000      -0.409642       -11.1469
 244   2.0000      -0.402241       -10.9455
 245   2.0000      -0.400074       -10.8866
 246   2.0000      -0.395504       -10.7622
 247   2.0000      -0.391630       -10.6568
 248   2.0000      -0.388096       -10.5606
 249   2.0000      -0.386986       -10.5304
 250   2.0000      -0.380973       -10.3668
 251   2.0000      -0.378494       -10.2993
 252   2.0000      -0.375821       -10.2266
 253   2.0000      -0.368495       -10.0273
 254   2.0000      -0.360393        -9.8068
 255   2.0000      -0.359989        -9.7958
 256   2.0000      -0.354108        -9.6358
 257   2.0000      -0.350515        -9.5380
 258   2.0000      -0.345945        -9.4136
 259   2.0000      -0.343503        -9.3472
 260   2.0000      -0.343274        -9.3410
 261   2.0000      -0.339548        -9.2396
 262   2.0000      -0.329274        -8.9600
 263   2.0000      -0.326367        -8.8809
 264   2.0000      -0.324709        -8.8358
 265   2.0000      -0.302093        -8.2204
 266   2.0000      -0.298554        -8.1241
 267   2.0000      -0.293420        -7.9844
 268   2.0000      -0.265938        -7.2365
 269   2.0000      -0.251091        -6.8325
 270   2.0000      -0.210545        -5.7292
 271   0.0000      -0.116993        -3.1836
 272   0.0000      -0.089947        -2.4476
 273   0.0000      -0.073132        -1.9900
 274   0.0000      -0.062823        -1.7095
 275   0.0000      -0.042283        -1.1506

MULLIKEN ATOMIC CHARGES
-----------------------
   0 C :    0.326631
   1 C :   -0.344924
   2 C :   -0.184278
   3 N :    0.149975
   4 C :   -0.197352
   5 N :    0.145743
   6 C :    0.010729
   7 C :   -0.004331
   8 C :   -0.071592
   9 C :    0.119842
  10 C :   -0.092188
  11 C :   -0.021313
  12 S :    0.192544
  13 C :   -0.123041
  14 C :    0.033949
  15 Br:    0.026500
  16 C :    0.167264
  17 O :   -0.236870
  18 C :   -0.134126
  19 C :    0.026293
  20 N :   -0.002272
  21 C :   -0.137058
  22 S :    0.173844
  23 C :    0.004717
  24 N :    0.274746
  25 O :   -0.248956
  26 O :   -0.254848
  27 C :   -0.006096
  28 C :    0.143020
  29 C :   -0.072600
  30 C :    0.065433
  31 N :   -0.071297
  32 C :    0.128784
  33 C :   -0.202477
  34 S :    0.139022
  35 C :   -0.217577
  36 C :    0.120232
  37 N :   -0.024617
  38 C :    0.098871
  39 C :   -0.113002
  40 C :    0.086851
  41 C :   -0.058487
  42 C :   -0.044522
  43 N :    0.054951
  44 C :   -0.139090
  45 C :   -0.121924
  46 N :    0.016993
  47 C :   -0.226396
  48 N :    0.230694
  49 C :   -0.227349
  50 N :    0.229044
  51 C :    0.107349
  52 C :    0.049698
  53 C :   -0.006663
  54 N :   -0.292635
  55 S :    0.526011
  56 N :   -0.322538
  57 C :   -0.142148
  58 C :    0.020371
  59 C :    0.019776
  60 C :    0.041443
  61 C :   -0.033325
  62 S :    0.119318
  63 C :   -0.067553
  64 C :    0.030232
  65 C :    0.057371
  66 C :   -0.069445
  67 S :    0.089046
  68 C :   -0.018358
  69 H :   -0.014359
  70 H :   -0.005276
  71 H :   -0.003403
  72 H :    0.046316
  73 H :    0.181594
  74 H :    0.005375
  75 H :   -0.023511
  76 H :    0.012691
  77 H :    0.125714
  78 H :    0.015648
  79 H :    0.031691
  80 H :    0.104926
  81 H :    0.030308
  82 H :   -0.024498
  83 H :    0.002170
  84 H :   -0.004322
  85 H :   -0.014416
  86 H :   -0.007668
  87 H :   -0.005800
  88 H :    0.025688
  89 H :    0.025090
Sum of atomic charges:   -0.0000000

LOEWDIN ATOMIC CHARGES
----------------------
   0 C :    0.078486
   1 C :   -0.150147
   2 C :   -0.020115
   3 N :   -0.055031
   4 C :   -0.020964
   5 N :   -0.053215
   6 C :   -0.017200
   7 C :   -0.051339
   8 C :    0.021890
   9 C :   -0.034774
  10 C :   -0.144155
  11 C :   -0.007432
  12 S :    0.438093
  13 C :   -0.271856
  14 C :   -0.070842
  15 Br:    0.138573
  16 C :    0.096276
  17 O :   -0.189360
  18 C :   -0.152127
  19 C :    0.111128
  20 N :    0.084998
  21 C :   -0.133564
  22 S :    0.466985
  23 C :   -0.197820
  24 N :    0.273234
  25 O :   -0.215518
  26 O :   -0.221102
  27 C :   -0.007575
  28 C :   -0.068014
  29 C :   -0.118005
  30 C :    0.055301
  31 N :    0.020889
  32 C :   -0.036097
  33 C :   -0.226164
  34 S :    0.455689
  35 C :   -0.227620
  36 C :   -0.030409
  37 N :    0.040753
  38 C :    0.066259
  39 C :   -0.097788
  40 C :   -0.030225
  41 C :   -0.019076
  42 C :   -0.005815
  43 N :    0.003164
  44 C :   -0.045766
  45 C :   -0.033616
  46 N :   -0.004043
  47 C :   -0.036877
  48 N :   -0.019614
  49 C :   -0.038495
  50 N :   -0.018890
  51 C :   -0.041901
  52 C :   -0.037734
  53 C :   -0.043623
  54 N :   -0.291463
  55 S :    0.648872
  56 N :   -0.289648
  57 C :   -0.048096
  58 C :   -0.131924
  59 C :   -0.032230
  60 C :   -0.026305
  61 C :   -0.196116
  62 S :    0.428974
  63 C :   -0.163548
  64 C :   -0.026380
  65 C :   -0.023396
  66 C :   -0.141060
  67 S :    0.361424
  68 C :   -0.062589
  69 H :    0.039775
  70 H :    0.042149
  71 H :    0.038588
  72 H :    0.036446
  73 H :    0.083486
  74 H :    0.041496
  75 H :    0.023890
  76 H :    0.031102
  77 H :    0.081875
  78 H :    0.022456
  79 H :    0.027048
  80 H :    0.078628
  81 H :    0.027110
  82 H :    0.026619
  83 H :    0.039666
  84 H :    0.035676
  85 H :    0.030584
  86 H :    0.034275
  87 H :    0.035594
  88 H :    0.031234
  89 H :    0.027979

  Mayer bond orders larger than 0.100000
B(  0-C ,  1-C ) :   1.6252 B(  0-C ,  6-C ) :   1.0004 B(  0-C , 18-C ) :   1.1044
B(  1-C ,  2-C ) :   1.1421 B(  1-C ,  4-C ) :   1.1485 B(  2-C ,  3-N ) :   2.9677
B(  4-C ,  5-N ) :   2.9547 B(  6-C ,  7-C ) :   1.2750 B(  6-C , 11-C ) :   1.4248
B(  7-C ,  8-C ) :   1.4231 B(  7-C , 16-C ) :   0.9814 B(  8-C ,  9-C ) :   1.2387
B(  8-C , 69-H ) :   1.0190 B(  9-C , 10-C ) :   1.3127 B(  9-C , 14-C ) :   1.1611
B( 10-C , 11-C ) :   1.3157 B( 10-C , 12-S ) :   1.0912 B( 11-C , 70-H ) :   0.9815
B( 12-S , 13-C ) :   1.0880 B( 13-C , 14-C ) :   1.6176 B( 13-C , 15-Br) :   1.0201
B( 14-C , 71-H ) :   1.0013 B( 16-C , 17-O ) :   2.0158 B( 16-C , 18-C ) :   1.0200
B( 17-O , 73-H ) :   0.1416 B( 18-C , 19-C ) :   1.4215 B( 19-C , 20-N ) :   1.3667
B( 19-C , 72-H ) :   0.9321 B( 20-N , 21-C ) :   1.1767 B( 20-N , 73-H ) :   0.8256
B( 21-C , 22-S ) :   1.1172 B( 21-C , 28-C ) :   1.3918 B( 22-S , 23-C ) :   1.0929
B( 23-C , 24-N ) :   0.9640 B( 23-C , 27-C ) :   1.5045 B( 24-N , 25-O ) :   1.5320
B( 24-N , 26-O ) :   1.5181 B( 25-O , 26-O ) :   0.2624 B( 27-C , 28-C ) :   1.2147
B( 27-C , 74-H ) :   0.9956 B( 28-C , 29-C ) :   1.1069 B( 29-C , 30-C ) :   1.6727
B( 29-C , 75-H ) :   0.9584 B( 30-C , 31-N ) :   1.1816 B( 30-C , 76-H ) :   0.9657
B( 31-N , 32-C ) :   1.0673 B( 31-N , 77-H ) :   0.9220 B( 32-C , 33-C ) :   1.5259
B( 32-C , 36-C ) :   1.2467 B( 33-C , 34-S ) :   1.1608 B( 33-C , 78-H ) :   0.9773
B( 34-S , 35-C ) :   1.1541 B( 35-C , 36-C ) :   1.5107 B( 35-C , 79-H ) :   0.9743
B( 36-C , 37-N ) :   1.1253 B( 37-N , 38-C ) :   1.1831 B( 37-N , 80-H ) :   0.9159
B( 38-C , 39-C ) :   1.5439 B( 38-C , 81-H ) :   0.9401 B( 39-C , 40-C ) :   1.2667
B( 39-C , 82-H ) :   0.9491 B( 40-C , 41-C ) :   1.2172 B( 40-C , 51-C ) :   0.1129
B( 40-C , 53-C ) :   1.1774 B( 41-C , 42-C ) :   1.0984 B( 41-C , 46-N ) :   1.4256
B( 42-C , 43-N ) :   1.4885 B( 42-C , 51-C ) :   1.2003 B( 43-N , 44-C ) :   1.6973
B( 44-C , 45-C ) :   1.2239 B( 44-C , 49-C ) :   1.1708 B( 45-C , 46-N ) :   1.7148
B( 45-C , 47-C ) :   1.1609 B( 47-C , 48-N ) :   3.0261 B( 49-C , 50-N ) :   3.0387
B( 51-C , 52-C ) :   1.1430 B( 51-C , 57-C ) :   1.2792 B( 52-C , 53-C ) :   1.1150
B( 52-C , 56-N ) :   1.4916 B( 53-C , 54-N ) :   1.5395 B( 54-N , 55-S ) :   1.2617
B( 54-N , 56-N ) :   0.1436 B( 55-S , 56-N ) :   1.2485 B( 57-C , 58-C ) :   1.4537
B( 57-C , 83-H ) :   0.9423 B( 58-C , 59-C ) :   1.1599 B( 58-C , 62-S ) :   1.0686
B( 59-C , 60-C ) :   1.5722 B( 59-C , 84-H ) :   1.0028 B( 60-C , 61-C ) :   1.1843
B( 60-C , 85-H ) :   0.9926 B( 61-C , 62-S ) :   1.0074 B( 61-C , 63-C ) :   1.5173
B( 63-C , 64-C ) :   1.1619 B( 63-C , 67-S ) :   1.0607 B( 64-C , 65-C ) :   1.6479
B( 64-C , 86-H ) :   0.9930 B( 65-C , 66-C ) :   1.0835 B( 65-C , 87-H ) :   0.9934
B( 66-C , 67-S ) :   1.0058 B( 66-C , 68-C ) :   1.8566 B( 68-C , 88-H ) :   0.9508
B( 68-C , 89-H ) :   0.9418

-----------------------------------------------------------------------------
         ABSORPTION SPECTRUM VIA TRANSITION ELECTRIC DIPOLE MOMENTS
-----------------------------------------------------------------------------
State   Energy  Wavelength   fosc         T2         TX        TY        TZ
        (cm-1)    (nm)                  (au**2)     (au)      (au)      (au)
-----------------------------------------------------------------------------
   0    5667.8   1764.4   0.277947278  16.14445  -2.82688  -2.00925   2.02882
   1   16700.8    598.8   0.068075792   1.34193  -0.58075   0.33936  -0.94314
   2   17697.8    565.0   0.682787760  12.70112  -3.20981  -1.46797   0.49324
   3   17987.8    555.9   0.154663570   2.83065   1.64411  -0.13170   0.33198
   4   19293.7    518.3   0.008718382   0.14876   0.07008   0.27530  -0.26088
   5   19938.9    501.5   0.600747326   9.91895   3.04175  -0.66979   0.46702
   6   21107.0    473.8   0.005440778   0.08486   0.22781  -0.01427   0.18100
   7   21221.3    471.2   0.071672818   1.11188   0.65009  -0.14991   0.81657
   8   21368.7    468.0   0.214329931   3.30202   1.07263   0.85970  -1.18845
   9   22866.0    437.3   0.056479747   0.81316   0.67471  -0.18795  -0.56798
  10   24520.9    407.8   0.164007745   2.20193   1.28150   0.57885  -0.47393
  11   27385.1    365.2   0.164496797   1.97751   1.19550  -0.22385   0.70582
  12   27534.7    363.2   0.002978506   0.03561  -0.08988   0.15605   0.05641
  13   28148.8    355.3   0.162898849   1.90517   1.19945  -0.24919  -0.63593
  14   28672.9    348.8   0.025636188   0.29435  -0.22977   0.12802  -0.47451
  15   28896.2    346.1   0.012098688   0.13784  -0.34855  -0.12706   0.01451
  16   29018.3    344.6   0.104837698   1.18938   0.11568  -0.10733   1.07911
  17   29168.4    342.8   0.010046522   0.11339  -0.24798  -0.20898  -0.09069
  18   29526.5    338.7   0.001423040   0.01587   0.02790  -0.11542  -0.04203
  19   29676.6    337.0   0.139849238   1.55139  -0.87945   0.54747  -0.69155
  20   29783.8    335.8   0.238230745   2.63326  -0.92639   0.09271   1.32908
  21   30031.9    333.0   0.190903852   2.09270   1.10998  -0.34753  -0.86015
  22   30241.9    330.7   0.243513347   2.65088  -0.94975   0.29430   1.28928
  23   31654.3    315.9   0.345476284   3.59303   1.09198  -0.34109  -1.51138
  24   31868.0    313.8   0.204339346   2.11092  -1.42569  -0.10371  -0.25996
  25   32012.9    312.4   0.138913302   1.42854   0.95534   0.03104   0.71757
  26   32148.3    311.1   0.060320056   0.61770  -0.31040   0.32938  -0.64255
  27   32325.7    309.4   0.080057948   0.81533  -0.52409  -0.44156   0.58794
  28   32841.7    304.5   0.011805501   0.11834  -0.26271   0.00343  -0.22206
  29   32992.9    303.1   0.103728433   1.03503   0.86755  -0.10263  -0.52139
  30   33115.3    302.0   0.066000730   0.65614  -0.53279  -0.25075  -0.55624
  31   33925.5    294.8   0.267799717   2.59872   0.97213  -0.29258   1.25223
  32   33977.1    294.3   0.000287109   0.00278   0.02409  -0.01281  -0.04513
  33   34306.7    291.5   0.001250011   0.01200  -0.00847   0.03900   0.10199
  34   34381.5    290.9   0.030316553   0.29029  -0.38059   0.19414   0.32825
  35   34461.5    290.2   0.378273322   3.61366   0.02614  -0.11908  -1.89705
  36   35162.9    284.4   0.184472417   1.72712   0.87611   0.50146  -0.84148
  37   35841.7    279.0   0.063885429   0.58680  -0.48880   0.06054  -0.58670
  38   36101.7    277.0   0.159687759   1.45619  -1.17131  -0.28063  -0.07395
  39   36593.3    273.3   0.000165312   0.00149   0.03569  -0.01327  -0.00614
  40   36732.4    272.2   0.005254949   0.04710  -0.01589  -0.01849   0.21564
  41   36878.0    271.2   0.006426117   0.05737   0.07949  -0.02546   0.22450
  42   36987.9    270.4   0.035178234   0.31310  -0.54626   0.04088  -0.11415
  43   37086.1    269.6   0.313253496   2.78074   0.52362  -0.15756   1.57535
  44   37130.9    269.3   0.163210370   1.44707  -0.55105   0.13292  -1.06101
  45   37425.1    267.2   0.021200222   0.18649  -0.42077  -0.07507   0.06172
  46   37743.7    264.9   0.037718370   0.32899   0.38526   0.31337  -0.28699
  47   37985.5    263.3   0.249808551   2.16503  -1.05811  -0.22335  -0.99778
  48   38343.1    260.8   0.051784760   0.44462   0.63423  -0.04137   0.20164
  49   38368.4    260.6   0.123348026   1.05836  -0.99052   0.27774  -0.00999
  50   38755.1    258.0   0.085837674   0.72916  -0.56904   0.12270   0.62474
  51   39478.3    253.3   0.019714518   0.16440   0.39977   0.01753   0.06538
  52   39518.9    253.0   0.104528104   0.87077  -0.83413  -0.24990  -0.33549
  53   39556.5    252.8   0.036513315   0.30388  -0.55034  -0.02660   0.01741
  54   39993.6    250.0   0.001925065   0.01585   0.02662   0.00008  -0.12303
  55   40078.2    249.5   0.000620886   0.00510   0.03805  -0.05710  -0.01980

FINAL SINGLE POINT ENERGY     -7645.116054677404

DIPOLE MOMENT
-------------
                                X             Y             Z
Electronic contribution:     83.18745     -61.43794      35.65585
Nuclear contribution   :    -79.10822      62.10496     -39.06981
                        -----------------------------------------
Total Dipole Moment    :      4.07923       0.66702      -3.41397
                        -----------------------------------------
Magnitude (a.u.)       :      5.36099
Magnitude (Debye)      :     13.62656

Rotational constants in cm-1:     0.000628     0.000349     0.000243
Rotational constants in MHz :    18.812983    10.453084     7.277009

                             ****ORCA TERMINATED NORMALLY****
TOTAL RUN TIME: 0 days 0 hours 9 minutes 29 seconds 224 msec
