                         Program Version 4.2.0 -  RELEASE  -
|  1> # ORCA input file
|  2> # SCF done       -208.901622669223          0.000655568098
|  3> ! CAM-B3LYP def2-SVP def2/J RIJCOSX Grid4 TightSCF
|  4> %maxcore 5000
|  5> %tddft
|  6>     Mode sTDDFT
|  7>     Ethresh 5.0
|  8>     maxcore 5000
|  9> end
| 10>
| 11> %pal
| 12>   nprocs 6
| 13>   end
| 14> * xyz 0 1
| 15>    C      -15.07585         7.63109        -1.74556
| 16>    C      -16.15093         7.14454        -1.04880
| 17>    C      -17.34026         7.86632        -0.81916
| 18>    N      -18.32854         8.40834        -0.60302
| 19>    C      -16.20353         5.85712        -0.47601
| 20>    N      -16.28570         4.81762         0.00371
| 21>    C      -14.98098         8.95406        -2.35806
| 22>    C      -13.71884         9.07854        -2.99498
| 23>    C      -13.33409        10.21717        -3.66114
| 24>    C      -14.23549        11.28579        -3.70160
| 25>    C      -15.49205        11.15322        -3.06347
| 26>    C      -15.88151        10.00089        -2.39008
| 27>    S      -16.45027        12.59082        -3.23414
| 28>    C      -15.16924        13.34193        -4.14748
| 29>    C      -14.07810        12.55702        -4.31732
| 30>   Br      -15.39088        15.08915        -4.79092
| 31>    C      -12.96634         7.83288        -2.80487
| 32>    O      -11.83903         7.57295        -3.21411
| 33>    C      -13.83197         6.94745        -2.01933
| 34>    C      -13.43006         5.68774        -1.64817
| 35>    N      -12.22448         5.23074        -2.00477
| 36>    C      -11.68688         4.02146        -1.70640
| 37>    S      -12.54098         2.84870        -0.75612
| 38>    C      -11.18390         1.77802        -0.90478
| 39>    N      -11.28069         0.52349        -0.27848
| 40>    O      -10.33536        -0.23153        -0.37931
| 41>    O      -12.31527         0.29540         0.32069
| 42>    C      -10.14818         2.29018        -1.63429
| 43>    C      -10.41337         3.59126        -2.11277
| 44>    C       -9.54221         4.40115        -2.90894
| 45>    C       -8.29778         4.05833        -3.30904
| 46>    C       -7.46116         4.89743        -4.10894
| 47>    C       -6.16133         4.46776        -4.45977
| 48>    C       -5.26733         5.27554        -5.25434
| 49>    N       -4.07781         4.77042        -5.62817
| 50>    C       -3.71736         3.58670        -5.20926
| 51>    C       -4.57264         2.82007        -4.34550
| 52>    N       -5.75776         3.26236        -4.01792
| 53>    C       -4.13644         1.56402        -3.85400
| 54>    N       -3.74789         0.55500        -3.47626
| 55>    C       -2.46644         3.06143        -5.61994
| 56>    N       -1.45686         2.61411        -5.92414
| 57>    C       -5.62031         6.56637        -5.70268
| 58>    C       -6.92159         6.98841        -5.37159
| 59>    C       -7.82599         6.17269        -4.58992
| 60>    N       -8.99149         6.79421        -4.39072
| 61>    S       -8.95744         8.23493        -5.08276
| 62>    N       -7.47571         8.16745        -5.68433
| 63>    C       -4.70937         7.40566        -6.45867
| 64>    C       -5.21448         8.25147        -7.45900
| 65>    C       -4.35414         9.04756        -8.17221
| 66>    C       -2.96760         8.98550        -7.93609
| 67>    C       -2.46027         8.16477        -6.93806
| 68>    C       -3.33203         7.39184        -6.20066
| 69>    C       -2.29825         9.83773        -8.89119
| 70>    C       -3.26919        10.43941        -9.71063
| 71>    C       -4.66176        10.03627        -9.27322
| 72>    C       -5.46794         9.40566       -10.41762
| 73>    C       -4.73988         8.23046       -11.06032
| 74>    C       -5.35318        11.30206        -8.71322
| 75>    C       -6.71524        11.08237        -8.06718
| 76>    C       -2.89472        11.28110       -10.72811
| 77>    C       -1.53213        11.51964       -10.97283
| 78>    C       -0.57807        10.91775       -10.13921
| 79>    C       -0.94851        10.08742        -9.10283
| 80>    C       -1.17357        12.37343       -12.07797
| 81>    C        0.05515        12.52401       -12.61211
| 82>    C        0.34828        13.37149       -13.71605
| 83>    S       -0.85998        14.40556       -14.45071
| 84>    C        1.55665        13.52851       -14.37049
| 85>    C        2.85815        12.92379       -14.20517
| 86>    C        3.77671        13.35388       -15.06722
| 87>    S        3.09264        14.59102       -16.20942
| 88>    N        2.90917        14.09437       -17.63807
| 89>    O        3.72971        15.86574       -15.95177
| 90>    C        1.49301        14.45963       -15.43047
| 91>    C        0.27575        15.03673       -15.62660
| 92>    C       -0.07577        16.01119       -16.61865
| 93>    C       -1.28009        16.56146       -16.74499
| 94>    H      -12.36766        10.28343        -4.13595
| 95>    H      -16.84910         9.94941        -1.91988
| 96>    H      -13.19856        12.86197        -4.85412
| 97>    H      -14.05790         5.02791        -1.06332
| 98>    H      -11.66752         5.90209        -2.56320
| 99>    H       -9.24242         1.74004        -1.81123
|100>    H       -9.91300         5.36785        -3.21644
|101>    H       -7.85761         3.11118        -3.03470
|102>    H       -6.26936         8.23370        -7.67671
|103>    H       -1.40023         8.13090        -6.73787
|104>    H       -2.94993         6.77488        -5.40360
|105>    H       -5.66496        10.16922       -11.17298
|106>    H       -6.42696         9.06040       -10.02987
|107>    H       -3.79045         8.54948       -11.48449
|108>    H       -5.34570         7.80395       -11.85649
|109>    H       -4.54156         7.45388       -10.32470
|110>    H       -5.45740        12.01421        -9.53509
|111>    H       -4.68263        11.74853        -7.97417
|112>    H       -7.42275        10.65425        -8.77238
|113>    H       -7.11051        12.04015        -7.73495
|114>    H       -6.63837        10.42890        -7.20273
|115>    H       -3.63351        11.74751       -11.36399
|116>    H        0.46950        11.11723       -10.30253
|117>    H       -0.20021         9.63512        -8.46959
|118>    H       -1.99057        12.92108       -12.53273
|119>    H        0.89938        11.97286       -12.22277
|120>    H        3.03842        12.18362       -13.44029
|121>    H        4.80166        13.04823       -15.13842
|122>    H        3.63791        14.35192       -18.27967
|123>    H        0.74033        16.27294       -17.27900
|124>    H       -2.09071        16.29492       -16.08578
|125>    H       -1.49113        17.28813       -17.50863
|126> *
|127>
|128>                          ****END OF INPUT****

CARTESIAN COORDINATES (ANGSTROEM)
---------------------------------
  C    -15.075850    7.631090   -1.745560
  C    -16.150930    7.144540   -1.048800
  C    -17.340260    7.866320   -0.819160
  N    -18.328540    8.408340   -0.603020
  C    -16.203530    5.857120   -0.476010
  N    -16.285700    4.817620    0.003710
  C    -14.980980    8.954060   -2.358060
  C    -13.718840    9.078540   -2.994980
  C    -13.334090   10.217170   -3.661140
  C    -14.235490   11.285790   -3.701600
  C    -15.492050   11.153220   -3.063470
  C    -15.881510   10.000890   -2.390080
  S    -16.450270   12.590820   -3.234140
  C    -15.169240   13.341930   -4.147480
  C    -14.078100   12.557020   -4.317320
  Br   -15.390880   15.089150   -4.790920
  C    -12.966340    7.832880   -2.804870
  O    -11.839030    7.572950   -3.214110
  C    -13.831970    6.947450   -2.019330
  C    -13.430060    5.687740   -1.648170
  N    -12.224480    5.230740   -2.004770
  C    -11.686880    4.021460   -1.706400
  S    -12.540980    2.848700   -0.756120
  C    -11.183900    1.778020   -0.904780
  N    -11.280690    0.523490   -0.278480
  O    -10.335360   -0.231530   -0.379310
  O    -12.315270    0.295400    0.320690
  C    -10.148180    2.290180   -1.634290
  C    -10.413370    3.591260   -2.112770
  C     -9.542210    4.401150   -2.908940
  C     -8.297780    4.058330   -3.309040
  C     -7.461160    4.897430   -4.108940
  C     -6.161330    4.467760   -4.459770
  C     -5.267330    5.275540   -5.254340
  N     -4.077810    4.770420   -5.628170
  C     -3.717360    3.586700   -5.209260
  C     -4.572640    2.820070   -4.345500
  N     -5.757760    3.262360   -4.017920
  C     -4.136440    1.564020   -3.854000
  N     -3.747890    0.555000   -3.476260
  C     -2.466440    3.061430   -5.619940
  N     -1.456860    2.614110   -5.924140
  C     -5.620310    6.566370   -5.702680
  C     -6.921590    6.988410   -5.371590
  C     -7.825990    6.172690   -4.589920
  N     -8.991490    6.794210   -4.390720
  S     -8.957440    8.234930   -5.082760
  N     -7.475710    8.167450   -5.684330
  C     -4.709370    7.405660   -6.458670
  C     -5.214480    8.251470   -7.459000
  C     -4.354140    9.047560   -8.172210
  C     -2.967600    8.985500   -7.936090
  C     -2.460270    8.164770   -6.938060
  C     -3.332030    7.391840   -6.200660
  C     -2.298250    9.837730   -8.891190
  C     -3.269190   10.439410   -9.710630
  C     -4.661760   10.036270   -9.273220
  C     -5.467940    9.405660  -10.417620
  C     -4.739880    8.230460  -11.060320
  C     -5.353180   11.302060   -8.713220
  C     -6.715240   11.082370   -8.067180
  C     -2.894720   11.281100  -10.728110
  C     -1.532130   11.519640  -10.972830
  C     -0.578070   10.917750  -10.139210
  C     -0.948510   10.087420   -9.102830
  C     -1.173570   12.373430  -12.077970
  C      0.055150   12.524010  -12.612110
  C      0.348280   13.371490  -13.716050
  S     -0.859980   14.405560  -14.450710
  C      1.556650   13.528510  -14.370490
  C      2.858150   12.923790  -14.205170
  C      3.776710   13.353880  -15.067220
  S      3.092640   14.591020  -16.209420
  N      2.909170   14.094370  -17.638070
  O      3.729710   15.865740  -15.951770
  C      1.493010   14.459630  -15.430470
  C      0.275750   15.036730  -15.626600
  C     -0.075770   16.011190  -16.618650
  C     -1.280090   16.561460  -16.744990
  H    -12.367660   10.283430   -4.135950
  H    -16.849100    9.949410   -1.919880
  H    -13.198560   12.861970   -4.854120
  H    -14.057900    5.027910   -1.063320
  H    -11.667520    5.902090   -2.563200
  H     -9.242420    1.740040   -1.811230
  H     -9.913000    5.367850   -3.216440
  H     -7.857610    3.111180   -3.034700
  H     -6.269360    8.233700   -7.676710
  H     -1.400230    8.130900   -6.737870
  H     -2.949930    6.774880   -5.403600
  H     -5.664960   10.169220  -11.172980
  H     -6.426960    9.060400  -10.029870
  H     -3.790450    8.549480  -11.484490
  H     -5.345700    7.803950  -11.856490
  H     -4.541560    7.453880  -10.324700
  H     -5.457400   12.014210   -9.535090
  H     -4.682630   11.748530   -7.974170
  H     -7.422750   10.654250   -8.772380
  H     -7.110510   12.040150   -7.734950
  H     -6.638370   10.428900   -7.202730
  H     -3.633510   11.747510  -11.363990
  H      0.469500   11.117230  -10.302530
  H     -0.200210    9.635120   -8.469590
  H     -1.990570   12.921080  -12.532730
  H      0.899380   11.972860  -12.222770
  H      3.038420   12.183620  -13.440290
  H      4.801660   13.048230  -15.138420
  H      3.637910   14.351920  -18.279670
  H      0.740330   16.272940  -17.279000
  H     -2.090710   16.294920  -16.085780
  H     -1.491130   17.288130  -17.508630

 Total Charge           Charge          ....    0
 Multiplicity           Mult            ....    1
 Number of Electrons    NEL             ....  604
 Basis Dimension        Dim             .... 1304

ORBITAL ENERGIES
----------------

  NO   OCC          E(Eh)            E(eV)
   0   2.0000    -482.896685    -13140.2868
   1   2.0000     -89.126101     -2425.2445
   2   2.0000     -89.057684     -2423.3828
   3   2.0000     -88.999368     -2421.7959
   4   2.0000     -88.988855     -2421.5098
   5   2.0000     -88.965071     -2420.8627
   6   2.0000     -62.574385     -1702.7356
   7   2.0000     -56.408351     -1534.9493
   8   2.0000     -56.405609     -1534.8746
   9   2.0000     -56.405580     -1534.8739
  10   2.0000     -19.246250      -523.7171
  11   2.0000     -19.246201      -523.7157
  12   2.0000     -19.245953      -523.7090
  13   2.0000     -19.182832      -521.9914
  14   2.0000     -14.657804      -398.8591
  15   2.0000     -14.508056      -394.7843
  16   2.0000     -14.468742      -393.7145
  17   2.0000     -14.466511      -393.6538
  18   2.0000     -14.464932      -393.6108
  19   2.0000     -14.462827      -393.5535
  20   2.0000     -14.434040      -392.7702
  21   2.0000     -14.433365      -392.7518
  22   2.0000     -14.429448      -392.6452
  23   2.0000     -14.424984      -392.5238
  24   2.0000     -14.357484      -390.6870
  25   2.0000     -10.392154      -282.7849
  26   2.0000     -10.387431      -282.6564
  27   2.0000     -10.385773      -282.6113
  28   2.0000     -10.382548      -282.5235
  29   2.0000     -10.381058      -282.4829
  30   2.0000     -10.371550      -282.2242
  31   2.0000     -10.357288      -281.8361
  32   2.0000     -10.356408      -281.8122
  33   2.0000     -10.354095      -281.7492
  34   2.0000     -10.353484      -281.7326
  35   2.0000     -10.353323      -281.7282
  36   2.0000     -10.352088      -281.6946
  37   2.0000     -10.351819      -281.6873
  38   2.0000     -10.339588      -281.3545
  39   2.0000     -10.331554      -281.1359
  40   2.0000     -10.327879      -281.0359
  41   2.0000     -10.326973      -281.0112
  42   2.0000     -10.326627      -281.0018
  43   2.0000     -10.324224      -280.9364
  44   2.0000     -10.323372      -280.9132
  45   2.0000     -10.323009      -280.9034
  46   2.0000     -10.321903      -280.8733
  47   2.0000     -10.321684      -280.8673
  48   2.0000     -10.319921      -280.8193
  49   2.0000     -10.319708      -280.8135
  50   2.0000     -10.318749      -280.7874
  51   2.0000     -10.318253      -280.7739
  52   2.0000     -10.315499      -280.6990
  53   2.0000     -10.311026      -280.5773
  54   2.0000     -10.310222      -280.5554
  55   2.0000     -10.309736      -280.5422
  56   2.0000     -10.305162      -280.4177
  57   2.0000     -10.300937      -280.3027
  58   2.0000     -10.296571      -280.1839
  59   2.0000     -10.295853      -280.1644
  60   2.0000     -10.294806      -280.1359
  61   2.0000     -10.294260      -280.1211
  62   2.0000     -10.292401      -280.0705
  63   2.0000     -10.292185      -280.0646
  64   2.0000     -10.288629      -279.9678
  65   2.0000     -10.288152      -279.9548
  66   2.0000     -10.286980      -279.9230
  67   2.0000     -10.286422      -279.9078
  68   2.0000     -10.283116      -279.8178
  69   2.0000     -10.281112      -279.7633
  70   2.0000     -10.281076      -279.7623
  71   2.0000     -10.279953      -279.7317
  72   2.0000     -10.279100      -279.7085
  73   2.0000     -10.279019      -279.7063
  74   2.0000     -10.278585      -279.6945
  75   2.0000     -10.278040      -279.6797
  76   2.0000     -10.277264      -279.6586
  77   2.0000     -10.276325      -279.6330
  78   2.0000     -10.276315      -279.6327
  79   2.0000     -10.271519      -279.5022
  80   2.0000     -10.270742      -279.4811
  81   2.0000     -10.258229      -279.1406
  82   2.0000     -10.253449      -279.0105
  83   2.0000      -8.803808      -239.5638
  84   2.0000      -8.191659      -222.9064
  85   2.0000      -8.148735      -221.7384
  86   2.0000      -8.094412      -220.2602
  87   2.0000      -8.084806      -219.9988
  88   2.0000      -8.060401      -219.3347
  89   2.0000      -6.640172      -180.6883
  90   2.0000      -6.625524      -180.2897
  91   2.0000      -6.625291      -180.2833
  92   2.0000      -6.161446      -167.6615
  93   2.0000      -6.160462      -167.6347
  94   2.0000      -6.158763      -167.5884
  95   2.0000      -6.119705      -166.5256
  96   2.0000      -6.111844      -166.3117
  97   2.0000      -6.111806      -166.3107
  98   2.0000      -6.064048      -165.0111
  99   2.0000      -6.059682      -164.8923
 100   2.0000      -6.055942      -164.7906
 101   2.0000      -6.054461      -164.7503
 102   2.0000      -6.050188      -164.6340
 103   2.0000      -6.046080      -164.5222
 104   2.0000      -6.029794      -164.0790
 105   2.0000      -6.025764      -163.9694
 106   2.0000      -6.022188      -163.8721
 107   2.0000      -2.756025       -74.9953
 108   2.0000      -2.751920       -74.8835
 109   2.0000      -2.751763       -74.8793
 110   2.0000      -2.740114       -74.5623
 111   2.0000      -2.740100       -74.5619
 112   2.0000      -1.328521       -36.1509
 113   2.0000      -1.160144       -31.5691
 114   2.0000      -1.153203       -31.3802
 115   2.0000      -1.152171       -31.3522
 116   2.0000      -1.148035       -31.2396
 117   2.0000      -1.126448       -30.6522
 118   2.0000      -1.115142       -30.3446
 119   2.0000      -1.053218       -28.6595
 120   2.0000      -1.037158       -28.2225
 121   2.0000      -1.026284       -27.9266
 122   2.0000      -1.019599       -27.7447
 123   2.0000      -1.018354       -27.7108
 124   2.0000      -1.009437       -27.4682
 125   2.0000      -1.008782       -27.4504
 126   2.0000      -1.006716       -27.3941
 127   2.0000      -1.005949       -27.3733
 128   2.0000      -1.003093       -27.2956
 129   2.0000      -0.996817       -27.1248
 130   2.0000      -0.986495       -26.8439
 131   2.0000      -0.970003       -26.3951
 132   2.0000      -0.955797       -26.0086
 133   2.0000      -0.954328       -25.9686
 134   2.0000      -0.935393       -25.4533
 135   2.0000      -0.928735       -25.2722
 136   2.0000      -0.926696       -25.2167
 137   2.0000      -0.922394       -25.0996
 138   2.0000      -0.915902       -24.9229
 139   2.0000      -0.912338       -24.8260
 140   2.0000      -0.909168       -24.7397
 141   2.0000      -0.900435       -24.5021
 142   2.0000      -0.899827       -24.4855
 143   2.0000      -0.889618       -24.2077
 144   2.0000      -0.881976       -23.9998
 145   2.0000      -0.865426       -23.5494
 146   2.0000      -0.862211       -23.4620
 147   2.0000      -0.850005       -23.1298
 148   2.0000      -0.844979       -22.9931
 149   2.0000      -0.843834       -22.9619
 150   2.0000      -0.841806       -22.9067
 151   2.0000      -0.841351       -22.8943
 152   2.0000      -0.838509       -22.8170
 153   2.0000      -0.830950       -22.6113
 154   2.0000      -0.817373       -22.2418
 155   2.0000      -0.808607       -22.0033
 156   2.0000      -0.805105       -21.9080
 157   2.0000      -0.793860       -21.6020
 158   2.0000      -0.777339       -21.1525
 159   2.0000      -0.772842       -21.0301
 160   2.0000      -0.770738       -20.9728
 161   2.0000      -0.758872       -20.6500
 162   2.0000      -0.752694       -20.4818
 163   2.0000      -0.743464       -20.2307
 164   2.0000      -0.741971       -20.1901
 165   2.0000      -0.732408       -19.9298
 166   2.0000      -0.723892       -19.6981
 167   2.0000      -0.717116       -19.5137
 168   2.0000      -0.709834       -19.3156
 169   2.0000      -0.704447       -19.1690
 170   2.0000      -0.701582       -19.0910
 171   2.0000      -0.697276       -18.9738
 172   2.0000      -0.695866       -18.9355
 173   2.0000      -0.689161       -18.7530
 174   2.0000      -0.682518       -18.5723
 175   2.0000      -0.680357       -18.5135
 176   2.0000      -0.673053       -18.3147
 177   2.0000      -0.671345       -18.2682
 178   2.0000      -0.667533       -18.1645
 179   2.0000      -0.658891       -17.9293
 180   2.0000      -0.654329       -17.8052
 181   2.0000      -0.651003       -17.7147
 182   2.0000      -0.644540       -17.5388
 183   2.0000      -0.639521       -17.4022
 184   2.0000      -0.639387       -17.3986
 185   2.0000      -0.637824       -17.3561
 186   2.0000      -0.636254       -17.3133
 187   2.0000      -0.632407       -17.2087
 188   2.0000      -0.631733       -17.1903
 189   2.0000      -0.616759       -16.7829
 190   2.0000      -0.616481       -16.7753
 191   2.0000      -0.608473       -16.5574
 192   2.0000      -0.603912       -16.4333
 193   2.0000      -0.601968       -16.3804
 194   2.0000      -0.594585       -16.1795
 195   2.0000      -0.592916       -16.1341
 196   2.0000      -0.587368       -15.9831
 197   2.0000      -0.580157       -15.7869
 198   2.0000      -0.579296       -15.7634
 199   2.0000      -0.572791       -15.5864
 200   2.0000      -0.570230       -15.5168
 201   2.0000      -0.567647       -15.4465
 202   2.0000      -0.565684       -15.3930
 203   2.0000      -0.561352       -15.2752
 204   2.0000      -0.560208       -15.2440
 205   2.0000      -0.557153       -15.1609
 206   2.0000      -0.553109       -15.0509
 207   2.0000      -0.551561       -15.0087
 208   2.0000      -0.549382       -14.9495
 209   2.0000      -0.547285       -14.8924
 210   2.0000      -0.546783       -14.8787
 211   2.0000      -0.544608       -14.8195
 212   2.0000      -0.539882       -14.6909
 213   2.0000      -0.537095       -14.6151
 214   2.0000      -0.533821       -14.5260
 215   2.0000      -0.533146       -14.5077
 216   2.0000      -0.530372       -14.4321
 217   2.0000      -0.529190       -14.4000
 218   2.0000      -0.526440       -14.3252
 219   2.0000      -0.523411       -14.2427
 220   2.0000      -0.522558       -14.2195
 221   2.0000      -0.522018       -14.2048
 222   2.0000      -0.515322       -14.0226
 223   2.0000      -0.511645       -13.9226
 224   2.0000      -0.510887       -13.9020
 225   2.0000      -0.508900       -13.8479
 226   2.0000      -0.505265       -13.7490
 227   2.0000      -0.501456       -13.6453
 228   2.0000      -0.499453       -13.5908
 229   2.0000      -0.498488       -13.5645
 230   2.0000      -0.497057       -13.5256
 231   2.0000      -0.492843       -13.4110
 232   2.0000      -0.490164       -13.3380
 233   2.0000      -0.487412       -13.2632
 234   2.0000      -0.486617       -13.2415
 235   2.0000      -0.481786       -13.1101
 236   2.0000      -0.479950       -13.0601
 237   2.0000      -0.479279       -13.0418
 238   2.0000      -0.473204       -12.8765
 239   2.0000      -0.472932       -12.8691
 240   2.0000      -0.469230       -12.7684
 241   2.0000      -0.464303       -12.6343
 242   2.0000      -0.463621       -12.6158
 243   2.0000      -0.462718       -12.5912
 244   2.0000      -0.460443       -12.5293
 245   2.0000      -0.460211       -12.5230
 246   2.0000      -0.459420       -12.5015
 247   2.0000      -0.458252       -12.4697
 248   2.0000      -0.457363       -12.4455
 249   2.0000      -0.454743       -12.3742
 250   2.0000      -0.452579       -12.3153
 251   2.0000      -0.450652       -12.2629
 252   2.0000      -0.448737       -12.2108
 253   2.0000      -0.447973       -12.1900
 254   2.0000      -0.445510       -12.1229
 255   2.0000      -0.442930       -12.0527
 256   2.0000      -0.440046       -11.9743
 257   2.0000      -0.439100       -11.9485
 258   2.0000      -0.439024       -11.9465
 259   2.0000      -0.437801       -11.9132
 260   2.0000      -0.431700       -11.7472
 261   2.0000      -0.428292       -11.6544
 262   2.0000      -0.425394       -11.5756
 263   2.0000      -0.425049       -11.5662
 264   2.0000      -0.422112       -11.4863
 265   2.0000      -0.421787       -11.4774
 266   2.0000      -0.420716       -11.4483
 267   2.0000      -0.418913       -11.3992
 268   2.0000      -0.417897       -11.3716
 269   2.0000      -0.412176       -11.2159
 270   2.0000      -0.410164       -11.1611
 271   2.0000      -0.405565       -11.0360
 272   2.0000      -0.402300       -10.9471
 273   2.0000      -0.400962       -10.9107
 274   2.0000      -0.395407       -10.7596
 275   2.0000      -0.394474       -10.7342
 276   2.0000      -0.393351       -10.7036
 277   2.0000      -0.388532       -10.5725
 278   2.0000      -0.386963       -10.5298
 279   2.0000      -0.386054       -10.5051
 280   2.0000      -0.385357       -10.4861
 281   2.0000      -0.383885       -10.4461
 282   2.0000      -0.376556       -10.2466
 283   2.0000      -0.375141       -10.2081
 284   2.0000      -0.368983       -10.0405
 285   2.0000      -0.368721       -10.0334
 286   2.0000      -0.363821        -9.9001
 287   2.0000      -0.356000        -9.6873
 288   2.0000      -0.354080        -9.6350
 289   2.0000      -0.350713        -9.5434
 290   2.0000      -0.339951        -9.2505
 291   2.0000      -0.333016        -9.0618
 292   2.0000      -0.331479        -9.0200
 293   2.0000      -0.328556        -8.9405
 294   2.0000      -0.321258        -8.7419
 295   2.0000      -0.318344        -8.6626
 296   2.0000      -0.312477        -8.5029
 297   2.0000      -0.306969        -8.3531
 298   2.0000      -0.301915        -8.2155
 299   2.0000      -0.293643        -7.9904
 300   2.0000      -0.267786        -7.2868
 301   2.0000      -0.249584        -6.7915
 302   0.0000      -0.128044        -3.4843
 303   0.0000      -0.097357        -2.6492
 304   0.0000      -0.080215        -2.1828
 305   0.0000      -0.060959        -1.6588
 306   0.0000      -0.055856        -1.5199

MULLIKEN ATOMIC CHARGES
-----------------------
   0 C :    0.330841
   1 C :   -0.342956
   2 C :   -0.182498
   3 N :    0.151998
   4 C :   -0.196100
   5 N :    0.149794
   6 C :    0.005879
   7 C :   -0.001260
   8 C :   -0.068088
   9 C :    0.116972
  10 C :   -0.094933
  11 C :   -0.013351
  12 S :    0.196846
  13 C :   -0.124687
  14 C :    0.040163
  15 Br:    0.031363
  16 C :    0.164503
  17 O :   -0.224483
  18 C :   -0.124149
  19 C :    0.022021
  20 N :   -0.007967
  21 C :   -0.116260
  22 S :    0.181022
  23 C :    0.010643
  24 N :    0.272195
  25 O :   -0.237063
  26 O :   -0.253737
  27 C :    0.010318
  28 C :    0.144229
  29 C :   -0.026475
  30 C :   -0.069678
  31 C :    0.087025
  32 C :   -0.043828
  33 C :   -0.069554
  34 N :    0.052395
  35 C :   -0.145315
  36 C :   -0.138799
  37 N :    0.051060
  38 C :   -0.209099
  39 N :    0.245547
  40 C :   -0.205731
  41 N :    0.241202
  42 C :    0.107617
  43 C :    0.007376
  44 C :    0.017900
  45 N :   -0.296811
  46 S :    0.566218
  47 N :   -0.281058
  48 C :    0.002003
  49 C :   -0.063775
  50 C :    0.005893
  51 C :    0.118334
  52 C :   -0.066690
  53 C :    0.040047
  54 C :    0.100629
  55 C :    0.020180
  56 C :   -0.130486
  57 C :    0.052435
  58 C :    0.025580
  59 C :    0.080362
  60 C :    0.023061
  61 C :   -0.106580
  62 C :    0.127328
  63 C :   -0.016083
  64 C :   -0.037597
  65 C :   -0.010581
  66 C :    0.012064
  67 C :   -0.090981
  68 S :    0.111793
  69 C :    0.080171
  70 C :    0.059073
  71 C :   -0.019762
  72 S :    0.639862
  73 N :   -0.423197
  74 O :   -0.472480
  75 C :    0.018131
  76 C :   -0.135193
  77 C :    0.012448
  78 C :   -0.015446
  79 H :   -0.022643
  80 H :   -0.004661
  81 H :   -0.004249
  82 H :    0.049260
  83 H :    0.190341
  84 H :    0.022010
  85 H :    0.013147
  86 H :   -0.010174
  87 H :   -0.025546
  88 H :   -0.029513
  89 H :   -0.023234
  90 H :   -0.002330
  91 H :    0.004727
  92 H :    0.021849
  93 H :    0.010729
  94 H :    0.019898
  95 H :   -0.004257
  96 H :    0.004492
  97 H :   -0.001069
  98 H :    0.006704
  99 H :    0.025925
 100 H :   -0.039856
 101 H :   -0.029735
 102 H :   -0.032491
 103 H :   -0.013914
 104 H :   -0.017804
 105 H :    0.000178
 106 H :    0.034514
 107 H :    0.116861
 108 H :    0.009827
 109 H :    0.023535
 110 H :    0.035695
Sum of atomic charges:   -0.0000000

LOEWDIN ATOMIC CHARGES
----------------------
   0 C :    0.077958
   1 C :   -0.145218
   2 C :   -0.019899
   3 N :   -0.050082
   4 C :   -0.021067
   5 N :   -0.048924
   6 C :   -0.017865
   7 C :   -0.052475
   8 C :    0.021324
   9 C :   -0.033529
  10 C :   -0.143212
  11 C :   -0.005624
  12 S :    0.441494
  13 C :   -0.270115
  14 C :   -0.071246
  15 Br:    0.142559
  16 C :    0.095060
  17 O :   -0.182620
  18 C :   -0.144866
  19 C :    0.112164
  20 N :    0.082066
  21 C :   -0.108484
  22 S :    0.476870
  23 C :   -0.195775
  24 N :    0.272187
  25 O :   -0.204419
  26 O :   -0.219868
  27 C :    0.007788
  28 C :   -0.086390
  29 C :   -0.007079
  30 C :   -0.018140
  31 C :   -0.020899
  32 C :   -0.007120
  33 C :   -0.011971
  34 N :    0.012783
  35 C :   -0.032097
  36 C :   -0.027346
  37 N :    0.001214
  38 C :   -0.038180
  39 N :   -0.000617
  40 C :   -0.037219
  41 N :   -0.004317
  42 C :   -0.001993
  43 C :   -0.039433
  44 C :   -0.036692
  45 N :   -0.276775
  46 S :    0.693180
  47 N :   -0.276119
  48 C :   -0.027002
  49 C :   -0.002236
  50 C :   -0.002349
  51 C :   -0.001300
  52 C :   -0.024026
  53 C :    0.007071
  54 C :   -0.018982
  55 C :    0.008693
  56 C :   -0.034340
  57 C :   -0.015475
  58 C :   -0.056179
  59 C :   -0.008892
  60 C :   -0.062804
  61 C :   -0.019203
  62 C :   -0.022340
  63 C :   -0.014364
  64 C :   -0.011983
  65 C :   -0.013886
  66 C :   -0.039640
  67 C :   -0.150667
  68 S :    0.434691
  69 C :   -0.077551
  70 C :   -0.010273
  71 C :   -0.153822
  72 S :    1.176332
  73 N :   -0.512084
  74 O :   -0.524185
  75 C :   -0.191068
  76 C :   -0.139813
  77 C :   -0.031761
  78 C :   -0.029431
  79 H :    0.036942
  80 H :    0.042711
  81 H :    0.038440
  82 H :    0.036825
  83 H :    0.090747
  84 H :    0.049353
  85 H :    0.026502
  86 H :    0.030527
  87 H :    0.024045
  88 H :    0.029256
  89 H :    0.026208
  90 H :    0.020147
  91 H :    0.019316
  92 H :    0.025604
  93 H :    0.024546
  94 H :    0.025416
  95 H :    0.019327
  96 H :    0.026519
  97 H :    0.018432
  98 H :    0.025387
  99 H :    0.024272
 100 H :    0.024163
 101 H :    0.025356
 102 H :    0.028709
 103 H :    0.022137
 104 H :    0.030890
 105 H :    0.035678
 106 H :    0.031215
 107 H :    0.039514
 108 H :    0.040774
 109 H :    0.019414
 110 H :    0.031528

  Mayer bond orders larger than 0.100000
B(  0-C ,  1-C ) :   1.6312 B(  0-C ,  6-C ) :   1.0030 B(  0-C , 18-C ) :   1.0947
B(  1-C ,  2-C ) :   1.1406 B(  1-C ,  4-C ) :   1.1494 B(  2-C ,  3-N ) :   2.9677
B(  4-C ,  5-N ) :   2.9534 B(  6-C ,  7-C ) :   1.2769 B(  6-C , 11-C ) :   1.4235
B(  7-C ,  8-C ) :   1.4199 B(  7-C , 16-C ) :   0.9786 B(  8-C ,  9-C ) :   1.2448
B(  8-C , 79-H ) :   1.0159 B(  9-C , 10-C ) :   1.3094 B(  9-C , 14-C ) :   1.1642
B( 10-C , 11-C ) :   1.3212 B( 10-C , 12-S ) :   1.0921 B( 11-C , 80-H ) :   0.9791
B( 12-S , 13-C ) :   1.0901 B( 13-C , 14-C ) :   1.6154 B( 13-C , 15-Br) :   1.0229
B( 14-C , 81-H ) :   0.9999 B( 16-C , 17-O ) :   2.0384 B( 16-C , 18-C ) :   1.0017
B( 17-O , 83-H ) :   0.1342 B( 18-C , 19-C ) :   1.4611 B( 19-C , 20-N ) :   1.3365
B( 19-C , 82-H ) :   0.9287 B( 20-N , 21-C ) :   1.1967 B( 20-N , 83-H ) :   0.8271
B( 21-C , 22-S ) :   1.1394 B( 21-C , 28-C ) :   1.3635 B( 22-S , 23-C ) :   1.0811
B( 23-C , 24-N ) :   0.9546 B( 23-C , 27-C ) :   1.5150 B( 24-N , 25-O ) :   1.5442
B( 24-N , 26-O ) :   1.5171 B( 25-O , 26-O ) :   0.2659 B( 27-C , 28-C ) :   1.2053
B( 27-C , 84-H ) :   1.0021 B( 28-C , 29-C ) :   1.0686 B( 29-C , 30-C ) :   1.6407
B( 29-C , 85-H ) :   0.9491 B( 30-C , 31-C ) :   1.1813 B( 30-C , 86-H ) :   0.9646
B( 31-C , 32-C ) :   1.2542 B( 31-C , 42-C ) :   0.1365 B( 31-C , 44-C ) :   1.1817
B( 32-C , 33-C ) :   1.0983 B( 32-C , 37-N ) :   1.4273 B( 33-C , 34-N ) :   1.4192
B( 33-C , 42-C ) :   1.3048 B( 34-N , 35-C ) :   1.7539 B( 35-C , 36-C ) :   1.1860
B( 35-C , 40-C ) :   1.1512 B( 36-C , 37-N ) :   1.7613 B( 36-C , 38-C ) :   1.1503
B( 38-C , 39-N ) :   3.0509 B( 40-C , 41-N ) :   3.0522 B( 42-C , 43-C ) :   1.2390
B( 42-C , 48-C ) :   1.0192 B( 43-C , 44-C ) :   1.1022 B( 43-C , 47-N ) :   1.4909
B( 44-C , 45-N ) :   1.4794 B( 45-N , 46-S ) :   1.2840 B( 45-N , 47-N ) :   0.1541
B( 46-S , 47-N ) :   1.2926 B( 48-C , 49-C ) :   1.3022 B( 48-C , 53-C ) :   1.3503
B( 49-C , 50-C ) :   1.4089 B( 49-C , 87-H ) :   0.9936 B( 50-C , 51-C ) :   1.3713
B( 50-C , 56-C ) :   0.9151 B( 51-C , 52-C ) :   1.3312 B( 51-C , 54-C ) :   1.0009
B( 52-C , 53-C ) :   1.3952 B( 52-C , 88-H ) :   0.9923 B( 53-C , 89-H ) :   0.9789
B( 54-C , 55-C ) :   1.3780 B( 54-C , 64-C ) :   1.3249 B( 55-C , 56-C ) :   0.9234
B( 55-C , 61-C ) :   1.3800 B( 56-C , 57-C ) :   1.0342 B( 56-C , 59-C ) :   1.0142
B( 57-C , 58-C ) :   1.1055 B( 57-C , 90-H ) :   0.9387 B( 57-C , 91-H ) :   0.9375
B( 58-C , 92-H ) :   0.9630 B( 58-C , 93-H ) :   0.9645 B( 58-C , 94-H ) :   0.9648
B( 59-C , 60-C ) :   1.1146 B( 59-C , 95-H ) :   0.9370 B( 59-C , 96-H ) :   0.9383
B( 60-C , 97-H ) :   0.9616 B( 60-C , 98-H ) :   0.9573 B( 60-C , 99-H ) :   0.9577
B( 61-C , 62-C ) :   1.2890 B( 61-C ,100-H ) :   1.0106 B( 62-C , 63-C ) :   1.3403
B( 62-C , 65-C ) :   1.0693 B( 63-C , 64-C ) :   1.4048 B( 63-C ,101-H ) :   0.9852
B( 64-C ,102-H ) :   0.9898 B( 65-C , 66-C ) :   1.6793 B( 65-C ,103-H ) :   0.9813
B( 66-C , 67-C ) :   1.1563 B( 66-C ,104-H ) :   0.9649 B( 67-C , 68-S ) :   1.0938
B( 67-C , 69-C ) :   1.4791 B( 68-S , 76-C ) :   1.1006 B( 69-C , 70-C ) :   1.0802
B( 69-C , 75-C ) :   1.2282 B( 70-C , 71-C ) :   1.7727 B( 70-C ,105-H ) :   0.9874
B( 71-C , 72-S ) :   0.8267 B( 71-C ,106-H ) :   0.9609 B( 72-S , 73-N ) :   1.5703
B( 72-S , 74-O ) :   1.6539 B( 72-S , 75-C ) :   0.7810 B( 73-N ,107-H ) :   0.9317
B( 75-C , 76-C ) :   1.6317 B( 76-C , 77-C ) :   1.1360 B( 77-C , 78-C ) :   1.9095
B( 77-C ,108-H ) :   0.9585 B( 78-C ,109-H ) :   0.9561 B( 78-C ,110-H ) :   0.9510

-----------------------------------------------------------------------------
         ABSORPTION SPECTRUM VIA TRANSITION ELECTRIC DIPOLE MOMENTS
-----------------------------------------------------------------------------
State   Energy  Wavelength   fosc         T2         TX        TY        TZ
        (cm-1)    (nm)                  (au**2)     (au)      (au)      (au)
-----------------------------------------------------------------------------
   0   12063.7    828.9   0.596134338  16.26824   2.98764   1.50357  -2.25423
   1   17533.0    570.4   0.101991970   1.91508   0.48815  -1.18358   0.52528
   2   21235.9    470.9   0.606409706   9.40093   2.30624  -2.00551  -0.24518
   3   22683.5    440.8   0.017991822   0.26112  -0.36839   0.23533   0.26462
   4   23738.8    421.3   0.014548019   0.20175   0.37647  -0.16500   0.18111
   5   24249.2    412.4   0.038786122   0.52657  -0.14624   0.67457  -0.22391
   6   25986.0    384.8   0.397667765   5.03798  -1.16284  -1.13739   1.54665
   7   26240.7    381.1   0.460004024   5.77114  -0.76445  -1.53098   1.68608
   8   26796.1    373.2   0.601638502   7.39162  -0.53928  -2.14615   1.57951
   9   27168.1    368.1   0.301689819   3.65575   1.20882   0.56132  -1.37092
  10   27296.2    366.4   0.159547944   1.92427  -1.01903  -0.29945   0.89228
  11   27633.2    361.9   0.322201248   3.83859   0.40117   1.39180  -1.31930
  12   27931.1    358.0   0.020673609   0.24367   0.02665   0.49251  -0.01992
  13   29524.0    338.7   0.024990468   0.27866  -0.48157  -0.07298   0.20352
  14   29783.4    335.8   0.213478463   2.35969   0.68900   1.15599  -0.74072
  15   30045.5    332.8   0.219515013   2.40525  -0.84763   1.25612  -0.33003
  16   30194.3    331.2   0.195999083   2.13700  -0.47793  -1.20840   0.66960
  17   30467.1    328.2   0.007185542   0.07764  -0.19431   0.16417   0.11373
  18   30787.6    324.8   0.001999223   0.02138  -0.12765  -0.05323   0.04744
  19   31236.1    320.1   0.204703516   2.15747  -0.24464  -1.28204   0.67379
  20   31850.9    314.0   0.024801217   0.25635   0.41491  -0.28133  -0.07103
  21   32034.6    312.2   0.190068693   1.95329   1.03456  -0.92552  -0.16242
  22   32490.4    307.8   0.423259377   4.28872  -1.31513   1.59894  -0.05030
  23   32636.3    306.4   0.156492724   1.57859  -0.20778  -1.09644   0.57726
  24   32968.4    303.3   0.071523207   0.71421   0.81233   0.09549  -0.21264
  25   33166.9    301.5   0.114320433   1.13473  -0.51366  -0.76189   0.53890
  26   33321.1    300.1   0.192007091   1.89703  -0.33203   1.30239  -0.30093
  27   33573.0    297.9   0.001022293   0.01002   0.00187  -0.09204   0.03937
  28   34403.5    290.7   0.151997984   1.45449   0.94165  -0.75026  -0.06998
  29   34450.0    290.3   0.497522581   4.75444  -1.98720   0.78451   0.43591
  30   34484.5    290.0   0.058352476   0.55707  -0.67404   0.30448   0.10013
  31   34615.6    288.9   0.005546026   0.05275  -0.20444  -0.05669   0.08796
  32   34710.8    288.1   0.332260192   3.15129   1.29015   0.84070  -0.88319
  33   35263.7    283.6   0.195622767   1.82628   0.57641   1.01579  -0.67985
  34   35573.4    281.1   0.002223375   0.02058  -0.13988   0.03051  -0.00893
  35   35656.3    280.5   0.013722560   0.12670   0.25895   0.18654  -0.15762
  36   35807.7    279.3   0.000852889   0.00784  -0.03348  -0.05918   0.05673
  37   36055.3    277.4   0.218761801   1.99746   0.60218  -1.20936   0.41507
  38   36330.9    275.2   0.042945535   0.38915  -0.11467  -0.51557   0.33195
  39   37088.4    269.6   0.029417419   0.26112  -0.02937  -0.43792   0.26169
  40   37714.1    265.2   0.001206350   0.01053   0.05275  -0.08617   0.01794
  41   37958.1    263.4   0.010524795   0.09128   0.08673  -0.26047   0.12614
  42   38099.3    262.5   0.000789887   0.00683  -0.07959   0.01233  -0.01840
  43   38389.7    260.5   0.001895216   0.01625  -0.08419   0.06450   0.07074
  44   38460.4    260.0   0.251317837   2.15122   0.62886  -1.28839   0.30953
  45   38620.4    258.9   0.011635496   0.09918   0.01002  -0.25785   0.18055
  46   39066.0    256.0   0.055484650   0.46757  -0.28298  -0.53817   0.31284
  47   39232.1    254.9   0.026859865   0.22539   0.33003  -0.28897  -0.18158
  48   39386.2    253.9   0.157922780   1.32001   0.99857   0.00312  -0.56821
  49   39462.9    253.4   0.149946577   1.25090   0.85977  -0.70706  -0.10845
  50   39739.3    251.6   0.013267881   0.10991   0.27585  -0.16212  -0.08684
  51   39842.5    251.0   0.010177579   0.08410  -0.12058   0.04049  -0.26061
  52   39946.7    250.3   0.002781328   0.02292  -0.14926   0.01564  -0.02000
  53   40157.7    249.0   0.013211918   0.10831   0.12767  -0.28596   0.10117

FINAL SINGLE POINT ENERGY     -7692.661902194328

DIPOLE MOMENT
-------------
                                X             Y             Z
Electronic contribution:   -150.85061      23.70469      92.53485
Nuclear contribution   :    150.06829     -19.82691     -93.76360
                        -----------------------------------------
Total Dipole Moment    :     -0.78232       3.87777      -1.22875
                        -----------------------------------------
Magnitude (a.u.)       :      4.14234
Magnitude (Debye)      :     10.52899

Rotational constants in cm-1:     0.000712     0.000219     0.000169
Rotational constants in MHz :    21.348092     6.562568     5.076598

                             ****ORCA TERMINATED NORMALLY****
TOTAL RUN TIME: 0 days 0 hours 18 minutes 20 seconds 345 msec
