                         Program Version 4.2.0 -  RELEASE  -
|  1> # ORCA input file
|  2> # SCF done       -158.601956974796          0.000648705182
|  3> ! CAM-B3LYP def2-SVP def2/J RIJCOSX Grid4 TightSCF
|  4> %maxcore 5000
|  5> %tddft
|  6>     Mode sTDDFT
|  7>     Ethresh 5.0
|  8>     maxcore 5000
|  9> end
| 10>
| 11> %pal
| 12>   nprocs 6
| 13>   end
| 14> * xyz 0 1
| 15>    C       -2.02252         2.75695         7.69451
| 16>    C       -2.27714         2.75484         9.04638
| 17>    C       -1.77405         3.71537         9.94562
| 18>    N       -1.39709         4.46354        10.73179
| 19>    C       -3.06988         1.81569         9.73487
| 20>    N       -3.70054         1.09828        10.37433
| 21>    C       -1.20386         3.74936         6.99899
| 22>    C       -1.19076         3.43599         5.61810
| 23>    C       -0.50145         4.17928         4.69302
| 24>    C        0.21591         5.28931         5.15343
| 25>    C        0.19811         5.59558         6.53326
| 26>    C       -0.50317         4.84279         7.46908
| 27>    S        1.15406         7.00312         6.88769
| 28>    C        1.55867         7.15753         5.19883
| 29>    C        1.00768         6.20635         4.40878
| 30>   Br        2.67430         8.55789         4.63774
| 31>    C       -2.00383         2.22544         5.39483
| 32>    O       -2.20887         1.68866         4.31708
| 33>    C       -2.49444         1.81650         6.70820
| 34>    C       -3.26404         0.69649         6.95864
| 35>    C       -3.74123        -0.27205         6.08539
| 36>    S       -3.53368        -0.36917         4.33892
| 37>    C       -4.48826        -1.38133         6.50609
| 38>    S       -5.06532        -1.94336         8.03073
| 39>    C       -5.75909        -3.31377         7.17065
| 40>    N       -5.58447        -3.34932         5.90544
| 41>    C       -4.87085        -2.27203         5.48812
| 42>    C       -4.43626        -1.86506         4.21476
| 43>    C       -4.66500        -2.54018         3.01812
| 44>    C       -4.27632        -2.04112         1.79262
| 45>    C       -4.42096        -2.61920         0.53754
| 46>    C       -4.25932        -1.92568        -0.68564
| 47>    C       -3.84983        -0.60752        -0.93454
| 48>    C       -3.74037        -0.17392        -2.22875
| 49>    C       -4.00941        -1.03432        -3.31241
| 50>    C       -4.42759        -2.31970        -3.11106
| 51>    C       -4.59483        -2.78614        -1.79082
| 52>    C       -4.96707        -4.03072        -1.27291
| 53>    C       -4.76971        -4.00363         0.18344
| 54>    C       -4.75842        -5.08448         0.97347
| 55>    N       -5.37792        -5.15542        -1.90818
| 56>    C       -6.05503        -5.29918        -3.07344
| 57>    S       -6.98869        -4.01071        -3.77825
| 58>    C       -7.64611        -5.14411        -4.92145
| 59>    N       -8.53891        -4.64575        -5.87245
| 60>    O       -9.00920        -5.42883        -6.67906
| 61>    O       -8.78277        -3.44982        -5.81918
| 62>    C       -7.18450        -6.42175        -4.76145
| 63>    C       -6.24915        -6.53935        -3.71329
| 64>    C       -5.60259        -7.76781        -3.38167
| 65>    C       -4.42279        -7.89534        -2.70977
| 66>    C       -3.78913        -9.09779        -2.33973
| 67>    C       -4.28150       -10.40109        -2.25028
| 68>    C       -5.57410       -10.95147        -2.39638
| 69>    C       -5.75377       -12.29400        -2.24477
| 70>    C       -4.67482       -13.16426        -1.93088
| 71>    C       -3.42098       -12.68274        -1.73406
| 72>    C       -3.18739       -11.28918        -1.87401
| 73>    C       -2.04508       -10.55260        -1.70936
| 74>    C       -2.35757        -9.16439        -1.96429
| 75>    C       -1.48632        -8.15016        -1.87428
| 76>    H       -0.51209         3.91349         3.64761
| 77>    H       -0.48289         5.11913         8.50974
| 78>    H        1.15305         6.15084         3.34542
| 79>    H       -3.54326         0.51299         7.98963
| 80>    H       -6.29628        -4.06350         7.71695
| 81>    H       -5.22119        -3.46137         3.10234
| 82>    H       -3.85171        -1.04413         1.80639
| 83>    H       -3.61250         0.05111        -0.11360
| 84>    H       -3.42536         0.83804        -2.43421
| 85>    H       -3.87395        -0.66522        -4.31756
| 86>    H       -4.59374        -2.97394        -3.95150
| 87>    H       -4.51491        -5.02517         2.01726
| 88>    H       -4.95967        -6.07748         0.60084
| 89>    H       -5.29916        -6.01683        -1.37153
| 90>    H       -7.49326        -7.23336        -5.39497
| 91>    H       -6.07551        -8.65102        -3.78221
| 92>    H       -3.85519        -6.99536        -2.50503
| 93>    H       -6.42068       -10.31512        -2.60120
| 94>    H       -6.73990       -12.72081        -2.35429
| 95>    H       -4.87850       -14.22021        -1.83205
| 96>    H       -2.59926       -13.33079        -1.46837
| 97>    H       -1.07128       -10.91359        -1.43891
| 98>    H       -0.46101        -8.32903        -1.59672
| 99>    H       -1.75354        -7.12520        -2.06931
|100> *
|101>
|102>                          ****END OF INPUT****

CARTESIAN COORDINATES (ANGSTROEM)
---------------------------------
  C     -2.022520    2.756950    7.694510
  C     -2.277140    2.754840    9.046380
  C     -1.774050    3.715370    9.945620
  N     -1.397090    4.463540   10.731790
  C     -3.069880    1.815690    9.734870
  N     -3.700540    1.098280   10.374330
  C     -1.203860    3.749360    6.998990
  C     -1.190760    3.435990    5.618100
  C     -0.501450    4.179280    4.693020
  C      0.215910    5.289310    5.153430
  C      0.198110    5.595580    6.533260
  C     -0.503170    4.842790    7.469080
  S      1.154060    7.003120    6.887690
  C      1.558670    7.157530    5.198830
  C      1.007680    6.206350    4.408780
  Br     2.674300    8.557890    4.637740
  C     -2.003830    2.225440    5.394830
  O     -2.208870    1.688660    4.317080
  C     -2.494440    1.816500    6.708200
  C     -3.264040    0.696490    6.958640
  C     -3.741230   -0.272050    6.085390
  S     -3.533680   -0.369170    4.338920
  C     -4.488260   -1.381330    6.506090
  S     -5.065320   -1.943360    8.030730
  C     -5.759090   -3.313770    7.170650
  N     -5.584470   -3.349320    5.905440
  C     -4.870850   -2.272030    5.488120
  C     -4.436260   -1.865060    4.214760
  C     -4.665000   -2.540180    3.018120
  C     -4.276320   -2.041120    1.792620
  C     -4.420960   -2.619200    0.537540
  C     -4.259320   -1.925680   -0.685640
  C     -3.849830   -0.607520   -0.934540
  C     -3.740370   -0.173920   -2.228750
  C     -4.009410   -1.034320   -3.312410
  C     -4.427590   -2.319700   -3.111060
  C     -4.594830   -2.786140   -1.790820
  C     -4.967070   -4.030720   -1.272910
  C     -4.769710   -4.003630    0.183440
  C     -4.758420   -5.084480    0.973470
  N     -5.377920   -5.155420   -1.908180
  C     -6.055030   -5.299180   -3.073440
  S     -6.988690   -4.010710   -3.778250
  C     -7.646110   -5.144110   -4.921450
  N     -8.538910   -4.645750   -5.872450
  O     -9.009200   -5.428830   -6.679060
  O     -8.782770   -3.449820   -5.819180
  C     -7.184500   -6.421750   -4.761450
  C     -6.249150   -6.539350   -3.713290
  C     -5.602590   -7.767810   -3.381670
  C     -4.422790   -7.895340   -2.709770
  C     -3.789130   -9.097790   -2.339730
  C     -4.281500  -10.401090   -2.250280
  C     -5.574100  -10.951470   -2.396380
  C     -5.753770  -12.294000   -2.244770
  C     -4.674820  -13.164260   -1.930880
  C     -3.420980  -12.682740   -1.734060
  C     -3.187390  -11.289180   -1.874010
  C     -2.045080  -10.552600   -1.709360
  C     -2.357570   -9.164390   -1.964290
  C     -1.486320   -8.150160   -1.874280
  H     -0.512090    3.913490    3.647610
  H     -0.482890    5.119130    8.509740
  H      1.153050    6.150840    3.345420
  H     -3.543260    0.512990    7.989630
  H     -6.296280   -4.063500    7.716950
  H     -5.221190   -3.461370    3.102340
  H     -3.851710   -1.044130    1.806390
  H     -3.612500    0.051110   -0.113600
  H     -3.425360    0.838040   -2.434210
  H     -3.873950   -0.665220   -4.317560
  H     -4.593740   -2.973940   -3.951500
  H     -4.514910   -5.025170    2.017260
  H     -4.959670   -6.077480    0.600840
  H     -5.299160   -6.016830   -1.371530
  H     -7.493260   -7.233360   -5.394970
  H     -6.075510   -8.651020   -3.782210
  H     -3.855190   -6.995360   -2.505030
  H     -6.420680  -10.315120   -2.601200
  H     -6.739900  -12.720810   -2.354290
  H     -4.878500  -14.220210   -1.832050
  H     -2.599260  -13.330790   -1.468370
  H     -1.071280  -10.913590   -1.438910
  H     -0.461010   -8.329030   -1.596720
  H     -1.753540   -7.125200   -2.069310

 Total Charge           Charge          ....    0
 Multiplicity           Mult            ....    1
 Number of Electrons    NEL             ....  470
 Basis Dimension        Dim             .... 1008

ORBITAL ENERGIES
----------------

  NO   OCC          E(Eh)            E(eV)
   0   2.0000    -482.876748    -13139.7443
   1   2.0000     -88.991725     -2421.5879
   2   2.0000     -88.964168     -2420.8381
   3   2.0000     -88.963176     -2420.8111
   4   2.0000     -88.952326     -2420.5158
   5   2.0000     -62.554473     -1702.1937
   6   2.0000     -56.388409     -1534.4066
   7   2.0000     -56.385719     -1534.3334
   8   2.0000     -56.385679     -1534.3323
   9   2.0000     -19.240966      -523.5733
  10   2.0000     -19.240555      -523.5621
  11   2.0000     -19.202272      -522.5204
  12   2.0000     -14.652195      -398.7065
  13   2.0000     -14.505000      -394.7011
  14   2.0000     -14.415202      -392.2576
  15   2.0000     -14.398513      -391.8035
  16   2.0000     -14.395289      -391.7157
  17   2.0000     -10.375309      -282.3265
  18   2.0000     -10.359765      -281.9035
  19   2.0000     -10.350647      -281.6554
  20   2.0000     -10.348906      -281.6080
  21   2.0000     -10.347755      -281.5767
  22   2.0000     -10.333695      -281.1941
  23   2.0000     -10.322206      -280.8815
  24   2.0000     -10.322076      -280.8780
  25   2.0000     -10.318577      -280.7828
  26   2.0000     -10.318453      -280.7794
  27   2.0000     -10.316135      -280.7163
  28   2.0000     -10.314654      -280.6760
  29   2.0000     -10.312005      -280.6039
  30   2.0000     -10.310524      -280.5636
  31   2.0000     -10.309948      -280.5480
  32   2.0000     -10.309724      -280.5419
  33   2.0000     -10.304729      -280.4059
  34   2.0000     -10.303399      -280.3697
  35   2.0000     -10.302687      -280.3504
  36   2.0000     -10.301665      -280.3226
  37   2.0000     -10.301044      -280.3057
  38   2.0000     -10.300606      -280.2937
  39   2.0000     -10.299951      -280.2759
  40   2.0000     -10.299689      -280.2688
  41   2.0000     -10.297381      -280.2060
  42   2.0000     -10.297223      -280.2017
  43   2.0000     -10.294898      -280.1384
  44   2.0000     -10.294614      -280.1307
  45   2.0000     -10.294153      -280.1181
  46   2.0000     -10.292718      -280.0791
  47   2.0000     -10.292451      -280.0718
  48   2.0000     -10.290496      -280.0186
  49   2.0000     -10.290136      -280.0088
  50   2.0000     -10.288309      -279.9591
  51   2.0000     -10.287575      -279.9391
  52   2.0000     -10.287307      -279.9318
  53   2.0000     -10.287014      -279.9239
  54   2.0000     -10.286355      -279.9059
  55   2.0000     -10.286341      -279.9056
  56   2.0000     -10.286150      -279.9004
  57   2.0000     -10.285704      -279.8882
  58   2.0000     -10.285365      -279.8790
  59   2.0000     -10.284732      -279.8618
  60   2.0000     -10.281151      -279.7643
  61   2.0000     -10.280249      -279.7398
  62   2.0000     -10.277011      -279.6517
  63   2.0000     -10.273268      -279.5498
  64   2.0000     -10.272531      -279.5298
  65   2.0000      -8.783906      -239.0222
  66   2.0000      -8.086640      -220.0487
  67   2.0000      -8.060127      -219.3272
  68   2.0000      -8.059023      -219.2972
  69   2.0000      -8.045207      -218.9212
  70   2.0000      -6.620164      -180.1438
  71   2.0000      -6.605647      -179.7488
  72   2.0000      -6.605488      -179.7445
  73   2.0000      -6.056365      -164.8021
  74   2.0000      -6.051860      -164.6795
  75   2.0000      -6.048062      -164.5761
  76   2.0000      -6.029828      -164.0800
  77   2.0000      -6.028351      -164.0398
  78   2.0000      -6.025545      -163.9634
  79   2.0000      -6.024268      -163.9287
  80   2.0000      -6.021352      -163.8493
  81   2.0000      -6.020843      -163.8355
  82   2.0000      -6.014917      -163.6742
  83   2.0000      -6.010454      -163.5528
  84   2.0000      -6.006828      -163.4541
  85   2.0000      -2.735999       -74.4503
  86   2.0000      -2.731959       -74.3404
  87   2.0000      -2.731884       -74.3383
  88   2.0000      -2.720316       -74.0236
  89   2.0000      -2.720306       -74.0233
  90   2.0000      -1.320658       -35.9369
  91   2.0000      -1.139845       -31.0168
  92   2.0000      -1.116908       -30.3926
  93   2.0000      -1.110299       -30.2128
  94   2.0000      -1.068031       -29.0626
  95   2.0000      -1.016574       -27.6624
  96   2.0000      -1.008552       -27.4441
  97   2.0000      -0.997229       -27.1360
  98   2.0000      -0.995572       -27.0909
  99   2.0000      -0.993737       -27.0409
 100   2.0000      -0.976610       -26.5749
 101   2.0000      -0.975050       -26.5325
 102   2.0000      -0.970988       -26.4219
 103   2.0000      -0.943049       -25.6617
 104   2.0000      -0.935918       -25.4676
 105   2.0000      -0.928949       -25.2780
 106   2.0000      -0.923871       -25.1398
 107   2.0000      -0.914421       -24.8827
 108   2.0000      -0.894459       -24.3395
 109   2.0000      -0.894148       -24.3310
 110   2.0000      -0.884142       -24.0587
 111   2.0000      -0.881225       -23.9793
 112   2.0000      -0.875031       -23.8108
 113   2.0000      -0.872018       -23.7288
 114   2.0000      -0.869447       -23.6588
 115   2.0000      -0.862183       -23.4612
 116   2.0000      -0.861583       -23.4449
 117   2.0000      -0.849167       -23.1070
 118   2.0000      -0.847196       -23.0534
 119   2.0000      -0.821319       -22.3492
 120   2.0000      -0.816994       -22.2315
 121   2.0000      -0.816060       -22.2061
 122   2.0000      -0.802560       -21.8388
 123   2.0000      -0.791105       -21.5271
 124   2.0000      -0.779600       -21.2140
 125   2.0000      -0.769871       -20.9492
 126   2.0000      -0.767762       -20.8919
 127   2.0000      -0.748325       -20.3629
 128   2.0000      -0.743267       -20.2253
 129   2.0000      -0.731040       -19.8926
 130   2.0000      -0.722539       -19.6613
 131   2.0000      -0.706192       -19.2165
 132   2.0000      -0.697228       -18.9725
 133   2.0000      -0.695065       -18.9137
 134   2.0000      -0.683796       -18.6070
 135   2.0000      -0.681324       -18.5398
 136   2.0000      -0.678982       -18.4761
 137   2.0000      -0.675426       -18.3793
 138   2.0000      -0.666200       -18.1282
 139   2.0000      -0.664025       -18.0691
 140   2.0000      -0.646493       -17.5920
 141   2.0000      -0.645103       -17.5541
 142   2.0000      -0.642963       -17.4959
 143   2.0000      -0.638090       -17.3633
 144   2.0000      -0.637040       -17.3347
 145   2.0000      -0.633415       -17.2361
 146   2.0000      -0.624979       -17.0065
 147   2.0000      -0.623023       -16.9533
 148   2.0000      -0.621056       -16.8998
 149   2.0000      -0.608678       -16.5630
 150   2.0000      -0.604244       -16.4423
 151   2.0000      -0.598693       -16.2913
 152   2.0000      -0.586622       -15.9628
 153   2.0000      -0.581546       -15.8247
 154   2.0000      -0.579702       -15.7745
 155   2.0000      -0.578143       -15.7321
 156   2.0000      -0.576368       -15.6838
 157   2.0000      -0.570600       -15.5268
 158   2.0000      -0.568349       -15.4656
 159   2.0000      -0.562956       -15.3188
 160   2.0000      -0.558244       -15.1906
 161   2.0000      -0.551027       -14.9942
 162   2.0000      -0.547302       -14.8928
 163   2.0000      -0.544665       -14.8211
 164   2.0000      -0.536674       -14.6036
 165   2.0000      -0.534331       -14.5399
 166   2.0000      -0.530311       -14.4305
 167   2.0000      -0.527899       -14.3649
 168   2.0000      -0.527815       -14.3626
 169   2.0000      -0.527267       -14.3477
 170   2.0000      -0.519940       -14.1483
 171   2.0000      -0.519015       -14.1231
 172   2.0000      -0.517068       -14.0701
 173   2.0000      -0.515859       -14.0372
 174   2.0000      -0.513790       -13.9809
 175   2.0000      -0.510504       -13.8915
 176   2.0000      -0.506366       -13.7789
 177   2.0000      -0.506042       -13.7701
 178   2.0000      -0.503731       -13.7072
 179   2.0000      -0.499279       -13.5861
 180   2.0000      -0.497375       -13.5343
 181   2.0000      -0.495712       -13.4890
 182   2.0000      -0.491783       -13.3821
 183   2.0000      -0.487757       -13.2726
 184   2.0000      -0.481261       -13.0958
 185   2.0000      -0.478388       -13.0176
 186   2.0000      -0.476178       -12.9575
 187   2.0000      -0.471413       -12.8278
 188   2.0000      -0.468026       -12.7356
 189   2.0000      -0.462413       -12.5829
 190   2.0000      -0.460748       -12.5376
 191   2.0000      -0.457113       -12.4387
 192   2.0000      -0.447687       -12.1822
 193   2.0000      -0.446440       -12.1483
 194   2.0000      -0.445033       -12.1100
 195   2.0000      -0.439994       -11.9729
 196   2.0000      -0.436802       -11.8860
 197   2.0000      -0.436550       -11.8791
 198   2.0000      -0.434076       -11.8118
 199   2.0000      -0.431109       -11.7311
 200   2.0000      -0.430628       -11.7180
 201   2.0000      -0.429553       -11.6887
 202   2.0000      -0.428340       -11.6557
 203   2.0000      -0.426878       -11.6160
 204   2.0000      -0.425116       -11.5680
 205   2.0000      -0.416813       -11.3421
 206   2.0000      -0.413166       -11.2428
 207   2.0000      -0.410562       -11.1720
 208   2.0000      -0.409554       -11.1445
 209   2.0000      -0.406848       -11.0709
 210   2.0000      -0.395665       -10.7666
 211   2.0000      -0.393367       -10.7041
 212   2.0000      -0.388792       -10.5796
 213   2.0000      -0.387251       -10.5376
 214   2.0000      -0.381046       -10.3688
 215   2.0000      -0.376024       -10.2321
 216   2.0000      -0.374509       -10.1909
 217   2.0000      -0.369165       -10.0455
 218   2.0000      -0.367067        -9.9884
 219   2.0000      -0.366444        -9.9714
 220   2.0000      -0.359938        -9.7944
 221   2.0000      -0.352357        -9.5881
 222   2.0000      -0.351213        -9.5570
 223   2.0000      -0.343610        -9.3501
 224   2.0000      -0.338144        -9.2014
 225   2.0000      -0.333042        -9.0625
 226   2.0000      -0.325026        -8.8444
 227   2.0000      -0.318283        -8.6609
 228   2.0000      -0.310663        -8.4536
 229   2.0000      -0.309180        -8.4132
 230   2.0000      -0.301836        -8.2134
 231   2.0000      -0.282259        -7.6806
 232   2.0000      -0.271135        -7.3780
 233   2.0000      -0.244358        -6.6493
 234   2.0000      -0.213219        -5.8020
 235   0.0000      -0.113493        -3.0883
 236   0.0000      -0.092771        -2.5244
 237   0.0000      -0.073413        -1.9977
 238   0.0000      -0.053272        -1.4496
 239   0.0000      -0.046781        -1.2730

MULLIKEN ATOMIC CHARGES
-----------------------
   0 C :    0.333724
   1 C :   -0.371213
   2 C :   -0.188216
   3 N :    0.133039
   4 C :   -0.186179
   5 N :    0.130714
   6 C :    0.010592
   7 C :   -0.005835
   8 C :   -0.081253
   9 C :    0.118763
  10 C :   -0.092877
  11 C :   -0.025494
  12 S :    0.179484
  13 C :   -0.124265
  14 C :    0.035760
  15 Br:    0.012663
  16 C :    0.156105
  17 O :   -0.197590
  18 C :   -0.116164
  19 C :   -0.038706
  20 C :   -0.130003
  21 S :    0.159669
  22 C :   -0.019389
  23 S :    0.131719
  24 C :    0.005609
  25 N :   -0.048889
  26 C :    0.080182
  27 C :   -0.089389
  28 C :   -0.076403
  29 C :   -0.019143
  30 C :    0.080595
  31 C :    0.058058
  32 C :   -0.032140
  33 C :    0.048589
  34 C :    0.014687
  35 C :   -0.020674
  36 C :    0.000770
  37 C :    0.014948
  38 C :    0.032641
  39 C :   -0.052666
  40 N :    0.018401
  41 C :   -0.118284
  42 S :    0.185366
  43 C :   -0.010033
  44 N :    0.277087
  45 O :   -0.250506
  46 O :   -0.264673
  47 C :    0.011823
  48 C :    0.117600
  49 C :   -0.037500
  50 C :   -0.069330
  51 C :    0.070816
  52 C :    0.029220
  53 C :   -0.018557
  54 C :    0.029369
  55 C :    0.020482
  56 C :    0.015883
  57 C :    0.079262
  58 C :   -0.056688
  59 C :    0.037517
  60 C :   -0.019737
  61 H :   -0.018587
  62 H :   -0.009620
  63 H :   -0.007806
  64 H :   -0.004336
  65 H :    0.042313
  66 H :   -0.014023
  67 H :   -0.003142
  68 H :   -0.012274
  69 H :   -0.001040
  70 H :   -0.004844
  71 H :   -0.012281
  72 H :    0.055219
  73 H :    0.027120
  74 H :    0.142908
  75 H :    0.010771
  76 H :   -0.007978
  77 H :   -0.027269
  78 H :   -0.029814
  79 H :   -0.008144
  80 H :   -0.006546
  81 H :   -0.023185
  82 H :   -0.027873
  83 H :    0.038899
  84 H :    0.032196
Sum of atomic charges:   -0.0000000

LOEWDIN ATOMIC CHARGES
----------------------
   0 C :    0.076081
   1 C :   -0.161477
   2 C :   -0.018930
   3 N :   -0.071102
   4 C :   -0.021193
   5 N :   -0.069653
   6 C :   -0.017081
   7 C :   -0.048226
   8 C :    0.015220
   9 C :   -0.037259
  10 C :   -0.146475
  11 C :   -0.013260
  12 S :    0.427865
  13 C :   -0.275713
  14 C :   -0.071908
  15 Br:    0.128351
  16 C :    0.081482
  17 O :   -0.184089
  18 C :   -0.131423
  19 C :    0.039645
  20 C :   -0.211299
  21 S :    0.483566
  22 C :   -0.172823
  23 S :    0.413495
  24 C :   -0.107545
  25 N :   -0.086315
  26 C :   -0.092767
  27 C :   -0.130151
  28 C :   -0.090978
  29 C :    0.020044
  30 C :   -0.080790
  31 C :    0.027830
  32 C :   -0.020625
  33 C :    0.008271
  34 C :   -0.027329
  35 C :   -0.015772
  36 C :   -0.070876
  37 C :    0.041878
  38 C :   -0.011016
  39 C :    0.036717
  40 N :    0.068205
  41 C :   -0.119848
  42 S :    0.483663
  43 C :   -0.206353
  44 N :    0.273523
  45 O :   -0.216702
  46 O :   -0.231445
  47 C :   -0.001218
  48 C :   -0.086953
  49 C :   -0.040719
  50 C :   -0.034517
  51 C :   -0.055204
  52 C :   -0.003671
  53 C :   -0.025782
  54 C :   -0.009703
  55 C :   -0.023408
  56 C :   -0.006562
  57 C :   -0.015650
  58 C :   -0.024940
  59 C :   -0.012048
  60 C :    0.046418
  61 H :    0.037444
  62 H :    0.040177
  63 H :    0.036725
  64 H :    0.043810
  65 H :    0.019324
  66 H :    0.029573
  67 H :    0.027918
  68 H :    0.034503
  69 H :    0.034835
  70 H :    0.032944
  71 H :    0.020059
  72 H :    0.041802
  73 H :    0.026775
  74 H :    0.093934
  75 H :    0.046489
  76 H :    0.031812
  77 H :    0.021186
  78 H :    0.025994
  79 H :    0.031079
  80 H :    0.031047
  81 H :    0.031366
  82 H :    0.023797
  83 H :    0.036929
  84 H :    0.029024

  Mayer bond orders larger than 0.100000
B(  0-C ,  1-C ) :   1.5780 B(  0-C ,  6-C ) :   0.9869 B(  0-C , 18-C ) :   1.1247
B(  1-C ,  2-C ) :   1.1520 B(  1-C ,  4-C ) :   1.1537 B(  2-C ,  3-N ) :   2.9597
B(  4-C ,  5-N ) :   2.9496 B(  6-C ,  7-C ) :   1.2794 B(  6-C , 11-C ) :   1.4248
B(  7-C ,  8-C ) :   1.4284 B(  7-C , 16-C ) :   0.9508 B(  8-C ,  9-C ) :   1.2356
B(  8-C , 61-H ) :   1.0171 B(  9-C , 10-C ) :   1.3195 B(  9-C , 14-C ) :   1.1604
B( 10-C , 11-C ) :   1.3160 B( 10-C , 12-S ) :   1.0827 B( 11-C , 62-H ) :   0.9797
B( 12-S , 13-C ) :   1.0865 B( 13-C , 14-C ) :   1.6204 B( 13-C , 15-Br) :   1.0117
B( 14-C , 63-H ) :   0.9999 B( 16-C , 17-O ) :   2.1135 B( 16-C , 18-C ) :   1.0014
B( 18-C , 19-C ) :   1.4047 B( 19-C , 20-C ) :   1.3893 B( 19-C , 64-H ) :   0.9367
B( 20-C , 21-S ) :   1.0458 B( 20-C , 22-C ) :   1.3278 B( 21-S , 27-C ) :   1.1038
B( 22-C , 23-S ) :   1.1104 B( 22-C , 26-C ) :   1.3373 B( 23-S , 24-C ) :   1.0906
B( 23-S , 25-N ) :   0.1001 B( 24-C , 25-N ) :   1.7755 B( 24-C , 65-H ) :   0.9639
B( 25-N , 26-C ) :   1.3221 B( 26-C , 27-C ) :   1.2631 B( 27-C , 28-C ) :   1.3094
B( 28-C , 29-C ) :   1.4190 B( 28-C , 66-H ) :   0.9789 B( 29-C , 30-C ) :   1.3014
B( 29-C , 67-H ) :   0.9600 B( 30-C , 31-C ) :   1.3048 B( 30-C , 38-C ) :   1.0013
B( 31-C , 32-C ) :   1.2222 B( 31-C , 36-C ) :   1.1572 B( 32-C , 33-C ) :   1.5436
B( 32-C , 68-H ) :   0.9928 B( 33-C , 34-C ) :   1.1939 B( 33-C , 69-H ) :   0.9840
B( 34-C , 35-C ) :   1.5749 B( 34-C , 70-H ) :   0.9843 B( 35-C , 36-C ) :   1.1572
B( 35-C , 71-H ) :   0.9905 B( 36-C , 37-C ) :   1.3697 B( 37-C , 38-C ) :   1.0368
B( 37-C , 40-N ) :   1.2364 B( 38-C , 39-C ) :   1.8794 B( 39-C , 72-H ) :   0.9293
B( 39-C , 73-H ) :   0.9410 B( 40-N , 41-C ) :   1.1741 B( 40-N , 74-H ) :   0.8767
B( 41-C , 42-S ) :   1.1245 B( 41-C , 48-C ) :   1.3525 B( 42-S , 43-C ) :   1.0818
B( 43-C , 44-N ) :   0.9729 B( 43-C , 47-C ) :   1.4837 B( 44-N , 45-O ) :   1.5324
B( 44-N , 46-O ) :   1.5082 B( 45-O , 46-O ) :   0.2593 B( 47-C , 48-C ) :   1.2152
B( 47-C , 75-H ) :   1.0066 B( 48-C , 49-C ) :   1.1179 B( 49-C , 50-C ) :   1.5862
B( 49-C , 76-H ) :   0.9710 B( 50-C , 51-C ) :   1.1977 B( 50-C , 77-H ) :   0.9511
B( 51-C , 52-C ) :   1.4319 B( 51-C , 59-C ) :   1.0103 B( 52-C , 53-C ) :   1.1536
B( 52-C , 57-C ) :   1.1161 B( 53-C , 54-C ) :   1.6026 B( 53-C , 78-H ) :   0.9896
B( 54-C , 55-C ) :   1.1476 B( 54-C , 79-H ) :   0.9822 B( 55-C , 56-C ) :   1.6176
B( 55-C , 80-H ) :   0.9864 B( 56-C , 57-C ) :   1.1172 B( 56-C , 81-H ) :   0.9984
B( 57-C , 58-C ) :   1.5105 B( 58-C , 59-C ) :   1.0498 B( 58-C , 82-H ) :   1.0165
B( 59-C , 60-C ) :   1.8499 B( 60-C , 83-H ) :   0.9407 B( 60-C , 84-H ) :   0.9394

-----------------------------------------------------------------------------
         ABSORPTION SPECTRUM VIA TRANSITION ELECTRIC DIPOLE MOMENTS
-----------------------------------------------------------------------------
State   Energy  Wavelength   fosc         T2         TX        TY        TZ
        (cm-1)    (nm)                  (au**2)     (au)      (au)      (au)
-----------------------------------------------------------------------------
   0    6012.0   1663.3   0.342365811  18.74766   0.80293   2.70478   3.28438
   1   12613.7    792.8   0.157169281   4.10204   0.97799  -1.70688   0.48181
   2   13881.9    720.4   0.163830403   3.88527  -0.11140  -1.79437  -0.80815
   3   15386.8    649.9   0.869534634  18.60430   1.55016   2.16411   3.39381
   4   16890.7    592.0   0.003356647   0.06542   0.23551  -0.03977  -0.09152
   5   19536.0    511.9   0.065410270   1.10227   0.17778   0.95507   0.39813
   6   20766.2    481.6   0.080990707   1.28397   0.73052   0.19391   0.84422
   7   21179.7    472.1   0.006637700   0.10317   0.10821  -0.26384   0.14783
   8   25839.0    387.0   0.108383421   1.38090  -0.47432  -0.38680  -1.00315
   9   26186.3    381.9   0.050151794   0.63050  -0.50118   0.08617   0.60983
  10   26443.3    378.2   0.038693364   0.48172  -0.54449   0.07734  -0.42340
  11   26511.2    377.2   0.265994878   3.30308   0.90577   1.25583  -0.95161
  12   26810.5    373.0   0.034471506   0.42328   0.39478   0.15293  -0.49401
  13   27410.9    364.8   0.033600313   0.40355  -0.62788  -0.08179  -0.05128
  14   27938.6    357.9   0.014282370   0.16829  -0.31701  -0.03300   0.25828
  15   28018.5    356.9   0.030761354   0.36144   0.49460  -0.05868  -0.33670
  16   28164.7    355.1   0.233904720   2.73407  -0.43522   1.45723  -0.64896
  17   29255.0    341.8   0.029940086   0.33692  -0.28977  -0.33617   0.37409
  18   29927.2    334.1   0.049074573   0.53984  -0.43430  -0.52985   0.26549
  19   30836.3    324.3   0.193144729   2.06204   0.05751   1.24971  -0.70495
  20   31207.9    320.4   0.392171480   4.13702   1.06221   1.17191  -1.27880
  21   31419.5    318.3   0.049818552   0.52200  -0.53000  -0.30832   0.38215
  22   32037.3    312.1   0.066111582   0.67935  -0.44476  -0.46431   0.51571
  23   32159.1    311.0   0.272220446   2.78671   0.88804   0.92032  -1.07290
  24   32324.2    309.4   0.091766069   0.93461   0.15617  -0.45157   0.84042
  25   32440.7    308.3   0.011675280   0.11848  -0.13376   0.10145  -0.30050
  26   32890.4    304.0   0.082048549   0.82125  -0.78248   0.31657  -0.32979
  27   32932.7    303.7   0.124779662   1.24736  -0.93092   0.59048  -0.17911
  28   33183.0    301.4   0.046651011   0.46283   0.26899  -0.39714   0.48244
  29   33431.9    299.1   0.026844599   0.26435   0.39399  -0.30667   0.12276
  30   34434.8    290.4   0.010672263   0.10203   0.02463  -0.23713   0.21259
  31   34502.5    289.8   0.137569663   1.31265   0.27457   1.07671  -0.27918
  32   34763.7    287.7   0.019569009   0.18532   0.05605  -0.23900   0.35364
  33   34807.6    287.3   0.070917059   0.67074   0.06419   0.62587  -0.52432
  34   34924.6    286.3   0.124495929   1.17354   0.01385  -0.94095   0.53662
  35   35416.1    282.4   0.049162410   0.45699   0.50648  -0.19991   0.40063
  36   35513.7    281.6   0.166950699   1.54763  -0.01616  -0.93494   0.82053
  37   35591.5    281.0   0.139956361   1.29456  -0.34881   0.08246   1.07986
  38   35993.0    277.8   0.154437514   1.41257  -0.32563  -0.25445   1.11436
  39   36118.9    276.9   0.099598217   0.90780   0.41926   0.63285  -0.57579
  40   36612.0    273.1   0.000727541   0.00654  -0.03810   0.01972   0.06856
  41   37126.8    269.3   0.253709282   2.24970  -0.55793  -1.37339   0.22847
  42   37202.0    268.8   0.004667809   0.04131   0.08401   0.16806  -0.07749
  43   37972.4    263.3   0.012137155   0.10523  -0.23788  -0.11087   0.19065
  44   38968.4    256.6   0.052635730   0.44468  -0.01198   0.26940  -0.60988
  45   38972.2    256.6   0.316738255   2.67560   0.69611   1.47006   0.17306
  46   39321.8    254.3   0.022668722   0.18979   0.25463   0.33235  -0.12039
  47   39513.2    253.1   0.022494677   0.18742   0.24919   0.01936   0.35348
  48   39581.3    252.6   0.027126196   0.22562  -0.08744   0.43766  -0.16257
  49   39624.5    252.4   0.029036668   0.24124  -0.23416  -0.43030  -0.03542
  50   40056.5    249.6   0.022286038   0.18316  -0.07703   0.36931  -0.20208
  51   40159.8    249.0   0.023326607   0.19122   0.19750   0.27894   0.27277

FINAL SINGLE POINT ENERGY     -6506.005302300741

DIPOLE MOMENT
-------------
                                X             Y             Z
Electronic contribution:     68.02769     164.28386      66.71379
Nuclear contribution   :    -66.79032    -168.50114     -70.33231
                        -----------------------------------------
Total Dipole Moment    :      1.23737      -4.21728      -3.61852
                        -----------------------------------------
Magnitude (a.u.)       :      5.69300
Magnitude (Debye)      :     14.47046

Rotational constants in cm-1:     0.001482     0.000320     0.000292
Rotational constants in MHz :    44.424373     9.581271     8.747072

                             ****ORCA TERMINATED NORMALLY****
TOTAL RUN TIME: 0 days 0 hours 8 minutes 36 seconds 879 msec
