                         Program Version 4.2.0 -  RELEASE  -
|  1> # ORCA input file
|  2> # SCF done       -149.757935108707          0.000761453841
|  3> ! CAM-B3LYP def2-SVP def2/J RIJCOSX Grid4 TightSCF
|  4> %maxcore 5000
|  5> %tddft
|  6>     Mode sTDDFT
|  7>     Ethresh 5.0
|  8>     maxcore 5000
|  9> end
| 10>
| 11> %pal
| 12>   nprocs 6
| 13>   end
| 14> * xyz 0 1
| 15>    C       -3.00373         0.05964        -0.76400
| 16>    C       -2.85331        -0.99485         0.10148
| 17>    C       -1.66814        -1.74714         0.23185
| 18>    N       -0.73478        -2.39894         0.38233
| 19>    C       -3.83724        -1.46171         0.99709
| 20>    N       -4.57228        -1.88268         1.77307
| 21>    C       -1.95651         0.60406        -1.62309
| 22>    C       -2.46685         1.74499        -2.28885
| 23>    C       -1.71977         2.48401        -3.17188
| 24>    C       -0.40067         2.07982        -3.40758
| 25>    C        0.09995         0.93799        -2.74015
| 26>    C       -0.65795         0.18887        -1.84770
| 27>    S        1.74809         0.60928        -3.18390
| 28>    C        1.74142         1.99248        -4.24489
| 29>    C        0.56757         2.66710        -4.26735
| 30>   Br        3.28422         2.41478        -5.22478
| 31>    C       -3.87694         1.94182        -1.90018
| 32>    O       -4.64507         2.76357        -2.37319
| 33>    C       -4.18446         0.87843        -0.93842
| 34>    C       -5.43029         0.60378        -0.42065
| 35>    C       -6.55750         1.42865        -0.37995
| 36>    S       -8.11287         0.66405        -0.04464
| 37>    C       -8.98672         2.16091        -0.03935
| 38>    C       -8.09995         3.21795        -0.25061
| 39>    C       -6.75478         2.80463        -0.45399
| 40>    S       -5.74467         4.18526        -0.62494
| 41>    C       -7.18073         5.17474        -0.42873
| 42>    N       -8.29218         4.56348        -0.26296
| 43>    C      -10.38613         2.19092         0.15714
| 44>    C      -11.11397         3.33633         0.17073
| 45>    C      -12.52542         3.34067         0.35569
| 46>    C      -13.33681         4.41829         0.36020
| 47>    C      -12.89629         5.83551         0.22171
| 48>    C      -14.81582         4.23668         0.59743
| 49>    N      -15.15594         4.61455         1.95337
| 50>    C      -15.51164         5.88341         2.28008
| 51>    C      -15.43458         6.40881         3.52271
| 52>    C      -15.92166         7.69588         3.87164
| 53>    C      -15.86805         8.27812         5.13660
| 54>    O      -15.29482         7.58992         6.16165
| 55>    C      -15.27180         8.22283         7.41896
| 56>    C      -16.43849         9.55561         5.18473
| 57>    C      -16.93246         9.97127         3.96643
| 58>    S      -16.68788         8.76558         2.73566
| 59>    C      -17.57573        11.19256         3.65262
| 60>    S      -17.89532        12.43757         4.84340
| 61>    C      -18.65479        13.49612         3.71768
| 62>    C      -18.67122        12.93093         2.46781
| 63>    C      -18.06161        11.63584         2.44393
| 64>    O      -18.09132        11.10820         1.19978
| 65>    C      -18.71018        12.04694         0.43446
| 66>    N      -18.88030        11.76287        -0.94076
| 67>    O      -19.44097        12.61572        -1.60472
| 68>    O      -18.46201        10.70583        -1.36198
| 69>    C      -19.08617        13.16600         1.12722
| 70>    H       -2.13779         3.34678        -3.66636
| 71>    H       -0.23189        -0.67660        -1.36862
| 72>    H        0.38944         3.54167        -4.86602
| 73>    H       -5.58829        -0.38228        -0.00126
| 74>    H       -7.10309         6.24376        -0.47153
| 75>    H      -10.87111         1.23382         0.29804
| 76>    H      -10.59219         4.26977         0.02446
| 77>    H      -12.97959         2.36395         0.48049
| 78>    H      -11.81726         5.93895         0.25608
| 79>    H      -13.33324         6.43963         1.01853
| 80>    H      -13.25528         6.24129        -0.72487
| 81>    H      -15.10564         3.19269         0.44690
| 82>    H      -15.39558         4.86489        -0.08303
| 83>    H      -14.67140         4.09506         2.67325
| 84>    H      -15.94858         6.46069         1.47539
| 85>    H      -14.99953         5.84383         4.33479
| 86>    H      -14.77572         7.52603         8.09239
| 87>    H      -16.28402         8.42325         7.78439
| 88>    H      -14.70649         9.15968         7.38488
| 89>    H      -16.50401        10.17418         6.06153
| 90>    H      -19.02977        14.44266         4.04502
| 91>    H      -19.58441        14.02105         0.71991
| 92> *
| 93>
| 94>                          ****END OF INPUT****

CARTESIAN COORDINATES (ANGSTROEM)
---------------------------------
  C     -3.003730    0.059640   -0.764000
  C     -2.853310   -0.994850    0.101480
  C     -1.668140   -1.747140    0.231850
  N     -0.734780   -2.398940    0.382330
  C     -3.837240   -1.461710    0.997090
  N     -4.572280   -1.882680    1.773070
  C     -1.956510    0.604060   -1.623090
  C     -2.466850    1.744990   -2.288850
  C     -1.719770    2.484010   -3.171880
  C     -0.400670    2.079820   -3.407580
  C      0.099950    0.937990   -2.740150
  C     -0.657950    0.188870   -1.847700
  S      1.748090    0.609280   -3.183900
  C      1.741420    1.992480   -4.244890
  C      0.567570    2.667100   -4.267350
  Br     3.284220    2.414780   -5.224780
  C     -3.876940    1.941820   -1.900180
  O     -4.645070    2.763570   -2.373190
  C     -4.184460    0.878430   -0.938420
  C     -5.430290    0.603780   -0.420650
  C     -6.557500    1.428650   -0.379950
  S     -8.112870    0.664050   -0.044640
  C     -8.986720    2.160910   -0.039350
  C     -8.099950    3.217950   -0.250610
  C     -6.754780    2.804630   -0.453990
  S     -5.744670    4.185260   -0.624940
  C     -7.180730    5.174740   -0.428730
  N     -8.292180    4.563480   -0.262960
  C    -10.386130    2.190920    0.157140
  C    -11.113970    3.336330    0.170730
  C    -12.525420    3.340670    0.355690
  C    -13.336810    4.418290    0.360200
  C    -12.896290    5.835510    0.221710
  C    -14.815820    4.236680    0.597430
  N    -15.155940    4.614550    1.953370
  C    -15.511640    5.883410    2.280080
  C    -15.434580    6.408810    3.522710
  C    -15.921660    7.695880    3.871640
  C    -15.868050    8.278120    5.136600
  O    -15.294820    7.589920    6.161650
  C    -15.271800    8.222830    7.418960
  C    -16.438490    9.555610    5.184730
  C    -16.932460    9.971270    3.966430
  S    -16.687880    8.765580    2.735660
  C    -17.575730   11.192560    3.652620
  S    -17.895320   12.437570    4.843400
  C    -18.654790   13.496120    3.717680
  C    -18.671220   12.930930    2.467810
  C    -18.061610   11.635840    2.443930
  O    -18.091320   11.108200    1.199780
  C    -18.710180   12.046940    0.434460
  N    -18.880300   11.762870   -0.940760
  O    -19.440970   12.615720   -1.604720
  O    -18.462010   10.705830   -1.361980
  C    -19.086170   13.166000    1.127220
  H     -2.137790    3.346780   -3.666360
  H     -0.231890   -0.676600   -1.368620
  H      0.389440    3.541670   -4.866020
  H     -5.588290   -0.382280   -0.001260
  H     -7.103090    6.243760   -0.471530
  H    -10.871110    1.233820    0.298040
  H    -10.592190    4.269770    0.024460
  H    -12.979590    2.363950    0.480490
  H    -11.817260    5.938950    0.256080
  H    -13.333240    6.439630    1.018530
  H    -13.255280    6.241290   -0.724870
  H    -15.105640    3.192690    0.446900
  H    -15.395580    4.864890   -0.083030
  H    -14.671400    4.095060    2.673250
  H    -15.948580    6.460690    1.475390
  H    -14.999530    5.843830    4.334790
  H    -14.775720    7.526030    8.092390
  H    -16.284020    8.423250    7.784390
  H    -14.706490    9.159680    7.384880
  H    -16.504010   10.174180    6.061530
  H    -19.029770   14.442660    4.045020
  H    -19.584410   14.021050    0.719910

 Total Charge           Charge          ....    0
 Multiplicity           Mult            ....    1
 Number of Electrons    NEL             ....  446
 Basis Dimension        Dim             ....  918

ORBITAL ENERGIES
----------------

  NO   OCC          E(Eh)            E(eV)
   0   2.0000    -482.882249    -13139.8940
   1   2.0000     -88.974913     -2421.1305
   2   2.0000     -88.973314     -2421.0869
   3   2.0000     -88.971221     -2421.0300
   4   2.0000     -88.970889     -2421.0210
   5   2.0000     -88.947317     -2420.3796
   6   2.0000     -62.559973     -1702.3434
   7   2.0000     -56.393919     -1534.5565
   8   2.0000     -56.391213     -1534.4829
   9   2.0000     -56.391175     -1534.4819
  10   2.0000     -19.305449      -525.3280
  11   2.0000     -19.242654      -523.6192
  12   2.0000     -19.240248      -523.5538
  13   2.0000     -19.239428      -523.5315
  14   2.0000     -19.210726      -522.7504
  15   2.0000     -14.653940      -398.7540
  16   2.0000     -14.429650      -392.6507
  17   2.0000     -14.422651      -392.4603
  18   2.0000     -14.409501      -392.1025
  19   2.0000     -14.408279      -392.0692
  20   2.0000     -10.385546      -282.6051
  21   2.0000     -10.359216      -281.8886
  22   2.0000     -10.354770      -281.7676
  23   2.0000     -10.340851      -281.3889
  24   2.0000     -10.340580      -281.3815
  25   2.0000     -10.334686      -281.2211
  26   2.0000     -10.333976      -281.2018
  27   2.0000     -10.332657      -281.1659
  28   2.0000     -10.321316      -280.8573
  29   2.0000     -10.320867      -280.8451
  30   2.0000     -10.320345      -280.8309
  31   2.0000     -10.319985      -280.8211
  32   2.0000     -10.319147      -280.7983
  33   2.0000     -10.318108      -280.7700
  34   2.0000     -10.317967      -280.7662
  35   2.0000     -10.315685      -280.7041
  36   2.0000     -10.313862      -280.6545
  37   2.0000     -10.312829      -280.6263
  38   2.0000     -10.311766      -280.5974
  39   2.0000     -10.310514      -280.5634
  40   2.0000     -10.308319      -280.5036
  41   2.0000     -10.305938      -280.4388
  42   2.0000     -10.302418      -280.3430
  43   2.0000     -10.301858      -280.3278
  44   2.0000     -10.301573      -280.3201
  45   2.0000     -10.300003      -280.2773
  46   2.0000     -10.295916      -280.1661
  47   2.0000     -10.295421      -280.1526
  48   2.0000     -10.294077      -280.1161
  49   2.0000     -10.292791      -280.0811
  50   2.0000     -10.290699      -280.0242
  51   2.0000     -10.289643      -279.9954
  52   2.0000     -10.289395      -279.9887
  53   2.0000     -10.286411      -279.9075
  54   2.0000     -10.286113      -279.8994
  55   2.0000     -10.277159      -279.6557
  56   2.0000     -10.272144      -279.5192
  57   2.0000     -10.271026      -279.4888
  58   2.0000     -10.253612      -279.0150
  59   2.0000      -8.789406      -239.1719
  60   2.0000      -8.070241      -219.6024
  61   2.0000      -8.068076      -219.5435
  62   2.0000      -8.067158      -219.5185
  63   2.0000      -8.065762      -219.4805
  64   2.0000      -8.042554      -218.8490
  65   2.0000      -6.625698      -180.2944
  66   2.0000      -6.611123      -179.8978
  67   2.0000      -6.610968      -179.8936
  68   2.0000      -6.039551      -164.3445
  69   2.0000      -6.037511      -164.2890
  70   2.0000      -6.036855      -164.2712
  71   2.0000      -6.035472      -164.2336
  72   2.0000      -6.035166      -164.2252
  73   2.0000      -6.033115      -164.1694
  74   2.0000      -6.032575      -164.1547
  75   2.0000      -6.032238      -164.1455
  76   2.0000      -6.030763      -164.1054
  77   2.0000      -6.030320      -164.0933
  78   2.0000      -6.028400      -164.0411
  79   2.0000      -6.027753      -164.0235
  80   2.0000      -6.011952      -163.5935
  81   2.0000      -6.007989      -163.4857
  82   2.0000      -6.004317      -163.3858
  83   2.0000      -2.741560       -74.6016
  84   2.0000      -2.737507       -74.4914
  85   2.0000      -2.737326       -74.4864
  86   2.0000      -2.725785       -74.1724
  87   2.0000      -2.725766       -74.1719
  88   2.0000      -1.325203       -36.0606
  89   2.0000      -1.225652       -33.3517
  90   2.0000      -1.142918       -31.1004
  91   2.0000      -1.141320       -31.0569
  92   2.0000      -1.125423       -30.6243
  93   2.0000      -1.077057       -29.3082
  94   2.0000      -1.033284       -28.1171
  95   2.0000      -1.017464       -27.6866
  96   2.0000      -1.007814       -27.4240
  97   2.0000      -0.997230       -27.1360
  98   2.0000      -0.991790       -26.9880
  99   2.0000      -0.987786       -26.8790
 100   2.0000      -0.982986       -26.7484
 101   2.0000      -0.969600       -26.3842
 102   2.0000      -0.939376       -25.5617
 103   2.0000      -0.932246       -25.3677
 104   2.0000      -0.931202       -25.3393
 105   2.0000      -0.914467       -24.8839
 106   2.0000      -0.903203       -24.5774
 107   2.0000      -0.894247       -24.3337
 108   2.0000      -0.890878       -24.2420
 109   2.0000      -0.881393       -23.9839
 110   2.0000      -0.880570       -23.9615
 111   2.0000      -0.869340       -23.6559
 112   2.0000      -0.859063       -23.3763
 113   2.0000      -0.843195       -22.9445
 114   2.0000      -0.832781       -22.6611
 115   2.0000      -0.824615       -22.4389
 116   2.0000      -0.821663       -22.3586
 117   2.0000      -0.815556       -22.1924
 118   2.0000      -0.808060       -21.9884
 119   2.0000      -0.785840       -21.3838
 120   2.0000      -0.782364       -21.2892
 121   2.0000      -0.774347       -21.0711
 122   2.0000      -0.755392       -20.5553
 123   2.0000      -0.751866       -20.4593
 124   2.0000      -0.744605       -20.2617
 125   2.0000      -0.712344       -19.3839
 126   2.0000      -0.710713       -19.3395
 127   2.0000      -0.708153       -19.2698
 128   2.0000      -0.703067       -19.1314
 129   2.0000      -0.693307       -18.8658
 130   2.0000      -0.684520       -18.6267
 131   2.0000      -0.679265       -18.4837
 132   2.0000      -0.675309       -18.3761
 133   2.0000      -0.654823       -17.8186
 134   2.0000      -0.651496       -17.7281
 135   2.0000      -0.647438       -17.6177
 136   2.0000      -0.638886       -17.3850
 137   2.0000      -0.637105       -17.3365
 138   2.0000      -0.631852       -17.1936
 139   2.0000      -0.628152       -17.0929
 140   2.0000      -0.622373       -16.9356
 141   2.0000      -0.617278       -16.7970
 142   2.0000      -0.613169       -16.6852
 143   2.0000      -0.609567       -16.5872
 144   2.0000      -0.595944       -16.2165
 145   2.0000      -0.591620       -16.0988
 146   2.0000      -0.584824       -15.9139
 147   2.0000      -0.581113       -15.8129
 148   2.0000      -0.576076       -15.6758
 149   2.0000      -0.570996       -15.5376
 150   2.0000      -0.566367       -15.4116
 151   2.0000      -0.563472       -15.3329
 152   2.0000      -0.562256       -15.2998
 153   2.0000      -0.552065       -15.0225
 154   2.0000      -0.550373       -14.9764
 155   2.0000      -0.546689       -14.8762
 156   2.0000      -0.542482       -14.7617
 157   2.0000      -0.539615       -14.6837
 158   2.0000      -0.539380       -14.6773
 159   2.0000      -0.536959       -14.6114
 160   2.0000      -0.534032       -14.5317
 161   2.0000      -0.526486       -14.3264
 162   2.0000      -0.525084       -14.2883
 163   2.0000      -0.524064       -14.2605
 164   2.0000      -0.517378       -14.0786
 165   2.0000      -0.516078       -14.0432
 166   2.0000      -0.507507       -13.8100
 167   2.0000      -0.505866       -13.7653
 168   2.0000      -0.504063       -13.7162
 169   2.0000      -0.502300       -13.6683
 170   2.0000      -0.491463       -13.3734
 171   2.0000      -0.489454       -13.3187
 172   2.0000      -0.487334       -13.2610
 173   2.0000      -0.483710       -13.1624
 174   2.0000      -0.480328       -13.0704
 175   2.0000      -0.476162       -12.9570
 176   2.0000      -0.475287       -12.9332
 177   2.0000      -0.470273       -12.7968
 178   2.0000      -0.464534       -12.6406
 179   2.0000      -0.462248       -12.5784
 180   2.0000      -0.459141       -12.4939
 181   2.0000      -0.456585       -12.4243
 182   2.0000      -0.454617       -12.3708
 183   2.0000      -0.452245       -12.3062
 184   2.0000      -0.448893       -12.2150
 185   2.0000      -0.446272       -12.1437
 186   2.0000      -0.443294       -12.0626
 187   2.0000      -0.442290       -12.0353
 188   2.0000      -0.438197       -11.9239
 189   2.0000      -0.436485       -11.8774
 190   2.0000      -0.434242       -11.8163
 191   2.0000      -0.430726       -11.7206
 192   2.0000      -0.427774       -11.6403
 193   2.0000      -0.425017       -11.5653
 194   2.0000      -0.420745       -11.4491
 195   2.0000      -0.417389       -11.3577
 196   2.0000      -0.414383       -11.2759
 197   2.0000      -0.409193       -11.1347
 198   2.0000      -0.406986       -11.0747
 199   2.0000      -0.406049       -11.0492
 200   2.0000      -0.404417       -11.0047
 201   2.0000      -0.402206       -10.9446
 202   2.0000      -0.388751       -10.5785
 203   2.0000      -0.385456       -10.4888
 204   2.0000      -0.384047       -10.4505
 205   2.0000      -0.383725       -10.4417
 206   2.0000      -0.377580       -10.2745
 207   2.0000      -0.371765       -10.1162
 208   2.0000      -0.369908       -10.0657
 209   2.0000      -0.364848        -9.9280
 210   2.0000      -0.359514        -9.7829
 211   2.0000      -0.346025        -9.4158
 212   2.0000      -0.343355        -9.3432
 213   2.0000      -0.325576        -8.8594
 214   2.0000      -0.321859        -8.7582
 215   2.0000      -0.320395        -8.7184
 216   2.0000      -0.314031        -8.5452
 217   2.0000      -0.308790        -8.4026
 218   2.0000      -0.296701        -8.0737
 219   2.0000      -0.289338        -7.8733
 220   2.0000      -0.287504        -7.8234
 221   2.0000      -0.254932        -6.9370
 222   2.0000      -0.214507        -5.8370
 223   0.0000      -0.093896        -2.5551
 224   0.0000      -0.064501        -1.7552
 225   0.0000      -0.062410        -1.6983
 226   0.0000      -0.030402        -0.8273
 227   0.0000      -0.019284        -0.5247

MULLIKEN ATOMIC CHARGES
-----------------------
   0 C :    0.314797
   1 C :   -0.351011
   2 C :   -0.184846
   3 N :    0.144085
   4 C :   -0.202867
   5 N :    0.150569
   6 C :    0.013903
   7 C :   -0.012134
   8 C :   -0.076229
   9 C :    0.117982
  10 C :   -0.092070
  11 C :   -0.022410
  12 S :    0.183731
  13 C :   -0.123024
  14 C :    0.036869
  15 Br:    0.019383
  16 C :    0.132199
  17 O :   -0.182893
  18 C :   -0.103368
  19 C :    0.034252
  20 C :   -0.206134
  21 S :    0.169784
  22 C :   -0.107597
  23 C :    0.050100
  24 C :    0.030283
  25 S :    0.174738
  26 C :    0.009909
  27 N :   -0.059627
  28 C :    0.001630
  29 C :    0.034138
  30 C :    0.001832
  31 C :   -0.175689
  32 C :    0.090762
  33 C :    0.201450
  34 N :   -0.149208
  35 C :    0.030546
  36 C :   -0.016698
  37 C :   -0.136402
  38 C :    0.232944
  39 O :   -0.319188
  40 C :    0.183254
  41 C :   -0.126925
  42 C :   -0.036397
  43 S :    0.121703
  44 C :   -0.159601
  45 S :    0.145880
  46 C :   -0.150190
  47 C :    0.136379
  48 C :    0.164196
  49 O :   -0.192968
  50 C :    0.236845
  51 N :    0.271885
  52 O :   -0.251582
  53 O :   -0.230968
  54 C :   -0.074966
  55 H :   -0.015447
  56 H :   -0.007280
  57 H :   -0.005361
  58 H :    0.015405
  59 H :    0.043317
  60 H :   -0.023382
  61 H :    0.017196
  62 H :   -0.027651
  63 H :    0.023098
  64 H :    0.040784
  65 H :    0.030841
  66 H :    0.010032
  67 H :    0.018670
  68 H :    0.113773
  69 H :    0.007490
  70 H :   -0.019754
  71 H :    0.036004
  72 H :    0.018843
  73 H :    0.018721
  74 H :   -0.025363
  75 H :    0.027638
  76 H :    0.011389
Sum of atomic charges:   -0.0000000

LOEWDIN ATOMIC CHARGES
----------------------
   0 C :    0.077480
   1 C :   -0.147588
   2 C :   -0.018441
   3 N :   -0.059182
   4 C :   -0.024181
   5 N :   -0.057042
   6 C :   -0.021554
   7 C :   -0.047918
   8 C :    0.017095
   9 C :   -0.034013
  10 C :   -0.146344
  11 C :   -0.010167
  12 S :    0.430523
  13 C :   -0.273174
  14 C :   -0.071143
  15 Br:    0.133516
  16 C :    0.068655
  17 O :   -0.175412
  18 C :   -0.114631
  19 C :    0.039336
  20 C :   -0.202034
  21 S :    0.470234
  22 C :   -0.130974
  23 C :   -0.077022
  24 C :   -0.170953
  25 S :    0.468250
  26 C :   -0.104993
  27 N :   -0.092793
  28 C :   -0.061968
  29 C :    0.026532
  30 C :   -0.061785
  31 C :   -0.010899
  32 C :   -0.049582
  33 C :    0.046392
  34 N :   -0.010420
  35 C :    0.018858
  36 C :   -0.126718
  37 C :   -0.188287
  38 C :   -0.000277
  39 O :   -0.111667
  40 C :    0.077612
  41 C :   -0.096364
  42 C :   -0.197810
  43 S :    0.435218
  44 C :   -0.207749
  45 S :    0.467639
  46 C :   -0.195630
  47 C :   -0.080636
  48 C :    0.004900
  49 O :   -0.005065
  50 C :    0.026339
  51 N :    0.272189
  52 O :   -0.212365
  53 O :   -0.193385
  54 C :   -0.009537
  55 H :    0.038951
  56 H :    0.040675
  57 H :    0.037944
  58 H :    0.043688
  59 H :    0.020652
  60 H :    0.028061
  61 H :    0.031763
  62 H :    0.024141
  63 H :    0.034140
  64 H :    0.041978
  65 H :    0.042062
  66 H :    0.025769
  67 H :    0.032327
  68 H :    0.076660
  69 H :    0.019191
  70 H :    0.029496
  71 H :    0.027998
  72 H :    0.013463
  73 H :    0.013364
  74 H :    0.023111
  75 H :    0.027103
  76 H :    0.046401

  Mayer bond orders larger than 0.100000
B(  0-C ,  1-C ) :   1.6175 B(  0-C ,  6-C ) :   0.9976 B(  0-C , 18-C ) :   1.0933
B(  1-C ,  2-C ) :   1.1435 B(  1-C ,  4-C ) :   1.1444 B(  2-C ,  3-N ) :   2.9671
B(  4-C ,  5-N ) :   2.9823 B(  6-C ,  7-C ) :   1.2764 B(  6-C , 11-C ) :   1.4137
B(  7-C ,  8-C ) :   1.4279 B(  7-C , 16-C ) :   0.9356 B(  8-C ,  9-C ) :   1.2378
B(  8-C , 55-H ) :   1.0179 B(  9-C , 10-C ) :   1.3148 B(  9-C , 14-C ) :   1.1620
B( 10-C , 11-C ) :   1.3216 B( 10-C , 12-S ) :   1.0839 B( 11-C , 56-H ) :   0.9813
B( 12-S , 13-C ) :   1.0875 B( 13-C , 14-C ) :   1.6186 B( 13-C , 15-Br) :   1.0157
B( 14-C , 57-H ) :   1.0005 B( 16-C , 17-O ) :   2.1460 B( 16-C , 18-C ) :   0.9942
B( 18-C , 19-C ) :   1.4983 B( 19-C , 20-C ) :   1.2933 B( 19-C , 58-H ) :   0.9229
B( 20-C , 21-S ) :   1.0826 B( 20-C , 24-C ) :   1.4026 B( 21-S , 22-C ) :   1.1694
B( 22-C , 23-C ) :   1.3591 B( 22-C , 28-C ) :   1.1367 B( 23-C , 24-C ) :   1.2817
B( 23-C , 27-N ) :   1.3088 B( 24-C , 25-S ) :   1.1120 B( 25-S , 26-C ) :   1.1100
B( 26-C , 27-N ) :   1.7480 B( 26-C , 59-H ) :   0.9640 B( 28-C , 29-C ) :   1.6565
B( 28-C , 60-H ) :   0.9672 B( 29-C , 30-C ) :   1.1153 B( 29-C , 61-H ) :   0.9530
B( 30-C , 31-C ) :   1.7223 B( 30-C , 62-H ) :   0.9775 B( 31-C , 32-C ) :   1.0810
B( 31-C , 33-C ) :   1.0352 B( 32-C , 63-H ) :   0.9514 B( 32-C , 64-H ) :   0.9384
B( 32-C , 65-H ) :   0.9402 B( 33-C , 34-N ) :   1.0230 B( 33-C , 66-H ) :   0.9421
B( 33-C , 67-H ) :   0.9306 B( 34-N , 35-C ) :   1.1990 B( 34-N , 68-H ) :   0.9384
B( 35-C , 36-C ) :   1.6128 B( 35-C , 69-H ) :   0.9613 B( 36-C , 37-C ) :   1.1745
B( 36-C , 70-H ) :   0.9653 B( 37-C , 38-C ) :   1.4724 B( 37-C , 42-C ) :   0.1087
B( 37-C , 43-S ) :   1.0938 B( 38-C , 39-O ) :   1.1516 B( 38-C , 41-C ) :   1.2164
B( 39-O , 40-C ) :   0.9686 B( 40-C , 71-H ) :   0.9804 B( 40-C , 72-H ) :   0.9688
B( 40-C , 73-H ) :   0.9686 B( 41-C , 42-C ) :   1.4466 B( 41-C , 74-H ) :   1.0031
B( 42-C , 43-S ) :   1.1193 B( 42-C , 44-C ) :   1.1792 B( 44-C , 45-S ) :   1.1342
B( 44-C , 46-C ) :   0.1145 B( 44-C , 48-C ) :   1.4799 B( 45-S , 46-C ) :   1.1686
B( 46-C , 47-C ) :   1.4434 B( 46-C , 75-H ) :   0.9763 B( 47-C , 48-C ) :   1.2118
B( 47-C , 54-C ) :   1.0548 B( 48-C , 49-O ) :   1.0949 B( 49-O , 50-C ) :   1.1271
B( 50-C , 51-N ) :   0.9164 B( 50-C , 54-C ) :   1.5810 B( 51-N , 52-O ) :   1.5322
B( 51-N , 53-O ) :   1.5155 B( 52-O , 53-O ) :   0.2794 B( 54-C , 76-H ) :   1.0242

-----------------------------------------------------------------------------
         ABSORPTION SPECTRUM VIA TRANSITION ELECTRIC DIPOLE MOMENTS
-----------------------------------------------------------------------------
State   Energy  Wavelength   fosc         T2         TX        TY        TZ
        (cm-1)    (nm)                  (au**2)     (au)      (au)      (au)
-----------------------------------------------------------------------------
   0   15328.7    652.4   0.655463741  14.07732  -3.03386   2.00702   0.91920
   1   17304.3    577.9   0.076073715   1.44729   0.26762  -1.17279   0.01492
   2   19745.1    506.5   1.021066321  17.02436  -3.78869   1.58149   0.41117
   3   23937.6    417.8   0.200530456   2.75788   1.33944  -0.78896  -0.58423
   4   25777.0    387.9   0.188930454   2.41293  -0.13257   1.54691  -0.04913
   5   26260.1    380.8   0.317980187   3.98639   0.90262  -1.78088   0.01072
   6   27675.4    361.3   0.395858714   4.70893   1.65508   0.63929  -1.24938
   7   28017.6    356.9   0.065729046   0.77233   0.59883   0.42906  -0.47921
   8   29820.5    335.3   0.020489056   0.22620   0.46983   0.07313  -0.01053
   9   30004.6    333.3   0.017321289   0.19005  -0.15282   0.15632   0.37717
  10   30513.9    327.7   0.024747363   0.26700  -0.00962  -0.51155   0.07224
  11   31574.7    316.7   0.126539344   1.31936  -0.24825   0.82151   0.76345
  12   32114.7    311.4   0.049121414   0.50355   0.10537  -0.54068   0.44734
  13   32312.3    309.5   0.061284076   0.62439   0.39357   0.64780  -0.22324
  14   32750.2    305.3   0.000113149   0.00114  -0.01009  -0.00562   0.03169
  15   32850.4    304.4   0.418834947   4.19737   1.02808   1.25945  -1.24668
  16   33083.4    302.3   0.034998702   0.34827  -0.04929   0.28258  -0.51574
  17   33546.3    298.1   0.082556875   0.81018  -0.01359  -0.56141  -0.70344
  18   33881.2    295.1   0.013959426   0.13564   0.26951  -0.16212   0.19162
  19   34306.3    291.5   0.003618552   0.03472   0.04452   0.07303   0.16556
  20   35298.2    283.3   0.007871724   0.07342   0.10278  -0.08904   0.23436
  21   36081.8    277.1   0.060151173   0.54882  -0.07702   0.52677  -0.51517
  22   36560.4    273.5   0.043625939   0.39283  -0.38359   0.46570  -0.16977
  23   37650.9    265.6   0.007650613   0.06690  -0.05610  -0.04991  -0.24750
  24   37973.1    263.3   0.624034268   5.41013  -0.27338  -0.41492  -2.27228
  25   38191.7    261.8   0.161618240   1.39315  -1.07352   0.48206  -0.09121
  26   38339.3    260.8   0.044264807   0.38009  -0.45471  -0.28382   0.30460
  27   38551.9    259.4   0.084619499   0.72260  -0.28242   0.76783  -0.23081
  28   38896.4    257.1   0.053962721   0.45673   0.02656   0.49985  -0.45406
  29   39405.7    253.8   0.004334996   0.03622  -0.13632   0.11194   0.07144
  30   39850.6    250.9   0.067760637   0.55978  -0.05261   0.54535  -0.50951
  31   40013.1    249.9   0.050624801   0.41652   0.19133   0.07994   0.61117

FINAL SINGLE POINT ENERGY     -6710.689154991101

DIPOLE MOMENT
-------------
                                X             Y             Z
Electronic contribution:    177.91837     -38.86185     -78.87489
Nuclear contribution   :   -179.03838      41.33749      79.74869
                        -----------------------------------------
Total Dipole Moment    :     -1.12002       2.47563       0.87380
                        -----------------------------------------
Magnitude (a.u.)       :      2.85424
Magnitude (Debye)      :      7.25491

Rotational constants in cm-1:     0.002291     0.000236     0.000224
Rotational constants in MHz :    68.688858     7.070585     6.729916

                             ****ORCA TERMINATED NORMALLY****
TOTAL RUN TIME: 0 days 0 hours 5 minutes 21 seconds 672 msec
