                         Program Version 4.2.0 -  RELEASE  -
|  1> # ORCA input file
|  2> # SCF done       -187.169418733799          0.000974130149
|  3> ! CAM-B3LYP def2-SVP def2/J RIJCOSX Grid4 TightSCF
|  4> %maxcore 5000
|  5> %tddft
|  6>     Mode sTDDFT
|  7>     Ethresh 5.0
|  8>     maxcore 5000
|  9> end
| 10>
| 11> %pal
| 12>   nprocs 6
| 13>   end
| 14> * xyz 0 1
| 15>    C      -13.74551       -18.14533        -0.98788
| 16>    C      -13.69191       -17.17158        -1.95935
| 17>    C      -14.30006       -17.28376        -3.22489
| 18>    N      -14.76797       -17.31407        -4.27378
| 19>    C      -13.02623       -15.93506        -1.84997
| 20>    N      -12.51288       -14.90650        -1.84791
| 21>    C      -14.42381       -19.43313        -1.12738
| 22>    C      -14.23098       -20.17792         0.06116
| 23>    C      -14.75314       -21.43446         0.24119
| 24>    C      -15.50464       -21.98508        -0.80322
| 25>    C      -15.69155       -21.23444        -1.98641
| 26>    C      -15.16183       -19.96220        -2.16842
| 27>    S      -16.65216       -22.10006        -3.14803
| 28>    C      -16.78758       -23.44044        -2.04119
| 29>    C      -16.14755       -23.25223        -0.86333
| 30>   Br      -17.76061       -24.96301        -2.54642
| 31>    C      -13.41949       -19.38197         1.00749
| 32>    O      -13.06608       -19.72938         2.11831
| 33>    C      -13.15060       -18.10429         0.32258
| 34>    C      -12.47063       -17.04141         0.88370
| 35>    C      -11.90644       -17.02822         2.15436
| 36>    C      -11.29056       -15.91079         2.68567
| 37>    C      -10.70736       -15.79277         3.96754
| 38>    C      -10.20847       -14.55309         4.24338
| 39>    C      -10.37274       -13.63054         3.18894
| 40>    S      -11.16477       -14.39343         1.82620
| 41>    C      -10.02568       -12.29181         3.16250
| 42>    C       -9.45249       -11.51508         4.19557
| 43>    C       -9.28691       -10.20186         3.87931
| 44>    C       -9.71202        -9.86662         2.56889
| 45>    S      -10.31944       -11.30916         1.74993
| 46>    C       -9.69802        -8.62734         1.99698
| 47>    N      -10.08635        -8.40198         0.71999
| 48>    C      -10.20843        -7.22058         0.04935
| 49>    S      -11.14409        -7.26978        -1.42206
| 50>    C      -10.99133        -5.55068        -1.56991
| 51>    N      -11.58257        -4.92998        -2.67316
| 52>    O      -11.48033        -3.71961        -2.76428
| 53>    O      -12.16356        -5.65522        -3.46399
| 54>    C      -10.26892        -4.98913        -0.55042
| 55>    C       -9.78268        -5.92931         0.37608
| 56>    C       -8.91777        -5.50988         1.46437
| 57>    C       -7.81811        -6.16223         1.87082
| 58>    C       -6.93489        -5.77457         2.95015
| 59>    C       -5.77188        -6.53142         3.16180
| 60>    C       -4.92543        -6.20936         4.19313
| 61>    C       -5.21666        -5.12993         5.04507
| 62>    C       -6.36293        -4.37382         4.84641
| 63>    C       -7.20859        -4.70049         3.80582
| 64>    C       -4.17143        -5.03290         6.03988
| 65>    C       -3.23223        -6.05082         5.80305
| 66>    C       -3.63583        -6.87963         4.60527
| 67>    C       -3.86861        -8.35203         4.99100
| 68>    C       -4.91437        -8.51695         6.08733
| 69>    C       -2.58015        -6.79930         3.48700
| 70>    C       -2.29238        -5.36873         3.04766
| 71>    C       -2.12956        -6.18335         6.60908
| 72>    C       -1.93490        -5.30146         7.68539
| 73>    C       -2.88324        -4.29229         7.90466
| 74>    C       -3.99183        -4.15112         7.09592
| 75>    C       -0.76391        -5.47664         8.51046
| 76>    C       -0.45207        -4.78914         9.62666
| 77>    C        0.72158        -5.00079        10.40872
| 78>    N        0.95879        -4.28107        11.54538
| 79>    C        2.13997        -4.66587        12.10911
| 80>    C        2.67864        -5.66598        11.30692
| 81>    C        1.79622        -5.87278        10.25068
| 82>    C        2.63646        -4.10081        13.28195
| 83>    C        3.07075        -3.62229        14.30644
| 84>    C        3.56844        -3.05383        15.48774
| 85>    C        4.71144        -3.42573        16.06086
| 86>    H      -14.58950       -21.97669         1.15924
| 87>    H      -15.33522       -19.43086        -3.08901
| 88>    H      -16.12817       -23.97477        -0.06793
| 89>    H      -12.37399       -16.13311         0.30130
| 90>    H      -11.95999       -17.91840         2.76401
| 91>    H      -10.68117       -16.62588         4.64705
| 92>    H       -9.73442       -14.28358         5.17013
| 93>    H       -9.18912       -11.94577         5.14435
| 94>    H       -8.87299        -9.46096         4.53970
| 95>    H       -9.37210        -7.77561         2.57212
| 96>    H      -10.42721        -9.21725         0.21928
| 97>    H      -10.07423        -3.93305        -0.49593
| 98>    H       -9.17516        -4.55077         1.89053
| 99>    H       -7.53107        -7.06963         1.35171
|100>    H       -5.55454        -7.36342         2.50623
|101>    H       -6.59453        -3.54380         5.49698
|102>    H       -8.10430        -4.11694         3.65899
|103>    H       -2.92183        -8.77897         5.32779
|104>    H       -4.18488        -8.90201         4.10168
|105>    H       -4.60595        -7.99711         6.99165
|106>    H       -5.04747        -9.57048         6.32340
|107>    H       -5.87210        -8.10996         5.76903
|108>    H       -2.93212        -7.37814         2.63015
|109>    H       -1.65729        -7.26055         3.84486
|110>    H       -3.19412        -4.89441         2.66644
|111>    H       -1.54149        -5.36292         2.26104
|112>    H       -1.92136        -4.77832         3.88241
|113>    H       -1.40368        -6.96385         6.42866
|114>    H       -2.74471        -3.60081         8.72131
|115>    H       -4.70712        -3.36367         7.28306
|116>    H       -0.08365        -6.25181         8.18379
|117>    H       -1.11509        -4.01580         9.99356
|118>    H        0.35237        -3.56904        11.91861
|119>    H        3.60627        -6.17336        11.48385
|120>    H        1.92222        -6.57771         9.45333
|121>    H        2.95546        -2.27231        15.92180
|122>    H        5.32845        -4.19936        15.63585
|123>    H        5.06040        -2.96578        16.96895
|124> *
|125>
|126>                          ****END OF INPUT****

CARTESIAN COORDINATES (ANGSTROEM)
---------------------------------
  C    -13.745510  -18.145330   -0.987880
  C    -13.691910  -17.171580   -1.959350
  C    -14.300060  -17.283760   -3.224890
  N    -14.767970  -17.314070   -4.273780
  C    -13.026230  -15.935060   -1.849970
  N    -12.512880  -14.906500   -1.847910
  C    -14.423810  -19.433130   -1.127380
  C    -14.230980  -20.177920    0.061160
  C    -14.753140  -21.434460    0.241190
  C    -15.504640  -21.985080   -0.803220
  C    -15.691550  -21.234440   -1.986410
  C    -15.161830  -19.962200   -2.168420
  S    -16.652160  -22.100060   -3.148030
  C    -16.787580  -23.440440   -2.041190
  C    -16.147550  -23.252230   -0.863330
  Br   -17.760610  -24.963010   -2.546420
  C    -13.419490  -19.381970    1.007490
  O    -13.066080  -19.729380    2.118310
  C    -13.150600  -18.104290    0.322580
  C    -12.470630  -17.041410    0.883700
  C    -11.906440  -17.028220    2.154360
  C    -11.290560  -15.910790    2.685670
  C    -10.707360  -15.792770    3.967540
  C    -10.208470  -14.553090    4.243380
  C    -10.372740  -13.630540    3.188940
  S    -11.164770  -14.393430    1.826200
  C    -10.025680  -12.291810    3.162500
  C     -9.452490  -11.515080    4.195570
  C     -9.286910  -10.201860    3.879310
  C     -9.712020   -9.866620    2.568890
  S    -10.319440  -11.309160    1.749930
  C     -9.698020   -8.627340    1.996980
  N    -10.086350   -8.401980    0.719990
  C    -10.208430   -7.220580    0.049350
  S    -11.144090   -7.269780   -1.422060
  C    -10.991330   -5.550680   -1.569910
  N    -11.582570   -4.929980   -2.673160
  O    -11.480330   -3.719610   -2.764280
  O    -12.163560   -5.655220   -3.463990
  C    -10.268920   -4.989130   -0.550420
  C     -9.782680   -5.929310    0.376080
  C     -8.917770   -5.509880    1.464370
  C     -7.818110   -6.162230    1.870820
  C     -6.934890   -5.774570    2.950150
  C     -5.771880   -6.531420    3.161800
  C     -4.925430   -6.209360    4.193130
  C     -5.216660   -5.129930    5.045070
  C     -6.362930   -4.373820    4.846410
  C     -7.208590   -4.700490    3.805820
  C     -4.171430   -5.032900    6.039880
  C     -3.232230   -6.050820    5.803050
  C     -3.635830   -6.879630    4.605270
  C     -3.868610   -8.352030    4.991000
  C     -4.914370   -8.516950    6.087330
  C     -2.580150   -6.799300    3.487000
  C     -2.292380   -5.368730    3.047660
  C     -2.129560   -6.183350    6.609080
  C     -1.934900   -5.301460    7.685390
  C     -2.883240   -4.292290    7.904660
  C     -3.991830   -4.151120    7.095920
  C     -0.763910   -5.476640    8.510460
  C     -0.452070   -4.789140    9.626660
  C      0.721580   -5.000790   10.408720
  N      0.958790   -4.281070   11.545380
  C      2.139970   -4.665870   12.109110
  C      2.678640   -5.665980   11.306920
  C      1.796220   -5.872780   10.250680
  C      2.636460   -4.100810   13.281950
  C      3.070750   -3.622290   14.306440
  C      3.568440   -3.053830   15.487740
  C      4.711440   -3.425730   16.060860
  H    -14.589500  -21.976690    1.159240
  H    -15.335220  -19.430860   -3.089010
  H    -16.128170  -23.974770   -0.067930
  H    -12.373990  -16.133110    0.301300
  H    -11.959990  -17.918400    2.764010
  H    -10.681170  -16.625880    4.647050
  H     -9.734420  -14.283580    5.170130
  H     -9.189120  -11.945770    5.144350
  H     -8.872990   -9.460960    4.539700
  H     -9.372100   -7.775610    2.572120
  H    -10.427210   -9.217250    0.219280
  H    -10.074230   -3.933050   -0.495930
  H     -9.175160   -4.550770    1.890530
  H     -7.531070   -7.069630    1.351710
  H     -5.554540   -7.363420    2.506230
  H     -6.594530   -3.543800    5.496980
  H     -8.104300   -4.116940    3.658990
  H     -2.921830   -8.778970    5.327790
  H     -4.184880   -8.902010    4.101680
  H     -4.605950   -7.997110    6.991650
  H     -5.047470   -9.570480    6.323400
  H     -5.872100   -8.109960    5.769030
  H     -2.932120   -7.378140    2.630150
  H     -1.657290   -7.260550    3.844860
  H     -3.194120   -4.894410    2.666440
  H     -1.541490   -5.362920    2.261040
  H     -1.921360   -4.778320    3.882410
  H     -1.403680   -6.963850    6.428660
  H     -2.744710   -3.600810    8.721310
  H     -4.707120   -3.363670    7.283060
  H     -0.083650   -6.251810    8.183790
  H     -1.115090   -4.015800    9.993560
  H      0.352370   -3.569040   11.918610
  H      3.606270   -6.173360   11.483850
  H      1.922220   -6.577710    9.453330
  H      2.955460   -2.272310   15.921800
  H      5.328450   -4.199360   15.635850
  H      5.060400   -2.965780   16.968950

 Total Charge           Charge          ....    0
 Multiplicity           Mult            ....    1
 Number of Electrons    NEL             ....  544
 Basis Dimension        Dim             .... 1218

ORBITAL ENERGIES
----------------

  NO   OCC          E(Eh)            E(eV)
   0   2.0000    -482.875336    -13139.7059
   1   2.0000     -88.989701     -2421.5329
   2   2.0000     -88.971452     -2421.0363
   3   2.0000     -88.962988     -2420.8060
   4   2.0000     -88.957323     -2420.6518
   5   2.0000     -62.553073     -1702.1557
   6   2.0000     -56.387008     -1534.3685
   7   2.0000     -56.384319     -1534.2953
   8   2.0000     -56.384279     -1534.2942
   9   2.0000     -19.238213      -523.4984
  10   2.0000     -19.237406      -523.4764
  11   2.0000     -19.197147      -522.3809
  12   2.0000     -14.649878      -398.6434
  13   2.0000     -14.504832      -394.6966
  14   2.0000     -14.462526      -393.5454
  15   2.0000     -14.398767      -391.8104
  16   2.0000     -14.395669      -391.7261
  17   2.0000     -10.378625      -282.4168
  18   2.0000     -10.357148      -281.8323
  19   2.0000     -10.347303      -281.5644
  20   2.0000     -10.346517      -281.5430
  21   2.0000     -10.346378      -281.5393
  22   2.0000     -10.341339      -281.4021
  23   2.0000     -10.327021      -281.0125
  24   2.0000     -10.324877      -280.9542
  25   2.0000     -10.321111      -280.8517
  26   2.0000     -10.319228      -280.8005
  27   2.0000     -10.318935      -280.7925
  28   2.0000     -10.314048      -280.6595
  29   2.0000     -10.313272      -280.6384
  30   2.0000     -10.310838      -280.5722
  31   2.0000     -10.308934      -280.5203
  32   2.0000     -10.308497      -280.5085
  33   2.0000     -10.304887      -280.4102
  34   2.0000     -10.304192      -280.3913
  35   2.0000     -10.302919      -280.3567
  36   2.0000     -10.301033      -280.3054
  37   2.0000     -10.300138      -280.2810
  38   2.0000     -10.296698      -280.1874
  39   2.0000     -10.294813      -280.1361
  40   2.0000     -10.294564      -280.1293
  41   2.0000     -10.292869      -280.0832
  42   2.0000     -10.291326      -280.0412
  43   2.0000     -10.290906      -280.0298
  44   2.0000     -10.290130      -280.0087
  45   2.0000     -10.289384      -279.9884
  46   2.0000     -10.288213      -279.9565
  47   2.0000     -10.285594      -279.8852
  48   2.0000     -10.285474      -279.8820
  49   2.0000     -10.284915      -279.8668
  50   2.0000     -10.283705      -279.8339
  51   2.0000     -10.282716      -279.8069
  52   2.0000     -10.282558      -279.8026
  53   2.0000     -10.282132      -279.7910
  54   2.0000     -10.282075      -279.7895
  55   2.0000     -10.280908      -279.7577
  56   2.0000     -10.278101      -279.6813
  57   2.0000     -10.277490      -279.6647
  58   2.0000     -10.275228      -279.6032
  59   2.0000     -10.275196      -279.6023
  60   2.0000     -10.274567      -279.5852
  61   2.0000     -10.274386      -279.5802
  62   2.0000     -10.273943      -279.5682
  63   2.0000     -10.273387      -279.5531
  64   2.0000     -10.272608      -279.5319
  65   2.0000     -10.272136      -279.5190
  66   2.0000     -10.270165      -279.4654
  67   2.0000     -10.269883      -279.4577
  68   2.0000     -10.269783      -279.4550
  69   2.0000     -10.269214      -279.4395
  70   2.0000     -10.266826      -279.3745
  71   2.0000     -10.259136      -279.1653
  72   2.0000     -10.257202      -279.1127
  73   2.0000     -10.256154      -279.0841
  74   2.0000     -10.251941      -278.9695
  75   2.0000      -8.782513      -238.9843
  76   2.0000      -8.085615      -220.0208
  77   2.0000      -8.067861      -219.5377
  78   2.0000      -8.058859      -219.2927
  79   2.0000      -8.053350      -219.1428
  80   2.0000      -6.618764      -180.1057
  81   2.0000      -6.604249      -179.7107
  82   2.0000      -6.604108      -179.7069
  83   2.0000      -6.055348      -164.7744
  84   2.0000      -6.050907      -164.6536
  85   2.0000      -6.046889      -164.5442
  86   2.0000      -6.037639      -164.2925
  87   2.0000      -6.033585      -164.1822
  88   2.0000      -6.028691      -164.0490
  89   2.0000      -6.028553      -164.0453
  90   2.0000      -6.024289      -163.9292
  91   2.0000      -6.022937      -163.8925
  92   2.0000      -6.020120      -163.8158
  93   2.0000      -6.018961      -163.7843
  94   2.0000      -6.014491      -163.6626
  95   2.0000      -2.734633       -74.4131
  96   2.0000      -2.730579       -74.3028
  97   2.0000      -2.730446       -74.2992
  98   2.0000      -2.718931       -73.9859
  99   2.0000      -2.718912       -73.9853
 100   2.0000      -1.318479       -35.8776
 101   2.0000      -1.137633       -30.9566
 102   2.0000      -1.110361       -30.2144
 103   2.0000      -1.107503       -30.1367
 104   2.0000      -1.079784       -29.3824
 105   2.0000      -1.017452       -27.6863
 106   2.0000      -1.008275       -27.4366
 107   2.0000      -1.007195       -27.4072
 108   2.0000      -0.996847       -27.1256
 109   2.0000      -0.995743       -27.0955
 110   2.0000      -0.987902       -26.8822
 111   2.0000      -0.976580       -26.5741
 112   2.0000      -0.971948       -26.4481
 113   2.0000      -0.956303       -26.0223
 114   2.0000      -0.932918       -25.3860
 115   2.0000      -0.928507       -25.2659
 116   2.0000      -0.918447       -24.9922
 117   2.0000      -0.912693       -24.8357
 118   2.0000      -0.901141       -24.5213
 119   2.0000      -0.899372       -24.4732
 120   2.0000      -0.892742       -24.2927
 121   2.0000      -0.890426       -24.2297
 122   2.0000      -0.882751       -24.0209
 123   2.0000      -0.876124       -23.8406
 124   2.0000      -0.870832       -23.6965
 125   2.0000      -0.870140       -23.6777
 126   2.0000      -0.863765       -23.5042
 127   2.0000      -0.861955       -23.4550
 128   2.0000      -0.855563       -23.2811
 129   2.0000      -0.845353       -23.0032
 130   2.0000      -0.842542       -22.9267
 131   2.0000      -0.839577       -22.8461
 132   2.0000      -0.838034       -22.8041
 133   2.0000      -0.835119       -22.7247
 134   2.0000      -0.831854       -22.6359
 135   2.0000      -0.814669       -22.1683
 136   2.0000      -0.810020       -22.0418
 137   2.0000      -0.799312       -21.7504
 138   2.0000      -0.783448       -21.3187
 139   2.0000      -0.773657       -21.0523
 140   2.0000      -0.769729       -20.9454
 141   2.0000      -0.763326       -20.7712
 142   2.0000      -0.742673       -20.2091
 143   2.0000      -0.741585       -20.1796
 144   2.0000      -0.732459       -19.9312
 145   2.0000      -0.729890       -19.8613
 146   2.0000      -0.718470       -19.5506
 147   2.0000      -0.705807       -19.2060
 148   2.0000      -0.696591       -18.9552
 149   2.0000      -0.694725       -18.9044
 150   2.0000      -0.682848       -18.5812
 151   2.0000      -0.682245       -18.5648
 152   2.0000      -0.682079       -18.5603
 153   2.0000      -0.679832       -18.4992
 154   2.0000      -0.678432       -18.4611
 155   2.0000      -0.673677       -18.3317
 156   2.0000      -0.671479       -18.2719
 157   2.0000      -0.667743       -18.1702
 158   2.0000      -0.658792       -17.9266
 159   2.0000      -0.654588       -17.8122
 160   2.0000      -0.644418       -17.5355
 161   2.0000      -0.642232       -17.4760
 162   2.0000      -0.640867       -17.4389
 163   2.0000      -0.634370       -17.2621
 164   2.0000      -0.630999       -17.1704
 165   2.0000      -0.629612       -17.1326
 166   2.0000      -0.618568       -16.8321
 167   2.0000      -0.616535       -16.7768
 168   2.0000      -0.612343       -16.6627
 169   2.0000      -0.607725       -16.5370
 170   2.0000      -0.600600       -16.3431
 171   2.0000      -0.596419       -16.2294
 172   2.0000      -0.593815       -16.1585
 173   2.0000      -0.590847       -16.0778
 174   2.0000      -0.584540       -15.9061
 175   2.0000      -0.580964       -15.8088
 176   2.0000      -0.579047       -15.7567
 177   2.0000      -0.574685       -15.6380
 178   2.0000      -0.562442       -15.3048
 179   2.0000      -0.561330       -15.2746
 180   2.0000      -0.557078       -15.1589
 181   2.0000      -0.551006       -14.9936
 182   2.0000      -0.550719       -14.9858
 183   2.0000      -0.546331       -14.8664
 184   2.0000      -0.543483       -14.7889
 185   2.0000      -0.535051       -14.5595
 186   2.0000      -0.531630       -14.4664
 187   2.0000      -0.530266       -14.4293
 188   2.0000      -0.529812       -14.4169
 189   2.0000      -0.525559       -14.3012
 190   2.0000      -0.525465       -14.2986
 191   2.0000      -0.524206       -14.2644
 192   2.0000      -0.522750       -14.2248
 193   2.0000      -0.522378       -14.2146
 194   2.0000      -0.518023       -14.0961
 195   2.0000      -0.517637       -14.0856
 196   2.0000      -0.516801       -14.0629
 197   2.0000      -0.515589       -14.0299
 198   2.0000      -0.513151       -13.9635
 199   2.0000      -0.509815       -13.8728
 200   2.0000      -0.506141       -13.7728
 201   2.0000      -0.504930       -13.7398
 202   2.0000      -0.501722       -13.6525
 203   2.0000      -0.494552       -13.4574
 204   2.0000      -0.494072       -13.4444
 205   2.0000      -0.493033       -13.4161
 206   2.0000      -0.487708       -13.2712
 207   2.0000      -0.483696       -13.1620
 208   2.0000      -0.482178       -13.1207
 209   2.0000      -0.480863       -13.0850
 210   2.0000      -0.479025       -13.0349
 211   2.0000      -0.478714       -13.0265
 212   2.0000      -0.476896       -12.9770
 213   2.0000      -0.475499       -12.9390
 214   2.0000      -0.475035       -12.9264
 215   2.0000      -0.474517       -12.9123
 216   2.0000      -0.472108       -12.8467
 217   2.0000      -0.463216       -12.6048
 218   2.0000      -0.459301       -12.4982
 219   2.0000      -0.456690       -12.4272
 220   2.0000      -0.455491       -12.3945
 221   2.0000      -0.452847       -12.3226
 222   2.0000      -0.452050       -12.3009
 223   2.0000      -0.449847       -12.2410
 224   2.0000      -0.445173       -12.1138
 225   2.0000      -0.443124       -12.0580
 226   2.0000      -0.442282       -12.0351
 227   2.0000      -0.438800       -11.9404
 228   2.0000      -0.433788       -11.8040
 229   2.0000      -0.433292       -11.7905
 230   2.0000      -0.432838       -11.7781
 231   2.0000      -0.429516       -11.6877
 232   2.0000      -0.427067       -11.6211
 233   2.0000      -0.424755       -11.5582
 234   2.0000      -0.424028       -11.5384
 235   2.0000      -0.423469       -11.5232
 236   2.0000      -0.415583       -11.3086
 237   2.0000      -0.414497       -11.2790
 238   2.0000      -0.413397       -11.2491
 239   2.0000      -0.412329       -11.2200
 240   2.0000      -0.409621       -11.1463
 241   2.0000      -0.406506       -11.0616
 242   2.0000      -0.398634       -10.8474
 243   2.0000      -0.395349       -10.7580
 244   2.0000      -0.394433       -10.7331
 245   2.0000      -0.390416       -10.6238
 246   2.0000      -0.390086       -10.6148
 247   2.0000      -0.388420       -10.5694
 248   2.0000      -0.385660       -10.4943
 249   2.0000      -0.377946       -10.2844
 250   2.0000      -0.375809       -10.2263
 251   2.0000      -0.367708       -10.0058
 252   2.0000      -0.366443        -9.9714
 253   2.0000      -0.365014        -9.9325
 254   2.0000      -0.361263        -9.8305
 255   2.0000      -0.357869        -9.7381
 256   2.0000      -0.347390        -9.4530
 257   2.0000      -0.343690        -9.3523
 258   2.0000      -0.340487        -9.2651
 259   2.0000      -0.335595        -9.1320
 260   2.0000      -0.330147        -8.9838
 261   2.0000      -0.328253        -8.9322
 262   2.0000      -0.322054        -8.7635
 263   2.0000      -0.321801        -8.7567
 264   2.0000      -0.317591        -8.6421
 265   2.0000      -0.308544        -8.3959
 266   2.0000      -0.301233        -8.1970
 267   2.0000      -0.288510        -7.8508
 268   2.0000      -0.279198        -7.5974
 269   2.0000      -0.270822        -7.3694
 270   2.0000      -0.233306        -6.3486
 271   2.0000      -0.225018        -6.1230
 272   0.0000      -0.103884        -2.8268
 273   0.0000      -0.061411        -1.6711
 274   0.0000      -0.051299        -1.3959
 275   0.0000      -0.048366        -1.3161
 276   0.0000      -0.030236        -0.8228

MULLIKEN ATOMIC CHARGES
-----------------------
   0 C :    0.333853
   1 C :   -0.371388
   2 C :   -0.185756
   3 N :    0.133394
   4 C :   -0.186852
   5 N :    0.125419
   6 C :    0.013809
   7 C :   -0.010709
   8 C :   -0.080489
   9 C :    0.123089
  10 C :   -0.094279
  11 C :   -0.026616
  12 S :    0.179255
  13 C :   -0.123950
  14 C :    0.034597
  15 Br:    0.013404
  16 C :    0.134713
  17 O :   -0.166234
  18 C :   -0.085281
  19 C :   -0.045989
  20 C :   -0.026317
  21 C :    0.007584
  22 C :    0.021971
  23 C :    0.045077
  24 C :   -0.057327
  25 S :    0.100902
  26 C :   -0.029507
  27 C :    0.018425
  28 C :    0.053784
  29 C :   -0.064994
  30 S :    0.081090
  31 C :    0.041388
  32 N :   -0.011187
  33 C :   -0.128716
  34 S :    0.177997
  35 C :   -0.007283
  36 N :    0.279718
  37 O :   -0.251424
  38 O :   -0.263006
  39 C :    0.005556
  40 C :    0.098707
  41 C :   -0.025680
  42 C :   -0.027600
  43 C :    0.105265
  44 C :   -0.113011
  45 C :    0.010913
  46 C :    0.118701
  47 C :   -0.045899
  48 C :   -0.012106
  49 C :    0.105382
  50 C :    0.019753
  51 C :   -0.139186
  52 C :    0.069845
  53 C :    0.025100
  54 C :    0.070696
  55 C :    0.022277
  56 C :   -0.117565
  57 C :    0.136798
  58 C :   -0.017958
  59 C :   -0.041830
  60 C :   -0.028416
  61 C :    0.045639
  62 C :    0.086162
  63 N :   -0.040626
  64 C :    0.019635
  65 C :   -0.003349
  66 C :   -0.053426
  67 C :    0.110499
  68 C :   -0.133217
  69 C :   -0.094303
  70 C :   -0.001405
  71 H :   -0.016959
  72 H :   -0.010843
  73 H :   -0.006234
  74 H :    0.012732
  75 H :    0.014924
  76 H :   -0.001362
  77 H :   -0.007921
  78 H :   -0.007442
  79 H :    0.002593
  80 H :    0.049202
  81 H :    0.148317
  82 H :    0.012245
  83 H :    0.002834
  84 H :   -0.003749
  85 H :   -0.040863
  86 H :   -0.034947
  87 H :   -0.031436
  88 H :   -0.000144
  89 H :   -0.004287
  90 H :    0.024670
  91 H :    0.007738
  92 H :    0.012386
  93 H :   -0.003624
  94 H :   -0.001114
  95 H :    0.020380
  96 H :    0.012544
  97 H :    0.023623
  98 H :   -0.042096
  99 H :   -0.034736
 100 H :   -0.037839
 101 H :   -0.027561
 102 H :   -0.035990
 103 H :    0.119808
 104 H :   -0.028564
 105 H :   -0.027190
 106 H :    0.026907
 107 H :    0.029152
 108 H :    0.027332
Sum of atomic charges:   -0.0000000

LOEWDIN ATOMIC CHARGES
----------------------
   0 C :    0.073757
   1 C :   -0.159076
   2 C :   -0.019061
   3 N :   -0.070197
   4 C :   -0.019826
   5 N :   -0.071826
   6 C :   -0.017890
   7 C :   -0.048640
   8 C :    0.016431
   9 C :   -0.036183
  10 C :   -0.146296
  11 C :   -0.013861
  12 S :    0.426901
  13 C :   -0.275332
  14 C :   -0.071268
  15 Br:    0.128698
  16 C :    0.081365
  17 O :   -0.160291
  18 C :   -0.111795
  19 C :    0.049203
  20 C :   -0.078515
  21 C :   -0.101472
  22 C :   -0.046815
  23 C :   -0.007179
  24 C :   -0.203475
  25 S :    0.406487
  26 C :   -0.140256
  27 C :   -0.050379
  28 C :   -0.005404
  29 C :   -0.200209
  30 S :    0.371390
  31 C :    0.032176
  32 N :    0.047738
  33 C :   -0.106241
  34 S :    0.458810
  35 C :   -0.210535
  36 N :    0.274197
  37 O :   -0.217090
  38 O :   -0.228669
  39 C :    0.004738
  40 C :   -0.099992
  41 C :   -0.036023
  42 C :   -0.017169
  43 C :   -0.036119
  44 C :   -0.021952
  45 C :    0.002794
  46 C :   -0.011422
  47 C :   -0.017249
  48 C :   -0.015200
  49 C :   -0.025670
  50 C :    0.003625
  51 C :   -0.035261
  52 C :   -0.011180
  53 C :   -0.058244
  54 C :   -0.011088
  55 C :   -0.057641
  56 C :   -0.024421
  57 C :   -0.018048
  58 C :   -0.018406
  59 C :   -0.015861
  60 C :   -0.023431
  61 C :   -0.029454
  62 C :   -0.015194
  63 N :    0.103427
  64 C :   -0.037212
  65 C :   -0.041738
  66 C :   -0.064958
  67 C :   -0.053269
  68 C :   -0.037725
  69 C :   -0.044156
  70 C :   -0.022776
  71 H :    0.038295
  72 H :    0.039838
  73 H :    0.037298
  74 H :    0.030556
  75 H :    0.038075
  76 H :    0.038095
  77 H :    0.034307
  78 H :    0.035029
  79 H :    0.039492
  80 H :    0.046073
  81 H :    0.087164
  82 H :    0.047000
  83 H :    0.030279
  84 H :    0.028129
  85 H :    0.023835
  86 H :    0.027687
  87 H :    0.024837
  88 H :    0.021239
  89 H :    0.018938
  90 H :    0.027246
  91 H :    0.023040
  92 H :    0.021122
  93 H :    0.019362
  94 H :    0.020594
  95 H :    0.025029
  96 H :    0.025215
  97 H :    0.026452
  98 H :    0.023378
  99 H :    0.023330
 100 H :    0.026352
 101 H :    0.027180
 102 H :    0.022995
 103 H :    0.091277
 104 H :    0.028303
 105 H :    0.022841
 106 H :    0.042688
 107 H :    0.028397
 108 H :    0.025937

  Mayer bond orders larger than 0.100000
B(  0-C ,  1-C ) :   1.5771 B(  0-C ,  6-C ) :   0.9880 B(  0-C , 18-C ) :   1.1187
B(  1-C ,  2-C ) :   1.1488 B(  1-C ,  4-C ) :   1.1564 B(  2-C ,  3-N ) :   2.9606
B(  4-C ,  5-N ) :   2.9543 B(  6-C ,  7-C ) :   1.2788 B(  6-C , 11-C ) :   1.4204
B(  7-C ,  8-C ) :   1.4301 B(  7-C , 16-C ) :   0.9344 B(  8-C ,  9-C ) :   1.2377
B(  8-C , 71-H ) :   1.0167 B(  9-C , 10-C ) :   1.3158 B(  9-C , 14-C ) :   1.1604
B( 10-C , 11-C ) :   1.3199 B( 10-C , 12-S ) :   1.0834 B( 11-C , 72-H ) :   0.9794
B( 12-S , 13-C ) :   1.0852 B( 13-C , 14-C ) :   1.6212 B( 13-C , 15-Br) :   1.0124
B( 14-C , 73-H ) :   0.9999 B( 16-C , 17-O ) :   2.1872 B( 16-C , 18-C ) :   0.9670
B( 18-C , 19-C ) :   1.4689 B( 19-C , 20-C ) :   1.2697 B( 19-C , 74-H ) :   0.9423
B( 20-C , 21-C ) :   1.4077 B( 20-C , 75-H ) :   0.9787 B( 21-C , 22-C ) :   1.1839
B( 21-C , 25-S ) :   1.0903 B( 22-C , 23-C ) :   1.5377 B( 22-C , 76-H ) :   1.0021
B( 23-C , 24-C ) :   1.2205 B( 23-C , 77-H ) :   0.9941 B( 24-C , 25-S ) :   1.0392
B( 24-C , 26-C ) :   1.4707 B( 26-C , 27-C ) :   1.1987 B( 26-C , 30-S ) :   1.0850
B( 27-C , 28-C ) :   1.5919 B( 27-C , 78-H ) :   0.9933 B( 28-C , 29-C ) :   1.1668
B( 28-C , 79-H ) :   0.9950 B( 29-C , 30-S ) :   1.0002 B( 29-C , 31-C ) :   1.5755
B( 31-C , 32-N ) :   1.1990 B( 31-C , 80-H ) :   0.9537 B( 32-N , 33-C ) :   1.1661
B( 32-N , 81-H ) :   0.8974 B( 33-C , 34-S ) :   1.1379 B( 33-C , 40-C ) :   1.4094
B( 34-S , 35-C ) :   1.0851 B( 35-C , 36-N ) :   0.9735 B( 35-C , 39-C ) :   1.4823
B( 36-N , 37-O ) :   1.5329 B( 36-N , 38-O ) :   1.5094 B( 37-O , 38-O ) :   0.2594
B( 39-C , 40-C ) :   1.2387 B( 39-C , 82-H ) :   1.0065 B( 40-C , 41-C ) :   1.0256
B( 41-C , 42-C ) :   1.7413 B( 41-C , 83-H ) :   0.9566 B( 42-C , 43-C ) :   1.0672
B( 42-C , 84-H ) :   0.9851 B( 43-C , 44-C ) :   1.2866 B( 43-C , 48-C ) :   1.3524
B( 44-C , 45-C ) :   1.3761 B( 44-C , 85-H ) :   1.0148 B( 45-C , 46-C ) :   1.3697
B( 45-C , 51-C ) :   0.9133 B( 46-C , 47-C ) :   1.3289 B( 46-C , 49-C ) :   0.9996
B( 47-C , 48-C ) :   1.3967 B( 47-C , 86-H ) :   0.9910 B( 48-C , 87-H ) :   0.9837
B( 49-C , 50-C ) :   1.3694 B( 49-C , 59-C ) :   1.3290 B( 50-C , 51-C ) :   0.9162
B( 50-C , 56-C ) :   1.3753 B( 51-C , 52-C ) :   1.0385 B( 51-C , 54-C ) :   1.0389
B( 52-C , 53-C ) :   1.1006 B( 52-C , 88-H ) :   0.9392 B( 52-C , 89-H ) :   0.9391
B( 53-C , 90-H ) :   0.9640 B( 53-C , 91-H ) :   0.9640 B( 53-C , 92-H ) :   0.9641
B( 54-C , 55-C ) :   1.1015 B( 54-C , 93-H ) :   0.9388 B( 54-C , 94-H ) :   0.9387
B( 55-C , 95-H ) :   0.9644 B( 55-C , 96-H ) :   0.9638 B( 55-C , 97-H ) :   0.9646
B( 56-C , 57-C ) :   1.2842 B( 56-C , 98-H ) :   1.0156 B( 57-C , 58-C ) :   1.3392
B( 57-C , 60-C ) :   1.0714 B( 58-C , 59-C ) :   1.4040 B( 58-C , 99-H ) :   0.9839
B( 59-C ,100-H ) :   0.9893 B( 60-C , 61-C ) :   1.7073 B( 60-C ,101-H ) :   0.9896
B( 61-C , 62-C ) :   1.0809 B( 61-C ,102-H ) :   0.9513 B( 62-C , 63-N ) :   1.2086
B( 62-C , 64-C ) :   0.1213 B( 62-C , 66-C ) :   1.4199 B( 63-N , 64-C ) :   1.2352
B( 63-N ,103-H ) :   0.9363 B( 64-C , 65-C ) :   1.4401 B( 64-C , 67-C ) :   0.8169
B( 65-C , 66-C ) :   1.3275 B( 65-C ,104-H ) :   1.0147 B( 66-C ,105-H ) :   1.0040
B( 67-C , 68-C ) :   2.3045 B( 68-C , 69-C ) :   1.0164 B( 69-C , 70-C ) :   1.9323
B( 69-C ,106-H ) :   0.9617 B( 70-C ,107-H ) :   0.9636 B( 70-C ,108-H ) :   0.9552

-----------------------------------------------------------------------------
         ABSORPTION SPECTRUM VIA TRANSITION ELECTRIC DIPOLE MOMENTS
-----------------------------------------------------------------------------
State   Energy  Wavelength   fosc         T2         TX        TY        TZ
        (cm-1)    (nm)                  (au**2)     (au)      (au)      (au)
-----------------------------------------------------------------------------
   0   12254.5    816.0   1.427079488  38.33793   2.36229   5.56754   1.32664
   1   20048.1    498.8   0.021405122   0.35149   0.55701   0.15499   0.13120
   2   21693.2    461.0   0.242813544   3.68490   0.24392  -1.28012   1.40951
   3   23696.4    422.0   0.072246395   1.00371  -0.03613   0.71870  -0.69705
   4   23970.2    417.2   0.251878353   3.45935   0.32206  -1.01458   1.52521
   5   25503.6    392.1   1.900431486  24.53164   3.40438   0.51047   3.56107
   6   25711.0    388.9   0.167512284   2.14488  -0.13302   1.25892  -0.73641
   7   26802.6    373.1   0.410637207   5.04379  -1.48561  -0.07493  -1.68260
   8   27333.4    365.9   0.266414085   3.20877   1.03484   0.14137   1.45530
   9   27453.4    364.3   0.067323306   0.80732  -0.50939  -0.05146  -0.73837
  10   29047.8    344.3   0.019304549   0.21879   0.20994  -0.13531   0.39548
  11   29336.4    340.9   0.073509529   0.82492  -0.30028   0.34929  -0.78279
  12   29702.9    336.7   0.153439925   1.70065  -0.62674   0.46076  -1.04668
  13   31404.1    318.4   0.000741742   0.00778  -0.06409  -0.01242  -0.05928
  14   31783.0    314.6   0.063552373   0.65828   0.46135   0.40392   0.53130
  15   32320.0    309.4   0.154913578   1.57795   0.53058   1.05291   0.43339
  16   32595.2    306.8   0.397193237   4.01165   0.89596   1.78906  -0.09042
  17   32921.7    303.8   0.042474956   0.42474   0.43479   0.40284   0.27097
  18   33636.8    297.3   0.056624065   0.55419  -0.20209  -0.65415   0.29229
  19   34050.0    293.7   0.001109860   0.01073  -0.02375  -0.06289   0.07881
  20   34165.3    292.7   0.027486667   0.26486   0.39702   0.32243   0.05718
  21   34402.0    290.7   0.507732962   4.85878   1.43863  -0.03613   1.66967
  22   34649.3    288.6   0.122447204   1.16340  -0.56846  -0.85745  -0.32410
  23   35684.8    280.2   0.018651913   0.17207   0.31660  -0.13881   0.22929
  24   35937.8    278.3   0.060504537   0.55426   0.14172   0.72438  -0.09720
  25   36163.9    276.5   0.024778262   0.22556  -0.40821  -0.16878  -0.17448
  26   36494.2    274.0   0.092381383   0.83337   0.35896  -0.39189   0.74225
  27   36809.0    271.7   0.242279033   2.16689   0.43699  -0.44678   1.33279
  28   37006.3    270.2   0.006799740   0.06049   0.13957  -0.15292   0.13277
  29   37149.9    269.2   0.047085799   0.41726  -0.27653  -0.41796  -0.40756
  30   37555.5    266.3   0.032591069   0.28569   0.09354  -0.52454  -0.04244
  31   38170.6    262.0   0.083385999   0.71918  -0.14409  -0.57290   0.60844
  32   38606.9    259.0   0.036992800   0.31545  -0.00071  -0.14852  -0.54165
  33   38831.3    257.5   0.005102820   0.04326   0.07286   0.01200   0.19444
  34   38857.5    257.4   0.001804435   0.01529   0.07861   0.09316   0.02071
  35   38971.9    256.6   0.072539768   0.61277  -0.29527   0.26555  -0.67459
  36   39441.2    253.5   0.133039648   1.11047   0.08990   0.76646   0.71758
  37   39901.6    250.6   0.018888512   0.15584  -0.05652  -0.16780   0.35283
  38   40233.9    248.5   0.014186239   0.11608   0.06136  -0.23004   0.24371

FINAL SINGLE POINT ENERGY     -6895.012471214517

DIPOLE MOMENT
-------------
                                X             Y             Z
Electronic contribution:   -213.19425    -238.50999    -142.76441
Nuclear contribution   :    216.00612     240.47177     147.87876
                        -----------------------------------------
Total Dipole Moment    :      2.81188       1.96178       5.11436
                        -----------------------------------------
Magnitude (a.u.)       :      6.15726
Magnitude (Debye)      :     15.65051

Rotational constants in cm-1:     0.001076     0.000164     0.000144
Rotational constants in MHz :    32.252691     4.917653     4.329620

                             ****ORCA TERMINATED NORMALLY****
TOTAL RUN TIME: 0 days 0 hours 11 minutes 18 seconds 303 msec
