                         Program Version 4.2.0 -  RELEASE  -
|  1> # ORCA input file
|  2> # SCF done       -177.406085187221          0.000847477177
|  3> ! CAM-B3LYP def2-SVP def2/J RIJCOSX Grid4 TightSCF
|  4> %maxcore 5000
|  5> %tddft
|  6>     Mode sTDDFT
|  7>     Ethresh 5.0
|  8>     maxcore 5000
|  9> end
| 10>
| 11> %pal
| 12>   nprocs 6
| 13>   end
| 14> * xyz 0 1
| 15>    C       -7.69375         1.66919         5.41017
| 16>    C       -7.73569         0.30669         5.59681
| 17>    C       -7.68294        -0.31966         6.85772
| 18>    N       -7.64915        -0.89136         7.85367
| 19>    C       -7.83053        -0.66013         4.57730
| 20>    N       -7.90400        -1.50802         3.80407
| 21>    C       -7.59074         2.65699         6.48210
| 22>    C       -7.55310         3.94908         5.90313
| 23>    C       -7.46660         5.09696         6.65059
| 24>    C       -7.41595         4.96529         8.04304
| 25>    C       -7.45169         3.67210         8.61339
| 26>    C       -7.53776         2.51000         7.85468
| 27>    S       -7.38066         3.73680        10.34859
| 28>    C       -7.30628         5.47756        10.28395
| 29>    C       -7.33245         5.98602         9.02936
| 30>   Br       -7.20405         6.46049        11.87875
| 31>    C       -7.62915         3.81798         4.43640
| 32>    O       -7.60828         4.73763         3.63199
| 33>    C       -7.73416         2.38861         4.15814
| 34>    C       -7.87769         1.81317         2.91036
| 35>    C       -7.94150         2.38881         1.64697
| 36>    S       -7.81746         4.08736         1.27994
| 37>    C       -8.01663         3.82670        -0.41465
| 38>    C       -8.18141         2.45586        -0.71159
| 39>    C       -8.13043         1.63957         0.45138
| 40>    C       -8.26365         0.24813         0.33162
| 41>    C       -8.44460        -0.29466        -0.91387
| 42>    F       -8.57352        -1.62144        -1.05029
| 43>    C       -8.49870         0.51546        -2.06443
| 44>    F       -8.67969        -0.06005        -3.26474
| 45>    C       -8.36859         1.87413        -1.97568
| 46>    C       -8.01684         4.89621        -1.33873
| 47>    C       -7.78520         6.19022        -1.00096
| 48>    C       -7.81214         7.25554        -1.94645
| 49>    C       -7.51220         8.54607        -1.70494
| 50>    C       -7.08897         9.08861        -0.37755
| 51>    C       -7.63626         9.57227        -2.80685
| 52>    N       -8.37923        10.74054        -2.38940
| 53>    C       -9.65670        10.66006        -1.95621
| 54>    C      -10.30264        11.65928        -1.29912
| 55>    C      -11.63969        11.57284        -0.87384
| 56>    C      -12.30231        12.56091        -0.19330
| 57>    C      -13.62696        12.52532         0.30310
| 58>    C      -14.01227        13.65391         0.96142
| 59>    C      -13.01700        14.65465         1.01714
| 60>    S      -11.56632        14.11262         0.20708
| 61>    C      -13.09449        15.90282         1.60527
| 62>    C      -14.17351        16.47538         2.30941
| 63>    C      -13.92188        17.73002         2.77667
| 64>    C      -12.63650        18.23312         2.45230
| 65>    S      -11.74548        17.02261         1.55281
| 66>    C      -12.15448        19.45755         2.84693
| 67>    C      -10.94426        20.09161         2.52250
| 68>    S      -10.44393        21.44086         3.53858
| 69>    C       -8.99223        21.73839         2.63108
| 70>    C       -8.91276        20.84235         1.57014
| 71>    C      -10.00162        19.92617         1.51721
| 72>    S       -9.90494        18.91405         0.11392
| 73>    C       -8.39677        19.68217        -0.36352
| 74>    C       -7.67833        19.27507        -1.57374
| 75>    O       -6.61946        19.78122        -1.87693
| 76>    C       -8.35568        18.19934        -2.39413
| 77>    C       -7.54811        17.82649        -3.62838
| 78>    C       -8.00711        20.66487         0.49819
| 79>    C       -8.06457        22.76867         2.96582
| 80>    C       -8.19406        23.60658         3.99676
| 81>    H       -7.44149         6.06671         6.17871
| 82>    H       -7.56343         1.54884         8.33970
| 83>    H       -7.29564         7.03683         8.80680
| 84>    H       -7.96812         0.73647         2.89981
| 85>    H       -8.22571        -0.41172         1.18387
| 86>    H       -8.41047         2.47122        -2.87150
| 87>    H       -8.21048         4.64960        -2.37435
| 88>    H       -7.58296         6.42124         0.03472
| 89>    H       -8.09551         6.97705        -2.95489
| 90>    H       -6.63115         8.32335         0.24066
| 91>    H       -7.95110         9.48753         0.16048
| 92>    H       -6.37519         9.90004        -0.51111
| 93>    H       -8.13460         9.12740        -3.67443
| 94>    H       -6.64240         9.90388        -3.12241
| 95>    H       -7.85265        11.54378        -2.08046
| 96>    H      -10.16485         9.73487        -2.19216
| 97>    H       -9.76976        12.57452        -1.07553
| 98>    H      -12.18294        10.65980        -1.07959
| 99>    H      -14.25258        11.66157         0.16043
|100>    H      -14.98184        13.79571         1.40399
|101>    H      -15.10121        15.95142         2.45448
|102>    H      -14.62397        18.32184         3.33715
|103>    H      -12.78387        20.00542         3.53755
|104>    H       -9.34553        18.56604        -2.67868
|105>    H       -8.50941        17.32753        -1.75239
|106>    H       -7.40277        18.70051        -4.25801
|107>    H       -8.06114        17.05893        -4.20226
|108>    H       -6.56805        17.45683        -3.33772
|109>    H       -7.10929        21.23695         0.34961
|110>    H       -7.20680        22.83801         2.30983
|111>    H       -9.04022        23.54902         4.66131
|112>    H       -7.46090        24.36515         4.20242
|113> *
|114>
|115>                          ****END OF INPUT****

CARTESIAN COORDINATES (ANGSTROEM)
---------------------------------
  C     -7.693750    1.669190    5.410170
  C     -7.735690    0.306690    5.596810
  C     -7.682940   -0.319660    6.857720
  N     -7.649150   -0.891360    7.853670
  C     -7.830530   -0.660130    4.577300
  N     -7.904000   -1.508020    3.804070
  C     -7.590740    2.656990    6.482100
  C     -7.553100    3.949080    5.903130
  C     -7.466600    5.096960    6.650590
  C     -7.415950    4.965290    8.043040
  C     -7.451690    3.672100    8.613390
  C     -7.537760    2.510000    7.854680
  S     -7.380660    3.736800   10.348590
  C     -7.306280    5.477560   10.283950
  C     -7.332450    5.986020    9.029360
  Br    -7.204050    6.460490   11.878750
  C     -7.629150    3.817980    4.436400
  O     -7.608280    4.737630    3.631990
  C     -7.734160    2.388610    4.158140
  C     -7.877690    1.813170    2.910360
  C     -7.941500    2.388810    1.646970
  S     -7.817460    4.087360    1.279940
  C     -8.016630    3.826700   -0.414650
  C     -8.181410    2.455860   -0.711590
  C     -8.130430    1.639570    0.451380
  C     -8.263650    0.248130    0.331620
  C     -8.444600   -0.294660   -0.913870
  F     -8.573520   -1.621440   -1.050290
  C     -8.498700    0.515460   -2.064430
  F     -8.679690   -0.060050   -3.264740
  C     -8.368590    1.874130   -1.975680
  C     -8.016840    4.896210   -1.338730
  C     -7.785200    6.190220   -1.000960
  C     -7.812140    7.255540   -1.946450
  C     -7.512200    8.546070   -1.704940
  C     -7.088970    9.088610   -0.377550
  C     -7.636260    9.572270   -2.806850
  N     -8.379230   10.740540   -2.389400
  C     -9.656700   10.660060   -1.956210
  C    -10.302640   11.659280   -1.299120
  C    -11.639690   11.572840   -0.873840
  C    -12.302310   12.560910   -0.193300
  C    -13.626960   12.525320    0.303100
  C    -14.012270   13.653910    0.961420
  C    -13.017000   14.654650    1.017140
  S    -11.566320   14.112620    0.207080
  C    -13.094490   15.902820    1.605270
  C    -14.173510   16.475380    2.309410
  C    -13.921880   17.730020    2.776670
  C    -12.636500   18.233120    2.452300
  S    -11.745480   17.022610    1.552810
  C    -12.154480   19.457550    2.846930
  C    -10.944260   20.091610    2.522500
  S    -10.443930   21.440860    3.538580
  C     -8.992230   21.738390    2.631080
  C     -8.912760   20.842350    1.570140
  C    -10.001620   19.926170    1.517210
  S     -9.904940   18.914050    0.113920
  C     -8.396770   19.682170   -0.363520
  C     -7.678330   19.275070   -1.573740
  O     -6.619460   19.781220   -1.876930
  C     -8.355680   18.199340   -2.394130
  C     -7.548110   17.826490   -3.628380
  C     -8.007110   20.664870    0.498190
  C     -8.064570   22.768670    2.965820
  C     -8.194060   23.606580    3.996760
  H     -7.441490    6.066710    6.178710
  H     -7.563430    1.548840    8.339700
  H     -7.295640    7.036830    8.806800
  H     -7.968120    0.736470    2.899810
  H     -8.225710   -0.411720    1.183870
  H     -8.410470    2.471220   -2.871500
  H     -8.210480    4.649600   -2.374350
  H     -7.582960    6.421240    0.034720
  H     -8.095510    6.977050   -2.954890
  H     -6.631150    8.323350    0.240660
  H     -7.951100    9.487530    0.160480
  H     -6.375190    9.900040   -0.511110
  H     -8.134600    9.127400   -3.674430
  H     -6.642400    9.903880   -3.122410
  H     -7.852650   11.543780   -2.080460
  H    -10.164850    9.734870   -2.192160
  H     -9.769760   12.574520   -1.075530
  H    -12.182940   10.659800   -1.079590
  H    -14.252580   11.661570    0.160430
  H    -14.981840   13.795710    1.403990
  H    -15.101210   15.951420    2.454480
  H    -14.623970   18.321840    3.337150
  H    -12.783870   20.005420    3.537550
  H     -9.345530   18.566040   -2.678680
  H     -8.509410   17.327530   -1.752390
  H     -7.402770   18.700510   -4.258010
  H     -8.061140   17.058930   -4.202260
  H     -6.568050   17.456830   -3.337720
  H     -7.109290   21.236950    0.349610
  H     -7.206800   22.838010    2.309830
  H     -9.040220   23.549020    4.661310
  H     -7.460900   24.365150    4.202420

 Total Charge           Charge          ....    0
 Multiplicity           Mult            ....    1
 Number of Electrons    NEL             ....  530
 Basis Dimension        Dim             .... 1126

ORBITAL ENERGIES
----------------

  NO   OCC          E(Eh)            E(eV)
   0   2.0000    -482.884276    -13139.9492
   1   2.0000     -88.980053     -2421.2703
   2   2.0000     -88.973826     -2421.1009
   3   2.0000     -88.949635     -2420.4426
   4   2.0000     -88.942636     -2420.2522
   5   2.0000     -88.934242     -2420.0237
   6   2.0000     -88.933182     -2419.9949
   7   2.0000     -62.561993     -1702.3984
   8   2.0000     -56.395943     -1534.6116
   9   2.0000     -56.393229     -1534.5378
  10   2.0000     -56.393194     -1534.5368
  11   2.0000     -24.795315      -674.7148
  12   2.0000     -24.794909      -674.7038
  13   2.0000     -19.218589      -522.9644
  14   2.0000     -19.195821      -522.3448
  15   2.0000     -14.447474      -393.1358
  16   2.0000     -14.416067      -392.2811
  17   2.0000     -14.409481      -392.1019
  18   2.0000     -10.381073      -282.4834
  19   2.0000     -10.377674      -282.3909
  20   2.0000     -10.366619      -282.0900
  21   2.0000     -10.357197      -281.8337
  22   2.0000     -10.349323      -281.6194
  23   2.0000     -10.338109      -281.3143
  24   2.0000     -10.335408      -281.2407
  25   2.0000     -10.330232      -281.0999
  26   2.0000     -10.330036      -281.0946
  27   2.0000     -10.324223      -280.9364
  28   2.0000     -10.322975      -280.9024
  29   2.0000     -10.320404      -280.8325
  30   2.0000     -10.319961      -280.8204
  31   2.0000     -10.319920      -280.8193
  32   2.0000     -10.313424      -280.6425
  33   2.0000     -10.312465      -280.6164
  34   2.0000     -10.306154      -280.4447
  35   2.0000     -10.306067      -280.4423
  36   2.0000     -10.305292      -280.4212
  37   2.0000     -10.305076      -280.4154
  38   2.0000     -10.304961      -280.4122
  39   2.0000     -10.304000      -280.3861
  40   2.0000     -10.302699      -280.3507
  41   2.0000     -10.302678      -280.3501
  42   2.0000     -10.302454      -280.3440
  43   2.0000     -10.301377      -280.3147
  44   2.0000     -10.299375      -280.2602
  45   2.0000     -10.298590      -280.2389
  46   2.0000     -10.298218      -280.2288
  47   2.0000     -10.296073      -280.1704
  48   2.0000     -10.295302      -280.1494
  49   2.0000     -10.293428      -280.0984
  50   2.0000     -10.292247      -280.0663
  51   2.0000     -10.291575      -280.0480
  52   2.0000     -10.291571      -280.0479
  53   2.0000     -10.290327      -280.0140
  54   2.0000     -10.289869      -280.0016
  55   2.0000     -10.288165      -279.9552
  56   2.0000     -10.285514      -279.8831
  57   2.0000     -10.280827      -279.7555
  58   2.0000     -10.278377      -279.6889
  59   2.0000     -10.277782      -279.6727
  60   2.0000     -10.276410      -279.6353
  61   2.0000     -10.276400      -279.6351
  62   2.0000     -10.276109      -279.6271
  63   2.0000     -10.275169      -279.6016
  64   2.0000     -10.272657      -279.5332
  65   2.0000     -10.270711      -279.4803
  66   2.0000     -10.265235      -279.3312
  67   2.0000     -10.265221      -279.3309
  68   2.0000     -10.260957      -279.2148
  69   2.0000     -10.249399      -278.9003
  70   2.0000      -8.791424      -239.2268
  71   2.0000      -8.073009      -219.6777
  72   2.0000      -8.069769      -219.5896
  73   2.0000      -8.044945      -218.9141
  74   2.0000      -8.037401      -218.7088
  75   2.0000      -8.030523      -218.5216
  76   2.0000      -8.029303      -218.4884
  77   2.0000      -6.627731      -180.3497
  78   2.0000      -6.613157      -179.9532
  79   2.0000      -6.612954      -179.9476
  80   2.0000      -6.042150      -164.4153
  81   2.0000      -6.039458      -164.3420
  82   2.0000      -6.037622      -164.2921
  83   2.0000      -6.035841      -164.2436
  84   2.0000      -6.035180      -164.2256
  85   2.0000      -6.031024      -164.1125
  86   2.0000      -6.014216      -163.6551
  87   2.0000      -6.010216      -163.5463
  88   2.0000      -6.007207      -163.4644
  89   2.0000      -6.007007      -163.4590
  90   2.0000      -6.002950      -163.3486
  91   2.0000      -6.000260      -163.2754
  92   2.0000      -5.999045      -163.2423
  93   2.0000      -5.998559      -163.2291
  94   2.0000      -5.996328      -163.1684
  95   2.0000      -5.994998      -163.1322
  96   2.0000      -5.991381      -163.0338
  97   2.0000      -5.990180      -163.0011
  98   2.0000      -2.743578       -74.6566
  99   2.0000      -2.739507       -74.5458
 100   2.0000      -2.739382       -74.5424
 101   2.0000      -2.727788       -74.2269
 102   2.0000      -2.727767       -74.2263
 103   2.0000      -1.317542       -35.8521
 104   2.0000      -1.302413       -35.4405
 105   2.0000      -1.132840       -30.8261
 106   2.0000      -1.112522       -30.2733
 107   2.0000      -1.050502       -28.5856
 108   2.0000      -1.020907       -27.7803
 109   2.0000      -1.017823       -27.6964
 110   2.0000      -1.011334       -27.5198
 111   2.0000      -0.996628       -27.1196
 112   2.0000      -0.992031       -26.9945
 113   2.0000      -0.986930       -26.8557
 114   2.0000      -0.983272       -26.7562
 115   2.0000      -0.961810       -26.1722
 116   2.0000      -0.957605       -26.0578
 117   2.0000      -0.944333       -25.6966
 118   2.0000      -0.937470       -25.5099
 119   2.0000      -0.937257       -25.5041
 120   2.0000      -0.919108       -25.0102
 121   2.0000      -0.906113       -24.6566
 122   2.0000      -0.899633       -24.4803
 123   2.0000      -0.891952       -24.2712
 124   2.0000      -0.886479       -24.1223
 125   2.0000      -0.883522       -24.0419
 126   2.0000      -0.876268       -23.8445
 127   2.0000      -0.864594       -23.5268
 128   2.0000      -0.858704       -23.3665
 129   2.0000      -0.856348       -23.3024
 130   2.0000      -0.846614       -23.0375
 131   2.0000      -0.840496       -22.8710
 132   2.0000      -0.832751       -22.6603
 133   2.0000      -0.827406       -22.5149
 134   2.0000      -0.825243       -22.4560
 135   2.0000      -0.818012       -22.2592
 136   2.0000      -0.814821       -22.1724
 137   2.0000      -0.808683       -22.0054
 138   2.0000      -0.800765       -21.7899
 139   2.0000      -0.792883       -21.5754
 140   2.0000      -0.777727       -21.1630
 141   2.0000      -0.761989       -20.7348
 142   2.0000      -0.757322       -20.6078
 143   2.0000      -0.747985       -20.3537
 144   2.0000      -0.747321       -20.3356
 145   2.0000      -0.741687       -20.1823
 146   2.0000      -0.727387       -19.7932
 147   2.0000      -0.717510       -19.5244
 148   2.0000      -0.704666       -19.1749
 149   2.0000      -0.700476       -19.0609
 150   2.0000      -0.691655       -18.8209
 151   2.0000      -0.685802       -18.6616
 152   2.0000      -0.684087       -18.6149
 153   2.0000      -0.671827       -18.2813
 154   2.0000      -0.668492       -18.1906
 155   2.0000      -0.665497       -18.1091
 156   2.0000      -0.659644       -17.9498
 157   2.0000      -0.656091       -17.8531
 158   2.0000      -0.644302       -17.5323
 159   2.0000      -0.637816       -17.3559
 160   2.0000      -0.630546       -17.1580
 161   2.0000      -0.625949       -17.0329
 162   2.0000      -0.621170       -16.9029
 163   2.0000      -0.618907       -16.8413
 164   2.0000      -0.618211       -16.8224
 165   2.0000      -0.615684       -16.7536
 166   2.0000      -0.611635       -16.6434
 167   2.0000      -0.601606       -16.3705
 168   2.0000      -0.599223       -16.3057
 169   2.0000      -0.592564       -16.1245
 170   2.0000      -0.591166       -16.0864
 171   2.0000      -0.589035       -16.0285
 172   2.0000      -0.585829       -15.9412
 173   2.0000      -0.582861       -15.8605
 174   2.0000      -0.581556       -15.8250
 175   2.0000      -0.575969       -15.6729
 176   2.0000      -0.574727       -15.6391
 177   2.0000      -0.564774       -15.3683
 178   2.0000      -0.555138       -15.1061
 179   2.0000      -0.553453       -15.0602
 180   2.0000      -0.549795       -14.9607
 181   2.0000      -0.543887       -14.7999
 182   2.0000      -0.542309       -14.7570
 183   2.0000      -0.541766       -14.7422
 184   2.0000      -0.540617       -14.7109
 185   2.0000      -0.540443       -14.7062
 186   2.0000      -0.534712       -14.5503
 187   2.0000      -0.531986       -14.4761
 188   2.0000      -0.530756       -14.4426
 189   2.0000      -0.526861       -14.3366
 190   2.0000      -0.520561       -14.1652
 191   2.0000      -0.517339       -14.0775
 192   2.0000      -0.516276       -14.0486
 193   2.0000      -0.515340       -14.0231
 194   2.0000      -0.514596       -14.0029
 195   2.0000      -0.511557       -13.9202
 196   2.0000      -0.506488       -13.7822
 197   2.0000      -0.505262       -13.7489
 198   2.0000      -0.503643       -13.7048
 199   2.0000      -0.498361       -13.5611
 200   2.0000      -0.495958       -13.4957
 201   2.0000      -0.493937       -13.4407
 202   2.0000      -0.492593       -13.4041
 203   2.0000      -0.491422       -13.3723
 204   2.0000      -0.487443       -13.2640
 205   2.0000      -0.485886       -13.2216
 206   2.0000      -0.484480       -13.1834
 207   2.0000      -0.482756       -13.1364
 208   2.0000      -0.472689       -12.8625
 209   2.0000      -0.472097       -12.8464
 210   2.0000      -0.471566       -12.8320
 211   2.0000      -0.469646       -12.7797
 212   2.0000      -0.468438       -12.7468
 213   2.0000      -0.463497       -12.6124
 214   2.0000      -0.462032       -12.5725
 215   2.0000      -0.459180       -12.4949
 216   2.0000      -0.456539       -12.4231
 217   2.0000      -0.455032       -12.3821
 218   2.0000      -0.452867       -12.3231
 219   2.0000      -0.450738       -12.2652
 220   2.0000      -0.450129       -12.2486
 221   2.0000      -0.447866       -12.1870
 222   2.0000      -0.445358       -12.1188
 223   2.0000      -0.442875       -12.0512
 224   2.0000      -0.439775       -11.9669
 225   2.0000      -0.437350       -11.9009
 226   2.0000      -0.437044       -11.8926
 227   2.0000      -0.436202       -11.8696
 228   2.0000      -0.433972       -11.8090
 229   2.0000      -0.429185       -11.6787
 230   2.0000      -0.427402       -11.6302
 231   2.0000      -0.425887       -11.5890
 232   2.0000      -0.424666       -11.5558
 233   2.0000      -0.424084       -11.5399
 234   2.0000      -0.419626       -11.4186
 235   2.0000      -0.412897       -11.2355
 236   2.0000      -0.411646       -11.2015
 237   2.0000      -0.409294       -11.1375
 238   2.0000      -0.408643       -11.1197
 239   2.0000      -0.404427       -11.0050
 240   2.0000      -0.404024       -10.9940
 241   2.0000      -0.399789       -10.8788
 242   2.0000      -0.397213       -10.8087
 243   2.0000      -0.391705       -10.6588
 244   2.0000      -0.385163       -10.4808
 245   2.0000      -0.378951       -10.3118
 246   2.0000      -0.373725       -10.1696
 247   2.0000      -0.373006       -10.1500
 248   2.0000      -0.366424        -9.9709
 249   2.0000      -0.337622        -9.1872
 250   2.0000      -0.336247        -9.1497
 251   2.0000      -0.334569        -9.1041
 252   2.0000      -0.327061        -8.8998
 253   2.0000      -0.325512        -8.8576
 254   2.0000      -0.322262        -8.7692
 255   2.0000      -0.320068        -8.7095
 256   2.0000      -0.318798        -8.6749
 257   2.0000      -0.313659        -8.5351
 258   2.0000      -0.311598        -8.4790
 259   2.0000      -0.297846        -8.1048
 260   2.0000      -0.292039        -7.9468
 261   2.0000      -0.283820        -7.7231
 262   2.0000      -0.252752        -6.8777
 263   2.0000      -0.244573        -6.6552
 264   2.0000      -0.191575        -5.2130
 265   0.0000      -0.104568        -2.8454
 266   0.0000      -0.066469        -1.8087
 267   0.0000      -0.064547        -1.7564
 268   0.0000      -0.039732        -1.0812
 269   0.0000      -0.033770        -0.9189

MULLIKEN ATOMIC CHARGES
-----------------------
   0 C :    0.319097
   1 C :   -0.359937
   2 C :   -0.188741
   3 N :    0.143982
   4 C :   -0.183630
   5 N :    0.141818
   6 C :    0.007110
   7 C :   -0.005588
   8 C :   -0.073372
   9 C :    0.117095
  10 C :   -0.091379
  11 C :   -0.019785
  12 S :    0.186047
  13 C :   -0.124443
  14 C :    0.036159
  15 Br:    0.021582
  16 C :    0.149539
  17 O :   -0.195117
  18 C :   -0.100038
  19 C :   -0.027746
  20 C :   -0.075737
  21 S :    0.202937
  22 C :   -0.049620
  23 C :    0.124825
  24 C :    0.129775
  25 C :   -0.115194
  26 C :    0.232551
  27 F :   -0.165623
  28 C :    0.221001
  29 F :   -0.177330
  30 C :   -0.109916
  31 C :   -0.025139
  32 C :    0.020415
  33 C :    0.006003
  34 C :   -0.199409
  35 C :    0.093148
  36 C :    0.198760
  37 N :   -0.159911
  38 C :    0.057866
  39 C :   -0.021516
  40 C :   -0.008001
  41 C :   -0.038945
  42 C :    0.042820
  43 C :    0.011794
  44 C :   -0.037420
  45 S :    0.052212
  46 C :   -0.061179
  47 C :    0.034147
  48 C :    0.020221
  49 C :   -0.021131
  50 S :    0.070012
  51 C :   -0.012692
  52 C :   -0.165656
  53 S :    0.119184
  54 C :   -0.112779
  55 C :    0.121040
  56 C :   -0.011671
  57 S :    0.104033
  58 C :   -0.069384
  59 C :    0.028136
  60 O :   -0.180851
  61 C :   -0.071644
  62 C :    0.062489
  63 C :   -0.018466
  64 C :    0.002627
  65 C :   -0.028727
  66 H :   -0.015307
  67 H :   -0.007636
  68 H :   -0.004174
  69 H :   -0.018268
  70 H :    0.016460
  71 H :   -0.009975
  72 H :   -0.012092
  73 H :    0.015455
  74 H :   -0.023574
  75 H :    0.032344
  76 H :    0.051123
  77 H :    0.012577
  78 H :    0.014950
  79 H :    0.033234
  80 H :    0.122279
  81 H :    0.003657
  82 H :   -0.013554
  83 H :   -0.022437
  84 H :   -0.019024
  85 H :   -0.020473
  86 H :   -0.019083
  87 H :   -0.018448
  88 H :   -0.019522
  89 H :    0.040903
  90 H :    0.037169
  91 H :    0.020330
  92 H :    0.003467
  93 H :    0.014143
  94 H :   -0.002604
  95 H :   -0.007331
  96 H :    0.020060
  97 H :    0.024643
Sum of atomic charges:   -0.0000000

LOEWDIN ATOMIC CHARGES
----------------------
   0 C :    0.078425
   1 C :   -0.154675
   2 C :   -0.019019
   3 N :   -0.060851
   4 C :   -0.016768
   5 N :   -0.065153
   6 C :   -0.019964
   7 C :   -0.049636
   8 C :    0.019024
   9 C :   -0.034543
  10 C :   -0.145267
  11 C :   -0.009669
  12 S :    0.432605
  13 C :   -0.272617
  14 C :   -0.071148
  15 Br:    0.134901
  16 C :    0.082026
  17 O :   -0.183104
  18 C :   -0.121501
  19 C :    0.047970
  20 C :   -0.197156
  21 S :    0.550779
  22 C :   -0.142149
  23 C :   -0.055624
  24 C :   -0.013955
  25 C :   -0.037605
  26 C :    0.076092
  27 F :   -0.045397
  28 C :    0.059425
  29 F :   -0.055815
  30 C :   -0.033224
  31 C :   -0.052262
  32 C :    0.009820
  33 C :   -0.057160
  34 C :   -0.018074
  35 C :   -0.051068
  36 C :    0.042321
  37 N :   -0.006624
  38 C :    0.044701
  39 C :   -0.117228
  40 C :   -0.036042
  41 C :   -0.173792
  42 C :   -0.027853
  43 C :   -0.050026
  44 C :   -0.168669
  45 S :    0.353080
  46 C :   -0.198129
  47 C :   -0.032666
  48 C :   -0.046457
  49 C :   -0.146296
  50 S :    0.368655
  51 C :   -0.102849
  52 C :   -0.184013
  53 S :    0.443378
  54 C :   -0.175451
  55 C :   -0.074959
  56 C :   -0.200135
  57 S :    0.399426
  58 C :   -0.204146
  59 C :    0.065598
  60 O :   -0.151868
  61 C :   -0.078153
  62 C :   -0.049910
  63 C :   -0.003851
  64 C :   -0.038555
  65 C :   -0.051806
  66 H :    0.039029
  67 H :    0.040928
  68 H :    0.038290
  69 H :    0.046717
  70 H :    0.048039
  71 H :    0.040272
  72 H :    0.031962
  73 H :    0.025925
  74 H :    0.026753
  75 H :    0.035473
  76 H :    0.046714
  77 H :    0.031989
  78 H :    0.027998
  79 H :    0.038126
  80 H :    0.079137
  81 H :    0.028982
  82 H :    0.018088
  83 H :    0.030355
  84 H :    0.030920
  85 H :    0.029119
  86 H :    0.029908
  87 H :    0.030193
  88 H :    0.031212
  89 H :    0.038713
  90 H :    0.035711
  91 H :    0.029416
  92 H :    0.022269
  93 H :    0.026947
  94 H :    0.036677
  95 H :    0.035100
  96 H :    0.017428
  97 H :    0.026262

  Mayer bond orders larger than 0.100000
B(  0-C ,  1-C ) :   1.5946 B(  0-C ,  6-C ) :   0.9916 B(  0-C , 18-C ) :   1.1115
B(  1-C ,  2-C ) :   1.1500 B(  1-C ,  4-C ) :   1.1513 B(  2-C ,  3-N ) :   2.9630
B(  4-C ,  5-N ) :   2.9700 B(  6-C ,  7-C ) :   1.2761 B(  6-C , 11-C ) :   1.4213
B(  7-C ,  8-C ) :   1.4254 B(  7-C , 16-C ) :   0.9586 B(  8-C ,  9-C ) :   1.2398
B(  8-C , 66-H ) :   1.0181 B(  9-C , 10-C ) :   1.3139 B(  9-C , 14-C ) :   1.1597
B( 10-C , 11-C ) :   1.3195 B( 10-C , 12-S ) :   1.0857 B( 11-C , 67-H ) :   0.9806
B( 12-S , 13-C ) :   1.0876 B( 13-C , 14-C ) :   1.6189 B( 13-C , 15-Br) :   1.0172
B( 14-C , 68-H ) :   1.0009 B( 16-C , 17-O ) :   2.1180 B( 16-C , 18-C ) :   0.9881
B( 18-C , 19-C ) :   1.4453 B( 19-C , 20-C ) :   1.3583 B( 19-C , 69-H ) :   0.9301
B( 20-C , 21-S ) :   1.0874 B( 20-C , 24-C ) :   1.2205 B( 21-S , 22-C ) :   1.1742
B( 22-C , 23-C ) :   1.2539 B( 22-C , 31-C ) :   1.1671 B( 23-C , 24-C ) :   1.2507
B( 23-C , 30-C ) :   1.1839 B( 24-C , 25-C ) :   1.2070 B( 25-C , 26-C ) :   1.4623
B( 25-C , 30-C ) :   0.1118 B( 25-C , 70-H ) :   0.9889 B( 26-C , 27-F ) :   1.1528
B( 26-C , 28-C ) :   1.1795 B( 28-C , 29-F ) :   1.1302 B( 28-C , 30-C ) :   1.4836
B( 30-C , 71-H ) :   0.9984 B( 31-C , 32-C ) :   1.6468 B( 31-C , 72-H ) :   0.9803
B( 32-C , 33-C ) :   1.1240 B( 32-C , 73-H ) :   0.9720 B( 33-C , 34-C ) :   1.7432
B( 33-C , 74-H ) :   0.9753 B( 34-C , 35-C ) :   1.0694 B( 34-C , 36-C ) :   1.0246
B( 35-C , 75-H ) :   0.9484 B( 35-C , 76-H ) :   0.9407 B( 35-C , 77-H ) :   0.9489
B( 36-C , 37-N ) :   1.0280 B( 36-C , 78-H ) :   0.9456 B( 36-C , 79-H ) :   0.9329
B( 37-N , 38-C ) :   1.2105 B( 37-N , 80-H ) :   0.9375 B( 38-C , 39-C ) :   1.6102
B( 38-C , 81-H ) :   0.9694 B( 39-C , 40-C ) :   1.1695 B( 39-C , 82-H ) :   0.9611
B( 40-C , 41-C ) :   1.5875 B( 40-C , 83-H ) :   0.9787 B( 41-C , 42-C ) :   1.1470
B( 41-C , 45-S ) :   1.0092 B( 42-C , 43-C ) :   1.5874 B( 42-C , 84-H ) :   0.9977
B( 43-C , 44-C ) :   1.1915 B( 43-C , 85-H ) :   0.9936 B( 44-C , 45-S ) :   1.0530
B( 44-C , 46-C ) :   1.5031 B( 46-C , 47-C ) :   1.1943 B( 46-C , 50-S ) :   1.0331
B( 47-C , 48-C ) :   1.5830 B( 47-C , 86-H ) :   0.9920 B( 48-C , 49-C ) :   1.1503
B( 48-C , 87-H ) :   0.9988 B( 49-C , 50-S ) :   1.0392 B( 49-C , 51-C ) :   1.5912
B( 51-C , 52-C ) :   1.1720 B( 51-C , 88-H ) :   0.9446 B( 52-C , 53-S ) :   1.1194
B( 52-C , 56-C ) :   1.4631 B( 53-S , 54-C ) :   1.1125 B( 54-C , 55-C ) :   1.3873
B( 54-C , 64-C ) :   1.1536 B( 55-C , 56-C ) :   1.2363 B( 55-C , 63-C ) :   1.1296
B( 56-C , 57-S ) :   1.0412 B( 57-S , 58-C ) :   1.0483 B( 58-C , 59-C ) :   0.9980
B( 58-C , 63-C ) :   1.6086 B( 59-C , 60-O ) :   2.2046 B( 59-C , 61-C ) :   1.0008
B( 61-C , 62-C ) :   1.1109 B( 61-C , 89-H ) :   0.9244 B( 61-C , 90-H ) :   0.9233
B( 62-C , 91-H ) :   0.9668 B( 62-C , 92-H ) :   0.9633 B( 62-C , 93-H ) :   0.9674
B( 63-C , 94-H ) :   1.0087 B( 64-C , 65-C ) :   1.8923 B( 64-C , 95-H ) :   0.9605
B( 65-C , 96-H ) :   0.9574 B( 65-C , 97-H ) :   0.9500

-----------------------------------------------------------------------------
         ABSORPTION SPECTRUM VIA TRANSITION ELECTRIC DIPOLE MOMENTS
-----------------------------------------------------------------------------
State   Energy  Wavelength   fosc         T2         TX        TY        TZ
        (cm-1)    (nm)                  (au**2)     (au)      (au)      (au)
-----------------------------------------------------------------------------
   0    9897.5   1010.4   0.033948357   1.12920  -0.17741   1.03701  -0.14943
   1   13995.8    714.5   1.284333035  30.21028  -0.56634  -5.35929  -1.08054
   2   16713.4    598.3   0.926454891  18.24881  -0.48423   1.16669  -4.08083
   3   19409.8    515.2   0.053499995   0.90742  -0.41836   0.75185   0.40879
   4   19841.6    504.0   0.001884480   0.03127  -0.08185  -0.15532   0.02105
   5   21944.0    455.7   0.012302268   0.18456   0.30717  -0.17904  -0.24116
   6   23614.6    423.5   0.103715174   1.44590  -1.17103   0.03713   0.27058
   7   23780.5    420.5   0.018904390   0.26171  -0.41961  -0.01817   0.29207
   8   24703.9    404.8   0.003395174   0.04525   0.13955  -0.09709  -0.12785
   9   26410.9    378.6   0.138225998   1.72299  -0.26741  -0.83655  -0.97554
  10   27293.9    366.4   0.000152233   0.00184  -0.00671  -0.03532  -0.02331
  11   27455.2    364.2   0.559405695   6.70775   2.19858  -0.54410  -1.25617
  12   28527.5    350.5   0.000945007   0.01091   0.05142   0.06786  -0.06047
  13   29371.5    340.5   0.047656997   0.53417  -0.08074   0.71526   0.12669
  14   29488.7    339.1   0.082469331   0.92069   0.01897  -0.61700  -0.73460
  15   29941.7    334.0   0.263127540   2.89311   0.00330  -1.39023  -0.97997
  16   30323.0    329.8   0.198069674   2.15041   0.99266  -0.46069  -0.97611
  17   30444.3    328.5   0.119862963   1.29615  -0.41861  -0.95954  -0.44743
  18   30878.1    323.9   0.018658772   0.19893  -0.32524  -0.29469  -0.07943
  19   31172.1    320.8   0.125593623   1.32641  -0.56952  -0.98462  -0.18050
  20   31197.1    320.5   0.024941369   0.26320   0.30201  -0.40987  -0.06319
  21   31896.4    313.5   0.043960560   0.45373   0.54176   0.39759  -0.04638
  22   32028.8    312.2   0.008736901   0.08980  -0.04238  -0.25820  -0.14609
  23   32257.0    310.0   0.649388957   6.62761   0.13583   2.08979   1.49731
  24   32470.1    308.0   0.021165848   0.21460  -0.05164  -0.36748  -0.27729
  25   33359.4    299.8   0.005232546   0.05164   0.19514   0.04263  -0.10835
  26   33594.0    297.7   0.004138490   0.04056   0.14027   0.13472   0.05225
  27   33763.5    296.2   0.071374458   0.69594  -0.08340  -0.42531  -0.71281
  28   34069.0    293.5   0.003292641   0.03182  -0.01966  -0.17041  -0.04890
  29   34519.4    289.7   0.286621540   2.73351  -0.62549   0.82613   1.28832
  30   35413.3    282.4   0.166353720   1.54647   0.07373  -1.21877  -0.23588
  31   35748.8    279.7   0.314734938   2.89841  -0.39876  -1.65215  -0.09901
  32   35812.2    279.2   0.010533169   0.09683   0.12579   0.25849  -0.11912
  33   36350.7    275.1   0.011124885   0.10075   0.22539   0.14380  -0.17110
  34   36499.3    274.0   0.172903687   1.55954  -0.13181  -0.80736   0.94358
  35   36509.8    273.9   0.037980083   0.34247   0.26260  -0.52061   0.04978
  36   36788.8    271.8   0.002972038   0.02660  -0.04291  -0.15414   0.03157
  37   37694.3    265.3   0.087466096   0.76390  -0.46544  -0.70090  -0.23667
  38   38862.9    257.3   0.003455700   0.02927   0.07438  -0.07300  -0.13569
  39   38930.5    256.9   0.201944716   1.70773   0.09487   0.96179   0.87959
  40   39210.9    255.0   0.211077893   1.77219   0.12146  -0.17940   1.31349
  41   39583.2    252.6   0.012043002   0.10016   0.04618   0.11129  -0.29265
  42   39699.9    251.9   0.038634220   0.32037   0.02753  -0.40450   0.39496
  43   39832.2    251.1   0.035259290   0.29142  -0.03224   0.50896   0.17703
  44   40010.6    249.9   0.035404494   0.29131   0.00703   0.53854  -0.03510
  45   40062.7    249.6   0.004865995   0.03999   0.05821   0.11540  -0.15258

FINAL SINGLE POINT ENERGY     -7474.276657863360

DIPOLE MOMENT
-------------
                                X             Y             Z
Electronic contribution:     18.93594    -122.77125     144.46297
Nuclear contribution   :    -19.23432     124.10436    -145.89339
                        -----------------------------------------
Total Dipole Moment    :     -0.29838       1.33311      -1.43043
                        -----------------------------------------
Magnitude (a.u.)       :      1.97796
Magnitude (Debye)      :      5.02758

Rotational constants in cm-1:     0.000819     0.000256     0.000209
Rotational constants in MHz :    24.563188     7.668814     6.260869

                             ****ORCA TERMINATED NORMALLY****
TOTAL RUN TIME: 0 days 0 hours 8 minutes 50 seconds 821 msec
