                         Program Version 4.2.0 -  RELEASE  -
|  1> # ORCA input file
|  2> # SCF done       -190.676157969858          0.000927208804
|  3> ! CAM-B3LYP def2-SVP def2/J RIJCOSX Grid4 TightSCF
|  4> %maxcore 5000
|  5> %tddft
|  6>     Mode sTDDFT
|  7>     Ethresh 5.0
|  8>     maxcore 5000
|  9> end
| 10>
| 11> %pal
| 12>   nprocs 6
| 13>   end
| 14> * xyz 0 1
| 15>    C      -11.48701         6.77214         1.41704
| 16>    C      -12.67577         7.37529         1.12308
| 17>    C      -13.51122         7.99422         2.07957
| 18>    N      -14.22837         8.50918         2.81193
| 19>    C      -13.23614         7.46556        -0.17105
| 20>    N      -13.75600         7.57565        -1.18759
| 21>    C      -10.88357         6.65202         2.73583
| 22>    C       -9.63949         5.97885         2.62524
| 23>    C       -8.84108         5.71631         3.71318
| 24>    C       -9.28962         6.13208         4.97026
| 25>    C      -10.53357         6.80324         5.07208
| 26>    C      -11.33931         7.07182         3.97440
| 27>    S      -10.89756         7.22744         6.71680
| 28>    C       -9.39716         6.50850         7.23876
| 29>    C       -8.65908         5.97733         6.23446
| 30>   Br       -8.94777         6.52522         9.05815
| 31>    C       -9.38531         5.63986         1.21441
| 32>    O       -8.40591         5.10908         0.74700
| 33>    C      -10.58743         6.11953         0.46602
| 34>    C      -10.72785         5.93222        -0.85314
| 35>    C       -9.72159         5.18195        -1.62849
| 36>    N       -9.80975         3.85619        -1.58566
| 37>    C       -8.89158         3.18746        -2.26258
| 38>    C       -7.89183         3.81297        -2.98605
| 39>    C       -7.90987         5.21210        -3.00422
| 40>    N       -8.84346         5.88120        -2.32069
| 41>    C       -6.97205         6.05368        -3.72244
| 42>    C       -5.90695         5.60047        -4.40519
| 43>    C       -4.92589         6.37366        -5.10612
| 44>    S       -3.92126         5.53317        -6.24521
| 45>    C       -3.02140         6.96106        -6.63146
| 46>    C       -3.49389         8.03852        -5.90181
| 47>    C       -4.56304         7.70763        -5.03904
| 48>    C       -5.23055         8.72509        -4.16129
| 49>    F       -6.47246         9.04358        -4.66945
| 50>    C       -4.36855         9.98806        -4.07432
| 51>    F       -5.03079        10.97259        -3.39093
| 52>    C       -3.93581        10.46990        -5.45937
| 53>    F       -4.99233        10.60993        -6.31622
| 54>    C       -2.96754         9.43434        -6.04179
| 55>    F       -1.76838         9.57587        -5.35703
| 56>    C       -1.98839         6.86022        -7.61658
| 57>    C       -0.93191         7.67520        -7.77271
| 58>    C        0.04411         7.46243        -8.82449
| 59>    N       -0.16936         6.48020        -9.70664
| 60>    C        0.72829         6.32222       -10.65843
| 61>    C        1.85714         7.12233       -10.75923
| 62>    C        2.00968         8.11315        -9.78219
| 63>    N        1.09149         8.27693        -8.82974
| 64>    C        3.16629         8.98518        -9.76305
| 65>    C        3.41919         9.81110        -8.73015
| 66>    C        4.55238        10.67068        -8.66703
| 67>    C        5.02776        11.29536        -7.56131
| 68>    C        4.67047        11.14968        -6.16239
| 69>    C        4.23810        10.00094        -5.55650
| 70>    C        3.95625         9.90449        -4.17707
| 71>    N        3.70366         9.78678        -3.06424
| 72>    C        4.15546         8.74956        -6.20708
| 73>    N        4.15079         7.69833        -6.66637
| 74>    C        5.08450        12.37250        -5.48478
| 75>    C        5.88566        13.13684        -6.37273
| 76>    C        5.95656        12.45578        -7.68059
| 77>    O        6.58355        12.78352        -8.65966
| 78>    C        6.46400        14.32728        -6.00271
| 79>    C        6.23415        14.78925        -4.70275
| 80>    C        5.42213        14.02517        -3.82901
| 81>    C        4.84272        12.81792        -4.19895
| 82>    S        5.26269        14.78606        -2.27613
| 83>    C        6.27818        16.09947        -2.81024
| 84>    C        6.71347        15.97755        -4.08706
| 85>   Br        6.66464        17.50689        -1.63363
| 86>    H       -7.89960         5.20292         3.59608
| 87>    H      -12.27750         7.58513         4.10356
| 88>    H       -7.70926         5.49558         6.37822
| 89>    H      -11.57858         6.30127        -1.40815
| 90>    H       -8.97067         2.10887        -2.21558
| 91>    H       -7.15094         3.23919        -3.51608
| 92>    H       -7.22197         7.10062        -3.67268
| 93>    H       -5.74041         4.53324        -4.47950
| 94>    H       -5.41285         8.33012        -3.15209
| 95>    H       -3.45956         9.76519        -3.49800
| 96>    H       -3.45162        11.45162        -5.38286
| 97>    H       -2.75160         9.66535        -7.09308
| 98>    H       -2.06217         6.01066        -8.28378
| 99>    H       -0.70990         8.49768        -7.11375
|100>    H        0.53295         5.52390       -11.36362
|101>    H        2.58607         6.98280       -11.54037
|102>    H        3.85489         8.90325       -10.59283
|103>    H        2.70949         9.82313        -7.91409
|104>    H        5.05379        10.90907        -9.59922
|105>    H        7.07572        14.88496        -6.69434
|106>    H        4.22682        12.27186        -3.50352
|107>    H        7.34624        16.69535        -4.57619
|108> *
|109>
|110>                          ****END OF INPUT****

CARTESIAN COORDINATES (ANGSTROEM)
---------------------------------
  C    -11.487010    6.772140    1.417040
  C    -12.675770    7.375290    1.123080
  C    -13.511220    7.994220    2.079570
  N    -14.228370    8.509180    2.811930
  C    -13.236140    7.465560   -0.171050
  N    -13.756000    7.575650   -1.187590
  C    -10.883570    6.652020    2.735830
  C     -9.639490    5.978850    2.625240
  C     -8.841080    5.716310    3.713180
  C     -9.289620    6.132080    4.970260
  C    -10.533570    6.803240    5.072080
  C    -11.339310    7.071820    3.974400
  S    -10.897560    7.227440    6.716800
  C     -9.397160    6.508500    7.238760
  C     -8.659080    5.977330    6.234460
  Br    -8.947770    6.525220    9.058150
  C     -9.385310    5.639860    1.214410
  O     -8.405910    5.109080    0.747000
  C    -10.587430    6.119530    0.466020
  C    -10.727850    5.932220   -0.853140
  C     -9.721590    5.181950   -1.628490
  N     -9.809750    3.856190   -1.585660
  C     -8.891580    3.187460   -2.262580
  C     -7.891830    3.812970   -2.986050
  C     -7.909870    5.212100   -3.004220
  N     -8.843460    5.881200   -2.320690
  C     -6.972050    6.053680   -3.722440
  C     -5.906950    5.600470   -4.405190
  C     -4.925890    6.373660   -5.106120
  S     -3.921260    5.533170   -6.245210
  C     -3.021400    6.961060   -6.631460
  C     -3.493890    8.038520   -5.901810
  C     -4.563040    7.707630   -5.039040
  C     -5.230550    8.725090   -4.161290
  F     -6.472460    9.043580   -4.669450
  C     -4.368550    9.988060   -4.074320
  F     -5.030790   10.972590   -3.390930
  C     -3.935810   10.469900   -5.459370
  F     -4.992330   10.609930   -6.316220
  C     -2.967540    9.434340   -6.041790
  F     -1.768380    9.575870   -5.357030
  C     -1.988390    6.860220   -7.616580
  C     -0.931910    7.675200   -7.772710
  C      0.044110    7.462430   -8.824490
  N     -0.169360    6.480200   -9.706640
  C      0.728290    6.322220  -10.658430
  C      1.857140    7.122330  -10.759230
  C      2.009680    8.113150   -9.782190
  N      1.091490    8.276930   -8.829740
  C      3.166290    8.985180   -9.763050
  C      3.419190    9.811100   -8.730150
  C      4.552380   10.670680   -8.667030
  C      5.027760   11.295360   -7.561310
  C      4.670470   11.149680   -6.162390
  C      4.238100   10.000940   -5.556500
  C      3.956250    9.904490   -4.177070
  N      3.703660    9.786780   -3.064240
  C      4.155460    8.749560   -6.207080
  N      4.150790    7.698330   -6.666370
  C      5.084500   12.372500   -5.484780
  C      5.885660   13.136840   -6.372730
  C      5.956560   12.455780   -7.680590
  O      6.583550   12.783520   -8.659660
  C      6.464000   14.327280   -6.002710
  C      6.234150   14.789250   -4.702750
  C      5.422130   14.025170   -3.829010
  C      4.842720   12.817920   -4.198950
  S      5.262690   14.786060   -2.276130
  C      6.278180   16.099470   -2.810240
  C      6.713470   15.977550   -4.087060
  Br     6.664640   17.506890   -1.633630
  H     -7.899600    5.202920    3.596080
  H    -12.277500    7.585130    4.103560
  H     -7.709260    5.495580    6.378220
  H    -11.578580    6.301270   -1.408150
  H     -8.970670    2.108870   -2.215580
  H     -7.150940    3.239190   -3.516080
  H     -7.221970    7.100620   -3.672680
  H     -5.740410    4.533240   -4.479500
  H     -5.412850    8.330120   -3.152090
  H     -3.459560    9.765190   -3.498000
  H     -3.451620   11.451620   -5.382860
  H     -2.751600    9.665350   -7.093080
  H     -2.062170    6.010660   -8.283780
  H     -0.709900    8.497680   -7.113750
  H      0.532950    5.523900  -11.363620
  H      2.586070    6.982800  -11.540370
  H      3.854890    8.903250  -10.592830
  H      2.709490    9.823130   -7.914090
  H      5.053790   10.909070   -9.599220
  H      7.075720   14.884960   -6.694340
  H      4.226820   12.271860   -3.503520
  H      7.346240   16.695350   -4.576190

 Total Charge           Charge          ....    0
 Multiplicity           Mult            ....    1
 Number of Electrons    NEL             ....  560
 Basis Dimension        Dim             .... 1152

ORBITAL ENERGIES
----------------

  NO   OCC          E(Eh)            E(eV)
   0   2.0000    -482.889373    -13140.0879
   1   2.0000    -482.888335    -13140.0596
   2   2.0000     -88.980187     -2421.2740
   3   2.0000     -88.979026     -2421.2424
   4   2.0000     -88.970587     -2421.0128
   5   2.0000     -62.567082     -1702.5369
   6   2.0000     -62.566056     -1702.5089
   7   2.0000     -56.401040     -1534.7503
   8   2.0000     -56.400012     -1534.7224
   9   2.0000     -56.398312     -1534.6761
  10   2.0000     -56.398282     -1534.6753
  11   2.0000     -56.397285     -1534.6481
  12   2.0000     -56.397256     -1534.6474
  13   2.0000     -24.769530      -674.0132
  14   2.0000     -24.761230      -673.7873
  15   2.0000     -24.757742      -673.6924
  16   2.0000     -24.754080      -673.5928
  17   2.0000     -19.222244      -523.0638
  18   2.0000     -19.221022      -523.0306
  19   2.0000     -14.422259      -392.4496
  20   2.0000     -14.420166      -392.3927
  21   2.0000     -14.419056      -392.3625
  22   2.0000     -14.417427      -392.3181
  23   2.0000     -14.415928      -392.2773
  24   2.0000     -14.415628      -392.2692
  25   2.0000     -14.408543      -392.0764
  26   2.0000     -14.406906      -392.0319
  27   2.0000     -10.372864      -282.2600
  28   2.0000     -10.370245      -282.1887
  29   2.0000     -10.365157      -282.0503
  30   2.0000     -10.363375      -282.0018
  31   2.0000     -10.362590      -281.9804
  32   2.0000     -10.361253      -281.9440
  33   2.0000     -10.358580      -281.8713
  34   2.0000     -10.357690      -281.8471
  35   2.0000     -10.352085      -281.6945
  36   2.0000     -10.349181      -281.6155
  37   2.0000     -10.348607      -281.5999
  38   2.0000     -10.347653      -281.5740
  39   2.0000     -10.347315      -281.5648
  40   2.0000     -10.345700      -281.5208
  41   2.0000     -10.336760      -281.2776
  42   2.0000     -10.331332      -281.1298
  43   2.0000     -10.329944      -281.0921
  44   2.0000     -10.329913      -281.0912
  45   2.0000     -10.328825      -281.0616
  46   2.0000     -10.324047      -280.9316
  47   2.0000     -10.322219      -280.8819
  48   2.0000     -10.320723      -280.8412
  49   2.0000     -10.319744      -280.8145
  50   2.0000     -10.319586      -280.8102
  51   2.0000     -10.319529      -280.8086
  52   2.0000     -10.319487      -280.8075
  53   2.0000     -10.318835      -280.7898
  54   2.0000     -10.315129      -280.6889
  55   2.0000     -10.313830      -280.6536
  56   2.0000     -10.313039      -280.6320
  57   2.0000     -10.312884      -280.6278
  58   2.0000     -10.311977      -280.6032
  59   2.0000     -10.311468      -280.5893
  60   2.0000     -10.309686      -280.5408
  61   2.0000     -10.307109      -280.4707
  62   2.0000     -10.305340      -280.4225
  63   2.0000     -10.304989      -280.4130
  64   2.0000     -10.303271      -280.3663
  65   2.0000     -10.301776      -280.3256
  66   2.0000     -10.301324      -280.3133
  67   2.0000     -10.301063      -280.3062
  68   2.0000     -10.299911      -280.2748
  69   2.0000     -10.299075      -280.2521
  70   2.0000     -10.297885      -280.2197
  71   2.0000     -10.296803      -280.1903
  72   2.0000     -10.296724      -280.1881
  73   2.0000     -10.296009      -280.1687
  74   2.0000     -10.293731      -280.1067
  75   2.0000     -10.293668      -280.1049
  76   2.0000     -10.286059      -279.8979
  77   2.0000     -10.283626      -279.8317
  78   2.0000     -10.279136      -279.7095
  79   2.0000      -8.796504      -239.3651
  80   2.0000      -8.795492      -239.3375
  81   2.0000      -8.076268      -219.7664
  82   2.0000      -8.074968      -219.7310
  83   2.0000      -8.066735      -219.5070
  84   2.0000      -6.632842      -180.4888
  85   2.0000      -6.631831      -180.4613
  86   2.0000      -6.618232      -180.0912
  87   2.0000      -6.618006      -180.0851
  88   2.0000      -6.617217      -180.0636
  89   2.0000      -6.616989      -180.0574
  90   2.0000      -6.045944      -164.5185
  91   2.0000      -6.044650      -164.4833
  92   2.0000      -6.041680      -164.4025
  93   2.0000      -6.040389      -164.3673
  94   2.0000      -6.037475      -164.2880
  95   2.0000      -6.036206      -164.2535
  96   2.0000      -6.035736      -164.2407
  97   2.0000      -6.031754      -164.1324
  98   2.0000      -6.029132      -164.0610
  99   2.0000      -2.748689       -74.7956
 100   2.0000      -2.747684       -74.7683
 101   2.0000      -2.744589       -74.6841
 102   2.0000      -2.744478       -74.6811
 103   2.0000      -2.743624       -74.6578
 104   2.0000      -2.743422       -74.6523
 105   2.0000      -2.732843       -74.3644
 106   2.0000      -2.732816       -74.3637
 107   2.0000      -2.731821       -74.3366
 108   2.0000      -2.731813       -74.3364
 109   2.0000      -1.285769       -34.9875
 110   2.0000      -1.278058       -34.7777
 111   2.0000      -1.269830       -34.5538
 112   2.0000      -1.261265       -34.3208
 113   2.0000      -1.137475       -30.9523
 114   2.0000      -1.136906       -30.9368
 115   2.0000      -1.089785       -29.6545
 116   2.0000      -1.083623       -29.4869
 117   2.0000      -1.028513       -27.9873
 118   2.0000      -1.026559       -27.9341
 119   2.0000      -1.018042       -27.7023
 120   2.0000      -1.017094       -27.6765
 121   2.0000      -1.006835       -27.3974
 122   2.0000      -0.998845       -27.1800
 123   2.0000      -0.998040       -27.1580
 124   2.0000      -0.994660       -27.0661
 125   2.0000      -0.992819       -27.0160
 126   2.0000      -0.989645       -26.9296
 127   2.0000      -0.980920       -26.6922
 128   2.0000      -0.949758       -25.8442
 129   2.0000      -0.946693       -25.7608
 130   2.0000      -0.930540       -25.3213
 131   2.0000      -0.925211       -25.1763
 132   2.0000      -0.921796       -25.0834
 133   2.0000      -0.914832       -24.8938
 134   2.0000      -0.913689       -24.8628
 135   2.0000      -0.912294       -24.8248
 136   2.0000      -0.903070       -24.5738
 137   2.0000      -0.891395       -24.2561
 138   2.0000      -0.889915       -24.2158
 139   2.0000      -0.887932       -24.1619
 140   2.0000      -0.881002       -23.9733
 141   2.0000      -0.866454       -23.5774
 142   2.0000      -0.850244       -23.1363
 143   2.0000      -0.843398       -22.9500
 144   2.0000      -0.840045       -22.8588
 145   2.0000      -0.839762       -22.8511
 146   2.0000      -0.833685       -22.6857
 147   2.0000      -0.832772       -22.6609
 148   2.0000      -0.807314       -21.9681
 149   2.0000      -0.786295       -21.3962
 150   2.0000      -0.784188       -21.3388
 151   2.0000      -0.768691       -20.9171
 152   2.0000      -0.767106       -20.8740
 153   2.0000      -0.762586       -20.7510
 154   2.0000      -0.747015       -20.3273
 155   2.0000      -0.743678       -20.2365
 156   2.0000      -0.740001       -20.1365
 157   2.0000      -0.735105       -20.0032
 158   2.0000      -0.716086       -19.4857
 159   2.0000      -0.710912       -19.3449
 160   2.0000      -0.705600       -19.2004
 161   2.0000      -0.700119       -19.0512
 162   2.0000      -0.694344       -18.8941
 163   2.0000      -0.691640       -18.8205
 164   2.0000      -0.683928       -18.6106
 165   2.0000      -0.673473       -18.3261
 166   2.0000      -0.671107       -18.2617
 167   2.0000      -0.664468       -18.0811
 168   2.0000      -0.662875       -18.0377
 169   2.0000      -0.658012       -17.9054
 170   2.0000      -0.652314       -17.7504
 171   2.0000      -0.633005       -17.2249
 172   2.0000      -0.629755       -17.1365
 173   2.0000      -0.626912       -17.0591
 174   2.0000      -0.623406       -16.9637
 175   2.0000      -0.622827       -16.9480
 176   2.0000      -0.617757       -16.8100
 177   2.0000      -0.613092       -16.6831
 178   2.0000      -0.610373       -16.6091
 179   2.0000      -0.607704       -16.5365
 180   2.0000      -0.604234       -16.4420
 181   2.0000      -0.598636       -16.2897
 182   2.0000      -0.596130       -16.2215
 183   2.0000      -0.595334       -16.1999
 184   2.0000      -0.592807       -16.1311
 185   2.0000      -0.589667       -16.0457
 186   2.0000      -0.584996       -15.9186
 187   2.0000      -0.578305       -15.7365
 188   2.0000      -0.573381       -15.6025
 189   2.0000      -0.565936       -15.3999
 190   2.0000      -0.555359       -15.1121
 191   2.0000      -0.555004       -15.1024
 192   2.0000      -0.553900       -15.0724
 193   2.0000      -0.552084       -15.0230
 194   2.0000      -0.548102       -14.9146
 195   2.0000      -0.546115       -14.8605
 196   2.0000      -0.544602       -14.8194
 197   2.0000      -0.544034       -14.8039
 198   2.0000      -0.542399       -14.7594
 199   2.0000      -0.539014       -14.6673
 200   2.0000      -0.537995       -14.6396
 201   2.0000      -0.534075       -14.5329
 202   2.0000      -0.532194       -14.4817
 203   2.0000      -0.529851       -14.4180
 204   2.0000      -0.528888       -14.3918
 205   2.0000      -0.525020       -14.2865
 206   2.0000      -0.521267       -14.1844
 207   2.0000      -0.514971       -14.0131
 208   2.0000      -0.513670       -13.9777
 209   2.0000      -0.512102       -13.9350
 210   2.0000      -0.511621       -13.9219
 211   2.0000      -0.507668       -13.8144
 212   2.0000      -0.506270       -13.7763
 213   2.0000      -0.501874       -13.6567
 214   2.0000      -0.500358       -13.6154
 215   2.0000      -0.499481       -13.5916
 216   2.0000      -0.497892       -13.5483
 217   2.0000      -0.496860       -13.5203
 218   2.0000      -0.496504       -13.5106
 219   2.0000      -0.491292       -13.3687
 220   2.0000      -0.490358       -13.3433
 221   2.0000      -0.482734       -13.1359
 222   2.0000      -0.480180       -13.0664
 223   2.0000      -0.475548       -12.9403
 224   2.0000      -0.470330       -12.7983
 225   2.0000      -0.468327       -12.7438
 226   2.0000      -0.465355       -12.6630
 227   2.0000      -0.461207       -12.5501
 228   2.0000      -0.459922       -12.5151
 229   2.0000      -0.459037       -12.4910
 230   2.0000      -0.454503       -12.3677
 231   2.0000      -0.452687       -12.3182
 232   2.0000      -0.452061       -12.3012
 233   2.0000      -0.451598       -12.2886
 234   2.0000      -0.451031       -12.2732
 235   2.0000      -0.450702       -12.2642
 236   2.0000      -0.447386       -12.1740
 237   2.0000      -0.447200       -12.1689
 238   2.0000      -0.447024       -12.1641
 239   2.0000      -0.442749       -12.0478
 240   2.0000      -0.441731       -12.0201
 241   2.0000      -0.433813       -11.8046
 242   2.0000      -0.430814       -11.7231
 243   2.0000      -0.430213       -11.7067
 244   2.0000      -0.427539       -11.6339
 245   2.0000      -0.427122       -11.6226
 246   2.0000      -0.426514       -11.6060
 247   2.0000      -0.425526       -11.5791
 248   2.0000      -0.417790       -11.3686
 249   2.0000      -0.414982       -11.2922
 250   2.0000      -0.414123       -11.2689
 251   2.0000      -0.413279       -11.2459
 252   2.0000      -0.408671       -11.1205
 253   2.0000      -0.403687       -10.9849
 254   2.0000      -0.402007       -10.9392
 255   2.0000      -0.394018       -10.7218
 256   2.0000      -0.391695       -10.6586
 257   2.0000      -0.387840       -10.5537
 258   2.0000      -0.384729       -10.4690
 259   2.0000      -0.384292       -10.4571
 260   2.0000      -0.378750       -10.3063
 261   2.0000      -0.378188       -10.2910
 262   2.0000      -0.377540       -10.2734
 263   2.0000      -0.377430       -10.2704
 264   2.0000      -0.376271       -10.2389
 265   2.0000      -0.364687        -9.9236
 266   2.0000      -0.358192        -9.7469
 267   2.0000      -0.342947        -9.3321
 268   2.0000      -0.339790        -9.2461
 269   2.0000      -0.336703        -9.1622
 270   2.0000      -0.334914        -9.1135
 271   2.0000      -0.331985        -9.0338
 272   2.0000      -0.324185        -8.8215
 273   2.0000      -0.321798        -8.7566
 274   2.0000      -0.320496        -8.7211
 275   2.0000      -0.318739        -8.6733
 276   2.0000      -0.304475        -8.2852
 277   2.0000      -0.298400        -8.1199
 278   2.0000      -0.296706        -8.0738
 279   2.0000      -0.271869        -7.3979
 280   0.0000      -0.098667        -2.6849
 281   0.0000      -0.086635        -2.3575
 282   0.0000      -0.067796        -1.8448
 283   0.0000      -0.064358        -1.7513
 284   0.0000      -0.054261        -1.4765

MULLIKEN ATOMIC CHARGES
-----------------------
   0 C :    0.329800
   1 C :   -0.342560
   2 C :   -0.187158
   3 N :    0.160044
   4 C :   -0.189862
   5 N :    0.166475
   6 C :    0.007719
   7 C :   -0.014718
   8 C :   -0.062066
   9 C :    0.116289
  10 C :   -0.091232
  11 C :   -0.015080
  12 S :    0.190597
  13 C :   -0.123337
  14 C :    0.043024
  15 Br:    0.028114
  16 C :    0.157603
  17 O :   -0.134063
  18 C :   -0.057226
  19 C :    0.008464
  20 C :   -0.035504
  21 N :   -0.080429
  22 C :    0.082520
  23 C :   -0.046809
  24 C :    0.040094
  25 N :   -0.060606
  26 C :    0.016238
  27 C :    0.062039
  28 C :   -0.119319
  29 S :    0.156717
  30 C :   -0.103664
  31 C :   -0.044126
  32 C :   -0.077390
  33 C :    0.318567
  34 F :   -0.235980
  35 C :    0.196342
  36 F :   -0.232159
  37 C :    0.242213
  38 F :   -0.229916
  39 C :    0.254049
  40 F :   -0.247186
  41 C :    0.056984
  42 C :    0.010562
  43 C :   -0.064697
  44 N :   -0.072469
  45 C :    0.082516
  46 C :   -0.040293
  47 C :    0.055205
  48 N :   -0.047054
  49 C :    0.010609
  50 C :    0.042724
  51 C :    0.034209
  52 C :   -0.098943
  53 C :    0.259375
  54 C :   -0.310591
  55 C :   -0.180171
  56 N :    0.156262
  57 C :   -0.210426
  58 N :    0.172291
  59 C :    0.015330
  60 C :   -0.008552
  61 C :    0.142070
  62 O :   -0.136346
  63 C :   -0.071191
  64 C :    0.116218
  65 C :   -0.085364
  66 C :   -0.023821
  67 S :    0.188250
  68 C :   -0.124497
  69 C :    0.039252
  70 Br:    0.027595
  71 H :   -0.009612
  72 H :   -0.005725
  73 H :   -0.002281
  74 H :    0.054666
  75 H :    0.007623
  76 H :   -0.005507
  77 H :    0.012298
  78 H :   -0.011764
  79 H :    0.022773
  80 H :    0.030556
  81 H :    0.021816
  82 H :    0.028489
  83 H :    0.014858
  84 H :    0.000753
  85 H :    0.010613
  86 H :   -0.001378
  87 H :   -0.004271
  88 H :    0.043485
  89 H :    0.019994
  90 H :   -0.006358
  91 H :   -0.001180
  92 H :   -0.001407
Sum of atomic charges:    0.0000000

LOEWDIN ATOMIC CHARGES
----------------------
   0 C :    0.075544
   1 C :   -0.125739
   2 C :   -0.017216
   3 N :   -0.045130
   4 C :   -0.019030
   5 N :   -0.039066
   6 C :   -0.021025
   7 C :   -0.051230
   8 C :    0.024827
   9 C :   -0.030141
  10 C :   -0.142167
  11 C :   -0.007451
  12 S :    0.435391
  13 C :   -0.269687
  14 C :   -0.069777
  15 Br:    0.140819
  16 C :    0.088767
  17 O :   -0.126375
  18 C :   -0.068091
  19 C :    0.087602
  20 C :    0.024590
  21 N :   -0.086581
  22 C :    0.055433
  23 C :   -0.056245
  24 C :    0.040680
  25 N :   -0.081034
  26 C :   -0.017022
  27 C :   -0.026599
  28 C :   -0.157057
  29 S :    0.472808
  30 C :   -0.156101
  31 C :   -0.074656
  32 C :   -0.070599
  33 C :    0.097233
  34 F :   -0.111930
  35 C :    0.073379
  36 F :   -0.109554
  37 C :    0.084172
  38 F :   -0.106579
  39 C :    0.099063
  40 F :   -0.124172
  41 C :   -0.012682
  42 C :   -0.030130
  43 C :    0.032890
  44 N :   -0.085309
  45 C :    0.055274
  46 C :   -0.058721
  47 C :    0.034144
  48 N :   -0.079992
  49 C :    0.008307
  50 C :    0.005035
  51 C :    0.064733
  52 C :   -0.076223
  53 C :    0.068016
  54 C :   -0.127637
  55 C :   -0.018248
  56 N :   -0.045185
  57 C :   -0.023154
  58 N :   -0.041084
  59 C :   -0.018125
  60 C :   -0.053777
  61 C :    0.083630
  62 O :   -0.136070
  63 C :    0.024311
  64 C :   -0.032240
  65 C :   -0.142084
  66 C :   -0.011288
  67 S :    0.434771
  68 C :   -0.270623
  69 C :   -0.069780
  70 Br:    0.139992
  71 H :    0.041931
  72 H :    0.041550
  73 H :    0.039527
  74 H :    0.052800
  75 H :    0.027472
  76 H :    0.031436
  77 H :    0.037001
  78 H :    0.027751
  79 H :    0.029179
  80 H :    0.031923
  81 H :    0.028487
  82 H :    0.030328
  83 H :    0.035373
  84 H :    0.030979
  85 H :    0.028174
  86 H :    0.035018
  87 H :    0.033790
  88 H :    0.038665
  89 H :    0.046334
  90 H :    0.042345
  91 H :    0.041541
  92 H :    0.039588

  Mayer bond orders larger than 0.100000
B(  0-C ,  1-C ) :   1.6730 B(  0-C ,  6-C ) :   1.0195 B(  0-C , 18-C ) :   1.0031
B(  1-C ,  2-C ) :   1.1337 B(  1-C ,  4-C ) :   1.1480 B(  2-C ,  3-N ) :   2.9756
B(  4-C ,  5-N ) :   2.9767 B(  6-C ,  7-C ) :   1.2724 B(  6-C , 11-C ) :   1.3982
B(  7-C ,  8-C ) :   1.4226 B(  7-C , 16-C ) :   0.9427 B(  8-C ,  9-C ) :   1.2507
B(  8-C , 71-H ) :   1.0156 B(  9-C , 10-C ) :   1.2967 B(  9-C , 14-C ) :   1.1651
B( 10-C , 11-C ) :   1.3428 B( 10-C , 12-S ) :   1.0874 B( 11-C , 72-H ) :   0.9784
B( 12-S , 13-C ) :   1.0867 B( 13-C , 14-C ) :   1.6167 B( 13-C , 15-Br) :   1.0210
B( 14-C , 73-H ) :   0.9995 B( 16-C , 17-O ) :   2.2320 B( 16-C , 18-C ) :   0.9147
B( 18-C , 19-C ) :   1.8843 B( 19-C , 20-C ) :   0.9109 B( 19-C , 74-H ) :   0.9304
B( 20-C , 21-N ) :   1.5048 B( 20-C , 25-N ) :   1.5244 B( 21-N , 22-C ) :   1.5297
B( 22-C , 23-C ) :   1.3983 B( 22-C , 75-H ) :   0.9779 B( 23-C , 24-C ) :   1.3576
B( 23-C , 76-H ) :   0.9654 B( 24-C , 25-N ) :   1.5028 B( 24-C , 26-C ) :   1.0469
B( 26-C , 27-C ) :   1.7012 B( 26-C , 77-H ) :   0.9694 B( 27-C , 28-C ) :   1.0980
B( 27-C , 78-H ) :   0.9412 B( 28-C , 29-S ) :   1.1456 B( 28-C , 32-C ) :   1.5341
B( 29-S , 30-C ) :   1.1472 B( 30-C , 31-C ) :   1.5264 B( 30-C , 41-C ) :   1.0644
B( 31-C , 32-C ) :   1.3359 B( 31-C , 39-C ) :   0.9725 B( 32-C , 33-C ) :   0.9598
B( 33-C , 34-F ) :   1.0161 B( 33-C , 35-C ) :   0.9910 B( 33-C , 79-H ) :   0.9217
B( 35-C , 36-F ) :   1.0493 B( 35-C , 37-C ) :   0.9946 B( 35-C , 80-H ) :   0.9322
B( 37-C , 38-F ) :   1.0454 B( 37-C , 39-C ) :   0.9915 B( 37-C , 81-H ) :   0.9279
B( 39-C , 40-F ) :   0.9829 B( 39-C , 82-H ) :   0.9231 B( 41-C , 42-C ) :   1.7226
B( 41-C , 83-H ) :   0.9459 B( 42-C , 43-C ) :   1.0258 B( 42-C , 84-H ) :   0.9637
B( 43-C , 44-N ) :   1.5151 B( 43-C , 48-N ) :   1.5489 B( 44-N , 45-C ) :   1.5626
B( 45-C , 46-C ) :   1.3529 B( 45-C , 85-H ) :   0.9808 B( 46-C , 47-C ) :   1.3469
B( 46-C , 86-H ) :   0.9764 B( 47-C , 48-N ) :   1.5036 B( 47-C , 49-C ) :   1.0527
B( 49-C , 50-C ) :   1.7328 B( 49-C , 87-H ) :   0.9828 B( 50-C , 51-C ) :   1.0712
B( 50-C , 88-H ) :   0.9401 B( 51-C , 52-C ) :   1.6762 B( 51-C , 89-H ) :   0.9581
B( 52-C , 53-C ) :   1.0240 B( 52-C , 61-C ) :   0.9288 B( 53-C , 54-C ) :   1.6620
B( 53-C , 59-C ) :   1.0197 B( 54-C , 55-C ) :   1.1299 B( 54-C , 57-C ) :   1.1498
B( 55-C , 56-N ) :   2.9886 B( 57-C , 58-N ) :   3.0161 B( 59-C , 60-C ) :   1.2697
B( 59-C , 66-C ) :   1.4131 B( 60-C , 61-C ) :   0.9242 B( 60-C , 63-C ) :   1.4226
B( 61-C , 62-O ) :   2.2775 B( 63-C , 64-C ) :   1.2553 B( 63-C , 90-H ) :   1.0164
B( 64-C , 65-C ) :   1.3012 B( 64-C , 69-C ) :   1.1641 B( 65-C , 66-C ) :   1.3292
B( 65-C , 67-S ) :   1.0866 B( 66-C , 91-H ) :   0.9833 B( 67-S , 68-C ) :   1.0866
B( 68-C , 69-C ) :   1.6185 B( 68-C , 70-Br) :   1.0209 B( 69-C , 92-H ) :   1.0007

-----------------------------------------------------------------------------
         ABSORPTION SPECTRUM VIA TRANSITION ELECTRIC DIPOLE MOMENTS
-----------------------------------------------------------------------------
State   Energy  Wavelength   fosc         T2         TX        TY        TZ
        (cm-1)    (nm)                  (au**2)     (au)      (au)      (au)
-----------------------------------------------------------------------------
   0   24852.6    402.4   0.141666619   1.87660   0.55998   0.80072   0.96014
   1   26977.5    370.7   0.281406155   3.43406  -0.79145  -1.61145  -0.45923
   2   27127.0    368.6   0.674764291   8.18891   2.43105   1.33316   0.70823
   3   28564.0    350.1   0.009303815   0.10723   0.00557   0.06815   0.32024
   4   28928.3    345.7   0.534903083   6.08733   0.69319  -0.37485   2.33801
   5   29148.0    343.1   0.160548208   1.81331  -1.04469  -0.23873   0.81544
   6   29404.4    340.1   0.249875757   2.79761   1.31011   0.12536  -1.03223
   7   29463.8    339.4   1.251828299  13.98722  -2.68429  -0.74303   2.49594
   8   30267.7    330.4   0.042535745   0.46265  -0.29271  -0.25072   0.56045
   9   30854.0    324.1   0.088299583   0.94216  -0.80119   0.04285  -0.54627
  10   31014.8    322.4   0.020186156   0.21427  -0.24423   0.23705  -0.31373
  11   31629.6    316.2   0.035159762   0.36595   0.24772   0.53834   0.12158
  12   32602.5    306.7   0.184193091   1.85994   0.37771   0.93415   0.91904
  13   32782.7    305.0   0.001489036   0.01495   0.10549  -0.01599  -0.05974
  14   33213.3    301.1   0.568711597   5.63710  -0.73055  -2.17417  -0.61349
  15   33688.4    296.8   0.157938747   1.54342   0.32405   1.08706   0.50666
  16   34129.7    293.0   0.346805350   3.34525   0.65930   1.23134   1.18084
  17   34624.9    288.8   0.522465117   4.96757   1.55862  -0.60329   1.47456
  18   35130.8    284.7   0.012535647   0.11747  -0.25882   0.21967  -0.04722
  19   35907.0    278.5   0.033786441   0.30977   0.54862   0.03413   0.08729
  20   35955.0    278.1   0.045804716   0.41940  -0.42121   0.48408  -0.08746
  21   36396.8    274.7   0.072070733   0.65189  -0.09617  -0.63482  -0.48954
  22   36767.8    272.0   0.009780258   0.08757   0.19617  -0.19832  -0.09878
  23   37062.0    269.8   0.005179975   0.04601   0.03413   0.08114   0.19561
  24   37580.3    266.1   0.000066465   0.00058   0.00184   0.00733  -0.02292
  25   37954.8    263.5   0.013460428   0.11675  -0.00473  -0.15113   0.30641
  26   37986.2    263.3   0.088180865   0.76423   0.41864  -0.25355  -0.72435
  27   38350.3    260.8   0.029942675   0.25704  -0.13951  -0.33130   0.35751
  28   39993.0    250.0   0.016746137   0.13785  -0.01211  -0.07637  -0.36314

FINAL SINGLE POINT ENERGY     -9320.973418076850

DIPOLE MOMENT
-------------
                                X             Y             Z
Electronic contribution:     19.74196      75.25375     149.51050
Nuclear contribution   :    -16.38515     -75.54887    -149.96591
                        -----------------------------------------
Total Dipole Moment    :      3.35680      -0.29512      -0.45541
                        -----------------------------------------
Magnitude (a.u.)       :      3.40039
Magnitude (Debye)      :      8.64309

Rotational constants in cm-1:     0.000746     0.000215     0.000178
Rotational constants in MHz :    22.353088     6.436392     5.338290

                             ****ORCA TERMINATED NORMALLY****
TOTAL RUN TIME: 0 days 0 hours 8 minutes 24 seconds 176 msec
