                         Program Version 4.2.0 -  RELEASE  -
|  1> # ORCA input file
|  2> # SCF done       -213.053134431270          0.000236383885
|  3> ! CAM-B3LYP def2-SVP def2/J RIJCOSX Grid4 TightSCF
|  4> %maxcore 5000
|  5> %tddft
|  6>     Mode sTDDFT
|  7>     Ethresh 5.0
|  8>     maxcore 5000
|  9> end
| 10>
| 11> %pal
| 12>   nprocs 6
| 13>   end
| 14> * xyz 0 1
| 15>    C       -7.07796         4.49929        -8.00424
| 16>    C       -6.45698         3.32823        -8.36016
| 17>    C       -6.15917         2.96138        -9.68893
| 18>    N       -5.88787         2.60273       -10.74548
| 19>    C       -6.03882         2.31508        -7.47299
| 20>    N       -5.67202         1.43967        -6.82589
| 21>    C       -7.53265         5.52641        -8.93660
| 22>    C       -8.18019         6.55186        -8.20559
| 23>    C       -8.71949         7.66393        -8.80488
| 24>    C       -8.61005         7.77373       -10.19499
| 25>    C       -7.95822         6.74638       -10.91763
| 26>    C       -7.41699         5.61953       -10.31129
| 27>    S       -7.92727         7.08489       -12.62193
| 28>    C       -8.77813         8.58138       -12.34351
| 29>    C       -9.07238         8.81722       -11.04305
| 30>   Br       -9.19457         9.69110       -13.79701
| 31>    C       -8.15257         6.22095        -6.76669
| 32>    O       -8.63021         6.88604        -5.87066
| 33>    C       -7.42212         4.93469        -6.66592
| 34>    C       -7.10166         4.30733        -5.49028
| 35>    C       -7.45094         4.77855        -4.21113
| 36>    C       -7.06060         4.14136        -3.06994
| 37>    C       -7.38385         4.60389        -1.77957
| 38>    O       -8.14789         5.71137        -1.59937
| 39>    C       -8.28129         5.93326        -0.27034
| 40>    C       -7.58656         4.94632         0.42994
| 41>    C       -7.01546         4.09274        -0.53082
| 42>    O       -6.26111         3.00339        -0.31419
| 43>    O       -7.44456         4.76972         1.76855
| 44>    C       -9.04343         7.02891         0.20198
| 45>    C       -9.71656         7.87838        -0.61973
| 46>    C      -10.48615         8.96841        -0.15758
| 47>    C      -11.20416         9.77436        -0.98315
| 48>    C      -11.99111        10.86387        -0.54840
| 49>    S      -12.09995        11.39307         1.10024
| 50>    C      -13.21689        12.67565         0.71288
| 51>    C      -13.48332        12.67513        -0.65367
| 52>    C      -12.79539        11.67323        -1.35022
| 53>    O      -12.84460        11.43037        -2.68939
| 54>    C      -13.54216        12.13130        -3.59069
| 55>    O      -13.48881        11.81952        -4.74676
| 56>    C      -14.40958        13.31747        -3.18579
| 57>    O      -15.02679        13.93856        -4.00284
| 58>    S      -14.54476        13.80520        -1.48311
| 59>    C      -13.66520        13.50694         1.76481
| 60>    C      -14.61029        14.47766         1.68132
| 61>    C      -14.99008        15.30931         2.76058
| 62>    S      -14.19055        15.24428         4.30244
| 63>    C      -15.18497        16.53258         4.92447
| 64>    C      -16.09066        16.97355         3.95934
| 65>    C      -15.98845        16.28201         2.74995
| 66>    C      -16.86190        16.57626         1.57033
| 67>    C      -18.08556        17.38344         1.99363
| 68>    C      -17.65790        18.56706         2.85639
| 69>    C      -18.79092        19.52729         3.11410
| 70>    O      -19.87977        19.46896         2.62172
| 71>    C      -17.08275        18.07102         4.18911
| 72>    C      -15.01128        17.03105         6.23062
| 73>    C      -14.05445        16.59861         7.09898
| 74>    C      -13.87793        17.16204         8.37597
| 75>    C      -12.85464        16.93235         9.25259
| 76>    C      -11.59450        16.24431         9.09741
| 77>    C      -10.86656        16.10963         7.94113
| 78>    C       -9.62908        15.43936         7.86635
| 79>    N       -8.63415        14.87977         7.74139
| 80>    C      -11.20004        16.71700         6.71271
| 81>    N      -11.38139        17.23284         5.70306
| 82>    C      -11.11104        15.91909        10.43712
| 83>    C      -11.92867        16.58097        11.38805
| 84>    C      -13.01290        17.29547        10.68275
| 85>    O      -13.87715        17.99330        11.16424
| 86>    C      -11.69365        16.51049        12.73925
| 87>    C      -10.60808        15.74238        13.17432
| 88>    C       -9.80753        15.07349        12.21823
| 89>    C      -10.03952        15.15119        10.85018
| 90>    S       -8.52780        14.17332        12.97378
| 91>    C       -9.07450        14.70477        14.54217
| 92>    C      -10.16052        15.51258        14.50429
| 93>   Br       -8.16101        14.14024        16.07990
| 94>    H       -9.20858         8.42664        -8.21944
| 95>    H       -6.92951         4.86657       -10.90737
| 96>    H       -9.59321         9.68996       -10.69367
| 97>    H       -6.52709         3.39076        -5.52737
| 98>    H       -8.03838         5.68110        -4.13596
| 99>    H       -6.46419         3.24038        -3.10813
|100>    H       -6.16006         2.87967         0.63927
|101>    H       -7.90607         5.46716         2.24616
|102>    H       -9.08368         7.17149         1.27418
|103>    H       -9.67019         7.70778        -1.68590
|104>    H      -10.50906         9.15993         0.90869
|105>    H      -11.20823         9.59311        -2.04928
|106>    H      -13.19326        13.32594         2.72239
|107>    H      -15.11970        14.65615         0.74692
|108>    H      -17.17765        15.64582         1.09519
|109>    H      -16.28327        17.14101         0.83199
|110>    H      -18.76790        16.75338         2.56737
|111>    H      -18.62307        17.74153         1.11542
|112>    H      -16.87933        19.13646         2.33201
|113>    H      -18.52565        20.33205         3.82993
|114>    H      -17.89692        17.68861         4.81451
|115>    H      -16.61260        18.89782         4.72594
|116>    H      -15.66042        17.84237         6.53286
|117>    H      -13.40916        15.78760         6.79184
|118>    H      -14.66601        17.80781         8.74979
|119>    H      -12.32600        17.03248        13.44009
|120>    H       -9.40444        14.62127        10.15974
|121>    H      -10.62837        15.93032        15.37697
|122> *
|123>
|124>                          ****END OF INPUT****

CARTESIAN COORDINATES (ANGSTROEM)
---------------------------------
  C     -7.077960    4.499290   -8.004240
  C     -6.456980    3.328230   -8.360160
  C     -6.159170    2.961380   -9.688930
  N     -5.887870    2.602730  -10.745480
  C     -6.038820    2.315080   -7.472990
  N     -5.672020    1.439670   -6.825890
  C     -7.532650    5.526410   -8.936600
  C     -8.180190    6.551860   -8.205590
  C     -8.719490    7.663930   -8.804880
  C     -8.610050    7.773730  -10.194990
  C     -7.958220    6.746380  -10.917630
  C     -7.416990    5.619530  -10.311290
  S     -7.927270    7.084890  -12.621930
  C     -8.778130    8.581380  -12.343510
  C     -9.072380    8.817220  -11.043050
  Br    -9.194570    9.691100  -13.797010
  C     -8.152570    6.220950   -6.766690
  O     -8.630210    6.886040   -5.870660
  C     -7.422120    4.934690   -6.665920
  C     -7.101660    4.307330   -5.490280
  C     -7.450940    4.778550   -4.211130
  C     -7.060600    4.141360   -3.069940
  C     -7.383850    4.603890   -1.779570
  O     -8.147890    5.711370   -1.599370
  C     -8.281290    5.933260   -0.270340
  C     -7.586560    4.946320    0.429940
  C     -7.015460    4.092740   -0.530820
  O     -6.261110    3.003390   -0.314190
  O     -7.444560    4.769720    1.768550
  C     -9.043430    7.028910    0.201980
  C     -9.716560    7.878380   -0.619730
  C    -10.486150    8.968410   -0.157580
  C    -11.204160    9.774360   -0.983150
  C    -11.991110   10.863870   -0.548400
  S    -12.099950   11.393070    1.100240
  C    -13.216890   12.675650    0.712880
  C    -13.483320   12.675130   -0.653670
  C    -12.795390   11.673230   -1.350220
  O    -12.844600   11.430370   -2.689390
  C    -13.542160   12.131300   -3.590690
  O    -13.488810   11.819520   -4.746760
  C    -14.409580   13.317470   -3.185790
  O    -15.026790   13.938560   -4.002840
  S    -14.544760   13.805200   -1.483110
  C    -13.665200   13.506940    1.764810
  C    -14.610290   14.477660    1.681320
  C    -14.990080   15.309310    2.760580
  S    -14.190550   15.244280    4.302440
  C    -15.184970   16.532580    4.924470
  C    -16.090660   16.973550    3.959340
  C    -15.988450   16.282010    2.749950
  C    -16.861900   16.576260    1.570330
  C    -18.085560   17.383440    1.993630
  C    -17.657900   18.567060    2.856390
  C    -18.790920   19.527290    3.114100
  O    -19.879770   19.468960    2.621720
  C    -17.082750   18.071020    4.189110
  C    -15.011280   17.031050    6.230620
  C    -14.054450   16.598610    7.098980
  C    -13.877930   17.162040    8.375970
  C    -12.854640   16.932350    9.252590
  C    -11.594500   16.244310    9.097410
  C    -10.866560   16.109630    7.941130
  C     -9.629080   15.439360    7.866350
  N     -8.634150   14.879770    7.741390
  C    -11.200040   16.717000    6.712710
  N    -11.381390   17.232840    5.703060
  C    -11.111040   15.919090   10.437120
  C    -11.928670   16.580970   11.388050
  C    -13.012900   17.295470   10.682750
  O    -13.877150   17.993300   11.164240
  C    -11.693650   16.510490   12.739250
  C    -10.608080   15.742380   13.174320
  C     -9.807530   15.073490   12.218230
  C    -10.039520   15.151190   10.850180
  S     -8.527800   14.173320   12.973780
  C     -9.074500   14.704770   14.542170
  C    -10.160520   15.512580   14.504290
  Br    -8.161010   14.140240   16.079900
  H     -9.208580    8.426640   -8.219440
  H     -6.929510    4.866570  -10.907370
  H     -9.593210    9.689960  -10.693670
  H     -6.527090    3.390760   -5.527370
  H     -8.038380    5.681100   -4.135960
  H     -6.464190    3.240380   -3.108130
  H     -6.160060    2.879670    0.639270
  H     -7.906070    5.467160    2.246160
  H     -9.083680    7.171490    1.274180
  H     -9.670190    7.707780   -1.685900
  H    -10.509060    9.159930    0.908690
  H    -11.208230    9.593110   -2.049280
  H    -13.193260   13.325940    2.722390
  H    -15.119700   14.656150    0.746920
  H    -17.177650   15.645820    1.095190
  H    -16.283270   17.141010    0.831990
  H    -18.767900   16.753380    2.567370
  H    -18.623070   17.741530    1.115420
  H    -16.879330   19.136460    2.332010
  H    -18.525650   20.332050    3.829930
  H    -17.896920   17.688610    4.814510
  H    -16.612600   18.897820    4.725940
  H    -15.660420   17.842370    6.532860
  H    -13.409160   15.787600    6.791840
  H    -14.666010   17.807810    8.749790
  H    -12.326000   17.032480   13.440090
  H     -9.404440   14.621270   10.159740
  H    -10.628370   15.930320   15.376970

 Total Charge           Charge          ....    0
 Multiplicity           Mult            ....    1
 Number of Electrons    NEL             ....  632
 Basis Dimension        Dim             .... 1302

ORBITAL ENERGIES
----------------

  NO   OCC          E(Eh)            E(eV)
   0   2.0000    -482.887716    -13140.0428
   1   2.0000    -482.878796    -13139.8001
   2   2.0000     -88.985663     -2421.4230
   3   2.0000     -88.984243     -2421.3844
   4   2.0000     -88.977800     -2421.2090
   5   2.0000     -88.969727     -2420.9894
   6   2.0000     -88.967499     -2420.9287
   7   2.0000     -62.565422     -1702.4917
   8   2.0000     -62.556539     -1702.2500
   9   2.0000     -56.399376     -1534.7050
  10   2.0000     -56.396656     -1534.6310
  11   2.0000     -56.396624     -1534.6301
  12   2.0000     -56.390481     -1534.4630
  13   2.0000     -56.387778     -1534.3894
  14   2.0000     -56.387742     -1534.3885
  15   2.0000     -19.317649      -525.6600
  16   2.0000     -19.300224      -525.1858
  17   2.0000     -19.282278      -524.6975
  18   2.0000     -19.275206      -524.5050
  19   2.0000     -19.255151      -523.9593
  20   2.0000     -19.238532      -523.5071
  21   2.0000     -19.227798      -523.2150
  22   2.0000     -19.214492      -522.8529
  23   2.0000     -19.205427      -522.6062
  24   2.0000     -14.418173      -392.3384
  25   2.0000     -14.415026      -392.2528
  26   2.0000     -14.405874      -392.0038
  27   2.0000     -14.404097      -391.9554
  28   2.0000     -10.442218      -284.1472
  29   2.0000     -10.420703      -283.5617
  30   2.0000     -10.376196      -282.3507
  31   2.0000     -10.366414      -282.0845
  32   2.0000     -10.365395      -282.0567
  33   2.0000     -10.360796      -281.9316
  34   2.0000     -10.357455      -281.8407
  35   2.0000     -10.356059      -281.8027
  36   2.0000     -10.354491      -281.7600
  37   2.0000     -10.352172      -281.6969
  38   2.0000     -10.351120      -281.6683
  39   2.0000     -10.344448      -281.4867
  40   2.0000     -10.343275      -281.4548
  41   2.0000     -10.341154      -281.3971
  42   2.0000     -10.340898      -281.3902
  43   2.0000     -10.338483      -281.3244
  44   2.0000     -10.330185      -281.0986
  45   2.0000     -10.329647      -281.0840
  46   2.0000     -10.329284      -281.0741
  47   2.0000     -10.327681      -281.0305
  48   2.0000     -10.322053      -280.8773
  49   2.0000     -10.321162      -280.8531
  50   2.0000     -10.317975      -280.7664
  51   2.0000     -10.317394      -280.7506
  52   2.0000     -10.316870      -280.7363
  53   2.0000     -10.316360      -280.7224
  54   2.0000     -10.316308      -280.7210
  55   2.0000     -10.311052      -280.5780
  56   2.0000     -10.310353      -280.5590
  57   2.0000     -10.309355      -280.5318
  58   2.0000     -10.309159      -280.5265
  59   2.0000     -10.307755      -280.4883
  60   2.0000     -10.307475      -280.4807
  61   2.0000     -10.306593      -280.4567
  62   2.0000     -10.304279      -280.3937
  63   2.0000     -10.304028      -280.3869
  64   2.0000     -10.302936      -280.3572
  65   2.0000     -10.302820      -280.3540
  66   2.0000     -10.302453      -280.3440
  67   2.0000     -10.301682      -280.3230
  68   2.0000     -10.300493      -280.2907
  69   2.0000     -10.298926      -280.2480
  70   2.0000     -10.298637      -280.2402
  71   2.0000     -10.298408      -280.2339
  72   2.0000     -10.296299      -280.1766
  73   2.0000     -10.296204      -280.1739
  74   2.0000     -10.296164      -280.1729
  75   2.0000     -10.295479      -280.1542
  76   2.0000     -10.295139      -280.1450
  77   2.0000     -10.294855      -280.1372
  78   2.0000     -10.294574      -280.1296
  79   2.0000     -10.294045      -280.1152
  80   2.0000     -10.291630      -280.0495
  81   2.0000     -10.289082      -279.9801
  82   2.0000     -10.288434      -279.9625
  83   2.0000     -10.283073      -279.8166
  84   2.0000     -10.282142      -279.7913
  85   2.0000     -10.279458      -279.7183
  86   2.0000     -10.273107      -279.5455
  87   2.0000      -8.794838      -239.3197
  88   2.0000      -8.785984      -239.0788
  89   2.0000      -8.081539      -219.9098
  90   2.0000      -8.079697      -219.8597
  91   2.0000      -8.073735      -219.6975
  92   2.0000      -8.065159      -219.4641
  93   2.0000      -8.063552      -219.4204
  94   2.0000      -6.631149      -180.4427
  95   2.0000      -6.622272      -180.2012
  96   2.0000      -6.616568      -180.0460
  97   2.0000      -6.616363      -180.0404
  98   2.0000      -6.607715      -179.8051
  99   2.0000      -6.607542      -179.8004
 100   2.0000      -6.051335      -164.6652
 101   2.0000      -6.048958      -164.6005
 102   2.0000      -6.046956      -164.5460
 103   2.0000      -6.045123      -164.4962
 104   2.0000      -6.043443      -164.4504
 105   2.0000      -6.042479      -164.4242
 106   2.0000      -6.041505      -164.3977
 107   2.0000      -6.039149      -164.3336
 108   2.0000      -6.034975      -164.2200
 109   2.0000      -6.034275      -164.2010
 110   2.0000      -6.033232      -164.1726
 111   2.0000      -6.030473      -164.0975
 112   2.0000      -6.028990      -164.0571
 113   2.0000      -6.027240      -164.0095
 114   2.0000      -6.024745      -163.9416
 115   2.0000      -2.747006       -74.7498
 116   2.0000      -2.742933       -74.6390
 117   2.0000      -2.742784       -74.6349
 118   2.0000      -2.738126       -74.5082
 119   2.0000      -2.734093       -74.3985
 120   2.0000      -2.733906       -74.3934
 121   2.0000      -2.731195       -74.3196
 122   2.0000      -2.731173       -74.3190
 123   2.0000      -2.722370       -74.0795
 124   2.0000      -2.722349       -74.0789
 125   2.0000      -1.246174       -33.9101
 126   2.0000      -1.223227       -33.2857
 127   2.0000      -1.179071       -32.0841
 128   2.0000      -1.177722       -32.0475
 129   2.0000      -1.161626       -31.6094
 130   2.0000      -1.142573       -31.0910
 131   2.0000      -1.141843       -31.0711
 132   2.0000      -1.129266       -30.7289
 133   2.0000      -1.119839       -30.4724
 134   2.0000      -1.024610       -27.8811
 135   2.0000      -1.021936       -27.8083
 136   2.0000      -1.014987       -27.6192
 137   2.0000      -1.013353       -27.5747
 138   2.0000      -1.010296       -27.4916
 139   2.0000      -1.003834       -27.3157
 140   2.0000      -0.995450       -27.0876
 141   2.0000      -0.990806       -26.9612
 142   2.0000      -0.984038       -26.7770
 143   2.0000      -0.979114       -26.6431
 144   2.0000      -0.950465       -25.8635
 145   2.0000      -0.947818       -25.7914
 146   2.0000      -0.943054       -25.6618
 147   2.0000      -0.937706       -25.5163
 148   2.0000      -0.934798       -25.4371
 149   2.0000      -0.932495       -25.3745
 150   2.0000      -0.919321       -25.0160
 151   2.0000      -0.914545       -24.8860
 152   2.0000      -0.910011       -24.7626
 153   2.0000      -0.905140       -24.6301
 154   2.0000      -0.899249       -24.4698
 155   2.0000      -0.897872       -24.4323
 156   2.0000      -0.889659       -24.2089
 157   2.0000      -0.887684       -24.1551
 158   2.0000      -0.878110       -23.8946
 159   2.0000      -0.876883       -23.8612
 160   2.0000      -0.872763       -23.7491
 161   2.0000      -0.868292       -23.6274
 162   2.0000      -0.853208       -23.2170
 163   2.0000      -0.848260       -23.0823
 164   2.0000      -0.846374       -23.0310
 165   2.0000      -0.831202       -22.6182
 166   2.0000      -0.829117       -22.5614
 167   2.0000      -0.820360       -22.3231
 168   2.0000      -0.810394       -22.0520
 169   2.0000      -0.797576       -21.7032
 170   2.0000      -0.783697       -21.3255
 171   2.0000      -0.775184       -21.0938
 172   2.0000      -0.772164       -21.0117
 173   2.0000      -0.763356       -20.7720
 174   2.0000      -0.756181       -20.5767
 175   2.0000      -0.753722       -20.5098
 176   2.0000      -0.746970       -20.3261
 177   2.0000      -0.744577       -20.2610
 178   2.0000      -0.731323       -19.9003
 179   2.0000      -0.726607       -19.7720
 180   2.0000      -0.720761       -19.6129
 181   2.0000      -0.706267       -19.2185
 182   2.0000      -0.705135       -19.1877
 183   2.0000      -0.701951       -19.1011
 184   2.0000      -0.692370       -18.8403
 185   2.0000      -0.687274       -18.7017
 186   2.0000      -0.682532       -18.5726
 187   2.0000      -0.678175       -18.4541
 188   2.0000      -0.675179       -18.3726
 189   2.0000      -0.671172       -18.2635
 190   2.0000      -0.660884       -17.9836
 191   2.0000      -0.658498       -17.9186
 192   2.0000      -0.655319       -17.8321
 193   2.0000      -0.650535       -17.7020
 194   2.0000      -0.647383       -17.6162
 195   2.0000      -0.646311       -17.5870
 196   2.0000      -0.639672       -17.4064
 197   2.0000      -0.632667       -17.2157
 198   2.0000      -0.625317       -17.0157
 199   2.0000      -0.624715       -16.9993
 200   2.0000      -0.615998       -16.7622
 201   2.0000      -0.614029       -16.7086
 202   2.0000      -0.609652       -16.5895
 203   2.0000      -0.604424       -16.4472
 204   2.0000      -0.599260       -16.3067
 205   2.0000      -0.598019       -16.2729
 206   2.0000      -0.595712       -16.2102
 207   2.0000      -0.589206       -16.0331
 208   2.0000      -0.586694       -15.9648
 209   2.0000      -0.585832       -15.9413
 210   2.0000      -0.582675       -15.8554
 211   2.0000      -0.580702       -15.8017
 212   2.0000      -0.579347       -15.7648
 213   2.0000      -0.572865       -15.5885
 214   2.0000      -0.561539       -15.2802
 215   2.0000      -0.559558       -15.2263
 216   2.0000      -0.554596       -15.0913
 217   2.0000      -0.551572       -15.0090
 218   2.0000      -0.550139       -14.9701
 219   2.0000      -0.545408       -14.8413
 220   2.0000      -0.543697       -14.7947
 221   2.0000      -0.540961       -14.7203
 222   2.0000      -0.539941       -14.6925
 223   2.0000      -0.538272       -14.6471
 224   2.0000      -0.535307       -14.5664
 225   2.0000      -0.531047       -14.4505
 226   2.0000      -0.530610       -14.4386
 227   2.0000      -0.529686       -14.4135
 228   2.0000      -0.528206       -14.3732
 229   2.0000      -0.527327       -14.3493
 230   2.0000      -0.522094       -14.2069
 231   2.0000      -0.521606       -14.1936
 232   2.0000      -0.520069       -14.1518
 233   2.0000      -0.517206       -14.0739
 234   2.0000      -0.513742       -13.9796
 235   2.0000      -0.512924       -13.9574
 236   2.0000      -0.512676       -13.9506
 237   2.0000      -0.509680       -13.8691
 238   2.0000      -0.507692       -13.8150
 239   2.0000      -0.504774       -13.7356
 240   2.0000      -0.504669       -13.7327
 241   2.0000      -0.500515       -13.6197
 242   2.0000      -0.500165       -13.6102
 243   2.0000      -0.499712       -13.5979
 244   2.0000      -0.498881       -13.5752
 245   2.0000      -0.497853       -13.5473
 246   2.0000      -0.495971       -13.4961
 247   2.0000      -0.491839       -13.3836
 248   2.0000      -0.491344       -13.3702
 249   2.0000      -0.485083       -13.1998
 250   2.0000      -0.484058       -13.1719
 251   2.0000      -0.483408       -13.1542
 252   2.0000      -0.483000       -13.1431
 253   2.0000      -0.480802       -13.0833
 254   2.0000      -0.477158       -12.9841
 255   2.0000      -0.470670       -12.8076
 256   2.0000      -0.466374       -12.6907
 257   2.0000      -0.464515       -12.6401
 258   2.0000      -0.463831       -12.6215
 259   2.0000      -0.461549       -12.5594
 260   2.0000      -0.458342       -12.4721
 261   2.0000      -0.456629       -12.4255
 262   2.0000      -0.455836       -12.4039
 263   2.0000      -0.454877       -12.3778
 264   2.0000      -0.451008       -12.2725
 265   2.0000      -0.448703       -12.2098
 266   2.0000      -0.447972       -12.1899
 267   2.0000      -0.447899       -12.1880
 268   2.0000      -0.445031       -12.1099
 269   2.0000      -0.442177       -12.0322
 270   2.0000      -0.439878       -11.9697
 271   2.0000      -0.439579       -11.9616
 272   2.0000      -0.439379       -11.9561
 273   2.0000      -0.439140       -11.9496
 274   2.0000      -0.438211       -11.9243
 275   2.0000      -0.436453       -11.8765
 276   2.0000      -0.433839       -11.8054
 277   2.0000      -0.430146       -11.7049
 278   2.0000      -0.428605       -11.6629
 279   2.0000      -0.427425       -11.6308
 280   2.0000      -0.426091       -11.5945
 281   2.0000      -0.423326       -11.5193
 282   2.0000      -0.421099       -11.4587
 283   2.0000      -0.417110       -11.3502
 284   2.0000      -0.413709       -11.2576
 285   2.0000      -0.413536       -11.2529
 286   2.0000      -0.412262       -11.2182
 287   2.0000      -0.410344       -11.1660
 288   2.0000      -0.407723       -11.0947
 289   2.0000      -0.402292       -10.9469
 290   2.0000      -0.397708       -10.8222
 291   2.0000      -0.397179       -10.8078
 292   2.0000      -0.394190       -10.7264
 293   2.0000      -0.388048       -10.5593
 294   2.0000      -0.379344       -10.3225
 295   2.0000      -0.377121       -10.2620
 296   2.0000      -0.374215       -10.1829
 297   2.0000      -0.368315       -10.0224
 298   2.0000      -0.363213        -9.8835
 299   2.0000      -0.360727        -9.8159
 300   2.0000      -0.355878        -9.6839
 301   2.0000      -0.342032        -9.3072
 302   2.0000      -0.337603        -9.1867
 303   2.0000      -0.333457        -9.0738
 304   2.0000      -0.328477        -8.9383
 305   2.0000      -0.327668        -8.9163
 306   2.0000      -0.324675        -8.8349
 307   2.0000      -0.321108        -8.7378
 308   2.0000      -0.317154        -8.6302
 309   2.0000      -0.312709        -8.5092
 310   2.0000      -0.306871        -8.3504
 311   2.0000      -0.296115        -8.0577
 312   2.0000      -0.289733        -7.8840
 313   2.0000      -0.284282        -7.7357
 314   2.0000      -0.260526        -7.0893
 315   2.0000      -0.235872        -6.4184
 316   0.0000      -0.108915        -2.9637
 317   0.0000      -0.092179        -2.5083
 318   0.0000      -0.072854        -1.9824
 319   0.0000      -0.061342        -1.6692
 320   0.0000      -0.055926        -1.5218

MULLIKEN ATOMIC CHARGES
-----------------------
   0 C :    0.331086
   1 C :   -0.361413
   2 C :   -0.184644
   3 N :    0.142120
   4 C :   -0.192736
   5 N :    0.141882
   6 C :    0.011672
   7 C :   -0.011584
   8 C :   -0.075096
   9 C :    0.118053
  10 C :   -0.091895
  11 C :   -0.022679
  12 S :    0.182474
  13 C :   -0.122873
  14 C :    0.036999
  15 Br:    0.019281
  16 C :    0.142765
  17 O :   -0.157406
  18 C :   -0.074721
  19 C :   -0.032004
  20 C :   -0.004346
  21 C :   -0.000478
  22 C :    0.081564
  23 O :   -0.213724
  24 C :    0.119234
  25 C :    0.075941
  26 C :    0.105411
  27 O :   -0.158237
  28 O :   -0.192699
  29 C :   -0.067153
  30 C :    0.029333
  31 C :    0.011507
  32 C :    0.008867
  33 C :   -0.113346
  34 S :    0.152546
  35 C :   -0.157005
  36 C :   -0.013376
  37 C :    0.172022
  38 O :   -0.194437
  39 C :    0.205236
  40 O :   -0.111636
  41 C :    0.020124
  42 O :   -0.112586
  43 S :    0.084045
  44 C :    0.053276
  45 C :   -0.041893
  46 C :   -0.073196
  47 S :    0.123562
  48 C :   -0.075083
  49 C :   -0.035742
  50 C :   -0.105259
  51 C :    0.137414
  52 C :    0.066356
  53 C :   -0.145162
  54 C :    0.156482
  55 O :   -0.162189
  56 C :    0.130975
  57 C :   -0.005138
  58 C :    0.003835
  59 C :    0.021936
  60 C :   -0.109961
  61 C :    0.279840
  62 C :   -0.341962
  63 C :   -0.176825
  64 N :    0.144078
  65 C :   -0.222281
  66 N :    0.168719
  67 C :    0.009323
  68 C :   -0.008626
  69 C :    0.139622
  70 O :   -0.146648
  71 C :   -0.069677
  72 C :    0.111454
  73 C :   -0.088266
  74 C :   -0.022745
  75 S :    0.182508
  76 C :   -0.125326
  77 C :    0.042070
  78 Br:    0.022812
  79 H :   -0.010879
  80 H :   -0.008559
  81 H :   -0.002798
  82 H :    0.008129
  83 H :    0.029732
  84 H :    0.023267
  85 H :    0.199482
  86 H :    0.195091
  87 H :   -0.025674
  88 H :    0.024625
  89 H :   -0.007237
  90 H :    0.019437
  91 H :   -0.003507
  92 H :    0.011508
  93 H :    0.023979
  94 H :    0.022826
  95 H :    0.012640
  96 H :    0.020121
  97 H :    0.031200
  98 H :   -0.007825
  99 H :    0.030141
 100 H :    0.026752
 101 H :    0.002762
 102 H :    0.024885
 103 H :    0.013507
 104 H :   -0.009240
 105 H :   -0.005645
 106 H :   -0.003089
Sum of atomic charges:   -0.0000000

LOEWDIN ATOMIC CHARGES
----------------------
   0 C :    0.075934
   1 C :   -0.148431
   2 C :   -0.018256
   3 N :   -0.061712
   4 C :   -0.020209
   5 N :   -0.060126
   6 C :   -0.019970
   7 C :   -0.049694
   8 C :    0.020090
   9 C :   -0.033695
  10 C :   -0.144848
  11 C :   -0.011660
  12 S :    0.429196
  13 C :   -0.273076
  14 C :   -0.069955
  15 Br:    0.133304
  16 C :    0.083634
  17 O :   -0.151178
  18 C :   -0.104786
  19 C :    0.066057
  20 C :   -0.039083
  21 C :    0.020952
  22 C :   -0.004943
  23 O :    0.011884
  24 C :    0.006539
  25 C :   -0.022115
  26 C :    0.015509
  27 O :   -0.030950
  28 O :   -0.056850
  29 C :   -0.053440
  30 C :   -0.002477
  31 C :   -0.023663
  32 C :   -0.031409
  33 C :   -0.184351
  34 S :    0.462408
  35 C :   -0.178861
  36 C :   -0.222163
  37 C :   -0.001796
  38 O :   -0.014188
  39 C :    0.046173
  40 O :   -0.090774
  41 C :   -0.102637
  42 O :   -0.090408
  43 S :    0.390682
  44 C :   -0.043135
  45 C :   -0.041276
  46 C :   -0.153370
  47 S :    0.453747
  48 C :   -0.175955
  49 C :   -0.032121
  50 C :   -0.053712
  51 C :   -0.025485
  52 C :   -0.016221
  53 C :   -0.072865
  54 C :    0.117636
  55 O :   -0.114882
  56 C :   -0.017001
  57 C :    0.016917
  58 C :   -0.042238
  59 C :    0.065721
  60 C :   -0.100334
  61 C :    0.071259
  62 C :   -0.145645
  63 C :   -0.019278
  64 N :   -0.057601
  65 C :   -0.026317
  66 N :   -0.053444
  67 C :   -0.018094
  68 C :   -0.051886
  69 C :    0.081154
  70 O :   -0.147706
  71 C :    0.021970
  72 C :   -0.033991
  73 C :   -0.143814
  74 C :   -0.013846
  75 S :    0.430282
  76 C :   -0.272302
  77 C :   -0.069774
  78 Br:    0.136261
  79 H :    0.040546
  80 H :    0.040392
  81 H :    0.038976
  82 H :    0.040820
  83 H :    0.033606
  84 H :    0.047861
  85 H :    0.108955
  86 H :    0.101465
  87 H :    0.026609
  88 H :    0.041459
  89 H :    0.021272
  90 H :    0.044676
  91 H :    0.026785
  92 H :    0.019378
  93 H :    0.034521
  94 H :    0.036431
  95 H :    0.028073
  96 H :    0.032876
  97 H :    0.042374
  98 H :   -0.006654
  99 H :    0.039414
 100 H :    0.034319
 101 H :    0.038173
 102 H :    0.025721
 103 H :    0.044179
 104 H :    0.041311
 105 H :    0.040185
 106 H :    0.038959

  Mayer bond orders larger than 0.100000
B(  0-C ,  1-C ) :   1.6110 B(  0-C ,  6-C ) :   0.9960 B(  0-C , 18-C ) :   1.0828
B(  1-C ,  2-C ) :   1.1425 B(  1-C ,  4-C ) :   1.1510 B(  2-C ,  3-N ) :   2.9665
B(  4-C ,  5-N ) :   2.9628 B(  6-C ,  7-C ) :   1.2780 B(  6-C , 11-C ) :   1.4114
B(  7-C ,  8-C ) :   1.4229 B(  7-C , 16-C ) :   0.9417 B(  8-C ,  9-C ) :   1.2439
B(  8-C , 79-H ) :   1.0170 B(  9-C , 10-C ) :   1.3084 B(  9-C , 14-C ) :   1.1625
B( 10-C , 11-C ) :   1.3287 B( 10-C , 12-S ) :   1.0849 B( 11-C , 80-H ) :   0.9792
B( 12-S , 13-C ) :   1.0852 B( 13-C , 14-C ) :   1.6189 B( 13-C , 15-Br) :   1.0160
B( 14-C , 81-H ) :   1.0002 B( 16-C , 17-O ) :   2.1950 B( 16-C , 18-C ) :   0.9549
B( 18-C , 19-C ) :   1.4980 B( 19-C , 20-C ) :   1.1870 B( 19-C , 82-H ) :   0.9610
B( 20-C , 21-C ) :   1.4831 B( 20-C , 83-H ) :   0.9910 B( 21-C , 22-C ) :   1.1969
B( 21-C , 84-H ) :   0.9790 B( 22-C , 23-O ) :   1.1074 B( 22-C , 24-C ) :   0.1078
B( 22-C , 26-C ) :   1.3362 B( 23-O , 24-C ) :   1.1392 B( 24-C , 25-C ) :   1.2866
B( 24-C , 29-C ) :   1.1450 B( 25-C , 26-C ) :   1.2495 B( 25-C , 28-O ) :   1.2411
B( 26-C , 27-O ) :   1.2984 B( 27-O , 85-H ) :   0.9492 B( 28-O , 86-H ) :   0.9552
B( 29-C , 30-C ) :   1.6124 B( 29-C , 87-H ) :   0.9658 B( 30-C , 31-C ) :   1.1485
B( 30-C , 88-H ) :   0.9982 B( 31-C , 32-C ) :   1.5915 B( 31-C , 89-H ) :   0.9815
B( 32-C , 33-C ) :   1.1598 B( 32-C , 90-H ) :   0.9835 B( 33-C , 34-S ) :   1.0995
B( 33-C , 35-C ) :   0.1054 B( 33-C , 37-C ) :   1.4713 B( 34-S , 35-C ) :   1.1293
B( 35-C , 36-C ) :   1.4981 B( 35-C , 44-C ) :   1.1716 B( 36-C , 37-C ) :   1.2789
B( 36-C , 43-S ) :   0.9588 B( 37-C , 38-O ) :   1.0773 B( 38-O , 39-C ) :   1.0937
B( 39-C , 40-O ) :   2.2395 B( 39-C , 41-C ) :   0.8016 B( 41-C , 42-O ) :   2.1769
B( 41-C , 43-S ) :   1.0372 B( 42-O , 43-S ) :   0.1351 B( 44-C , 45-C ) :   1.6160
B( 44-C , 91-H ) :   0.9532 B( 45-C , 46-C ) :   1.2058 B( 45-C , 92-H ) :   0.9555
B( 46-C , 47-S ) :   1.1297 B( 46-C , 50-C ) :   1.4438 B( 47-S , 48-C ) :   1.0985
B( 48-C , 49-C ) :   1.4339 B( 48-C , 57-C ) :   1.1892 B( 49-C , 50-C ) :   1.3610
B( 49-C , 56-C ) :   1.0565 B( 50-C , 51-C ) :   1.0390 B( 51-C , 52-C ) :   1.0956
B( 51-C , 93-H ) :   0.9146 B( 51-C , 94-H ) :   0.9061 B( 52-C , 53-C ) :   1.0340
B( 52-C , 95-H ) :   0.9427 B( 52-C , 96-H ) :   0.9275 B( 53-C , 54-C ) :   0.9196
B( 53-C , 56-C ) :   1.0442 B( 53-C , 97-H ) :   0.9022 B( 54-C , 55-O ) :   2.2253
B( 54-C , 98-H ) :   0.9520 B( 56-C , 99-H ) :   0.9079 B( 56-C ,100-H ) :   0.9043
B( 57-C , 58-C ) :   1.5836 B( 57-C ,101-H ) :   0.9794 B( 58-C , 59-C ) :   1.1646
B( 58-C ,102-H ) :   0.9596 B( 59-C , 60-C ) :   1.5742 B( 59-C ,103-H ) :   0.9586
B( 60-C , 61-C ) :   1.0530 B( 60-C , 69-C ) :   0.9474 B( 61-C , 62-C ) :   1.6255
B( 61-C , 67-C ) :   1.0162 B( 62-C , 63-C ) :   1.1314 B( 62-C , 65-C ) :   1.1600
B( 63-C , 64-N ) :   2.9804 B( 65-C , 66-N ) :   3.0140 B( 67-C , 68-C ) :   1.2735
B( 67-C , 74-C ) :   1.4153 B( 68-C , 69-C ) :   0.9218 B( 68-C , 71-C ) :   1.4314
B( 69-C , 70-O ) :   2.2626 B( 71-C , 72-C ) :   1.2494 B( 71-C ,104-H ) :   1.0160
B( 72-C , 73-C ) :   1.3090 B( 72-C , 77-C ) :   1.1636 B( 73-C , 74-C ) :   1.3268
B( 73-C , 75-S ) :   1.0832 B( 74-C ,105-H ) :   0.9821 B( 75-S , 76-C ) :   1.0868
B( 76-C , 77-C ) :   1.6185 B( 76-C , 78-Br) :   1.0179 B( 77-C ,106-H ) :   1.0003

-----------------------------------------------------------------------------
         ABSORPTION SPECTRUM VIA TRANSITION ELECTRIC DIPOLE MOMENTS
-----------------------------------------------------------------------------
State   Energy  Wavelength   fosc         T2         TX        TY        TZ
        (cm-1)    (nm)                  (au**2)     (au)      (au)      (au)
-----------------------------------------------------------------------------
   0   14294.1    699.6   1.845020948  42.49335   1.36397  -3.62855  -5.24085
   1   17665.5    566.1   0.266750762   4.97113  -2.04955   0.64087   0.59978
   2   21062.8    474.8   0.235518800   3.68116   1.09758  -0.23906   1.55542
   3   22623.3    442.0   0.321628720   4.68031   1.30402  -1.42686   0.97154
   4   24212.8    413.0   0.244561204   3.32520   1.22522  -1.33874   0.17837
   5   25024.2    399.6   0.059081912   0.77727   0.68200  -0.49364   0.26165
   6   25283.2    395.5   0.136755428   1.78069   0.69591  -0.12946   1.13121
   7   26251.1    380.9   0.091917932   1.15273   0.31117  -0.35864  -0.96295
   8   26798.0    373.2   0.224856816   2.76236   0.26530  -0.03475   1.64036
   9   27141.6    368.4   0.140199682   1.70054  -0.42374   0.97080  -0.76061
  10   28126.7    355.5   0.012917477   0.15119  -0.14397   0.21461  -0.29053
  11   28368.3    352.5   1.211051924  14.05415   1.74270  -1.85953   2.74942
  12   28859.2    346.5   0.155938888   1.77888  -0.08292  -0.26396   1.30473
  13   29365.5    340.5   0.077478198   0.86859   0.74809  -0.36043  -0.42314
  14   29780.9    335.8   0.005830655   0.06445  -0.16253   0.19427  -0.01727
  15   29864.1    334.9   0.003919575   0.04321   0.02004   0.01388  -0.20643
  16   30210.3    331.0   0.010030625   0.10931   0.04781  -0.13247  -0.29912
  17   31107.5    321.5   0.111592826   1.18099  -0.81205   0.62893  -0.35498
  18   31408.0    318.4   0.154238383   1.61669   0.71340  -0.85493   0.61387
  19   31779.9    314.7   0.013595008   0.14083  -0.35079  -0.11786   0.06237
  20   32006.3    312.4   0.102008300   1.04924  -0.21011   0.18261  -0.98577
  21   32552.6    307.2   0.467311202   4.72603   0.45535  -1.40171   1.59809
  22   32831.1    304.6   0.215473514   2.16065  -0.16233   0.13004  -1.45512
  23   32867.0    304.3   0.032985264   0.33040  -0.07686   0.21069   0.52924
  24   33105.9    302.1   0.388887395   3.86718   0.87560  -1.12288   1.35633
  25   33257.3    300.7   0.168587324   1.66883   0.29325  -0.22575   1.23769
  26   33497.8    298.5   0.290781715   2.85776  -0.82448   1.46405  -0.18584
  27   33829.2    295.6   0.027536930   0.26798   0.01248  -0.38721   0.34336
  28   34510.8    289.8   0.035372978   0.33744   0.38445   0.13463  -0.41414
  29   34894.4    286.6   0.076970190   0.72618  -0.63334   0.41145  -0.39468
  30   35304.9    283.2   0.017051635   0.15900  -0.13550   0.29640  -0.22976
  31   35742.2    279.8   0.033371096   0.30737  -0.24656   0.35291  -0.34933
  32   36332.6    275.2   0.011583239   0.10496  -0.27339   0.14338  -0.09827
  33   36448.2    274.4   0.000204353   0.00185   0.01794  -0.03901  -0.00134
  34   36960.0    270.6   0.146186466   1.30212   0.53461  -1.00421   0.08868
  35   37080.0    269.7   0.066457765   0.59004  -0.00165  -0.12213  -0.75837
  36   37323.2    267.9   0.022859561   0.20163   0.12648  -0.42783  -0.05101
  37   37692.0    265.3   0.012480698   0.10901  -0.02846   0.03516   0.32705
  38   37943.7    263.5   0.068871247   0.59755  -0.34464   0.08645  -0.68651
  39   38028.3    263.0   0.009111757   0.07888   0.07576  -0.06516   0.26248
  40   38281.6    261.2   0.028623995   0.24616   0.24263  -0.12968  -0.41288
  41   38615.6    259.0   0.037566251   0.32027  -0.15266   0.03135  -0.54404
  42   38751.9    258.1   0.329257576   2.79716   0.92491  -0.70648  -1.20108
  43   38978.6    256.6   0.281466849   2.37726   0.34760  -0.22681   1.48492
  44   39097.5    255.8   0.004659536   0.03923   0.13386  -0.14466   0.01977
  45   39208.1    255.0   0.036234691   0.30425  -0.15962   0.38852   0.35752
  46   39350.9    254.1   0.029810616   0.24940   0.37397  -0.15020  -0.29493
  47   39430.9    253.6   0.135478785   1.13112   0.44265  -0.36402  -0.89592
  48   40230.2    248.6   0.019498064   0.15956   0.19663  -0.34589   0.03539

FINAL SINGLE POINT ENERGY    -10295.374149819734

DIPOLE MOMENT
-------------
                                X             Y             Z
Electronic contribution:     79.25774     -14.86592     -10.04981
Nuclear contribution   :    -80.75426      16.24118      15.08098
                        -----------------------------------------
Total Dipole Moment    :     -1.49652       1.37526       5.03117
                        -----------------------------------------
Magnitude (a.u.)       :      5.42620
Magnitude (Debye)      :     13.79230

Rotational constants in cm-1:     0.000643     0.000148     0.000124
Rotational constants in MHz :    19.285175     4.430282     3.717741

                             ****ORCA TERMINATED NORMALLY****
TOTAL RUN TIME: 0 days 0 hours 22 minutes 42 seconds 14 msec
