                         Program Version 4.2.0 -  RELEASE  -
|  1> # ORCA input file
|  2> # SCF done       -179.577435345706          0.000413355147
|  3> ! CAM-B3LYP def2-SVP def2/J RIJCOSX Grid4 TightSCF
|  4> %maxcore 5000
|  5> %tddft
|  6>     Mode sTDDFT
|  7>     Ethresh 5.0
|  8>     maxcore 5000
|  9> end
| 10>
| 11> %pal
| 12>   nprocs 6
| 13>   end
| 14> * xyz 0 1
| 15>    C      -13.47856        -0.37709         1.98028
| 16>    C      -13.01808        -1.19437         2.98539
| 17>    C      -13.55986        -2.46295         3.27086
| 18>    N      -13.97255        -3.49263         3.56916
| 19>    C      -12.00260        -0.87299         3.90614
| 20>    N      -11.20642        -0.68911         4.71458
| 21>    C      -14.57643        -0.69474         1.07401
| 22>    C      -14.87208         0.45516         0.30294
| 23>    C      -15.87569         0.48531        -0.63304
| 24>    C      -16.63269        -0.67695        -0.81324
| 25>    C      -16.32866        -1.82214        -0.04171
| 26>    C      -15.30704        -1.85387         0.89951
| 27>    S      -17.39979        -3.13826        -0.40483
| 28>    C      -18.23303        -2.14623        -1.56985
| 29>    C      -17.73273        -0.89388        -1.68683
| 30>   Br      -19.69365        -2.85150        -2.50962
| 31>    C      -13.96567         1.54576         0.70477
| 32>    O      -13.99468         2.69219         0.28988
| 33>    C      -13.05602         0.97291         1.69833
| 34>    C      -11.95546         1.60143         2.23068
| 35>    C      -11.48993         2.90095         2.02268
| 36>    S      -12.27481         4.19890         1.16364
| 37>    C      -10.94026         5.26239         1.45000
| 38>    C       -9.92130         4.64440         2.17063
| 39>    C      -10.24325         3.33059         2.52261
| 40>    O       -9.55006         2.48955         3.31463
| 41>    S       -7.91667         2.70429         3.55736
| 42>    C       -7.97316         4.44561         4.04575
| 43>    S       -8.44601         5.48948         2.63185
| 44>    C      -10.97093         6.61053         0.99905
| 45>    C       -9.88210         7.30158         0.59868
| 46>    N       -9.89446         8.64657         0.38489
| 47>    C       -8.91360         9.37483        -0.22530
| 48>    S       -8.16333         8.80200        -1.68308
| 49>    C       -7.31727        10.31196        -1.81619
| 50>    N       -6.43942        10.47710        -2.89329
| 51>    O       -5.86106        11.54380        -2.99398
| 52>    O       -6.32096         9.53380        -3.65713
| 53>    C       -7.58878        11.18457        -0.79735
| 54>    C       -8.47988        10.65165         0.15829
| 55>    C       -8.71261        11.25967         1.43593
| 56>    C       -9.10679        10.55788         2.53257
| 57>    C       -9.09980        10.98958         3.86836
| 58>    C       -9.36261        10.10647         4.89032
| 59>    C       -9.12915        10.26565         6.27513
| 60>    C       -9.33977         9.13678         7.01293
| 61>    C       -9.81406         8.04090         6.26388
| 62>    S       -9.97160         8.48372         4.57901
| 63>    C      -10.11971         6.76595         6.70483
| 64>    C       -9.79588         6.17624         7.94414
| 65>    C      -10.18335         4.87475         8.05389
| 66>    C      -10.89812         4.37198         6.93825
| 67>    S      -10.98156         5.62089         5.69632
| 68>    C      -11.46855         3.12685         6.87123
| 69>    C      -12.40844         2.61640         5.95418
| 70>    C      -12.98413         1.34395         6.06907
| 71>    C      -14.00809         1.21880         5.10412
| 72>    C      -14.89877         0.19936         4.84010
| 73>    C      -15.85531         0.41481         3.83566
| 74>    C      -16.87326        -0.39241         3.34599
| 75>    C      -17.58293         0.31983         2.33120
| 76>    C      -16.99441         1.56540         2.18889
| 77>    C      -15.90604         1.67042         3.10673
| 78>    C      -15.01153         2.68002         3.35255
| 79>    C      -14.04698         2.46685         4.35914
| 80>    C      -13.06528         3.29473         4.87303
| 81>    C      -18.71858        -0.15091         1.57583
| 82>    C      -19.28058        -1.35166         1.69019
| 83>    H      -16.07671         1.37881        -1.20310
| 84>    H      -15.11261        -2.75395         1.45810
| 85>    H      -18.12503        -0.15144        -2.35769
| 86>    H      -11.30761         1.01668         2.87263
| 87>    H       -8.69037         4.57179         4.85443
| 88>    H       -6.97327         4.74076         4.34716
| 89>    H      -11.94108         7.08809         0.99110
| 90>    H       -8.93132         6.81820         0.42727
| 91>    H      -10.67899         9.16681         0.76035
| 92>    H       -7.12579        12.15219        -0.72600
| 93>    H       -8.41365        12.29327         1.53624
| 94>    H       -9.34196         9.50909         2.41652
| 95>    H       -8.79316        11.99564         4.11528
| 96>    H       -8.77525        11.19759         6.67930
| 97>    H       -9.18693         9.07224         8.07561
| 98>    H       -9.26217         6.71675         8.70495
| 99>    H      -10.00695         4.26101         8.91960
|100>    H      -11.22152         2.46302         7.69141
|101>    H      -12.70586         0.59407         6.78520
|102>    H      -14.88218        -0.72622         5.39874
|103>    H      -17.09167        -1.39022         3.67935
|104>    H      -17.30000         2.33867         1.50831
|105>    H      -15.03603         3.61015         2.80282
|106>    H      -12.85311         4.29431         4.54002
|107>    H      -19.12106         0.56365         0.86797
|108>    H      -18.91647        -2.09307         2.38059
|109>    H      -20.13448        -1.63265         1.09804
|110> *
|111>
|112>                          ****END OF INPUT****

CARTESIAN COORDINATES (ANGSTROEM)
---------------------------------
  C    -13.478560   -0.377090    1.980280
  C    -13.018080   -1.194370    2.985390
  C    -13.559860   -2.462950    3.270860
  N    -13.972550   -3.492630    3.569160
  C    -12.002600   -0.872990    3.906140
  N    -11.206420   -0.689110    4.714580
  C    -14.576430   -0.694740    1.074010
  C    -14.872080    0.455160    0.302940
  C    -15.875690    0.485310   -0.633040
  C    -16.632690   -0.676950   -0.813240
  C    -16.328660   -1.822140   -0.041710
  C    -15.307040   -1.853870    0.899510
  S    -17.399790   -3.138260   -0.404830
  C    -18.233030   -2.146230   -1.569850
  C    -17.732730   -0.893880   -1.686830
  Br   -19.693650   -2.851500   -2.509620
  C    -13.965670    1.545760    0.704770
  O    -13.994680    2.692190    0.289880
  C    -13.056020    0.972910    1.698330
  C    -11.955460    1.601430    2.230680
  C    -11.489930    2.900950    2.022680
  S    -12.274810    4.198900    1.163640
  C    -10.940260    5.262390    1.450000
  C     -9.921300    4.644400    2.170630
  C    -10.243250    3.330590    2.522610
  O     -9.550060    2.489550    3.314630
  S     -7.916670    2.704290    3.557360
  C     -7.973160    4.445610    4.045750
  S     -8.446010    5.489480    2.631850
  C    -10.970930    6.610530    0.999050
  C     -9.882100    7.301580    0.598680
  N     -9.894460    8.646570    0.384890
  C     -8.913600    9.374830   -0.225300
  S     -8.163330    8.802000   -1.683080
  C     -7.317270   10.311960   -1.816190
  N     -6.439420   10.477100   -2.893290
  O     -5.861060   11.543800   -2.993980
  O     -6.320960    9.533800   -3.657130
  C     -7.588780   11.184570   -0.797350
  C     -8.479880   10.651650    0.158290
  C     -8.712610   11.259670    1.435930
  C     -9.106790   10.557880    2.532570
  C     -9.099800   10.989580    3.868360
  C     -9.362610   10.106470    4.890320
  C     -9.129150   10.265650    6.275130
  C     -9.339770    9.136780    7.012930
  C     -9.814060    8.040900    6.263880
  S     -9.971600    8.483720    4.579010
  C    -10.119710    6.765950    6.704830
  C     -9.795880    6.176240    7.944140
  C    -10.183350    4.874750    8.053890
  C    -10.898120    4.371980    6.938250
  S    -10.981560    5.620890    5.696320
  C    -11.468550    3.126850    6.871230
  C    -12.408440    2.616400    5.954180
  C    -12.984130    1.343950    6.069070
  C    -14.008090    1.218800    5.104120
  C    -14.898770    0.199360    4.840100
  C    -15.855310    0.414810    3.835660
  C    -16.873260   -0.392410    3.345990
  C    -17.582930    0.319830    2.331200
  C    -16.994410    1.565400    2.188890
  C    -15.906040    1.670420    3.106730
  C    -15.011530    2.680020    3.352550
  C    -14.046980    2.466850    4.359140
  C    -13.065280    3.294730    4.873030
  C    -18.718580   -0.150910    1.575830
  C    -19.280580   -1.351660    1.690190
  H    -16.076710    1.378810   -1.203100
  H    -15.112610   -2.753950    1.458100
  H    -18.125030   -0.151440   -2.357690
  H    -11.307610    1.016680    2.872630
  H     -8.690370    4.571790    4.854430
  H     -6.973270    4.740760    4.347160
  H    -11.941080    7.088090    0.991100
  H     -8.931320    6.818200    0.427270
  H    -10.678990    9.166810    0.760350
  H     -7.125790   12.152190   -0.726000
  H     -8.413650   12.293270    1.536240
  H     -9.341960    9.509090    2.416520
  H     -8.793160   11.995640    4.115280
  H     -8.775250   11.197590    6.679300
  H     -9.186930    9.072240    8.075610
  H     -9.262170    6.716750    8.704950
  H    -10.006950    4.261010    8.919600
  H    -11.221520    2.463020    7.691410
  H    -12.705860    0.594070    6.785200
  H    -14.882180   -0.726220    5.398740
  H    -17.091670   -1.390220    3.679350
  H    -17.300000    2.338670    1.508310
  H    -15.036030    3.610150    2.802820
  H    -12.853110    4.294310    4.540020
  H    -19.121060    0.563650    0.867970
  H    -18.916470   -2.093070    2.380590
  H    -20.134480   -1.632650    1.098040

 Total Charge           Charge          ....    0
 Multiplicity           Mult            ....    1
 Number of Electrons    NEL             ....  546
 Basis Dimension        Dim             .... 1133

ORBITAL ENERGIES
----------------

  NO   OCC          E(Eh)            E(eV)
   0   2.0000    -482.882076    -13139.8893
   1   2.0000     -88.980760     -2421.2896
   2   2.0000     -88.979422     -2421.2532
   3   2.0000     -88.970739     -2421.0169
   4   2.0000     -88.961057     -2420.7534
   5   2.0000     -88.952685     -2420.5256
   6   2.0000     -88.943672     -2420.2804
   7   2.0000     -88.942869     -2420.2585
   8   2.0000     -62.559756     -1702.3375
   9   2.0000     -56.393694     -1534.5504
  10   2.0000     -56.391012     -1534.4775
  11   2.0000     -56.390962     -1534.4761
  12   2.0000     -19.283795      -524.7387
  13   2.0000     -19.233242      -523.3631
  14   2.0000     -19.232634      -523.3466
  15   2.0000     -19.213472      -522.8252
  16   2.0000     -14.644517      -398.4976
  17   2.0000     -14.476634      -393.9292
  18   2.0000     -14.408330      -392.0706
  19   2.0000     -14.406560      -392.0224
  20   2.0000     -10.361796      -281.9588
  21   2.0000     -10.361145      -281.9411
  22   2.0000     -10.357274      -281.8358
  23   2.0000     -10.352427      -281.7039
  24   2.0000     -10.339304      -281.3468
  25   2.0000     -10.339155      -281.3427
  26   2.0000     -10.331639      -281.1382
  27   2.0000     -10.330359      -281.1034
  28   2.0000     -10.328992      -281.0662
  29   2.0000     -10.317845      -280.7628
  30   2.0000     -10.317510      -280.7537
  31   2.0000     -10.315875      -280.7092
  32   2.0000     -10.312498      -280.6173
  33   2.0000     -10.310790      -280.5709
  34   2.0000     -10.310269      -280.5567
  35   2.0000     -10.309129      -280.5257
  36   2.0000     -10.308768      -280.5158
  37   2.0000     -10.306685      -280.4591
  38   2.0000     -10.305565      -280.4287
  39   2.0000     -10.304770      -280.4070
  40   2.0000     -10.303740      -280.3790
  41   2.0000     -10.302384      -280.3421
  42   2.0000     -10.299432      -280.2618
  43   2.0000     -10.299018      -280.2505
  44   2.0000     -10.298524      -280.2371
  45   2.0000     -10.297493      -280.2090
  46   2.0000     -10.297451      -280.2079
  47   2.0000     -10.294189      -280.1191
  48   2.0000     -10.291370      -280.0424
  49   2.0000     -10.289958      -280.0040
  50   2.0000     -10.289030      -279.9787
  51   2.0000     -10.286666      -279.9144
  52   2.0000     -10.285655      -279.8869
  53   2.0000     -10.284529      -279.8563
  54   2.0000     -10.284208      -279.8475
  55   2.0000     -10.284173      -279.8466
  56   2.0000     -10.282799      -279.8092
  57   2.0000     -10.282622      -279.8044
  58   2.0000     -10.282330      -279.7964
  59   2.0000     -10.282288      -279.7953
  60   2.0000     -10.279599      -279.7221
  61   2.0000     -10.277265      -279.6586
  62   2.0000     -10.274616      -279.5865
  63   2.0000     -10.274570      -279.5853
  64   2.0000     -10.271644      -279.5056
  65   2.0000     -10.268907      -279.4312
  66   2.0000     -10.268596      -279.4227
  67   2.0000     -10.265757      -279.3455
  68   2.0000     -10.265541      -279.3396
  69   2.0000     -10.265245      -279.3315
  70   2.0000     -10.264654      -279.3154
  71   2.0000     -10.258333      -279.1434
  72   2.0000      -8.789171      -239.1655
  73   2.0000      -8.075096      -219.7345
  74   2.0000      -8.072722      -219.6699
  75   2.0000      -8.066129      -219.4905
  76   2.0000      -8.054442      -219.1725
  77   2.0000      -8.047499      -218.9836
  78   2.0000      -8.039801      -218.7741
  79   2.0000      -8.037836      -218.7206
  80   2.0000      -6.625389      -180.2860
  81   2.0000      -6.610939      -179.8928
  82   2.0000      -6.610761      -179.8880
  83   2.0000      -6.046909      -164.5448
  84   2.0000      -6.044560      -164.4809
  85   2.0000      -6.040278      -164.3643
  86   2.0000      -6.038923      -164.3275
  87   2.0000      -6.036785      -164.2693
  88   2.0000      -6.035811      -164.2428
  89   2.0000      -6.031535      -164.1264
  90   2.0000      -6.028863      -164.0537
  91   2.0000      -6.027500      -164.0166
  92   2.0000      -6.024010      -163.9217
  93   2.0000      -6.019616      -163.8021
  94   2.0000      -6.017229      -163.7371
  95   2.0000      -6.016205      -163.7092
  96   2.0000      -6.013202      -163.6275
  97   2.0000      -6.009497      -163.5267
  98   2.0000      -6.008691      -163.5048
  99   2.0000      -6.008353      -163.4956
 100   2.0000      -6.005533      -163.4189
 101   2.0000      -6.004282      -163.3848
 102   2.0000      -6.000722      -163.2879
 103   2.0000      -5.997276      -163.1942
 104   2.0000      -2.741264       -74.5936
 105   2.0000      -2.737244       -74.4842
 106   2.0000      -2.737080       -74.4797
 107   2.0000      -2.725602       -74.1674
 108   2.0000      -2.725593       -74.1671
 109   2.0000      -1.313819       -35.7508
 110   2.0000      -1.182461       -32.1764
 111   2.0000      -1.132697       -30.8222
 112   2.0000      -1.128768       -30.7153
 113   2.0000      -1.083874       -29.4937
 114   2.0000      -1.016089       -27.6492
 115   2.0000      -1.006658       -27.3925
 116   2.0000      -1.000706       -27.2306
 117   2.0000      -0.996540       -27.1172
 118   2.0000      -0.995381       -27.0857
 119   2.0000      -0.988923       -26.9100
 120   2.0000      -0.986423       -26.8419
 121   2.0000      -0.981117       -26.6976
 122   2.0000      -0.974130       -26.5074
 123   2.0000      -0.960987       -26.1498
 124   2.0000      -0.939244       -25.5581
 125   2.0000      -0.931855       -25.3571
 126   2.0000      -0.920116       -25.0376
 127   2.0000      -0.904986       -24.6259
 128   2.0000      -0.901947       -24.5432
 129   2.0000      -0.900552       -24.5053
 130   2.0000      -0.892585       -24.2885
 131   2.0000      -0.883133       -24.0313
 132   2.0000      -0.878957       -23.9176
 133   2.0000      -0.874560       -23.7980
 134   2.0000      -0.871014       -23.7015
 135   2.0000      -0.864169       -23.5152
 136   2.0000      -0.863378       -23.4937
 137   2.0000      -0.853176       -23.2161
 138   2.0000      -0.850702       -23.1488
 139   2.0000      -0.842329       -22.9209
 140   2.0000      -0.828589       -22.5471
 141   2.0000      -0.822984       -22.3945
 142   2.0000      -0.822672       -22.3860
 143   2.0000      -0.810928       -22.0665
 144   2.0000      -0.799110       -21.7449
 145   2.0000      -0.795650       -21.6507
 146   2.0000      -0.782066       -21.2811
 147   2.0000      -0.774168       -21.0662
 148   2.0000      -0.766700       -20.8630
 149   2.0000      -0.758106       -20.6291
 150   2.0000      -0.751442       -20.4478
 151   2.0000      -0.746697       -20.3187
 152   2.0000      -0.740868       -20.1600
 153   2.0000      -0.727933       -19.8081
 154   2.0000      -0.716252       -19.4902
 155   2.0000      -0.708961       -19.2918
 156   2.0000      -0.700153       -19.0521
 157   2.0000      -0.686022       -18.6676
 158   2.0000      -0.684489       -18.6259
 159   2.0000      -0.682593       -18.5743
 160   2.0000      -0.673352       -18.3228
 161   2.0000      -0.669289       -18.2123
 162   2.0000      -0.664159       -18.0727
 163   2.0000      -0.653775       -17.7901
 164   2.0000      -0.647695       -17.6247
 165   2.0000      -0.643914       -17.5218
 166   2.0000      -0.642364       -17.4796
 167   2.0000      -0.636121       -17.3097
 168   2.0000      -0.627945       -17.0872
 169   2.0000      -0.625797       -17.0288
 170   2.0000      -0.625061       -17.0088
 171   2.0000      -0.623701       -16.9718
 172   2.0000      -0.621181       -16.9032
 173   2.0000      -0.617510       -16.8033
 174   2.0000      -0.614223       -16.7139
 175   2.0000      -0.612160       -16.6577
 176   2.0000      -0.601008       -16.3543
 177   2.0000      -0.599471       -16.3124
 178   2.0000      -0.594486       -16.1768
 179   2.0000      -0.591907       -16.1066
 180   2.0000      -0.586694       -15.9648
 181   2.0000      -0.581283       -15.8175
 182   2.0000      -0.580019       -15.7831
 183   2.0000      -0.577796       -15.7226
 184   2.0000      -0.570848       -15.5336
 185   2.0000      -0.562871       -15.3165
 186   2.0000      -0.560927       -15.2636
 187   2.0000      -0.555936       -15.1278
 188   2.0000      -0.549689       -14.9578
 189   2.0000      -0.547488       -14.8979
 190   2.0000      -0.546010       -14.8577
 191   2.0000      -0.538661       -14.6577
 192   2.0000      -0.536157       -14.5896
 193   2.0000      -0.533206       -14.5093
 194   2.0000      -0.530782       -14.4433
 195   2.0000      -0.526927       -14.3384
 196   2.0000      -0.525686       -14.3047
 197   2.0000      -0.519877       -14.1466
 198   2.0000      -0.514871       -14.0104
 199   2.0000      -0.513731       -13.9793
 200   2.0000      -0.510044       -13.8790
 201   2.0000      -0.509246       -13.8573
 202   2.0000      -0.508413       -13.8346
 203   2.0000      -0.503988       -13.7142
 204   2.0000      -0.499921       -13.6036
 205   2.0000      -0.498542       -13.5660
 206   2.0000      -0.494126       -13.4459
 207   2.0000      -0.493525       -13.4295
 208   2.0000      -0.493275       -13.4227
 209   2.0000      -0.490360       -13.3434
 210   2.0000      -0.488078       -13.2813
 211   2.0000      -0.485688       -13.2162
 212   2.0000      -0.483276       -13.1506
 213   2.0000      -0.480496       -13.0749
 214   2.0000      -0.477068       -12.9817
 215   2.0000      -0.474136       -12.9019
 216   2.0000      -0.471740       -12.8367
 217   2.0000      -0.471494       -12.8300
 218   2.0000      -0.468622       -12.7519
 219   2.0000      -0.467584       -12.7236
 220   2.0000      -0.463512       -12.6128
 221   2.0000      -0.460218       -12.5232
 222   2.0000      -0.459359       -12.4998
 223   2.0000      -0.454291       -12.3619
 224   2.0000      -0.452724       -12.3192
 225   2.0000      -0.451667       -12.2905
 226   2.0000      -0.448614       -12.2074
 227   2.0000      -0.443698       -12.0736
 228   2.0000      -0.442174       -12.0322
 229   2.0000      -0.440431       -11.9847
 230   2.0000      -0.437573       -11.9070
 231   2.0000      -0.435784       -11.8583
 232   2.0000      -0.432413       -11.7666
 233   2.0000      -0.432180       -11.7602
 234   2.0000      -0.429808       -11.6957
 235   2.0000      -0.422996       -11.5103
 236   2.0000      -0.421598       -11.4723
 237   2.0000      -0.420653       -11.4465
 238   2.0000      -0.419975       -11.4281
 239   2.0000      -0.417547       -11.3620
 240   2.0000      -0.413833       -11.2610
 241   2.0000      -0.407767       -11.0959
 242   2.0000      -0.404607       -11.0099
 243   2.0000      -0.402862       -10.9624
 244   2.0000      -0.399594       -10.8735
 245   2.0000      -0.397063       -10.8046
 246   2.0000      -0.393454       -10.7064
 247   2.0000      -0.390396       -10.6232
 248   2.0000      -0.382827       -10.4173
 249   2.0000      -0.380850       -10.3634
 250   2.0000      -0.374206       -10.1827
 251   2.0000      -0.371514       -10.1094
 252   2.0000      -0.369481       -10.0541
 253   2.0000      -0.363841        -9.9006
 254   2.0000      -0.361298        -9.8314
 255   2.0000      -0.360416        -9.8074
 256   2.0000      -0.349035        -9.4977
 257   2.0000      -0.347808        -9.4643
 258   2.0000      -0.340233        -9.2582
 259   2.0000      -0.335147        -9.1198
 260   2.0000      -0.328870        -8.9490
 261   2.0000      -0.325621        -8.8606
 262   2.0000      -0.320396        -8.7184
 263   2.0000      -0.315982        -8.5983
 264   2.0000      -0.310190        -8.4407
 265   2.0000      -0.302455        -8.2302
 266   2.0000      -0.287070        -7.8116
 267   2.0000      -0.280397        -7.6300
 268   2.0000      -0.277326        -7.5464
 269   2.0000      -0.266075        -7.2403
 270   2.0000      -0.255797        -6.9606
 271   2.0000      -0.241862        -6.5814
 272   2.0000      -0.203665        -5.5420
 273   0.0000      -0.096961        -2.6384
 274   0.0000      -0.081633        -2.2214
 275   0.0000      -0.079052        -2.1511
 276   0.0000      -0.055325        -1.5055
 277   0.0000      -0.049691        -1.3522

MULLIKEN ATOMIC CHARGES
-----------------------
   0 C :    0.327832
   1 C :   -0.340107
   2 C :   -0.218417
   3 N :    0.152707
   4 C :   -0.207002
   5 N :    0.141668
   6 C :    0.012945
   7 C :    0.018569
   8 C :   -0.096186
   9 C :    0.145849
  10 C :   -0.095619
  11 C :   -0.019196
  12 S :    0.177263
  13 C :   -0.119915
  14 C :    0.031554
  15 Br:    0.014737
  16 C :    0.160913
  17 O :   -0.190494
  18 C :   -0.113196
  19 C :   -0.004635
  20 C :   -0.140886
  21 S :    0.193160
  22 C :   -0.126434
  23 C :   -0.035355
  24 C :    0.228349
  25 O :   -0.389517
  26 S :    0.271381
  27 C :   -0.161813
  28 S :    0.037675
  29 C :   -0.022003
  30 C :    0.076856
  31 N :   -0.078314
  32 C :   -0.130931
  33 S :    0.187622
  34 C :   -0.013959
  35 N :    0.278695
  36 O :   -0.252491
  37 O :   -0.264588
  38 C :    0.001706
  39 C :    0.129398
  40 C :   -0.025046
  41 C :   -0.021560
  42 C :   -0.004977
  43 C :   -0.026828
  44 C :    0.029942
  45 C :    0.031029
  46 C :   -0.057355
  47 S :    0.053488
  48 C :   -0.039629
  49 C :    0.017972
  50 C :    0.046433
  51 C :   -0.057163
  52 S :    0.044207
  53 C :    0.013568
  54 C :    0.049056
  55 C :    0.001843
  56 C :    0.028109
  57 C :    0.039927
  58 C :    0.033412
  59 C :   -0.008019
  60 C :    0.034131
  61 C :    0.005096
  62 C :   -0.003721
  63 C :    0.024115
  64 C :    0.033622
  65 C :   -0.011409
  66 C :    0.016052
  67 C :   -0.012098
  68 H :   -0.020178
  69 H :   -0.013736
  70 H :   -0.009194
  71 H :    0.033406
  72 H :    0.129494
  73 H :    0.092146
  74 H :    0.000669
  75 H :    0.042703
  76 H :    0.146353
  77 H :    0.008709
  78 H :   -0.020283
  79 H :    0.007612
  80 H :   -0.021202
  81 H :   -0.015265
  82 H :   -0.012043
  83 H :   -0.015652
  84 H :   -0.009321
  85 H :   -0.014747
  86 H :   -0.016448
  87 H :   -0.011756
  88 H :   -0.020044
  89 H :   -0.028777
  90 H :   -0.021694
  91 H :   -0.017048
  92 H :   -0.024951
  93 H :    0.009279
  94 H :    0.019952
Sum of atomic charges:   -0.0000000

LOEWDIN ATOMIC CHARGES
----------------------
   0 C :    0.082515
   1 C :   -0.155618
   2 C :   -0.019526
   3 N :   -0.071501
   4 C :   -0.020466
   5 N :   -0.060666
   6 C :   -0.013835
   7 C :   -0.043224
   8 C :    0.021428
   9 C :   -0.033130
  10 C :   -0.140759
  11 C :   -0.010217
  12 S :    0.442231
  13 C :   -0.273399
  14 C :   -0.069346
  15 Br:    0.130523
  16 C :    0.086475
  17 O :   -0.178288
  18 C :   -0.118006
  19 C :    0.065939
  20 C :   -0.219833
  21 S :    0.498767
  22 C :   -0.161868
  23 C :   -0.243669
  24 C :    0.016717
  25 O :   -0.218405
  26 S :    0.390733
  27 C :   -0.260756
  28 S :    0.297759
  29 C :   -0.117146
  30 C :    0.039423
  31 N :    0.036812
  32 C :   -0.125317
  33 S :    0.462501
  34 C :   -0.207901
  35 N :    0.274106
  36 O :   -0.217901
  37 O :   -0.230203
  38 C :   -0.002258
  39 C :   -0.084590
  40 C :   -0.044037
  41 C :   -0.036009
  42 C :   -0.076471
  43 C :   -0.131369
  44 C :   -0.048029
  45 C :   -0.025625
  46 C :   -0.197596
  47 S :    0.366106
  48 C :   -0.169712
  49 C :   -0.052897
  50 C :   -0.020604
  51 C :   -0.172468
  52 S :    0.383945
  53 C :   -0.018528
  54 C :   -0.071325
  55 C :    0.045460
  56 C :   -0.068211
  57 C :    0.080890
  58 C :   -0.071067
  59 C :    0.046323
  60 C :   -0.059968
  61 C :    0.018519
  62 C :   -0.067544
  63 C :    0.076023
  64 C :   -0.064723
  65 C :    0.029918
  66 C :   -0.025714
  67 C :   -0.056193
  68 H :    0.036935
  69 H :    0.038230
  70 H :    0.036564
  71 H :    0.051296
  72 H :    0.016047
  73 H :    0.036429
  74 H :    0.030940
  75 H :    0.025567
  76 H :    0.095329
  77 H :    0.044674
  78 H :    0.028613
  79 H :    0.012664
  80 H :    0.029387
  81 H :    0.032207
  82 H :    0.032043
  83 H :    0.031197
  84 H :    0.034677
  85 H :    0.039683
  86 H :    0.028136
  87 H :    0.039079
  88 H :    0.026631
  89 H :    0.023551
  90 H :    0.033597
  91 H :    0.012461
  92 H :    0.026611
  93 H :    0.016849
  94 H :    0.023410

  Mayer bond orders larger than 0.100000
B(  0-C ,  1-C ) :   1.5979 B(  0-C ,  6-C ) :   0.9864 B(  0-C , 18-C ) :   1.1179
B(  1-C ,  2-C ) :   1.1574 B(  1-C ,  4-C ) :   1.1604 B(  2-C ,  3-N ) :   2.9627
B(  4-C ,  5-N ) :   2.9057 B(  6-C ,  7-C ) :   1.2902 B(  6-C , 11-C ) :   1.4056
B(  7-C ,  8-C ) :   1.3965 B(  7-C , 16-C ) :   0.9566 B(  8-C ,  9-C ) :   1.2325
B(  8-C , 68-H ) :   1.0220 B(  9-C , 10-C ) :   1.3148 B(  9-C , 14-C ) :   1.1568
B( 10-C , 11-C ) :   1.3192 B( 10-C , 12-S ) :   1.0866 B( 11-C , 69-H ) :   0.9850
B( 12-S , 13-C ) :   1.0869 B( 13-C , 14-C ) :   1.6186 B( 13-C , 15-Br) :   1.0124
B( 14-C , 70-H ) :   1.0009 B( 16-C , 17-O ) :   2.1164 B( 16-C , 18-C ) :   0.9799
B( 18-C , 19-C ) :   1.4380 B( 19-C , 20-C ) :   1.3106 B( 19-C , 71-H ) :   0.9412
B( 20-C , 21-S ) :   1.0592 B( 20-C , 24-C ) :   1.3720 B( 21-S , 22-C ) :   1.1264
B( 22-C , 23-C ) :   1.4356 B( 22-C , 29-C ) :   1.1382 B( 23-C , 24-C ) :   1.3120
B( 23-C , 28-S ) :   0.9906 B( 24-C , 25-O ) :   1.1124 B( 25-O , 26-S ) :   0.8552
B( 26-S , 27-C ) :   0.9934 B( 27-C , 28-S ) :   0.9850 B( 27-C , 72-H ) :   0.9190
B( 27-C , 73-H ) :   0.9470 B( 29-C , 30-C ) :   1.6596 B( 29-C , 74-H ) :   0.9507
B( 30-C , 31-N ) :   1.1490 B( 30-C , 75-H ) :   0.9608 B( 31-N , 32-C ) :   1.1459
B( 31-N , 76-H ) :   0.9239 B( 32-C , 33-S ) :   1.1318 B( 32-C , 39-C ) :   1.3876
B( 33-S , 34-C ) :   1.0970 B( 34-C , 35-N ) :   0.9678 B( 34-C , 38-C ) :   1.4907
B( 35-N , 36-O ) :   1.5352 B( 35-N , 37-O ) :   1.5139 B( 36-O , 37-O ) :   0.2593
B( 38-C , 39-C ) :   1.2069 B( 38-C , 77-H ) :   1.0039 B( 39-C , 40-C ) :   1.0990
B( 40-C , 41-C ) :   1.6375 B( 40-C , 78-H ) :   0.9788 B( 41-C , 42-C ) :   1.1778
B( 41-C , 79-H ) :   0.9550 B( 42-C , 43-C ) :   1.5375 B( 42-C , 80-H ) :   0.9873
B( 43-C , 44-C ) :   1.1530 B( 43-C , 47-S ) :   1.0457 B( 44-C , 45-C ) :   1.5714
B( 44-C , 81-H ) :   0.9982 B( 45-C , 46-C ) :   1.2061 B( 45-C , 82-H ) :   0.9944
B( 46-C , 47-S ) :   1.0419 B( 46-C , 48-C ) :   1.4807 B( 48-C , 49-C ) :   1.1962
B( 48-C , 52-S ) :   1.0446 B( 49-C , 50-C ) :   1.5750 B( 49-C , 83-H ) :   0.9939
B( 50-C , 51-C ) :   1.1478 B( 50-C , 84-H ) :   0.9983 B( 51-C , 52-S ) :   1.0053
B( 51-C , 53-C ) :   1.5605 B( 53-C , 54-C ) :   1.1516 B( 53-C , 85-H ) :   0.9682
B( 54-C , 55-C ) :   1.3844 B( 54-C , 65-C ) :   1.1549 B( 55-C , 56-C ) :   1.1442
B( 55-C , 86-H ) :   1.0173 B( 56-C , 57-C ) :   1.3822 B( 56-C , 64-C ) :   1.1509
B( 57-C , 58-C ) :   1.1599 B( 57-C , 87-H ) :   1.0009 B( 58-C , 59-C ) :   1.3982
B( 58-C , 62-C ) :   1.1376 B( 59-C , 60-C ) :   1.1690 B( 59-C , 88-H ) :   1.0108
B( 60-C , 61-C ) :   1.4611 B( 60-C , 66-C ) :   1.0863 B( 61-C , 62-C ) :   1.1046
B( 61-C , 89-H ) :   1.0211 B( 62-C , 63-C ) :   1.4085 B( 63-C , 64-C ) :   1.1351
B( 63-C , 90-H ) :   1.0068 B( 64-C , 65-C ) :   1.4253 B( 65-C , 91-H ) :   0.9880
B( 66-C , 67-C ) :   1.9338 B( 66-C , 92-H ) :   0.9604 B( 67-C , 93-H ) :   0.9476
B( 67-C , 94-H ) :   0.9442

-----------------------------------------------------------------------------
         ABSORPTION SPECTRUM VIA TRANSITION ELECTRIC DIPOLE MOMENTS
-----------------------------------------------------------------------------
State   Energy  Wavelength   fosc         T2         TX        TY        TZ
        (cm-1)    (nm)                  (au**2)     (au)      (au)      (au)
-----------------------------------------------------------------------------
   0    7026.4   1423.2   0.009533421   0.44667  -0.24870  -0.61337  -0.09276
   1   11739.4    851.8   0.034702921   0.97318   0.14901  -0.47452  -0.85195
   2   12790.5    781.8   0.539200602  13.87833  -1.69463  -3.26050   0.61296
   3   14924.3    670.0   0.217507893   4.79797   1.17223   1.46760  -1.12694
   4   16991.0    588.5   0.112020747   2.17048   1.21191   0.72904  -0.41262
   5   17967.8    556.6   0.611143552  11.19760  -1.86702  -2.62698   0.90043
   6   18894.1    529.3   0.405979070   7.07381   1.42998   2.23201  -0.21707
   7   19747.6    506.4   0.147145521   2.45306  -0.77351  -1.13044   0.75950
   8   19988.6    500.3   0.092828257   1.52888   0.38768   0.95694  -0.68032
   9   20422.2    489.7   0.372733795   6.00858  -1.32142  -1.98829  -0.55600
  10   21517.4    464.7   0.085249779   1.30430  -0.44206   0.25547  -1.02158
  11   23080.4    433.3   0.202351730   2.88628  -0.89231  -1.40213  -0.35227
  12   23230.0    430.5   0.013235301   0.18757  -0.22163  -0.15921  -0.33630
  13   23391.8    427.5   0.189028461   2.66036  -0.53439  -1.53180  -0.16848
  14   23801.9    420.1   0.147047233   2.03386   0.93850   0.93021  -0.53646
  15   24129.6    414.4   0.031459100   0.42921  -0.21555  -0.51999   0.33521
  16   24875.1    402.0   0.352455205   4.66461  -0.69738  -1.30203  -1.57575
  17   25354.8    394.4   0.140022522   1.81808  -0.37356   0.10337  -1.29145
  18   25645.3    389.9   0.030503325   0.39158  -0.33847  -0.20760   0.48365
  19   26299.3    380.2   0.100531426   1.25844   0.76831   0.07459   0.81399
  20   26958.6    370.9   0.046534391   0.56827   0.15688   0.17475   0.71632
  21   27076.6    369.3   0.196847644   2.39338  -0.53993  -0.44208  -1.38073
  22   27272.5    366.7   0.058993179   0.71212  -0.64654  -0.53609   0.08195
  23   27710.3    360.9   0.071464510   0.84903  -0.88745  -0.08805   0.23177
  24   28156.7    355.2   0.208337921   2.43591   0.75585   0.00718   1.36548
  25   28574.0    350.0   0.398304783   4.58902   1.07316   0.41496   1.80697
  26   29172.2    342.8   0.230318972   2.59918  -1.01266  -0.59064  -1.10673
  27   29504.6    338.9   0.106629387   1.18977  -0.47901  -0.49242  -0.84725
  28   29700.0    336.7   0.015121787   0.16762   0.21703  -0.33875  -0.07594
  29   30108.7    332.1   0.004550367   0.04975  -0.12116  -0.16452  -0.08949
  30   30374.5    329.2   0.067812561   0.73498  -0.27677   0.80573  -0.09582
  31   30836.7    324.3   0.017587317   0.18776   0.17603   0.08925   0.38576
  32   31198.3    320.5   0.054752289   0.57776   0.31708   0.39554   0.56636
  33   31735.0    315.1   0.106625611   1.10611   0.89466  -0.09505   0.54467
  34   31867.3    313.8   0.091013734   0.94024   0.04239   0.09465   0.96410
  35   31943.1    313.1   0.018539461   0.19107  -0.24169  -0.17593  -0.31892
  36   32145.6    311.1   0.035221338   0.36071  -0.33335  -0.48905  -0.10209
  37   32359.1    309.0   0.015108996   0.15371   0.04002  -0.30353   0.24492
  38   32492.3    307.8   0.020913437   0.21190  -0.37858  -0.16233   0.20548
  39   32941.7    303.6   0.005747192   0.05744  -0.00045  -0.20505   0.12407
  40   33025.2    302.8   0.021398836   0.21331  -0.27071  -0.05234   0.37053
  41   33117.9    302.0   0.031995734   0.31806   0.09135   0.23622   0.50390
  42   33296.9    300.3   0.055764381   0.55135  -0.33187  -0.65668   0.09993
  43   33710.5    296.6   0.041179667   0.40215   0.34033   0.05614  -0.53215
  44   33890.0    295.1   0.030605185   0.29730  -0.03535  -0.52280  -0.15077
  45   33946.7    294.6   0.237570972   2.30394  -1.23651  -0.07717  -0.87694
  46   34216.5    292.3   0.032573967   0.31341  -0.50884   0.09100  -0.21496
  47   34317.9    291.4   0.014835112   0.14231   0.06291   0.25247  -0.27316
  48   34807.9    287.3   0.166523769   1.57498  -0.71250   0.84608  -0.59285
  49   35022.6    285.5   0.094176858   0.88526  -0.86197  -0.13267  -0.35308
  50   35072.8    285.1   0.054511998   0.51168   0.44743   0.49012  -0.26695
  51   35475.9    281.9   0.100551308   0.93310   0.47032   0.05565   0.84190
  52   35598.8    280.9   0.095798828   0.88593  -0.26411  -0.00669  -0.90340
  53   35744.9    279.8   0.016184800   0.14906  -0.31898   0.18566  -0.11332
  54   35949.5    278.2   0.076192215   0.69774  -0.25522   0.00773   0.79532
  55   36118.6    276.9   0.034614373   0.31550   0.47072   0.22831   0.20445
  56   36266.7    275.7   0.015489843   0.14061   0.21252   0.27015   0.14987
  57   36534.6    273.7   0.032597990   0.29374  -0.04261  -0.51327   0.16875
  58   36649.5    272.9   0.167697332   1.50638  -1.10669  -0.49322   0.19585
  59   37057.6    269.9   0.029667752   0.26356  -0.21515  -0.41481   0.21262
  60   37198.0    268.8   0.053573877   0.47414   0.61986  -0.01141   0.29964
  61   37582.6    266.1   0.085342019   0.74757   0.79850   0.08770   0.31981
  62   37816.9    264.4   0.056350089   0.49055   0.66720   0.17683   0.11885
  63   38006.7    263.1   0.078016932   0.67578  -0.48774  -0.32151  -0.57838
  64   38027.6    263.0   0.036405810   0.31517  -0.32491   0.37387  -0.26424
  65   38061.9    262.7   0.032282070   0.27922   0.08142   0.25902  -0.45332
  66   38279.7    261.2   0.021240257   0.18267   0.31889  -0.09576   0.26797
  67   38509.1    259.7   0.096675051   0.82647  -0.14970  -0.80813   0.38857
  68   38663.5    258.6   0.006058129   0.05158  -0.05286  -0.09324   0.20024
  69   38941.3    256.8   0.037801625   0.31958   0.10592   0.32381   0.45112
  70   39280.2    254.6   0.187227989   1.56918  -1.03049  -0.51822  -0.48860
  71   39469.2    253.4   0.011098669   0.09257  -0.09158  -0.20099   0.20926
  72   39638.3    252.3   0.022555788   0.18733  -0.32231   0.21410  -0.19394
  73   39827.9    251.1   0.035012550   0.28941  -0.22763  -0.48347   0.06206
  74   39863.4    250.9   0.018722270   0.15462   0.35597   0.08498  -0.14382
  75   39936.1    250.4   0.014683951   0.12105  -0.22687   0.25816   0.05414
  76   40236.4    248.5   0.068259071   0.55849   0.31118   0.61807   0.28222
  77   40314.6    248.0   0.037025720   0.30235   0.36756   0.40522   0.05521

FINAL SINGLE POINT ENERGY     -7874.641402876880

DIPOLE MOMENT
-------------
                                X             Y             Z
Electronic contribution:    -66.54013     -79.52948     -71.83158
Nuclear contribution   :     65.33282      80.99440      73.67943
                        -----------------------------------------
Total Dipole Moment    :     -1.20730       1.46492       1.84785
                        -----------------------------------------
Magnitude (a.u.)       :      2.64918
Magnitude (Debye)      :      6.73367

Rotational constants in cm-1:     0.001434     0.000442     0.000376
Rotational constants in MHz :    42.982229    13.236285    11.275125

                             ****ORCA TERMINATED NORMALLY****
TOTAL RUN TIME: 0 days 0 hours 13 minutes 50 seconds 731 msec
