                         Program Version 4.2.0 -  RELEASE  -
|  1> # ORCA input file
|  2> # SCF done       -182.262451846566          0.000407059793
|  3> ! CAM-B3LYP def2-SVP def2/J RIJCOSX Grid4 TightSCF
|  4> %maxcore 5000
|  5> %tddft
|  6>     Mode sTDDFT
|  7>     Ethresh 5.0
|  8>     maxcore 5000
|  9> end
| 10>
| 11> %pal
| 12>   nprocs 6
| 13>   end
| 14> * xyz 0 1
| 15>    C       -9.45335        -8.15566         9.11369
| 16>    C       -8.85879        -8.83628         8.07643
| 17>    C       -8.46368       -10.18755         8.13570
| 18>    N       -8.12714       -11.28538         8.11053
| 19>    C       -8.53890        -8.28953         6.82135
| 20>    N       -8.23833        -7.92000         5.77486
| 21>    C       -9.71348        -8.71371        10.43849
| 22>    C      -10.23758        -7.69079        11.26504
| 23>    C      -10.58099        -7.90050        12.57751
| 24>    C      -10.40412        -9.18634        13.10054
| 25>    C       -9.88369       -10.20338        12.26652
| 26>    C       -9.53174        -9.98860        10.93894
| 27>    S       -9.75287       -11.71704        13.10983
| 28>    C      -10.39103       -10.97273        14.55159
| 29>    C      -10.68634        -9.65864        14.41146
| 30>   Br      -10.60943       -12.00119        16.10499
| 31>    C      -10.34756        -6.44200        10.48370
| 32>    O      -10.74969        -5.37242        10.89845
| 33>    C       -9.88568        -6.78082         9.12026
| 34>    C       -9.93206        -5.91641         8.04450
| 35>    C      -10.33799        -4.58700         8.13136
| 36>    C      -10.43749        -3.72227         7.06118
| 37>    C      -10.81434        -2.36033         7.14807
| 38>    C      -10.84591        -1.71199         5.95167
| 39>    C      -10.50376        -2.53121         4.85132
| 40>    S      -10.12681        -4.15347         5.39397
| 41>    C      -10.47289        -2.15776         3.52071
| 42>    C      -10.76145        -0.87604         2.98948
| 43>    C      -10.66654        -0.80645         1.63691
| 44>    C      -10.29962        -2.02833         1.00779
| 45>    S      -10.06615        -3.26644         2.23469
| 46>    C      -10.19624        -2.20680        -0.34453
| 47>    C       -9.85811        -3.39255        -1.03433
| 48>    S      -10.08222        -3.47664        -2.76102
| 49>    C       -9.51001        -5.10676        -2.79735
| 50>    C       -9.45974        -5.77876        -4.07505
| 51>    O       -8.97914        -6.87155        -4.28737
| 52>    O      -10.01378        -5.04285        -5.05394
| 53>    C       -9.17562        -5.57997        -1.52418
| 54>    C       -9.36023        -4.58221        -0.54583
| 55>    C       -8.67700        -6.87891        -1.17928
| 56>    S       -7.69734        -7.79962        -2.24107
| 57>    C       -7.30539        -8.96174        -1.01617
| 58>    C       -8.00087        -8.67717         0.17979
| 59>    C       -8.79357        -7.49843         0.08085
| 60>    C       -9.62154        -7.12928         1.15788
| 61>    C       -9.59321        -7.84504         2.32656
| 62>    C      -10.45234        -7.46477         3.48750
| 63>    C       -8.73919        -8.96395         2.43978
| 64>    C       -7.97282        -9.38936         1.39055
| 65>    C       -6.53624       -10.10747        -1.26520
| 66>    C       -5.81373       -10.45703        -2.37420
| 67>    C       -5.33115        -9.70899        -3.50995
| 68>    C       -4.87680        -8.41415        -3.50457
| 69>    C       -4.33458        -7.76790        -4.63125
| 70>    N       -3.89908        -7.19279        -5.52488
| 71>    C       -4.81001        -7.62399        -2.34006
| 72>    N       -4.68934        -6.96607        -1.40658
| 73>    C       -5.11932       -10.66187        -4.59610
| 74>    C       -5.20628       -11.97377        -4.06714
| 75>    C       -5.55686       -11.89532        -2.63225
| 76>    O       -5.66783       -12.81005        -1.84652
| 77>    C       -5.01224       -13.09228        -4.83968
| 78>    C       -4.73659       -12.90638        -6.19911
| 79>    C       -4.66978       -11.59247        -6.71891
| 80>    C       -4.85207       -10.45918        -5.93505
| 81>    S       -4.33767       -11.59608        -8.42471
| 82>    C       -4.28899       -13.33916        -8.41517
| 83>    C       -4.51051       -13.89190        -7.19974
| 84>   Br       -3.95396       -14.26364       -10.01270
| 85>    H      -10.97586        -7.09922        13.18224
| 86>    H       -9.14078       -10.79807        10.34573
| 87>    H      -11.08776        -9.04658        15.19837
| 88>    H       -9.64537        -6.28244         7.06624
| 89>    H      -10.59493        -4.19357         9.10485
| 90>    H      -11.04650        -1.90721         8.09518
| 91>    H      -11.10782        -0.67634         5.83340
| 92>    H      -11.03222        -0.04755         3.61804
| 93>    H      -10.85086         0.08121         1.05838
| 94>    H      -10.43586        -1.35103        -0.96195
| 95>    H       -9.94207        -5.50951        -5.90061
| 96>    H       -9.04605        -4.71002         0.47190
| 97>    H      -10.30480        -6.30070         1.05593
| 98>    H      -10.98914        -6.53932         3.29575
| 99>    H       -9.82652        -7.33889         4.36956
|100>    H      -11.17221        -8.25433         3.70100
|101>    H       -8.71022        -9.49331         3.37998
|102>    H       -7.34879       -10.26381         1.48756
|103>    H       -6.60956       -10.89387        -0.51988
|104>    H       -5.07338       -14.08067        -4.41206
|105>    H       -4.79922        -9.47582        -6.37234
|106>    H       -4.51664       -14.95034        -7.01350
|107> *
|108>
|109>                          ****END OF INPUT****

CARTESIAN COORDINATES (ANGSTROEM)
---------------------------------
  C     -9.453350   -8.155660    9.113690
  C     -8.858790   -8.836280    8.076430
  C     -8.463680  -10.187550    8.135700
  N     -8.127140  -11.285380    8.110530
  C     -8.538900   -8.289530    6.821350
  N     -8.238330   -7.920000    5.774860
  C     -9.713480   -8.713710   10.438490
  C    -10.237580   -7.690790   11.265040
  C    -10.580990   -7.900500   12.577510
  C    -10.404120   -9.186340   13.100540
  C     -9.883690  -10.203380   12.266520
  C     -9.531740   -9.988600   10.938940
  S     -9.752870  -11.717040   13.109830
  C    -10.391030  -10.972730   14.551590
  C    -10.686340   -9.658640   14.411460
  Br   -10.609430  -12.001190   16.104990
  C    -10.347560   -6.442000   10.483700
  O    -10.749690   -5.372420   10.898450
  C     -9.885680   -6.780820    9.120260
  C     -9.932060   -5.916410    8.044500
  C    -10.337990   -4.587000    8.131360
  C    -10.437490   -3.722270    7.061180
  C    -10.814340   -2.360330    7.148070
  C    -10.845910   -1.711990    5.951670
  C    -10.503760   -2.531210    4.851320
  S    -10.126810   -4.153470    5.393970
  C    -10.472890   -2.157760    3.520710
  C    -10.761450   -0.876040    2.989480
  C    -10.666540   -0.806450    1.636910
  C    -10.299620   -2.028330    1.007790
  S    -10.066150   -3.266440    2.234690
  C    -10.196240   -2.206800   -0.344530
  C     -9.858110   -3.392550   -1.034330
  S    -10.082220   -3.476640   -2.761020
  C     -9.510010   -5.106760   -2.797350
  C     -9.459740   -5.778760   -4.075050
  O     -8.979140   -6.871550   -4.287370
  O    -10.013780   -5.042850   -5.053940
  C     -9.175620   -5.579970   -1.524180
  C     -9.360230   -4.582210   -0.545830
  C     -8.677000   -6.878910   -1.179280
  S     -7.697340   -7.799620   -2.241070
  C     -7.305390   -8.961740   -1.016170
  C     -8.000870   -8.677170    0.179790
  C     -8.793570   -7.498430    0.080850
  C     -9.621540   -7.129280    1.157880
  C     -9.593210   -7.845040    2.326560
  C    -10.452340   -7.464770    3.487500
  C     -8.739190   -8.963950    2.439780
  C     -7.972820   -9.389360    1.390550
  C     -6.536240  -10.107470   -1.265200
  C     -5.813730  -10.457030   -2.374200
  C     -5.331150   -9.708990   -3.509950
  C     -4.876800   -8.414150   -3.504570
  C     -4.334580   -7.767900   -4.631250
  N     -3.899080   -7.192790   -5.524880
  C     -4.810010   -7.623990   -2.340060
  N     -4.689340   -6.966070   -1.406580
  C     -5.119320  -10.661870   -4.596100
  C     -5.206280  -11.973770   -4.067140
  C     -5.556860  -11.895320   -2.632250
  O     -5.667830  -12.810050   -1.846520
  C     -5.012240  -13.092280   -4.839680
  C     -4.736590  -12.906380   -6.199110
  C     -4.669780  -11.592470   -6.718910
  C     -4.852070  -10.459180   -5.935050
  S     -4.337670  -11.596080   -8.424710
  C     -4.288990  -13.339160   -8.415170
  C     -4.510510  -13.891900   -7.199740
  Br    -3.953960  -14.263640  -10.012700
  H    -10.975860   -7.099220   13.182240
  H     -9.140780  -10.798070   10.345730
  H    -11.087760   -9.046580   15.198370
  H     -9.645370   -6.282440    7.066240
  H    -10.594930   -4.193570    9.104850
  H    -11.046500   -1.907210    8.095180
  H    -11.107820   -0.676340    5.833400
  H    -11.032220   -0.047550    3.618040
  H    -10.850860    0.081210    1.058380
  H    -10.435860   -1.351030   -0.961950
  H     -9.942070   -5.509510   -5.900610
  H     -9.046050   -4.710020    0.471900
  H    -10.304800   -6.300700    1.055930
  H    -10.989140   -6.539320    3.295750
  H     -9.826520   -7.338890    4.369560
  H    -11.172210   -8.254330    3.701000
  H     -8.710220   -9.493310    3.379980
  H     -7.348790  -10.263810    1.487560
  H     -6.609560  -10.893870   -0.519880
  H     -5.073380  -14.080670   -4.412060
  H     -4.799220   -9.475820   -6.372340
  H     -4.516640  -14.950340   -7.013500

 Total Charge           Charge          ....    0
 Multiplicity           Mult            ....    1
 Number of Electrons    NEL             ....  572
 Basis Dimension        Dim             .... 1150

ORBITAL ENERGIES
----------------

  NO   OCC          E(Eh)            E(eV)
   0   2.0000    -482.883117    -13139.9176
   1   2.0000    -482.877298    -13139.7593
   2   2.0000     -88.977223     -2421.1933
   3   2.0000     -88.976323     -2421.1688
   4   2.0000     -88.972202     -2421.0567
   5   2.0000     -88.971298     -2421.0321
   6   2.0000     -88.966754     -2420.9085
   7   2.0000     -88.965504     -2420.8744
   8   2.0000     -62.560801     -1702.3659
   9   2.0000     -62.555033     -1702.2090
  10   2.0000     -56.394751     -1534.5792
  11   2.0000     -56.392038     -1534.5054
  12   2.0000     -56.392008     -1534.5045
  13   2.0000     -56.388971     -1534.4219
  14   2.0000     -56.386277     -1534.3486
  15   2.0000     -56.386238     -1534.3475
  16   2.0000     -19.271571      -524.4061
  17   2.0000     -19.214081      -522.8417
  18   2.0000     -19.211558      -522.7731
  19   2.0000     -19.198405      -522.4152
  20   2.0000     -14.416321      -392.2880
  21   2.0000     -14.409234      -392.0952
  22   2.0000     -14.402085      -391.9006
  23   2.0000     -14.399169      -391.8213
  24   2.0000     -10.418779      -283.5094
  25   2.0000     -10.361846      -281.9602
  26   2.0000     -10.355700      -281.7929
  27   2.0000     -10.350287      -281.6456
  28   2.0000     -10.348651      -281.6011
  29   2.0000     -10.345026      -281.5025
  30   2.0000     -10.337793      -281.3057
  31   2.0000     -10.336796      -281.2785
  32   2.0000     -10.336268      -281.2641
  33   2.0000     -10.335313      -281.2382
  34   2.0000     -10.334283      -281.2101
  35   2.0000     -10.328238      -281.0457
  36   2.0000     -10.326987      -281.0116
  37   2.0000     -10.326248      -280.9915
  38   2.0000     -10.321401      -280.8596
  39   2.0000     -10.321258      -280.8557
  40   2.0000     -10.318770      -280.7880
  41   2.0000     -10.317268      -280.7471
  42   2.0000     -10.317161      -280.7442
  43   2.0000     -10.316134      -280.7163
  44   2.0000     -10.315173      -280.6901
  45   2.0000     -10.314753      -280.6787
  46   2.0000     -10.314513      -280.6722
  47   2.0000     -10.313093      -280.6335
  48   2.0000     -10.312768      -280.6247
  49   2.0000     -10.311193      -280.5818
  50   2.0000     -10.305449      -280.4255
  51   2.0000     -10.305037      -280.4143
  52   2.0000     -10.303723      -280.3785
  53   2.0000     -10.303580      -280.3747
  54   2.0000     -10.303263      -280.3660
  55   2.0000     -10.301304      -280.3127
  56   2.0000     -10.301033      -280.3054
  57   2.0000     -10.298002      -280.2229
  58   2.0000     -10.296643      -280.1859
  59   2.0000     -10.295723      -280.1609
  60   2.0000     -10.295660      -280.1592
  61   2.0000     -10.294297      -280.1221
  62   2.0000     -10.293567      -280.1022
  63   2.0000     -10.293257      -280.0938
  64   2.0000     -10.290267      -280.0124
  65   2.0000     -10.289094      -279.9805
  66   2.0000     -10.287174      -279.9282
  67   2.0000     -10.287046      -279.9247
  68   2.0000     -10.285196      -279.8744
  69   2.0000     -10.282240      -279.7940
  70   2.0000     -10.281884      -279.7843
  71   2.0000     -10.279758      -279.7264
  72   2.0000     -10.278128      -279.6821
  73   2.0000     -10.271919      -279.5131
  74   2.0000     -10.269513      -279.4477
  75   2.0000     -10.265464      -279.3375
  76   2.0000     -10.265406      -279.3359
  77   2.0000     -10.248208      -278.8679
  78   2.0000      -8.790208      -239.1937
  79   2.0000      -8.784472      -239.0376
  80   2.0000      -8.072542      -219.6650
  81   2.0000      -8.071937      -219.6486
  82   2.0000      -8.068173      -219.5461
  83   2.0000      -8.067066      -219.5160
  84   2.0000      -8.061486      -219.3642
  85   2.0000      -8.060171      -219.3284
  86   2.0000      -6.626499      -180.3162
  87   2.0000      -6.620732      -180.1593
  88   2.0000      -6.611959      -179.9205
  89   2.0000      -6.611735      -179.9145
  90   2.0000      -6.606219      -179.7643
  91   2.0000      -6.606044      -179.7596
  92   2.0000      -6.041820      -164.4063
  93   2.0000      -6.041701      -164.4030
  94   2.0000      -6.037875      -164.2989
  95   2.0000      -6.037574      -164.2907
  96   2.0000      -6.037512      -164.2891
  97   2.0000      -6.036691      -164.2667
  98   2.0000      -6.034729      -164.2133
  99   2.0000      -6.033580      -164.1821
 100   2.0000      -6.032973      -164.1655
 101   2.0000      -6.032659      -164.1570
 102   2.0000      -6.031188      -164.1170
 103   2.0000      -6.029398      -164.0683
 104   2.0000      -6.029114      -164.0605
 105   2.0000      -6.028231      -164.0365
 106   2.0000      -6.026924      -164.0009
 107   2.0000      -6.024661      -163.9394
 108   2.0000      -6.023330      -163.9031
 109   2.0000      -6.022702      -163.8860
 110   2.0000      -2.742357       -74.6233
 111   2.0000      -2.738268       -74.5120
 112   2.0000      -2.738175       -74.5095
 113   2.0000      -2.736597       -74.4666
 114   2.0000      -2.732517       -74.3556
 115   2.0000      -2.732428       -74.3531
 116   2.0000      -2.726573       -74.1938
 117   2.0000      -2.726565       -74.1936
 118   2.0000      -2.720873       -74.0387
 119   2.0000      -2.720857       -74.0383
 120   2.0000      -1.199492       -32.6398
 121   2.0000      -1.125293       -30.6208
 122   2.0000      -1.113493       -30.2997
 123   2.0000      -1.103349       -30.0236
 124   2.0000      -1.023182       -27.8422
 125   2.0000      -1.019146       -27.7324
 126   2.0000      -1.012745       -27.5582
 127   2.0000      -1.011207       -27.5163
 128   2.0000      -1.010501       -27.4971
 129   2.0000      -1.001266       -27.2458
 130   2.0000      -0.998678       -27.1754
 131   2.0000      -0.992360       -27.0035
 132   2.0000      -0.990673       -26.9576
 133   2.0000      -0.984889       -26.8002
 134   2.0000      -0.978818       -26.6350
 135   2.0000      -0.975833       -26.5538
 136   2.0000      -0.940267       -25.5860
 137   2.0000      -0.933820       -25.4105
 138   2.0000      -0.929334       -25.2885
 139   2.0000      -0.923880       -25.1400
 140   2.0000      -0.910544       -24.7772
 141   2.0000      -0.904592       -24.6152
 142   2.0000      -0.898821       -24.4582
 143   2.0000      -0.896206       -24.3870
 144   2.0000      -0.883089       -24.0301
 145   2.0000      -0.881884       -23.9973
 146   2.0000      -0.875093       -23.8125
 147   2.0000      -0.873979       -23.7822
 148   2.0000      -0.872460       -23.7409
 149   2.0000      -0.858905       -23.3720
 150   2.0000      -0.851521       -23.1711
 151   2.0000      -0.849444       -23.1145
 152   2.0000      -0.848759       -23.0959
 153   2.0000      -0.836271       -22.7561
 154   2.0000      -0.829393       -22.5689
 155   2.0000      -0.825343       -22.4587
 156   2.0000      -0.817569       -22.2472
 157   2.0000      -0.805271       -21.9125
 158   2.0000      -0.793615       -21.5954
 159   2.0000      -0.775464       -21.1014
 160   2.0000      -0.763471       -20.7751
 161   2.0000      -0.761585       -20.7238
 162   2.0000      -0.755328       -20.5535
 163   2.0000      -0.748353       -20.3637
 164   2.0000      -0.741604       -20.1801
 165   2.0000      -0.729535       -19.8517
 166   2.0000      -0.712288       -19.3823
 167   2.0000      -0.704301       -19.1650
 168   2.0000      -0.694872       -18.9084
 169   2.0000      -0.693084       -18.8598
 170   2.0000      -0.688001       -18.7214
 171   2.0000      -0.684409       -18.6237
 172   2.0000      -0.680697       -18.5227
 173   2.0000      -0.674925       -18.3656
 174   2.0000      -0.668161       -18.1816
 175   2.0000      -0.659073       -17.9343
 176   2.0000      -0.654594       -17.8124
 177   2.0000      -0.651057       -17.7162
 178   2.0000      -0.646690       -17.5973
 179   2.0000      -0.644992       -17.5511
 180   2.0000      -0.636012       -17.3068
 181   2.0000      -0.631597       -17.1866
 182   2.0000      -0.629421       -17.1274
 183   2.0000      -0.619947       -16.8696
 184   2.0000      -0.619349       -16.8533
 185   2.0000      -0.611124       -16.6295
 186   2.0000      -0.606272       -16.4975
 187   2.0000      -0.597778       -16.2664
 188   2.0000      -0.591845       -16.1049
 189   2.0000      -0.587890       -15.9973
 190   2.0000      -0.585448       -15.9308
 191   2.0000      -0.578101       -15.7309
 192   2.0000      -0.571617       -15.5545
 193   2.0000      -0.568031       -15.4569
 194   2.0000      -0.558798       -15.2057
 195   2.0000      -0.556382       -15.1399
 196   2.0000      -0.553715       -15.0674
 197   2.0000      -0.548222       -14.9179
 198   2.0000      -0.547325       -14.8935
 199   2.0000      -0.542256       -14.7555
 200   2.0000      -0.538632       -14.6569
 201   2.0000      -0.536318       -14.5940
 202   2.0000      -0.535751       -14.5785
 203   2.0000      -0.532564       -14.4918
 204   2.0000      -0.527555       -14.3555
 205   2.0000      -0.527104       -14.3432
 206   2.0000      -0.524663       -14.2768
 207   2.0000      -0.523423       -14.2431
 208   2.0000      -0.519132       -14.1263
 209   2.0000      -0.516605       -14.0575
 210   2.0000      -0.514026       -13.9874
 211   2.0000      -0.511899       -13.9295
 212   2.0000      -0.508204       -13.8289
 213   2.0000      -0.506115       -13.7721
 214   2.0000      -0.505273       -13.7492
 215   2.0000      -0.504250       -13.7213
 216   2.0000      -0.500647       -13.6233
 217   2.0000      -0.498507       -13.5651
 218   2.0000      -0.497620       -13.5409
 219   2.0000      -0.494521       -13.4566
 220   2.0000      -0.493470       -13.4280
 221   2.0000      -0.491054       -13.3623
 222   2.0000      -0.489849       -13.3295
 223   2.0000      -0.489209       -13.3121
 224   2.0000      -0.488665       -13.2972
 225   2.0000      -0.485005       -13.1977
 226   2.0000      -0.483494       -13.1565
 227   2.0000      -0.481434       -13.1005
 228   2.0000      -0.477428       -12.9915
 229   2.0000      -0.473053       -12.8724
 230   2.0000      -0.469839       -12.7850
 231   2.0000      -0.468404       -12.7459
 232   2.0000      -0.461215       -12.5503
 233   2.0000      -0.459119       -12.4933
 234   2.0000      -0.454956       -12.3800
 235   2.0000      -0.453261       -12.3339
 236   2.0000      -0.449116       -12.2211
 237   2.0000      -0.446787       -12.1577
 238   2.0000      -0.444775       -12.1030
 239   2.0000      -0.442433       -12.0392
 240   2.0000      -0.439445       -11.9579
 241   2.0000      -0.436361       -11.8740
 242   2.0000      -0.436077       -11.8663
 243   2.0000      -0.435350       -11.8465
 244   2.0000      -0.434534       -11.8243
 245   2.0000      -0.430897       -11.7253
 246   2.0000      -0.430209       -11.7066
 247   2.0000      -0.428143       -11.6504
 248   2.0000      -0.427195       -11.6246
 249   2.0000      -0.424383       -11.5481
 250   2.0000      -0.423297       -11.5185
 251   2.0000      -0.422081       -11.4854
 252   2.0000      -0.419258       -11.4086
 253   2.0000      -0.416070       -11.3219
 254   2.0000      -0.413663       -11.2563
 255   2.0000      -0.411137       -11.1876
 256   2.0000      -0.409317       -11.1381
 257   2.0000      -0.406355       -11.0575
 258   2.0000      -0.405688       -11.0393
 259   2.0000      -0.404333       -11.0025
 260   2.0000      -0.396418       -10.7871
 261   2.0000      -0.391654       -10.6575
 262   2.0000      -0.386891       -10.5278
 263   2.0000      -0.383499       -10.4355
 264   2.0000      -0.380176       -10.3451
 265   2.0000      -0.374498       -10.1906
 266   2.0000      -0.372557       -10.1378
 267   2.0000      -0.366970        -9.9858
 268   2.0000      -0.364580        -9.9207
 269   2.0000      -0.359899        -9.7934
 270   2.0000      -0.358002        -9.7417
 271   2.0000      -0.348943        -9.4952
 272   2.0000      -0.348104        -9.4724
 273   2.0000      -0.336801        -9.1648
 274   2.0000      -0.334233        -9.0949
 275   2.0000      -0.330977        -9.0063
 276   2.0000      -0.326222        -8.8769
 277   2.0000      -0.312970        -8.5164
 278   2.0000      -0.311811        -8.4848
 279   2.0000      -0.303937        -8.2705
 280   2.0000      -0.300110        -8.1664
 281   2.0000      -0.298336        -8.1181
 282   2.0000      -0.289749        -7.8845
 283   2.0000      -0.282670        -7.6918
 284   2.0000      -0.245248        -6.6735
 285   2.0000      -0.238400        -6.4872
 286   0.0000      -0.119250        -3.2449
 287   0.0000      -0.088639        -2.4120
 288   0.0000      -0.070538        -1.9194
 289   0.0000      -0.053934        -1.4676
 290   0.0000      -0.046881        -1.2757

MULLIKEN ATOMIC CHARGES
-----------------------
   0 C :    0.328754
   1 C :   -0.371262
   2 C :   -0.188651
   3 N :    0.145870
   4 C :   -0.158062
   5 N :    0.126046
   6 C :    0.011759
   7 C :   -0.004236
   8 C :   -0.075330
   9 C :    0.119271
  10 C :   -0.092319
  11 C :   -0.024223
  12 S :    0.184647
  13 C :   -0.123574
  14 C :    0.038448
  15 Br:    0.020212
  16 C :    0.139127
  17 O :   -0.162130
  18 C :   -0.090736
  19 C :   -0.022623
  20 C :   -0.031354
  21 C :    0.009863
  22 C :    0.030028
  23 C :    0.042869
  24 C :   -0.055382
  25 S :    0.122633
  26 C :   -0.027175
  27 C :    0.030942
  28 C :    0.050366
  29 C :   -0.031584
  30 S :    0.096717
  31 C :    0.053713
  32 C :   -0.084057
  33 S :    0.193466
  34 C :   -0.221232
  35 C :    0.171452
  36 O :   -0.205836
  37 O :   -0.183519
  38 C :    0.149689
  39 C :   -0.070515
  40 C :   -0.134315
  41 S :    0.239015
  42 C :   -0.107371
  43 C :    0.130506
  44 C :    0.131430
  45 C :   -0.107449
  46 C :   -0.034181
  47 C :    0.098292
  48 C :    0.024410
  49 C :   -0.033845
  50 C :    0.024474
  51 C :   -0.142181
  52 C :    0.254521
  53 C :   -0.323766
  54 C :   -0.175574
  55 N :    0.144282
  56 C :   -0.219856
  57 N :    0.172548
  58 C :    0.004558
  59 C :    0.003353
  60 C :    0.136696
  61 O :   -0.153356
  62 C :   -0.075915
  63 C :    0.113709
  64 C :   -0.087019
  65 C :   -0.023112
  66 S :    0.177189
  67 C :   -0.125658
  68 C :    0.038300
  69 Br:    0.015123
  70 H :   -0.013704
  71 H :   -0.007759
  72 H :   -0.004990
  73 H :    0.005150
  74 H :    0.021676
  75 H :    0.003804
  76 H :   -0.002011
  77 H :   -0.003753
  78 H :    0.001544
  79 H :   -0.003656
  80 H :    0.199447
  81 H :    0.030739
  82 H :   -0.035917
  83 H :   -0.010241
  84 H :    0.030592
  85 H :    0.020465
  86 H :   -0.017951
  87 H :   -0.014777
  88 H :    0.015827
  89 H :   -0.012260
  90 H :   -0.004279
  91 H :   -0.004828
Sum of atomic charges:   -0.0000000

LOEWDIN ATOMIC CHARGES
----------------------
   0 C :    0.076065
   1 C :   -0.155645
   2 C :   -0.020361
   3 N :   -0.061160
   4 C :   -0.004969
   5 N :   -0.061021
   6 C :   -0.019680
   7 C :   -0.048941
   8 C :    0.019522
   9 C :   -0.033781
  10 C :   -0.144915
  11 C :   -0.011393
  12 S :    0.431312
  13 C :   -0.272574
  14 C :   -0.070783
  15 Br:    0.134411
  16 C :    0.083861
  17 O :   -0.153480
  18 C :   -0.101942
  19 C :    0.051739
  20 C :   -0.068549
  21 C :   -0.105009
  22 C :   -0.033428
  23 C :   -0.007774
  24 C :   -0.184514
  25 S :    0.413478
  26 C :   -0.152007
  27 C :   -0.033808
  28 C :   -0.010357
  29 C :   -0.141260
  30 S :    0.410855
  31 C :   -0.049160
  32 C :   -0.162403
  33 S :    0.484558
  34 C :   -0.232619
  35 C :    0.063377
  36 O :   -0.194232
  37 O :   -0.046916
  38 C :   -0.029401
  39 C :   -0.049004
  40 C :   -0.160565
  41 S :    0.594756
  42 C :   -0.197842
  43 C :   -0.019085
  44 C :   -0.039109
  45 C :   -0.037251
  46 C :   -0.009744
  47 C :   -0.053164
  48 C :    0.003078
  49 C :   -0.013578
  50 C :    0.052565
  51 C :   -0.110741
  52 C :    0.063124
  53 C :   -0.152371
  54 C :   -0.018586
  55 N :   -0.063031
  56 C :   -0.040416
  57 N :   -0.051963
  58 C :   -0.014104
  59 C :   -0.050555
  60 C :    0.081766
  61 O :   -0.152855
  62 C :    0.019819
  63 C :   -0.036301
  64 C :   -0.144262
  65 C :   -0.014986
  66 S :    0.425896
  67 C :   -0.275187
  68 C :   -0.070074
  69 Br:    0.130090
  70 H :    0.039736
  71 H :    0.040709
  72 H :    0.038241
  73 H :    0.032809
  74 H :    0.039999
  75 H :    0.040825
  76 H :    0.036479
  77 H :    0.035830
  78 H :    0.039504
  79 H :    0.039166
  80 H :    0.105946
  81 H :    0.025119
  82 H :    0.021221
  83 H :    0.016772
  84 H :    0.029307
  85 H :    0.034156
  86 H :    0.032641
  87 H :    0.032144
  88 H :    0.047607
  89 H :    0.040149
  90 H :    0.040156
  91 H :    0.038070

  Mayer bond orders larger than 0.100000
B(  0-C ,  1-C ) :   1.5856 B(  0-C ,  6-C ) :   0.9954 B(  0-C , 18-C ) :   1.1002
B(  1-C ,  2-C ) :   1.1439 B(  1-C ,  4-C ) :   1.1748 B(  2-C ,  3-N ) :   2.9672
B(  4-C ,  5-N ) :   2.8658 B(  6-C ,  7-C ) :   1.2770 B(  6-C , 11-C ) :   1.4173
B(  7-C ,  8-C ) :   1.4303 B(  7-C , 16-C ) :   0.9393 B(  8-C ,  9-C ) :   1.2406
B(  8-C , 70-H ) :   1.0156 B(  9-C , 10-C ) :   1.3115 B(  9-C , 14-C ) :   1.1614
B( 10-C , 11-C ) :   1.3258 B( 10-C , 12-S ) :   1.0850 B( 11-C , 71-H ) :   0.9782
B( 12-S , 13-C ) :   1.0870 B( 13-C , 14-C ) :   1.6190 B( 13-C , 15-Br) :   1.0165
B( 14-C , 72-H ) :   0.9999 B( 16-C , 17-O ) :   2.1809 B( 16-C , 18-C ) :   0.9610
B( 18-C , 19-C ) :   1.4956 B( 19-C , 20-C ) :   1.2452 B( 19-C , 73-H ) :   0.9515
B( 20-C , 21-C ) :   1.4365 B( 20-C , 74-H ) :   0.9721 B( 21-C , 22-C ) :   1.1663
B( 21-C , 25-S ) :   1.0786 B( 22-C , 23-C ) :   1.5616 B( 22-C , 75-H ) :   1.0027
B( 23-C , 24-C ) :   1.1981 B( 23-C , 76-H ) :   0.9932 B( 24-C , 25-S ) :   1.0451
B( 24-C , 26-C ) :   1.4961 B( 26-C , 27-C ) :   1.1777 B( 26-C , 30-S ) :   1.0675
B( 27-C , 28-C ) :   1.6030 B( 27-C , 77-H ) :   0.9924 B( 28-C , 29-C ) :   1.1328
B( 28-C , 78-H ) :   0.9988 B( 29-C , 30-S ) :   1.0313 B( 29-C , 31-C ) :   1.6251
B( 31-C , 32-C ) :   1.1374 B( 31-C , 79-H ) :   0.9552 B( 32-C , 33-S ) :   1.1258
B( 32-C , 39-C ) :   1.4563 B( 33-S , 34-C ) :   1.1186 B( 34-C , 35-C ) :   1.0005
B( 34-C , 38-C ) :   1.4564 B( 35-C , 36-O ) :   2.0796 B( 35-C , 37-O ) :   1.2920
B( 37-O , 80-H ) :   0.9409 B( 38-C , 39-C ) :   1.2942 B( 38-C , 40-C ) :   1.0784
B( 39-C , 81-H ) :   0.9785 B( 40-C , 41-S ) :   1.2451 B( 40-C , 42-C ) :   0.1050
B( 40-C , 44-C ) :   1.2977 B( 41-S , 42-C ) :   1.1228 B( 42-C , 43-C ) :   1.2479
B( 42-C , 50-C ) :   1.2247 B( 43-C , 44-C ) :   1.2458 B( 43-C , 49-C ) :   1.2237
B( 44-C , 45-C ) :   1.1825 B( 45-C , 46-C ) :   1.5289 B( 45-C , 82-H ) :   0.9906
B( 46-C , 47-C ) :   1.0509 B( 46-C , 48-C ) :   1.2389 B( 47-C , 83-H ) :   0.9511
B( 47-C , 84-H ) :   0.9387 B( 47-C , 85-H ) :   0.9437 B( 48-C , 49-C ) :   1.5224
B( 48-C , 86-H ) :   0.9879 B( 49-C , 87-H ) :   0.9913 B( 50-C , 51-C ) :   1.5824
B( 50-C , 88-H ) :   0.9385 B( 51-C , 52-C ) :   1.0509 B( 51-C , 60-C ) :   0.9592
B( 52-C , 53-C ) :   1.6332 B( 52-C , 58-C ) :   1.0108 B( 53-C , 54-C ) :   1.1376
B( 53-C , 56-C ) :   1.1580 B( 54-C , 55-N ) :   2.9889 B( 56-C , 57-N ) :   3.0243
B( 58-C , 59-C ) :   1.2786 B( 58-C , 65-C ) :   1.4205 B( 59-C , 60-C ) :   0.9193
B( 59-C , 62-C ) :   1.4306 B( 60-C , 61-O ) :   2.2443 B( 62-C , 63-C ) :   1.2473
B( 62-C , 89-H ) :   1.0173 B( 63-C , 64-C ) :   1.3159 B( 63-C , 68-C ) :   1.1593
B( 64-C , 65-C ) :   1.3196 B( 64-C , 66-S ) :   1.0804 B( 65-C , 90-H ) :   0.9851
B( 66-S , 67-C ) :   1.0847 B( 67-C , 68-C ) :   1.6226 B( 67-C , 69-Br) :   1.0136
B( 68-C , 91-H ) :   1.0010

-----------------------------------------------------------------------------
         ABSORPTION SPECTRUM VIA TRANSITION ELECTRIC DIPOLE MOMENTS
-----------------------------------------------------------------------------
State   Energy  Wavelength   fosc         T2         TX        TY        TZ
        (cm-1)    (nm)                  (au**2)     (au)      (au)      (au)
-----------------------------------------------------------------------------
   0   12390.4    807.1   1.160352233  30.83041   0.16641   1.80878  -5.24700
   1   14028.6    712.8   0.112768818   2.64637  -0.60608  -0.06279   1.50834
   2   16777.9    596.0   0.574115721  11.26517  -2.25229   2.43193   0.52735
   3   20429.5    489.5   0.072933347   1.17529  -0.36000   0.82829   0.59969
   4   22283.4    448.8   0.070166673   1.03663  -0.12011   0.48080   0.88940
   5   23939.1    417.7   0.167868717   2.30854  -0.22931   1.10950  -1.01240
   6   24157.4    414.0   0.398021553   5.42416  -0.61816   1.22572   1.88140
   7   24500.6    408.2   0.041954981   0.56374   0.34092  -0.37485  -0.55408
   8   24915.9    401.3   0.053364867   0.70511   0.28854   0.02561  -0.78816
   9   25592.5    390.7   0.017211624   0.22140   0.28661  -0.08724   0.36284
  10   26517.3    377.1   0.431972357   5.36293   0.22188  -2.29863  -0.17318
  11   26614.0    375.7   0.181237425   2.24189  -0.17121   1.47056   0.22369
  12   26921.8    371.4   0.175176175   2.14214  -0.10112   1.45218  -0.15190
  13   27567.1    362.8   0.038200348   0.45620   0.29966   0.24064  -0.55542
  14   27892.8    358.5   0.015734592   0.18571   0.12733  -0.04328  -0.40942
  15   28052.1    356.5   0.195919886   2.29926   0.43216  -0.70937  -1.26858
  16   28807.6    347.1   0.004613175   0.05272   0.04809  -0.03163   0.22227
  17   29775.9    335.8   0.153063772   1.69232  -0.38398   0.11643   1.23747
  18   29979.4    333.6   0.011980604   0.13156   0.05821  -0.30974  -0.17954
  19   30487.9    328.0   0.009446584   0.10201   0.09063  -0.30503  -0.02738
  20   30660.4    326.2   0.025628350   0.27518   0.29329  -0.42221  -0.10444
  21   31073.6    321.8   0.081041821   0.85860  -0.03046  -0.80718   0.45401
  22   31662.2    315.8   0.578190845   6.01182  -0.41396  -0.90490   2.24089
  23   31958.6    312.9   0.022454316   0.23131   0.07799  -0.24251   0.40794
  24   32010.2    312.4   0.196635927   2.02232   0.57491   0.08680  -1.29779
  25   32323.8    309.4   0.053871232   0.54867   0.20773  -0.46093  -0.54135
  26   32421.6    308.4   0.014603229   0.14828  -0.12878  -0.03427   0.36128
  27   32498.8    307.7   0.015604627   0.15807  -0.26125  -0.17242   0.24515
  28   32590.7    306.8   0.048588981   0.49082  -0.08370  -0.67904  -0.15072
  29   32961.7    303.4   0.115353333   1.15212   0.14960  -1.00528  -0.34518
  30   33256.6    300.7   0.250049730   2.47528   0.36027  -0.58966  -1.41343
  31   33673.0    297.0   0.126265523   1.23447  -0.07854  -0.24863   1.08004
  32   33894.8    295.0   0.400479418   3.88976   0.08212  -1.41984  -1.36640
  33   34465.5    290.1   0.017128622   0.16361  -0.11846  -0.14716  -0.35766
  34   35184.1    284.2   0.035586316   0.33298   0.26013   0.09999  -0.50528
  35   35387.7    282.6   0.004555342   0.04238   0.18568  -0.07065   0.05395
  36   35585.9    281.0   0.009702487   0.08976   0.02621  -0.25979  -0.14691
  37   35701.2    280.1   0.116930988   1.07826  -0.23285   0.90772   0.44730
  38   35807.0    279.3   0.006970038   0.06408   0.02605   0.10015   0.23103
  39   35905.6    278.5   0.009226939   0.08460  -0.06610   0.28207  -0.02579
  40   35977.4    278.0   0.037410428   0.34232   0.11027  -0.54783   0.17333
  41   36287.2    275.6   0.018780208   0.17038   0.16274  -0.29441   0.23920
  42   36758.7    272.0   0.092120229   0.82503  -0.16808   0.65185  -0.60981
  43   36958.7    270.6   0.114109704   1.01644  -0.27377  -0.06114   0.96838
  44   37514.5    266.6   0.021726557   0.19066  -0.03973  -0.39792   0.17533
  45   38047.8    262.8   0.154516731   1.33697  -0.33289   0.92154   0.61393
  46   38556.8    259.4   0.128660769   1.09855   0.00626  -1.04386   0.09421
  47   38668.3    258.6   0.057825319   0.49231   0.39477  -0.22980  -0.53260
  48   38873.1    257.2   0.041080347   0.34790  -0.17217   0.03046   0.56333
  49   39235.0    254.9   0.057003775   0.47831   0.03582  -0.56549   0.39654
  50   39515.4    253.1   0.056763420   0.47291   0.04431   0.22057  -0.64984
  51   39823.5    251.1   0.034872823   0.28829   0.13644   0.34579   0.38742
  52   40030.2    249.8   0.198630734   1.63356   0.47659   0.44758  -1.09822
  53   40219.4    248.6   0.006304924   0.05161   0.05979   0.21155   0.05726

FINAL SINGLE POINT ENERGY    -10123.896944084576

DIPOLE MOMENT
-------------
                                X             Y             Z
Electronic contribution:     35.67707    -117.75290      -0.10681
Nuclear contribution   :    -39.27700     120.99012       0.98810
                        -----------------------------------------
Total Dipole Moment    :     -3.59993       3.23722       0.88129
                        -----------------------------------------
Magnitude (a.u.)       :      4.92095
Magnitude (Debye)      :     12.50807

Rotational constants in cm-1:     0.000953     0.000230     0.000189
Rotational constants in MHz :    28.558428     6.891119     5.657958

                             ****ORCA TERMINATED NORMALLY****
TOTAL RUN TIME: 0 days 0 hours 10 minutes 21 seconds 429 msec
