                         Program Version 4.2.0 -  RELEASE  -
|  1> # ORCA input file
|  2> # SCF done       -198.440622498469          0.000733274316
|  3> ! CAM-B3LYP def2-SVP def2/J RIJCOSX Grid4 TightSCF
|  4> %maxcore 5000
|  5> %tddft
|  6>     Mode sTDDFT
|  7>     Ethresh 5.0
|  8>     maxcore 5000
|  9> end
| 10>
| 11> %pal
| 12>   nprocs 6
| 13>   end
| 14> * xyz 0 1
| 15>    C       -1.26644         3.22219         5.88923
| 16>    C       -0.08901         3.92088         5.83010
| 17>    C        1.01485         3.70219         6.67907
| 18>    N        1.94648         3.59166         7.34143
| 19>    C        0.17466         4.99649         4.96137
| 20>    N        0.48783         5.89476         4.31545
| 21>    C       -1.57515         2.15515         6.83108
| 22>    C       -2.93063         1.78174         6.66241
| 23>    C       -3.52034         0.78770         7.40340
| 24>    C       -2.73564         0.13352         8.35993
| 25>    C       -1.38178         0.51244         8.51929
| 26>    C       -0.78413         1.51636         7.76732
| 27>    S       -0.59374        -0.43283         9.74675
| 28>    C       -2.07398        -1.31022        10.02621
| 29>    C       -3.10616        -0.91784         9.24238
| 30>   Br       -2.11687        -2.66325        11.32456
| 31>    C       -3.53198         2.59351         5.58378
| 32>    O       -4.64967         2.46248         5.12439
| 33>    C       -2.45721         3.48391         5.10808
| 34>    C       -2.51587         4.28714         4.00189
| 35>    C       -3.65250         4.79776         3.34307
| 36>    S       -3.49563         5.14639         1.63911
| 37>    C       -5.09044         5.82994         1.57083
| 38>    C       -5.68735         5.82272         2.82484
| 39>    C       -4.88391         5.23987         3.82114
| 40>    C       -5.30224         5.20243         5.24655
| 41>    C       -6.38702         6.23215         5.53159
| 42>    C       -7.53362         6.05542         4.54195
| 43>    N       -8.66521         6.86403         4.95434
| 44>    C       -7.03981         6.39129         3.12062
| 45>    C       -5.53218         6.28558         0.29390
| 46>    C       -6.65065         6.98229         0.01596
| 47>    N       -6.97334         7.37974        -1.25791
| 48>    C       -8.01736         8.18158        -1.59563
| 49>    S       -8.72963         7.97086        -3.17036
| 50>    C       -9.95686         9.12979        -2.76561
| 51>    N      -10.91017         9.44115        -3.73700
| 52>    O      -11.77297        10.24971        -3.44472
| 53>    O      -10.80469         8.87292        -4.81172
| 54>    C       -9.81773         9.63450        -1.50124
| 55>    C       -8.69200         9.13371        -0.81902
| 56>    C       -8.30264         9.69397         0.45649
| 57>    C       -7.03523         9.80805         0.89680
| 58>    C       -6.59308        10.39094         2.12409
| 59>    S       -4.94633        10.08509         2.58098
| 60>    C       -5.10683        11.03225         4.02639
| 61>    C       -6.40468        11.54792         4.13652
| 62>    C       -7.24340        11.18884         3.05475
| 63>    C       -8.61891        11.68041         2.84584
| 64>    C       -8.90373        12.66879         2.01433
| 65>    O       -6.69328        12.32802         5.19725
| 66>    C       -8.03408        12.50619         5.60257
| 67>    C       -4.00378        11.13995         4.90007
| 68>    C       -3.91964        11.93603         6.00169
| 69>    C       -2.79517        12.00335         6.85430
| 70>    C       -1.77582        11.11425         7.05112
| 71>    C       -1.58357         9.72197         6.72312
| 72>    C       -2.54419         8.74770         6.58892
| 73>    C       -2.26591         7.37508         6.46004
| 74>    N       -2.13700         6.23647         6.36494
| 75>    C       -3.93101         8.97056         6.65766
| 76>    N       -5.07523         9.06318         6.70597
| 77>    C       -0.15653         9.44416         6.83005
| 78>    C        0.48229        10.54589         7.45154
| 79>    C       -0.51966        11.60381         7.68853
| 80>    O       -0.36256        12.66682         8.24461
| 81>    C        1.82884        10.55309         7.72264
| 82>    C        2.57681         9.42856         7.35191
| 83>    C        1.93106         8.34788         6.70278
| 84>    C        0.56883         8.33977         6.43307
| 85>    S        3.03984         7.07383         6.30574
| 86>    C        4.34089         7.99175         7.01475
| 87>    C        3.96802         9.19304         7.51930
| 88>   Br        6.07472         7.28482         7.01723
| 89>    H       -4.55455         0.52079         7.25205
| 90>    H        0.25340         1.76475         7.91818
| 91>    H       -4.08838        -1.35220         9.28240
| 92>    H       -1.57435         4.55872         3.53747
| 93>    H       -4.43276         5.35001         5.89240
| 94>    H       -5.69117         4.19943         5.45836
| 95>    H       -5.98443         7.24420         5.44937
| 96>    H       -6.76514         6.10581         6.54543
| 97>    H       -7.86234         5.00942         4.56427
| 98>    H       -8.38881         7.83720         5.03280
| 99>    H       -9.42363         6.79748         4.28466
|100>    H       -6.98985         7.48343         3.01732
|101>    H       -7.76433         6.01569         2.39165
|102>    H       -4.86134         6.05046        -0.52364
|103>    H       -7.35637         7.28485         0.76639
|104>    H       -6.46652         6.94395        -2.01829
|105>    H      -10.48670        10.37450        -1.10015
|106>    H       -9.11197        10.11942         1.03058
|107>    H       -6.22820         9.41164         0.29521
|108>    H       -9.40265        11.18475         3.40728
|109>    H       -8.13573        13.16902         1.44963
|110>    H       -9.91274        13.01377         1.86718
|111>    H       -7.97865        13.06008         6.53856
|112>    H       -8.52163        11.54504         5.78397
|113>    H       -8.60605        13.08288         4.87158
|114>    H       -3.13981        10.55264         4.61186
|115>    H       -4.72649        12.62150         6.20830
|116>    H       -2.67586        12.93090         7.40741
|117>    H        2.29469        11.39882         8.20357
|118>    H        0.12606         7.51337         5.90292
|119>    H        4.64464         9.88351         7.98879
|120> *
|121>
|122>                          ****END OF INPUT****

CARTESIAN COORDINATES (ANGSTROEM)
---------------------------------
  C     -1.266440    3.222190    5.889230
  C     -0.089010    3.920880    5.830100
  C      1.014850    3.702190    6.679070
  N      1.946480    3.591660    7.341430
  C      0.174660    4.996490    4.961370
  N      0.487830    5.894760    4.315450
  C     -1.575150    2.155150    6.831080
  C     -2.930630    1.781740    6.662410
  C     -3.520340    0.787700    7.403400
  C     -2.735640    0.133520    8.359930
  C     -1.381780    0.512440    8.519290
  C     -0.784130    1.516360    7.767320
  S     -0.593740   -0.432830    9.746750
  C     -2.073980   -1.310220   10.026210
  C     -3.106160   -0.917840    9.242380
  Br    -2.116870   -2.663250   11.324560
  C     -3.531980    2.593510    5.583780
  O     -4.649670    2.462480    5.124390
  C     -2.457210    3.483910    5.108080
  C     -2.515870    4.287140    4.001890
  C     -3.652500    4.797760    3.343070
  S     -3.495630    5.146390    1.639110
  C     -5.090440    5.829940    1.570830
  C     -5.687350    5.822720    2.824840
  C     -4.883910    5.239870    3.821140
  C     -5.302240    5.202430    5.246550
  C     -6.387020    6.232150    5.531590
  C     -7.533620    6.055420    4.541950
  N     -8.665210    6.864030    4.954340
  C     -7.039810    6.391290    3.120620
  C     -5.532180    6.285580    0.293900
  C     -6.650650    6.982290    0.015960
  N     -6.973340    7.379740   -1.257910
  C     -8.017360    8.181580   -1.595630
  S     -8.729630    7.970860   -3.170360
  C     -9.956860    9.129790   -2.765610
  N    -10.910170    9.441150   -3.737000
  O    -11.772970   10.249710   -3.444720
  O    -10.804690    8.872920   -4.811720
  C     -9.817730    9.634500   -1.501240
  C     -8.692000    9.133710   -0.819020
  C     -8.302640    9.693970    0.456490
  C     -7.035230    9.808050    0.896800
  C     -6.593080   10.390940    2.124090
  S     -4.946330   10.085090    2.580980
  C     -5.106830   11.032250    4.026390
  C     -6.404680   11.547920    4.136520
  C     -7.243400   11.188840    3.054750
  C     -8.618910   11.680410    2.845840
  C     -8.903730   12.668790    2.014330
  O     -6.693280   12.328020    5.197250
  C     -8.034080   12.506190    5.602570
  C     -4.003780   11.139950    4.900070
  C     -3.919640   11.936030    6.001690
  C     -2.795170   12.003350    6.854300
  C     -1.775820   11.114250    7.051120
  C     -1.583570    9.721970    6.723120
  C     -2.544190    8.747700    6.588920
  C     -2.265910    7.375080    6.460040
  N     -2.137000    6.236470    6.364940
  C     -3.931010    8.970560    6.657660
  N     -5.075230    9.063180    6.705970
  C     -0.156530    9.444160    6.830050
  C      0.482290   10.545890    7.451540
  C     -0.519660   11.603810    7.688530
  O     -0.362560   12.666820    8.244610
  C      1.828840   10.553090    7.722640
  C      2.576810    9.428560    7.351910
  C      1.931060    8.347880    6.702780
  C      0.568830    8.339770    6.433070
  S      3.039840    7.073830    6.305740
  C      4.340890    7.991750    7.014750
  C      3.968020    9.193040    7.519300
  Br     6.074720    7.284820    7.017230
  H     -4.554550    0.520790    7.252050
  H      0.253400    1.764750    7.918180
  H     -4.088380   -1.352200    9.282400
  H     -1.574350    4.558720    3.537470
  H     -4.432760    5.350010    5.892400
  H     -5.691170    4.199430    5.458360
  H     -5.984430    7.244200    5.449370
  H     -6.765140    6.105810    6.545430
  H     -7.862340    5.009420    4.564270
  H     -8.388810    7.837200    5.032800
  H     -9.423630    6.797480    4.284660
  H     -6.989850    7.483430    3.017320
  H     -7.764330    6.015690    2.391650
  H     -4.861340    6.050460   -0.523640
  H     -7.356370    7.284850    0.766390
  H     -6.466520    6.943950   -2.018290
  H    -10.486700   10.374500   -1.100150
  H     -9.111970   10.119420    1.030580
  H     -6.228200    9.411640    0.295210
  H     -9.402650   11.184750    3.407280
  H     -8.135730   13.169020    1.449630
  H     -9.912740   13.013770    1.867180
  H     -7.978650   13.060080    6.538560
  H     -8.521630   11.545040    5.783970
  H     -8.606050   13.082880    4.871580
  H     -3.139810   10.552640    4.611860
  H     -4.726490   12.621500    6.208300
  H     -2.675860   12.930900    7.407410
  H      2.294690   11.398820    8.203570
  H      0.126060    7.513370    5.902920
  H      4.644640    9.883510    7.988790

 Total Charge           Charge          ....    0
 Multiplicity           Mult            ....    1
 Number of Electrons    NEL             ....  600
 Basis Dimension        Dim             .... 1247

ORBITAL ENERGIES
----------------

  NO   OCC          E(Eh)            E(eV)
   0   2.0000    -482.880686    -13139.8515
   1   2.0000    -482.873558    -13139.6575
   2   2.0000     -88.988891     -2421.5108
   3   2.0000     -88.970450     -2421.0090
   4   2.0000     -88.968858     -2420.9657
   5   2.0000     -88.962047     -2420.7804
   6   2.0000     -88.955298     -2420.5967
   7   2.0000     -62.558377     -1702.3000
   8   2.0000     -62.551292     -1702.1072
   9   2.0000     -56.392317     -1534.5130
  10   2.0000     -56.389620     -1534.4396
  11   2.0000     -56.389587     -1534.4387
  12   2.0000     -56.385213     -1534.3196
  13   2.0000     -56.382519     -1534.2463
  14   2.0000     -56.382514     -1534.2462
  15   2.0000     -19.267261      -524.2888
  16   2.0000     -19.239128      -523.5233
  17   2.0000     -19.238318      -523.5013
  18   2.0000     -19.204720      -522.5870
  19   2.0000     -19.204618      -522.5842
  20   2.0000     -14.650843      -398.6697
  21   2.0000     -14.490604      -394.3094
  22   2.0000     -14.414567      -392.2403
  23   2.0000     -14.413240      -392.2042
  24   2.0000     -14.411636      -392.1605
  25   2.0000     -14.406980      -392.0338
  26   2.0000     -14.376762      -391.2116
  27   2.0000     -10.377191      -282.3777
  28   2.0000     -10.357331      -281.8373
  29   2.0000     -10.355789      -281.7953
  30   2.0000     -10.354985      -281.7735
  31   2.0000     -10.352679      -281.7107
  32   2.0000     -10.345914      -281.5266
  33   2.0000     -10.345814      -281.5239
  34   2.0000     -10.339557      -281.3536
  35   2.0000     -10.337075      -281.2861
  36   2.0000     -10.335108      -281.2326
  37   2.0000     -10.333757      -281.1958
  38   2.0000     -10.329995      -281.0935
  39   2.0000     -10.329311      -281.0748
  40   2.0000     -10.326668      -281.0029
  41   2.0000     -10.320677      -280.8399
  42   2.0000     -10.318147      -280.7711
  43   2.0000     -10.317863      -280.7633
  44   2.0000     -10.316114      -280.7157
  45   2.0000     -10.315398      -280.6962
  46   2.0000     -10.314591      -280.6743
  47   2.0000     -10.312404      -280.6148
  48   2.0000     -10.310481      -280.5624
  49   2.0000     -10.310385      -280.5599
  50   2.0000     -10.307579      -280.4835
  51   2.0000     -10.307215      -280.4736
  52   2.0000     -10.305805      -280.4352
  53   2.0000     -10.305252      -280.4202
  54   2.0000     -10.301778      -280.3256
  55   2.0000     -10.301539      -280.3191
  56   2.0000     -10.301382      -280.3148
  57   2.0000     -10.300639      -280.2946
  58   2.0000     -10.300547      -280.2921
  59   2.0000     -10.300032      -280.2781
  60   2.0000     -10.298399      -280.2337
  61   2.0000     -10.297988      -280.2225
  62   2.0000     -10.297739      -280.2157
  63   2.0000     -10.296116      -280.1716
  64   2.0000     -10.296055      -280.1699
  65   2.0000     -10.292633      -280.0768
  66   2.0000     -10.291021      -280.0329
  67   2.0000     -10.290691      -280.0239
  68   2.0000     -10.290576      -280.0208
  69   2.0000     -10.288092      -279.9532
  70   2.0000     -10.287253      -279.9304
  71   2.0000     -10.285655      -279.8869
  72   2.0000     -10.285104      -279.8719
  73   2.0000     -10.284311      -279.8503
  74   2.0000     -10.283228      -279.8209
  75   2.0000     -10.283126      -279.8181
  76   2.0000     -10.282166      -279.7920
  77   2.0000     -10.280185      -279.7381
  78   2.0000     -10.276615      -279.6409
  79   2.0000     -10.270396      -279.4717
  80   2.0000     -10.251214      -278.9497
  81   2.0000     -10.243727      -278.7460
  82   2.0000      -8.787800      -239.1282
  83   2.0000      -8.780778      -238.9371
  84   2.0000      -8.084854      -220.0001
  85   2.0000      -8.066050      -219.4884
  86   2.0000      -8.064925      -219.4578
  87   2.0000      -8.057702      -219.2612
  88   2.0000      -8.051501      -219.0925
  89   2.0000      -6.624029      -180.2490
  90   2.0000      -6.617046      -180.0590
  91   2.0000      -6.609560      -179.8553
  92   2.0000      -6.609376      -179.8503
  93   2.0000      -6.602551      -179.6646
  94   2.0000      -6.602323      -179.6583
  95   2.0000      -6.054535      -164.7523
  96   2.0000      -6.050146      -164.6328
  97   2.0000      -6.046187      -164.5251
  98   2.0000      -6.035177      -164.2255
  99   2.0000      -6.034616      -164.2102
 100   2.0000      -6.031375      -164.1221
 101   2.0000      -6.030357      -164.0944
 102   2.0000      -6.028120      -164.0335
 103   2.0000      -6.027419      -164.0144
 104   2.0000      -6.026116      -163.9789
 105   2.0000      -6.022980      -163.8936
 106   2.0000      -6.020744      -163.8328
 107   2.0000      -6.019002      -163.7854
 108   2.0000      -6.016838      -163.7265
 109   2.0000      -6.013351      -163.6316
 110   2.0000      -2.739958       -74.5580
 111   2.0000      -2.735826       -74.4456
 112   2.0000      -2.735702       -74.4422
 113   2.0000      -2.732882       -74.3655
 114   2.0000      -2.728903       -74.2572
 115   2.0000      -2.728710       -74.2520
 116   2.0000      -2.724181       -74.1287
 117   2.0000      -2.724179       -74.1287
 118   2.0000      -2.717196       -73.9387
 119   2.0000      -2.717164       -73.9378
 120   2.0000      -1.319583       -35.9077
 121   2.0000      -1.171400       -31.8754
 122   2.0000      -1.138702       -30.9857
 123   2.0000      -1.119899       -30.4740
 124   2.0000      -1.118793       -30.4439
 125   2.0000      -1.095705       -29.8156
 126   2.0000      -1.017291       -27.6819
 127   2.0000      -1.015001       -27.6196
 128   2.0000      -1.009436       -27.4681
 129   2.0000      -1.007863       -27.4253
 130   2.0000      -1.005817       -27.3697
 131   2.0000      -1.002173       -27.2705
 132   2.0000      -0.994992       -27.0751
 133   2.0000      -0.993222       -27.0269
 134   2.0000      -0.988911       -26.9096
 135   2.0000      -0.981570       -26.7099
 136   2.0000      -0.980526       -26.6815
 137   2.0000      -0.966923       -26.3113
 138   2.0000      -0.936216       -25.4757
 139   2.0000      -0.935316       -25.4512
 140   2.0000      -0.929595       -25.2956
 141   2.0000      -0.918029       -24.9808
 142   2.0000      -0.913416       -24.8553
 143   2.0000      -0.901833       -24.5401
 144   2.0000      -0.900933       -24.5156
 145   2.0000      -0.898901       -24.4603
 146   2.0000      -0.895496       -24.3677
 147   2.0000      -0.890546       -24.2330
 148   2.0000      -0.880576       -23.9617
 149   2.0000      -0.878328       -23.9005
 150   2.0000      -0.874790       -23.8042
 151   2.0000      -0.872500       -23.7419
 152   2.0000      -0.865606       -23.5543
 153   2.0000      -0.851557       -23.1720
 154   2.0000      -0.845363       -23.0035
 155   2.0000      -0.838985       -22.8299
 156   2.0000      -0.830566       -22.6009
 157   2.0000      -0.821747       -22.3609
 158   2.0000      -0.818454       -22.2713
 159   2.0000      -0.808844       -22.0098
 160   2.0000      -0.806085       -21.9347
 161   2.0000      -0.795169       -21.6376
 162   2.0000      -0.789751       -21.4902
 163   2.0000      -0.775335       -21.0979
 164   2.0000      -0.764432       -20.8012
 165   2.0000      -0.757356       -20.6087
 166   2.0000      -0.750286       -20.4163
 167   2.0000      -0.748888       -20.3783
 168   2.0000      -0.727784       -19.8040
 169   2.0000      -0.724671       -19.7193
 170   2.0000      -0.714441       -19.4409
 171   2.0000      -0.709191       -19.2981
 172   2.0000      -0.699326       -19.0296
 173   2.0000      -0.694766       -18.9055
 174   2.0000      -0.687753       -18.7147
 175   2.0000      -0.682845       -18.5812
 176   2.0000      -0.679424       -18.4881
 177   2.0000      -0.678001       -18.4494
 178   2.0000      -0.674805       -18.3624
 179   2.0000      -0.660584       -17.9754
 180   2.0000      -0.658346       -17.9145
 181   2.0000      -0.653924       -17.7942
 182   2.0000      -0.650723       -17.7071
 183   2.0000      -0.648547       -17.6479
 184   2.0000      -0.640926       -17.4405
 185   2.0000      -0.638372       -17.3710
 186   2.0000      -0.633234       -17.2312
 187   2.0000      -0.632022       -17.1982
 188   2.0000      -0.625404       -17.0181
 189   2.0000      -0.619207       -16.8495
 190   2.0000      -0.616487       -16.7755
 191   2.0000      -0.614310       -16.7162
 192   2.0000      -0.606529       -16.5045
 193   2.0000      -0.605820       -16.4852
 194   2.0000      -0.593175       -16.1411
 195   2.0000      -0.590987       -16.0816
 196   2.0000      -0.589072       -16.0295
 197   2.0000      -0.587243       -15.9797
 198   2.0000      -0.581333       -15.8189
 199   2.0000      -0.578374       -15.7384
 200   2.0000      -0.573589       -15.6082
 201   2.0000      -0.572746       -15.5852
 202   2.0000      -0.572057       -15.5665
 203   2.0000      -0.567063       -15.4306
 204   2.0000      -0.559879       -15.2351
 205   2.0000      -0.557575       -15.1724
 206   2.0000      -0.549005       -14.9392
 207   2.0000      -0.542691       -14.7674
 208   2.0000      -0.539309       -14.6754
 209   2.0000      -0.538070       -14.6416
 210   2.0000      -0.537463       -14.6251
 211   2.0000      -0.533555       -14.5188
 212   2.0000      -0.531806       -14.4712
 213   2.0000      -0.529783       -14.4161
 214   2.0000      -0.529623       -14.4118
 215   2.0000      -0.528006       -14.3678
 216   2.0000      -0.523641       -14.2490
 217   2.0000      -0.522282       -14.2120
 218   2.0000      -0.519336       -14.1319
 219   2.0000      -0.517786       -14.0897
 220   2.0000      -0.517598       -14.0846
 221   2.0000      -0.513009       -13.9597
 222   2.0000      -0.510564       -13.8932
 223   2.0000      -0.504417       -13.7259
 224   2.0000      -0.503607       -13.7038
 225   2.0000      -0.502464       -13.6727
 226   2.0000      -0.501115       -13.6360
 227   2.0000      -0.498101       -13.5540
 228   2.0000      -0.495625       -13.4866
 229   2.0000      -0.493227       -13.4214
 230   2.0000      -0.489366       -13.3163
 231   2.0000      -0.488306       -13.2875
 232   2.0000      -0.486583       -13.2406
 233   2.0000      -0.486243       -13.2313
 234   2.0000      -0.485189       -13.2027
 235   2.0000      -0.483195       -13.1484
 236   2.0000      -0.482042       -13.1170
 237   2.0000      -0.474064       -12.8999
 238   2.0000      -0.470350       -12.7989
 239   2.0000      -0.468967       -12.7612
 240   2.0000      -0.466669       -12.6987
 241   2.0000      -0.465060       -12.6549
 242   2.0000      -0.460490       -12.5306
 243   2.0000      -0.459015       -12.4904
 244   2.0000      -0.453178       -12.3316
 245   2.0000      -0.452517       -12.3136
 246   2.0000      -0.450643       -12.2626
 247   2.0000      -0.449394       -12.2286
 248   2.0000      -0.448553       -12.2057
 249   2.0000      -0.448065       -12.1925
 250   2.0000      -0.445765       -12.1299
 251   2.0000      -0.442641       -12.0449
 252   2.0000      -0.440760       -11.9937
 253   2.0000      -0.437648       -11.9090
 254   2.0000      -0.436618       -11.8810
 255   2.0000      -0.435964       -11.8632
 256   2.0000      -0.432483       -11.7685
 257   2.0000      -0.430962       -11.7271
 258   2.0000      -0.429439       -11.6856
 259   2.0000      -0.427920       -11.6443
 260   2.0000      -0.425885       -11.5889
 261   2.0000      -0.423144       -11.5143
 262   2.0000      -0.419929       -11.4269
 263   2.0000      -0.417072       -11.3491
 264   2.0000      -0.415955       -11.3187
 265   2.0000      -0.411810       -11.2059
 266   2.0000      -0.409660       -11.1474
 267   2.0000      -0.406874       -11.0716
 268   2.0000      -0.401875       -10.9356
 269   2.0000      -0.401167       -10.9163
 270   2.0000      -0.399133       -10.8610
 271   2.0000      -0.391323       -10.6484
 272   2.0000      -0.387203       -10.5363
 273   2.0000      -0.387045       -10.5320
 274   2.0000      -0.384191       -10.4544
 275   2.0000      -0.380793       -10.3619
 276   2.0000      -0.378932       -10.3113
 277   2.0000      -0.375533       -10.2188
 278   2.0000      -0.373763       -10.1706
 279   2.0000      -0.370050       -10.0696
 280   2.0000      -0.367645       -10.0041
 281   2.0000      -0.362940        -9.8761
 282   2.0000      -0.361393        -9.8340
 283   2.0000      -0.359952        -9.7948
 284   2.0000      -0.355915        -9.6849
 285   2.0000      -0.345254        -9.3948
 286   2.0000      -0.337638        -9.1876
 287   2.0000      -0.328737        -8.9454
 288   2.0000      -0.326152        -8.8750
 289   2.0000      -0.315196        -8.5769
 290   2.0000      -0.313019        -8.5177
 291   2.0000      -0.311295        -8.4708
 292   2.0000      -0.306221        -8.3327
 293   2.0000      -0.303087        -8.2474
 294   2.0000      -0.300163        -8.1678
 295   2.0000      -0.296307        -8.0629
 296   2.0000      -0.286587        -7.7984
 297   2.0000      -0.283279        -7.7084
 298   2.0000      -0.258612        -7.0372
 299   2.0000      -0.247226        -6.7274
 300   0.0000      -0.091697        -2.4952
 301   0.0000      -0.082328        -2.2403
 302   0.0000      -0.061614        -1.6766
 303   0.0000      -0.055894        -1.5210
 304   0.0000      -0.048668        -1.3243

MULLIKEN ATOMIC CHARGES
-----------------------
   0 C :    0.328262
   1 C :   -0.341314
   2 C :   -0.208461
   3 N :    0.151463
   4 C :   -0.148317
   5 N :    0.099020
   6 C :    0.007066
   7 C :   -0.012331
   8 C :   -0.075056
   9 C :    0.115510
  10 C :   -0.090562
  11 C :   -0.023237
  12 S :    0.181091
  13 C :   -0.122704
  14 C :    0.037820
  15 Br:    0.018619
  16 C :    0.138414
  17 O :   -0.164811
  18 C :   -0.062175
  19 C :    0.001918
  20 C :   -0.137726
  21 S :    0.121172
  22 C :   -0.120399
  23 C :   -0.091309
  24 C :   -0.040655
  25 C :    0.112170
  26 C :    0.064546
  27 C :   -0.048661
  28 N :   -0.163635
  29 C :    0.129613
  30 C :    0.030741
  31 C :    0.031589
  32 N :   -0.029055
  33 C :   -0.123504
  34 S :    0.170737
  35 C :   -0.009084
  36 N :    0.280641
  37 O :   -0.254844
  38 O :   -0.267604
  39 C :    0.001988
  40 C :    0.090957
  41 C :   -0.034177
  42 C :    0.045112
  43 C :   -0.135837
  44 S :    0.152362
  45 C :   -0.161285
  46 C :    0.209889
  47 C :   -0.025511
  48 C :   -0.091474
  49 C :    0.022473
  50 O :   -0.308437
  51 C :    0.188139
  52 C :    0.070679
  53 C :   -0.000592
  54 C :    0.050944
  55 C :   -0.137644
  56 C :    0.285672
  57 C :   -0.360462
  58 C :   -0.131243
  59 N :    0.121485
  60 C :   -0.171845
  61 N :    0.139834
  62 C :   -0.012877
  63 C :    0.012682
  64 C :    0.131441
  65 O :   -0.148371
  66 C :   -0.079936
  67 C :    0.109920
  68 C :   -0.083445
  69 C :   -0.001609
  70 S :    0.211737
  71 C :   -0.126031
  72 C :    0.039129
  73 Br:    0.018677
  74 H :   -0.014343
  75 H :   -0.007420
  76 H :   -0.005524
  77 H :    0.028196
  78 H :    0.018301
  79 H :    0.047868
  80 H :    0.002909
  81 H :    0.004396
  82 H :   -0.002494
  83 H :    0.087344
  84 H :    0.080681
  85 H :    0.006096
  86 H :    0.011419
  87 H :   -0.022734
  88 H :    0.047191
  89 H :    0.136715
  90 H :    0.009259
  91 H :   -0.002539
  92 H :    0.007267
  93 H :    0.027688
  94 H :    0.033877
  95 H :    0.031406
  96 H :    0.041289
  97 H :    0.027308
  98 H :    0.038912
  99 H :    0.003173
 100 H :    0.011469
 101 H :    0.022413
 102 H :   -0.012975
 103 H :   -0.026937
 104 H :   -0.007501
Sum of atomic charges:   -0.0000000

LOEWDIN ATOMIC CHARGES
----------------------
   0 C :    0.088425
   1 C :   -0.146272
   2 C :   -0.021453
   3 N :   -0.062629
   4 C :   -0.005970
   5 N :   -0.081841
   6 C :   -0.019001
   7 C :   -0.046009
   8 C :    0.018341
   9 C :   -0.033736
  10 C :   -0.145813
  11 C :   -0.010489
  12 S :    0.428527
  13 C :   -0.273386
  14 C :   -0.070644
  15 Br:    0.132840
  16 C :    0.083720
  17 O :   -0.147723
  18 C :   -0.095272
  19 C :    0.057312
  20 C :   -0.184361
  21 S :    0.432717
  22 C :   -0.147365
  23 C :   -0.063489
  24 C :    0.006042
  25 C :   -0.034090
  26 C :   -0.028007
  27 C :    0.015407
  28 N :   -0.100833
  29 C :   -0.046818
  30 C :   -0.092212
  31 C :    0.036463
  32 N :    0.030434
  33 C :   -0.102599
  34 S :    0.449682
  35 C :   -0.213890
  36 N :    0.274322
  37 O :   -0.220021
  38 O :   -0.232734
  39 C :    0.004850
  40 C :   -0.109120
  41 C :   -0.019888
  42 C :   -0.052762
  43 C :   -0.152062
  44 S :    0.457495
  45 C :   -0.209944
  46 C :    0.049183
  47 C :   -0.096782
  48 C :   -0.025842
  49 C :   -0.022499
  50 O :   -0.082012
  51 C :    0.083419
  52 C :    0.021695
  53 C :   -0.053157
  54 C :    0.069036
  55 C :   -0.104811
  56 C :    0.075323
  57 C :   -0.160673
  58 C :    0.001424
  59 N :   -0.068871
  60 C :   -0.006684
  61 N :   -0.054890
  62 C :   -0.025304
  63 C :   -0.053361
  64 C :    0.083132
  65 O :   -0.148080
  66 C :    0.018595
  67 C :   -0.032346
  68 C :   -0.141228
  69 C :   -0.006478
  70 S :    0.456743
  71 C :   -0.272267
  72 C :   -0.074368
  73 Br:    0.134565
  74 H :    0.039331
  75 H :    0.040381
  76 H :    0.037990
  77 H :    0.041672
  78 H :    0.034661
  79 H :    0.040164
  80 H :    0.017001
  81 H :    0.028758
  82 H :    0.019485
  83 H :    0.049137
  84 H :    0.047646
  85 H :    0.024836
  86 H :    0.025076
  87 H :    0.026641
  88 H :    0.034296
  89 H :    0.092893
  90 H :    0.045526
  91 H :    0.031204
  92 H :    0.029694
  93 H :    0.029614
  94 H :    0.030228
  95 H :    0.027577
  96 H :    0.031830
  97 H :    0.019720
  98 H :    0.020292
  99 H :    0.033299
 100 H :    0.033502
 101 H :    0.045828
 102 H :    0.039768
 103 H :    0.035482
 104 H :    0.036863

  Mayer bond orders larger than 0.100000
B(  0-C ,  1-C ) :   1.6178 B(  0-C ,  6-C ) :   1.0043 B(  0-C , 18-C ) :   1.0845
B(  1-C ,  2-C ) :   1.1470 B(  1-C ,  4-C ) :   1.1597 B(  2-C ,  3-N ) :   2.9679
B(  4-C ,  5-N ) :   2.8476 B(  6-C ,  7-C ) :   1.2707 B(  6-C , 11-C ) :   1.4129
B(  7-C ,  8-C ) :   1.4302 B(  7-C , 16-C ) :   0.9267 B(  8-C ,  9-C ) :   1.2433
B(  8-C , 74-H ) :   1.0155 B(  9-C , 10-C ) :   1.3100 B(  9-C , 14-C ) :   1.1629
B( 10-C , 11-C ) :   1.3273 B( 10-C , 12-S ) :   1.0822 B( 11-C , 75-H ) :   0.9801
B( 12-S , 13-C ) :   1.0858 B( 13-C , 14-C ) :   1.6203 B( 13-C , 15-Br) :   1.0164
B( 14-C , 76-H ) :   0.9996 B( 16-C , 17-O ) :   2.1644 B( 16-C , 18-C ) :   0.9784
B( 18-C , 19-C ) :   1.5616 B( 19-C , 20-C ) :   1.1957 B( 19-C , 77-H ) :   0.9286
B( 20-C , 21-S ) :   1.0815 B( 20-C , 24-C ) :   1.4397 B( 21-S , 22-C ) :   1.1395
B( 22-C , 23-C ) :   1.4742 B( 22-C , 30-C ) :   1.1493 B( 23-C , 24-C ) :   1.3442
B( 23-C , 29-C ) :   1.0309 B( 24-C , 25-C ) :   1.0711 B( 25-C , 26-C ) :   1.0831
B( 25-C , 78-H ) :   0.9007 B( 25-C , 79-H ) :   0.8657 B( 26-C , 27-C ) :   1.0522
B( 26-C , 80-H ) :   0.9213 B( 26-C , 81-H ) :   0.9255 B( 27-C , 28-N ) :   1.1038
B( 27-C , 29-C ) :   1.0077 B( 27-C , 82-H ) :   0.9237 B( 28-N , 83-H ) :   0.9705
B( 28-N , 84-H ) :   0.9727 B( 29-C , 85-H ) :   0.8936 B( 29-C , 86-H ) :   0.8945
B( 30-C , 31-C ) :   1.6878 B( 30-C , 87-H ) :   0.9404 B( 31-C , 32-N ) :   1.1113
B( 31-C , 88-H ) :   0.9460 B( 32-N , 33-C ) :   1.1874 B( 32-N , 89-H ) :   0.9114
B( 33-C , 34-S ) :   1.1391 B( 33-C , 40-C ) :   1.3788 B( 34-S , 35-C ) :   1.0770
B( 35-C , 36-N ) :   0.9764 B( 35-C , 39-C ) :   1.4819 B( 36-N , 37-O ) :   1.5310
B( 36-N , 38-O ) :   1.5071 B( 37-O , 38-O ) :   0.2566 B( 39-C , 40-C ) :   1.2312
B( 39-C , 90-H ) :   1.0083 B( 40-C , 41-C ) :   1.0638 B( 41-C , 42-C ) :   1.7331
B( 41-C , 91-H ) :   0.9558 B( 42-C , 43-C ) :   1.1293 B( 42-C , 92-H ) :   0.9323
B( 43-C , 44-S ) :   1.1443 B( 43-C , 45-C ) :   0.1057 B( 43-C , 47-C ) :   1.4890
B( 44-S , 45-C ) :   1.0978 B( 45-C , 46-C ) :   1.4030 B( 45-C , 52-C ) :   1.2090
B( 46-C , 47-C ) :   1.2590 B( 46-C , 50-O ) :   1.1876 B( 47-C , 48-C ) :   0.9886
B( 48-C , 49-C ) :   2.0106 B( 48-C , 93-H ) :   0.9359 B( 49-C , 94-H ) :   0.9549
B( 49-C , 95-H ) :   0.9585 B( 50-O , 51-C ) :   0.9324 B( 51-C , 96-H ) :   0.9755
B( 51-C , 97-H ) :   0.9718 B( 51-C , 98-H ) :   0.9606 B( 52-C , 53-C ) :   1.6023
B( 52-C , 99-H ) :   0.9378 B( 53-C , 54-C ) :   1.1890 B( 53-C ,100-H ) :   0.9574
B( 54-C , 55-C ) :   1.6069 B( 54-C ,101-H ) :   0.9312 B( 55-C , 56-C ) :   1.0597
B( 55-C , 64-C ) :   0.9497 B( 56-C , 57-C ) :   1.5972 B( 56-C , 62-C ) :   1.0126
B( 57-C , 58-C ) :   1.1492 B( 57-C , 60-C ) :   1.1905 B( 58-C , 59-N ) :   2.8882
B( 60-C , 61-N ) :   2.8848 B( 62-C , 63-C ) :   1.2658 B( 62-C , 69-C ) :   1.4127
B( 63-C , 64-C ) :   0.9184 B( 63-C , 66-C ) :   1.4282 B( 64-C , 65-O ) :   2.2593
B( 66-C , 67-C ) :   1.2470 B( 66-C ,102-H ) :   1.0164 B( 67-C , 68-C ) :   1.3014
B( 67-C , 72-C ) :   1.1694 B( 68-C , 69-C ) :   1.3379 B( 68-C , 70-S ) :   1.0950
B( 69-C ,103-H ) :   0.9728 B( 70-S , 71-C ) :   1.0964 B( 71-C , 72-C ) :   1.6086
B( 71-C , 73-Br) :   1.0172 B( 72-C ,104-H ) :   0.9996

-----------------------------------------------------------------------------
         ABSORPTION SPECTRUM VIA TRANSITION ELECTRIC DIPOLE MOMENTS
-----------------------------------------------------------------------------
State   Energy  Wavelength   fosc         T2         TX        TY        TZ
        (cm-1)    (nm)                  (au**2)     (au)      (au)      (au)
-----------------------------------------------------------------------------
   0   17047.1    586.6   0.126381800   2.44067  -1.09786  -0.63970  -0.90893
   1   20298.5    492.6   1.832225598  29.71605  -3.57191   2.43023  -3.32438
   2   21647.9    461.9   0.076690419   1.16627  -0.63708   0.14165  -0.86043
   3   23583.5    424.0   0.084280120   1.17650  -0.48427  -0.06406  -0.96844
   4   25149.9    397.6   0.132652115   1.73642   0.16826  -1.22218  -0.46301
   5   25790.5    387.7   0.155391116   1.98355  -0.38583   0.37210  -1.30239
   6   26556.1    376.6   0.855209906  10.60191   2.69373   0.03754   1.82875
   7   27225.6    367.3   0.026077433   0.31533   0.37338  -0.35366   0.22549
   8   27976.8    357.4   0.222447006   2.61761   0.71821  -1.09635   0.94857
   9   28723.0    348.2   0.293235713   3.36095   0.92694   1.26206  -0.95339
  10   28915.5    345.8   0.164146230   1.86886   1.11472   0.57817   0.54034
  11   29486.1    339.1   0.058419348   0.65225   0.73804  -0.32682   0.02711
  12   29541.6    338.5   0.027066019   0.30162  -0.07130  -0.53753   0.08717
  13   29687.0    336.8   0.060114011   0.66663   0.20459   0.52607  -0.58994
  14   29852.9    335.0   0.017547626   0.19351   0.05488  -0.13162   0.41614
  15   29920.2    334.2   0.022763566   0.25047  -0.23882  -0.29152  -0.32932
  16   30283.3    330.2   0.006879200   0.07478  -0.23700   0.05840  -0.12330
  17   30403.9    328.9   0.062781347   0.67979   0.14335   0.28360  -0.76080
  18   31109.9    321.4   0.077024569   0.81509   0.29932  -0.09588   0.84635
  19   31207.1    320.4   0.061685742   0.65074   0.20644  -0.43848  -0.64487
  20   31241.6    320.1   0.143474846   1.51188  -0.56072  -0.20945  -1.07406
  21   31580.6    316.7   0.029549417   0.30804  -0.03307   0.54055  -0.12144
  22   32098.5    311.5   0.010602284   0.10874  -0.28238  -0.03858  -0.16587
  23   32157.2    311.0   0.080266847   0.82174   0.76106   0.32837   0.36702
  24   32479.3    307.9   0.242861209   2.46165  -1.37387  -0.75543   0.05894
  25   32651.5    306.3   0.103635839   1.04492   1.02191   0.01047  -0.02251
  26   32910.0    303.9   0.058261664   0.58281  -0.63624   0.39181   0.15650
  27   33039.5    302.7   0.013092599   0.13046   0.13989  -0.23224  -0.23865
  28   33110.4    302.0   0.138034646   1.37246  -0.27702   1.05363  -0.43080
  29   33781.5    296.0   0.027110871   0.26420   0.44195  -0.22074   0.14199
  30   33906.9    294.9   0.498271215   4.83786   1.51702   1.36491  -0.82069
  31   34445.6    290.3   0.006996611   0.06687   0.07269   0.21456  -0.12470
  32   34986.4    285.8   0.124568643   1.17215   0.03282   0.75754   0.77280
  33   36123.4    276.8   0.026245417   0.23919   0.13928  -0.42940  -0.18815
  34   36576.3    273.4   0.019673736   0.17708   0.36560  -0.02336   0.20704
  35   36646.8    272.9   0.083769506   0.75253  -0.75603  -0.27866  -0.32139
  36   36953.3    270.6   0.060209953   0.53640  -0.54074   0.31259   0.38247
  37   37184.3    268.9   0.004052567   0.03588  -0.10571  -0.07065   0.14041
  38   37483.1    266.8   0.092171631   0.80954  -0.37386  -0.45503  -0.68023
  39   37514.8    266.6   0.044719999   0.39244   0.33295   0.30849   0.43176
  40   37582.9    266.1   0.002947072   0.02582   0.09712  -0.12688  -0.01685
  41   37809.4    264.5   0.014394746   0.12534  -0.30459  -0.07911  -0.16218
  42   38126.4    262.3   0.024013581   0.20735   0.06147  -0.42850   0.14127
  43   38308.2    261.0   0.119614996   1.02794   0.80387  -0.53937   0.30134
  44   38701.0    258.4   0.012848177   0.10929  -0.12147   0.09702  -0.29177
  45   39109.2    255.7   0.072807780   0.61288   0.26840   0.67232   0.29802
  46   39216.6    255.0   0.038307874   0.32158  -0.11393   0.55539  -0.01184
  47   39481.8    253.3   0.012702511   0.10592  -0.25027   0.13578  -0.15764
  48   39561.6    252.8   0.192351014   1.60065   1.12075  -0.05490   0.58443
  49   39743.4    251.6   0.048268637   0.39983   0.47469   0.41439   0.05275
  50   39968.1    250.2   0.046904027   0.38634  -0.42983  -0.37737  -0.24328
  51   40064.6    249.6   0.024864264   0.20431   0.04560   0.12084   0.43316
  52   40224.0    248.6   0.005983014   0.04897  -0.05620  -0.00020   0.21403

FINAL SINGLE POINT ENERGY    -10008.308731331061

DIPOLE MOMENT
-------------
                                X             Y             Z
Electronic contribution:    166.55520    -124.73047      96.74969
Nuclear contribution   :   -167.82034     125.28939     -97.16396
                        -----------------------------------------
Total Dipole Moment    :     -1.26514       0.55892      -0.41427
                        -----------------------------------------
Magnitude (a.u.)       :      1.44381
Magnitude (Debye)      :      3.66987

Rotational constants in cm-1:     0.000767     0.000379     0.000297
Rotational constants in MHz :    23.008880    11.353418     8.906842

                             ****ORCA TERMINATED NORMALLY****
TOTAL RUN TIME: 0 days 0 hours 11 minutes 49 seconds 590 msec
