                         Program Version 4.2.0 -  RELEASE  -
|  1> # ORCA input file
|  2> # SCF done       -217.170265946010          0.000970425927
|  3> ! CAM-B3LYP def2-SVP def2/J RIJCOSX Grid4 TightSCF
|  4> %maxcore 5000
|  5> %tddft
|  6>     Mode sTDDFT
|  7>     Ethresh 5.0
|  8>     maxcore 5000
|  9> end
| 10>
| 11> %pal
| 12>   nprocs 6
| 13>   end
| 14> * xyz 0 1
| 15>    C       -7.77019         8.86771         0.04193
| 16>    C       -6.65087         8.75143        -0.74202
| 17>    C       -5.59471         9.68712        -0.76789
| 18>    N       -4.70260        10.40575        -0.83389
| 19>    C       -6.40260         7.69868        -1.63902
| 20>    N       -6.13765         6.87897        -2.40113
| 21>    C       -8.05729         9.96092         0.96429
| 22>    C       -9.32581         9.74136         1.56472
| 23>    C       -9.86700        10.60218         2.48866
| 24>    C       -9.12427        11.73504         2.83858
| 25>    C       -7.86122        11.94760         2.23369
| 26>    C       -7.31377        11.07676         1.29909
| 27>    S       -7.11362        13.40402         2.81051
| 28>    C       -8.48576        13.70556         3.84289
| 29>    C       -9.45697        12.76362         3.76005
| 30>   Br       -8.50777        15.23102         4.93115
| 31>    C       -9.89036         8.49350         1.03771
| 32>    O      -10.95758         7.96811         1.32595
| 33>    C       -8.89263         7.96020         0.09995
| 34>    C       -9.07756         6.76899        -0.54759
| 35>    N      -10.20857         6.06513        -0.37855
| 36>    C      -10.54164         4.89870        -0.99894
| 37>    S      -11.62635         3.80053        -0.21222
| 38>    C      -11.40496         2.67620        -1.51446
| 39>    N      -12.12149         1.46749        -1.45934
| 40>    O      -11.97195         0.68143        -2.37142
| 41>    O      -12.84016         1.30880        -0.49038
| 42>    C      -10.54528         3.11832        -2.48261
| 43>    C      -10.05133         4.41000        -2.21374
| 44>    C       -9.22917         5.19422        -3.10530
| 45>    C       -8.31771         4.66095        -3.93559
| 46>    C       -7.41709         5.36224        -4.81281
| 47>    C       -6.52477         4.59186        -5.58512
| 48>    C       -6.40283         3.11590        -5.67807
| 49>    O       -7.03599         2.24411        -5.13925
| 50>    N       -5.35221         2.86476        -6.57094
| 51>    C       -4.78977         4.03828        -7.06357
| 52>    O       -3.87841         4.12370        -7.84800
| 53>    C       -5.54803         5.13767        -6.41859
| 54>    C       -5.37502         6.49998        -6.56175
| 55>    C       -6.25761         7.27297        -5.82466
| 56>    C       -7.24621         6.75842        -4.97827
| 57>    C       -7.90709         7.94476        -4.37338
| 58>    O       -8.80420         8.04906        -3.58863
| 59>    O       -7.30572         9.07022        -4.87303
| 60>    C       -6.31767         8.74824        -5.76612
| 61>    O       -5.68320         9.56685        -6.35485
| 62>    C       -5.02219         1.55063        -6.91864
| 63>    C       -4.05885         1.25330        -7.79365
| 64>    N       -3.72260        -0.01744        -8.21375
| 65>    C       -3.01061        -0.23243        -9.35299
| 66>    S       -1.96236        -1.59899        -9.52625
| 67>    C       -1.41622        -0.96566       -11.05274
| 68>    N       -0.48196        -1.73749       -11.75462
| 69>    O       -0.07547        -1.31434       -12.81777
| 70>    O       -0.14621        -2.78601       -11.22910
| 71>    C       -1.99829         0.22523       -11.39471
| 72>    C       -2.94148         0.64858       -10.44136
| 73>    C       -3.82516         1.78307       -10.53929
| 74>    C       -3.52975         3.01160       -11.01308
| 75>    C       -4.45432         4.06501       -10.79391
| 76>    C       -4.28769         5.40803       -10.92338
| 77>    C       -3.28296         6.21816       -11.57980
| 78>    C       -2.55690         5.87241       -12.68849
| 79>    C       -1.63302         6.72841       -13.32392
| 80>    N       -0.86093         7.38017       -13.86854
| 81>    C       -2.71289         4.65435       -13.38299
| 82>    N       -2.82811         3.69574       -14.00337
| 83>    C       -3.33146         7.54268       -10.97132
| 84>    C       -4.44996         7.60509       -10.09969
| 85>    C       -5.12862         6.29850       -10.08216
| 86>    O       -6.11154         5.98169        -9.44281
| 87>    C       -4.76741         8.73923        -9.39105
| 88>    C       -3.93741         9.85441        -9.53472
| 89>    C       -2.82551         9.78367       -10.40868
| 90>    C       -2.50889         8.64154       -11.13452
| 91>    S       -1.94284        11.27846       -10.43373
| 92>    C       -3.05869        11.96207        -9.27748
| 93>    C       -4.04535        11.11810        -8.89432
| 94>   Br       -2.80998        13.72459        -8.69318
| 95>    H      -10.83267        10.40890         2.92871
| 96>    H       -6.34770        11.28141         0.86876
| 97>    H      -10.37000        12.79294         4.32609
| 98>    H       -8.31610         6.34306        -1.18545
| 99>    H      -10.84806         6.47041         0.32620
|100>    H      -10.31513         2.54748        -3.36386
|101>    H       -9.39616         6.25875        -3.07471
|102>    H       -8.18479         3.58857        -3.93286
|103>    H       -4.61173         6.93044        -7.18730
|104>    H       -5.64135         0.81632        -6.42290
|105>    H       -3.47859         2.04074        -8.24947
|106>    H       -3.94445        -0.80593        -7.62186
|107>    H       -1.79055         0.74000       -12.31562
|108>    H       -4.81345         1.62365       -10.12325
|109>    H       -2.55049         3.22223       -11.41169
|110>    H       -5.37233         3.78310       -10.28653
|111>    H       -5.62505         8.77647        -8.73904
|112>    H       -1.64706         8.62892       -11.78109
|113>    H       -4.80823        11.35544        -8.17585
|114> *
|115>
|116>                          ****END OF INPUT****

CARTESIAN COORDINATES (ANGSTROEM)
---------------------------------
  C     -7.770190    8.867710    0.041930
  C     -6.650870    8.751430   -0.742020
  C     -5.594710    9.687120   -0.767890
  N     -4.702600   10.405750   -0.833890
  C     -6.402600    7.698680   -1.639020
  N     -6.137650    6.878970   -2.401130
  C     -8.057290    9.960920    0.964290
  C     -9.325810    9.741360    1.564720
  C     -9.867000   10.602180    2.488660
  C     -9.124270   11.735040    2.838580
  C     -7.861220   11.947600    2.233690
  C     -7.313770   11.076760    1.299090
  S     -7.113620   13.404020    2.810510
  C     -8.485760   13.705560    3.842890
  C     -9.456970   12.763620    3.760050
  Br    -8.507770   15.231020    4.931150
  C     -9.890360    8.493500    1.037710
  O    -10.957580    7.968110    1.325950
  C     -8.892630    7.960200    0.099950
  C     -9.077560    6.768990   -0.547590
  N    -10.208570    6.065130   -0.378550
  C    -10.541640    4.898700   -0.998940
  S    -11.626350    3.800530   -0.212220
  C    -11.404960    2.676200   -1.514460
  N    -12.121490    1.467490   -1.459340
  O    -11.971950    0.681430   -2.371420
  O    -12.840160    1.308800   -0.490380
  C    -10.545280    3.118320   -2.482610
  C    -10.051330    4.410000   -2.213740
  C     -9.229170    5.194220   -3.105300
  C     -8.317710    4.660950   -3.935590
  C     -7.417090    5.362240   -4.812810
  C     -6.524770    4.591860   -5.585120
  C     -6.402830    3.115900   -5.678070
  O     -7.035990    2.244110   -5.139250
  N     -5.352210    2.864760   -6.570940
  C     -4.789770    4.038280   -7.063570
  O     -3.878410    4.123700   -7.848000
  C     -5.548030    5.137670   -6.418590
  C     -5.375020    6.499980   -6.561750
  C     -6.257610    7.272970   -5.824660
  C     -7.246210    6.758420   -4.978270
  C     -7.907090    7.944760   -4.373380
  O     -8.804200    8.049060   -3.588630
  O     -7.305720    9.070220   -4.873030
  C     -6.317670    8.748240   -5.766120
  O     -5.683200    9.566850   -6.354850
  C     -5.022190    1.550630   -6.918640
  C     -4.058850    1.253300   -7.793650
  N     -3.722600   -0.017440   -8.213750
  C     -3.010610   -0.232430   -9.352990
  S     -1.962360   -1.598990   -9.526250
  C     -1.416220   -0.965660  -11.052740
  N     -0.481960   -1.737490  -11.754620
  O     -0.075470   -1.314340  -12.817770
  O     -0.146210   -2.786010  -11.229100
  C     -1.998290    0.225230  -11.394710
  C     -2.941480    0.648580  -10.441360
  C     -3.825160    1.783070  -10.539290
  C     -3.529750    3.011600  -11.013080
  C     -4.454320    4.065010  -10.793910
  C     -4.287690    5.408030  -10.923380
  C     -3.282960    6.218160  -11.579800
  C     -2.556900    5.872410  -12.688490
  C     -1.633020    6.728410  -13.323920
  N     -0.860930    7.380170  -13.868540
  C     -2.712890    4.654350  -13.382990
  N     -2.828110    3.695740  -14.003370
  C     -3.331460    7.542680  -10.971320
  C     -4.449960    7.605090  -10.099690
  C     -5.128620    6.298500  -10.082160
  O     -6.111540    5.981690   -9.442810
  C     -4.767410    8.739230   -9.391050
  C     -3.937410    9.854410   -9.534720
  C     -2.825510    9.783670  -10.408680
  C     -2.508890    8.641540  -11.134520
  S     -1.942840   11.278460  -10.433730
  C     -3.058690   11.962070   -9.277480
  C     -4.045350   11.118100   -8.894320
  Br    -2.809980   13.724590   -8.693180
  H    -10.832670   10.408900    2.928710
  H     -6.347700   11.281410    0.868760
  H    -10.370000   12.792940    4.326090
  H     -8.316100    6.343060   -1.185450
  H    -10.848060    6.470410    0.326200
  H    -10.315130    2.547480   -3.363860
  H     -9.396160    6.258750   -3.074710
  H     -8.184790    3.588570   -3.932860
  H     -4.611730    6.930440   -7.187300
  H     -5.641350    0.816320   -6.422900
  H     -3.478590    2.040740   -8.249470
  H     -3.944450   -0.805930   -7.621860
  H     -1.790550    0.740000  -12.315620
  H     -4.813450    1.623650  -10.123250
  H     -2.550490    3.222230  -11.411690
  H     -5.372330    3.783100  -10.286530
  H     -5.625050    8.776470   -8.739040
  H     -1.647060    8.628920  -11.781090
  H     -4.808230   11.355440   -8.175850

 Total Charge           Charge          ....    0
 Multiplicity           Mult            ....    1
 Number of Electrons    NEL             ....  628
 Basis Dimension        Dim             .... 1267

ORBITAL ENERGIES
----------------

  NO   OCC          E(Eh)            E(eV)
   0   2.0000    -482.894612    -13140.2304
   1   2.0000    -482.881710    -13139.8794
   2   2.0000     -89.001861     -2421.8638
   3   2.0000     -88.990170     -2421.5456
   4   2.0000     -88.986864     -2421.4557
   5   2.0000     -88.973280     -2421.0860
   6   2.0000     -62.572333     -1702.6797
   7   2.0000     -62.559435     -1702.3288
   8   2.0000     -56.406296     -1534.8933
   9   2.0000     -56.403556     -1534.8188
  10   2.0000     -56.403528     -1534.8180
  11   2.0000     -56.393382     -1534.5419
  12   2.0000     -56.390672     -1534.4682
  13   2.0000     -56.390643     -1534.4674
  14   2.0000     -19.307713      -525.3896
  15   2.0000     -19.256121      -523.9857
  16   2.0000     -19.256015      -523.9828
  17   2.0000     -19.250477      -523.8321
  18   2.0000     -19.250408      -523.8302
  19   2.0000     -19.250209      -523.8248
  20   2.0000     -19.248519      -523.7788
  21   2.0000     -19.241826      -523.5967
  22   2.0000     -19.237370      -523.4754
  23   2.0000     -19.237124      -523.4688
  24   2.0000     -19.220683      -523.0214
  25   2.0000     -14.662234      -398.9797
  26   2.0000     -14.649333      -398.6286
  27   2.0000     -14.506397      -394.7391
  28   2.0000     -14.499691      -394.5566
  29   2.0000     -14.490949      -394.3188
  30   2.0000     -14.438746      -392.8983
  31   2.0000     -14.425564      -392.5396
  32   2.0000     -14.416166      -392.2838
  33   2.0000     -14.415503      -392.2658
  34   2.0000     -10.452165      -284.4179
  35   2.0000     -10.446644      -284.2676
  36   2.0000     -10.429152      -283.7916
  37   2.0000     -10.426515      -283.7199
  38   2.0000     -10.388845      -282.6949
  39   2.0000     -10.384745      -282.5833
  40   2.0000     -10.379687      -282.4457
  41   2.0000     -10.378214      -282.4056
  42   2.0000     -10.370157      -282.1863
  43   2.0000     -10.369543      -282.1696
  44   2.0000     -10.359558      -281.8979
  45   2.0000     -10.359404      -281.8937
  46   2.0000     -10.355126      -281.7773
  47   2.0000     -10.353304      -281.7277
  48   2.0000     -10.347788      -281.5776
  49   2.0000     -10.345936      -281.5272
  50   2.0000     -10.344359      -281.4843
  51   2.0000     -10.344287      -281.4823
  52   2.0000     -10.342492      -281.4335
  53   2.0000     -10.339642      -281.3560
  54   2.0000     -10.337577      -281.2998
  55   2.0000     -10.337139      -281.2879
  56   2.0000     -10.334717      -281.2220
  57   2.0000     -10.332499      -281.1616
  58   2.0000     -10.332281      -281.1557
  59   2.0000     -10.331862      -281.1443
  60   2.0000     -10.330000      -281.0936
  61   2.0000     -10.329021      -281.0670
  62   2.0000     -10.325042      -280.9587
  63   2.0000     -10.323353      -280.9127
  64   2.0000     -10.321840      -280.8715
  65   2.0000     -10.319874      -280.8180
  66   2.0000     -10.318988      -280.7939
  67   2.0000     -10.318702      -280.7861
  68   2.0000     -10.318600      -280.7834
  69   2.0000     -10.317794      -280.7614
  70   2.0000     -10.317633      -280.7571
  71   2.0000     -10.315489      -280.6987
  72   2.0000     -10.315389      -280.6960
  73   2.0000     -10.314725      -280.6779
  74   2.0000     -10.309273      -280.5296
  75   2.0000     -10.308263      -280.5021
  76   2.0000     -10.307985      -280.4945
  77   2.0000     -10.307375      -280.4779
  78   2.0000     -10.307208      -280.4734
  79   2.0000     -10.306812      -280.4626
  80   2.0000     -10.306075      -280.4426
  81   2.0000     -10.305392      -280.4240
  82   2.0000     -10.300820      -280.2995
  83   2.0000     -10.300694      -280.2961
  84   2.0000     -10.295975      -280.1677
  85   2.0000     -10.295216      -280.1471
  86   2.0000     -10.294132      -280.1176
  87   2.0000     -10.290944      -280.0308
  88   2.0000      -8.801773      -239.5084
  89   2.0000      -8.788867      -239.1572
  90   2.0000      -8.097496      -220.3441
  91   2.0000      -8.086047      -220.0325
  92   2.0000      -8.082873      -219.9462
  93   2.0000      -8.069315      -219.5772
  94   2.0000      -6.638123      -180.6325
  95   2.0000      -6.625161      -180.2798
  96   2.0000      -6.623487      -180.2342
  97   2.0000      -6.623268      -180.2283
  98   2.0000      -6.610621      -179.8841
  99   2.0000      -6.610393      -179.8779
 100   2.0000      -6.067070      -165.0934
 101   2.0000      -6.062661      -164.9734
 102   2.0000      -6.059090      -164.8762
 103   2.0000      -6.055727      -164.7847
 104   2.0000      -6.052540      -164.6980
 105   2.0000      -6.051281      -164.6637
 106   2.0000      -6.048249      -164.5812
 107   2.0000      -6.047443      -164.5593
 108   2.0000      -6.044134      -164.4693
 109   2.0000      -6.039003      -164.3296
 110   2.0000      -6.034728      -164.2133
 111   2.0000      -6.030528      -164.0990
 112   2.0000      -2.754014       -74.9405
 113   2.0000      -2.749875       -74.8279
 114   2.0000      -2.749701       -74.8232
 115   2.0000      -2.741043       -74.5876
 116   2.0000      -2.738094       -74.5073
 117   2.0000      -2.738063       -74.5065
 118   2.0000      -2.736960       -74.4765
 119   2.0000      -2.736791       -74.4719
 120   2.0000      -2.725230       -74.1573
 121   2.0000      -2.725218       -74.1569
 122   2.0000      -1.333156       -36.2770
 123   2.0000      -1.319257       -35.8988
 124   2.0000      -1.259247       -34.2658
 125   2.0000      -1.196077       -32.5469
 126   2.0000      -1.183948       -32.2169
 127   2.0000      -1.171939       -31.8901
 128   2.0000      -1.157352       -31.4931
 129   2.0000      -1.152750       -31.3679
 130   2.0000      -1.145023       -31.1577
 131   2.0000      -1.138638       -30.9839
 132   2.0000      -1.133926       -30.8557
 133   2.0000      -1.112057       -30.2606
 134   2.0000      -1.096797       -29.8454
 135   2.0000      -1.086390       -29.5622
 136   2.0000      -1.038238       -28.2519
 137   2.0000      -1.029609       -28.0171
 138   2.0000      -1.023215       -27.8431
 139   2.0000      -1.022466       -27.8227
 140   2.0000      -1.016949       -27.6726
 141   2.0000      -1.012393       -27.5486
 142   2.0000      -1.011497       -27.5242
 143   2.0000      -1.008257       -27.4361
 144   2.0000      -1.002658       -27.2837
 145   2.0000      -0.994470       -27.0609
 146   2.0000      -0.989493       -26.9255
 147   2.0000      -0.954695       -25.9786
 148   2.0000      -0.946184       -25.7470
 149   2.0000      -0.945486       -25.7280
 150   2.0000      -0.941385       -25.6164
 151   2.0000      -0.932529       -25.3754
 152   2.0000      -0.923324       -25.1249
 153   2.0000      -0.919761       -25.0280
 154   2.0000      -0.908060       -24.7096
 155   2.0000      -0.906694       -24.6724
 156   2.0000      -0.903478       -24.5849
 157   2.0000      -0.898933       -24.4612
 158   2.0000      -0.892751       -24.2930
 159   2.0000      -0.890256       -24.2251
 160   2.0000      -0.885048       -24.0834
 161   2.0000      -0.873410       -23.7667
 162   2.0000      -0.864642       -23.5281
 163   2.0000      -0.858000       -23.3474
 164   2.0000      -0.848309       -23.0837
 165   2.0000      -0.842149       -22.9160
 166   2.0000      -0.832395       -22.6506
 167   2.0000      -0.826480       -22.4897
 168   2.0000      -0.815757       -22.1979
 169   2.0000      -0.809306       -22.0223
 170   2.0000      -0.800981       -21.7958
 171   2.0000      -0.790214       -21.5028
 172   2.0000      -0.787533       -21.4299
 173   2.0000      -0.779536       -21.2123
 174   2.0000      -0.776072       -21.1180
 175   2.0000      -0.767379       -20.8815
 176   2.0000      -0.756004       -20.5719
 177   2.0000      -0.755246       -20.5513
 178   2.0000      -0.736866       -20.0511
 179   2.0000      -0.734028       -19.9739
 180   2.0000      -0.729759       -19.8578
 181   2.0000      -0.716311       -19.4918
 182   2.0000      -0.711190       -19.3525
 183   2.0000      -0.704218       -19.1628
 184   2.0000      -0.702392       -19.1131
 185   2.0000      -0.689815       -18.7708
 186   2.0000      -0.687860       -18.7176
 187   2.0000      -0.679599       -18.4928
 188   2.0000      -0.676254       -18.4018
 189   2.0000      -0.674590       -18.3565
 190   2.0000      -0.666252       -18.1296
 191   2.0000      -0.663275       -18.0486
 192   2.0000      -0.657001       -17.8779
 193   2.0000      -0.654387       -17.8068
 194   2.0000      -0.652391       -17.7525
 195   2.0000      -0.647865       -17.6293
 196   2.0000      -0.643703       -17.5161
 197   2.0000      -0.642495       -17.4832
 198   2.0000      -0.639337       -17.3972
 199   2.0000      -0.635830       -17.3018
 200   2.0000      -0.634916       -17.2770
 201   2.0000      -0.630851       -17.1663
 202   2.0000      -0.623921       -16.9778
 203   2.0000      -0.621244       -16.9049
 204   2.0000      -0.618569       -16.8321
 205   2.0000      -0.612417       -16.6647
 206   2.0000      -0.609821       -16.5941
 207   2.0000      -0.604252       -16.4425
 208   2.0000      -0.602181       -16.3862
 209   2.0000      -0.601270       -16.3614
 210   2.0000      -0.598361       -16.2822
 211   2.0000      -0.595766       -16.2116
 212   2.0000      -0.594146       -16.1675
 213   2.0000      -0.592115       -16.1123
 214   2.0000      -0.586211       -15.9516
 215   2.0000      -0.582944       -15.8627
 216   2.0000      -0.579613       -15.7721
 217   2.0000      -0.576359       -15.6835
 218   2.0000      -0.569635       -15.5006
 219   2.0000      -0.567882       -15.4529
 220   2.0000      -0.566939       -15.4272
 221   2.0000      -0.566309       -15.4100
 222   2.0000      -0.562410       -15.3039
 223   2.0000      -0.558254       -15.1909
 224   2.0000      -0.555561       -15.1176
 225   2.0000      -0.552980       -15.0473
 226   2.0000      -0.550045       -14.9675
 227   2.0000      -0.545916       -14.8551
 228   2.0000      -0.544271       -14.8104
 229   2.0000      -0.542965       -14.7748
 230   2.0000      -0.540039       -14.6952
 231   2.0000      -0.539365       -14.6769
 232   2.0000      -0.536450       -14.5976
 233   2.0000      -0.534087       -14.5332
 234   2.0000      -0.532980       -14.5031
 235   2.0000      -0.529887       -14.4190
 236   2.0000      -0.529143       -14.3987
 237   2.0000      -0.522558       -14.2195
 238   2.0000      -0.518880       -14.1195
 239   2.0000      -0.517485       -14.0815
 240   2.0000      -0.514492       -14.0000
 241   2.0000      -0.513295       -13.9675
 242   2.0000      -0.511826       -13.9275
 243   2.0000      -0.509826       -13.8731
 244   2.0000      -0.509661       -13.8686
 245   2.0000      -0.508367       -13.8334
 246   2.0000      -0.507120       -13.7994
 247   2.0000      -0.505452       -13.7540
 248   2.0000      -0.502831       -13.6827
 249   2.0000      -0.499010       -13.5788
 250   2.0000      -0.496048       -13.4982
 251   2.0000      -0.493053       -13.4167
 252   2.0000      -0.491001       -13.3608
 253   2.0000      -0.489051       -13.3078
 254   2.0000      -0.482169       -13.1205
 255   2.0000      -0.476652       -12.9703
 256   2.0000      -0.475838       -12.9482
 257   2.0000      -0.474625       -12.9152
 258   2.0000      -0.471577       -12.8323
 259   2.0000      -0.468831       -12.7576
 260   2.0000      -0.464562       -12.6414
 261   2.0000      -0.463706       -12.6181
 262   2.0000      -0.461266       -12.5517
 263   2.0000      -0.457739       -12.4557
 264   2.0000      -0.456230       -12.4146
 265   2.0000      -0.453992       -12.3537
 266   2.0000      -0.452465       -12.3122
 267   2.0000      -0.448951       -12.2166
 268   2.0000      -0.446839       -12.1591
 269   2.0000      -0.445096       -12.1117
 270   2.0000      -0.444951       -12.1077
 271   2.0000      -0.443182       -12.0596
 272   2.0000      -0.438125       -11.9220
 273   2.0000      -0.435253       -11.8438
 274   2.0000      -0.429704       -11.6928
 275   2.0000      -0.426645       -11.6096
 276   2.0000      -0.425299       -11.5730
 277   2.0000      -0.424593       -11.5538
 278   2.0000      -0.423942       -11.5361
 279   2.0000      -0.422969       -11.5096
 280   2.0000      -0.420587       -11.4448
 281   2.0000      -0.410592       -11.1728
 282   2.0000      -0.409981       -11.1561
 283   2.0000      -0.401627       -10.9288
 284   2.0000      -0.399988       -10.8842
 285   2.0000      -0.397506       -10.8167
 286   2.0000      -0.396133       -10.7793
 287   2.0000      -0.390943       -10.6381
 288   2.0000      -0.388769       -10.5789
 289   2.0000      -0.385421       -10.4878
 290   2.0000      -0.384832       -10.4718
 291   2.0000      -0.383877       -10.4458
 292   2.0000      -0.383248       -10.4287
 293   2.0000      -0.380518       -10.3544
 294   2.0000      -0.378757       -10.3065
 295   2.0000      -0.378569       -10.3014
 296   2.0000      -0.377095       -10.2613
 297   2.0000      -0.374188       -10.1822
 298   2.0000      -0.371031       -10.0963
 299   2.0000      -0.366870        -9.9830
 300   2.0000      -0.365721        -9.9518
 301   2.0000      -0.365129        -9.9357
 302   2.0000      -0.353271        -9.6130
 303   2.0000      -0.352438        -9.5903
 304   2.0000      -0.347512        -9.4563
 305   2.0000      -0.339228        -9.2309
 306   2.0000      -0.329953        -8.9785
 307   2.0000      -0.323060        -8.7909
 308   2.0000      -0.315236        -8.5780
 309   2.0000      -0.306584        -8.3426
 310   2.0000      -0.303066        -8.2468
 311   2.0000      -0.292144        -7.9496
 312   2.0000      -0.288788        -7.8583
 313   2.0000      -0.272583        -7.4174
 314   0.0000      -0.105686        -2.8759
 315   0.0000      -0.096559        -2.6275
 316   0.0000      -0.090306        -2.4574
 317   0.0000      -0.078988        -2.1494
 318   0.0000      -0.074427        -2.0253

MULLIKEN ATOMIC CHARGES
-----------------------
   0 C :    0.347041
   1 C :   -0.358028
   2 C :   -0.195194
   3 N :    0.162842
   4 C :   -0.164266
   5 N :    0.104330
   6 C :    0.003558
   7 C :   -0.012457
   8 C :   -0.063181
   9 C :    0.116502
  10 C :   -0.093659
  11 C :   -0.014130
  12 S :    0.195850
  13 C :   -0.123743
  14 C :    0.039126
  15 Br:    0.032563
  16 C :    0.176069
  17 O :   -0.209366
  18 C :   -0.126419
  19 C :    0.021005
  20 N :   -0.005288
  21 C :   -0.103387
  22 S :    0.208408
  23 C :   -0.006729
  24 N :    0.274718
  25 O :   -0.237953
  26 O :   -0.257320
  27 C :    0.008474
  28 C :    0.084991
  29 C :   -0.041585
  30 C :   -0.056476
  31 C :    0.118394
  32 C :   -0.044789
  33 C :    0.198297
  34 O :   -0.155184
  35 N :   -0.233773
  36 C :    0.218483
  37 O :   -0.159677
  38 C :    0.024259
  39 C :   -0.054100
  40 C :   -0.026949
  41 C :   -0.062746
  42 C :    0.249009
  43 O :   -0.133186
  44 O :   -0.219650
  45 C :    0.239691
  46 O :   -0.108699
  47 C :    0.053240
  48 C :    0.029745
  49 N :   -0.048820
  50 C :   -0.075613
  51 S :    0.181579
  52 C :   -0.019502
  53 N :    0.277896
  54 O :   -0.241148
  55 O :   -0.268229
  56 C :    0.031216
  57 C :    0.045093
  58 C :   -0.057854
  59 C :    0.052702
  60 C :    0.024372
  61 C :   -0.092865
  62 C :    0.287915
  63 C :   -0.334294
  64 C :   -0.179558
  65 N :    0.151583
  66 C :   -0.215624
  67 N :    0.167412
  68 C :    0.008824
  69 C :    0.000143
  70 C :    0.145385
  71 O :   -0.175581
  72 C :   -0.072094
  73 C :    0.102176
  74 C :   -0.084708
  75 C :   -0.025962
  76 S :    0.184397
  77 C :   -0.125557
  78 C :    0.050429
  79 Br:    0.024447
  80 H :   -0.007506
  81 H :   -0.003713
  82 H :   -0.000146
  83 H :    0.061520
  84 H :    0.170544
  85 H :    0.024715
  86 H :    0.048823
  87 H :    0.012432
  88 H :    0.008887
  89 H :    0.026568
  90 H :    0.087051
  91 H :    0.140252
  92 H :    0.027749
  93 H :    0.039736
  94 H :    0.019058
  95 H :    0.006256
  96 H :   -0.021966
  97 H :   -0.003619
  98 H :    0.006536
Sum of atomic charges:   -0.0000000

LOEWDIN ATOMIC CHARGES
----------------------
   0 C :    0.091020
   1 C :   -0.155059
   2 C :   -0.021902
   3 N :   -0.051650
   4 C :   -0.000320
   5 N :   -0.076634
   6 C :   -0.019888
   7 C :   -0.050418
   8 C :    0.026000
   9 C :   -0.031386
  10 C :   -0.143987
  11 C :   -0.004052
  12 S :    0.440782
  13 C :   -0.269865
  14 C :   -0.069552
  15 Br:    0.143646
  16 C :    0.096417
  17 O :   -0.169119
  18 C :   -0.145989
  19 C :    0.128252
  20 N :    0.071220
  21 C :   -0.111514
  22 S :    0.480144
  23 C :   -0.199885
  24 N :    0.272517
  25 O :   -0.204599
  26 O :   -0.222457
  27 C :    0.006578
  28 C :   -0.088973
  29 C :    0.003275
  30 C :   -0.033776
  31 C :    0.041880
  32 C :   -0.033605
  33 C :    0.107578
  34 O :   -0.139104
  35 N :   -0.008339
  36 C :    0.104594
  37 O :   -0.136849
  38 C :   -0.016939
  39 C :    0.047352
  40 C :   -0.038890
  41 C :   -0.040904
  42 C :    0.119169
  43 O :   -0.114123
  44 O :   -0.046258
  45 C :    0.112504
  46 O :   -0.103693
  47 C :   -0.028570
  48 C :    0.008195
  49 N :    0.026730
  50 C :   -0.096990
  51 S :    0.457612
  52 C :   -0.207825
  53 N :    0.272808
  54 O :   -0.207388
  55 O :   -0.233870
  56 C :    0.013313
  57 C :   -0.114578
  58 C :    0.031458
  59 C :   -0.025189
  60 C :    0.077432
  61 C :   -0.095661
  62 C :    0.073252
  63 C :   -0.139445
  64 C :   -0.019510
  65 N :   -0.049708
  66 C :   -0.022361
  67 N :   -0.051108
  68 C :   -0.018313
  69 C :   -0.059387
  70 C :    0.089332
  71 O :   -0.166159
  72 C :    0.019686
  73 C :   -0.029834
  74 C :   -0.143004
  75 C :   -0.010434
  76 S :    0.430871
  77 C :   -0.271971
  78 C :   -0.061623
  79 Br:    0.137900
  80 H :    0.042612
  81 H :    0.042556
  82 H :    0.040071
  83 H :    0.044729
  84 H :    0.086563
  85 H :    0.051417
  86 H :    0.028297
  87 H :    0.033709
  88 H :    0.049009
  89 H :    0.033413
  90 H :    0.040231
  91 H :    0.094131
  92 H :    0.054399
  93 H :    0.039560
  94 H :    0.034644
  95 H :    0.038334
  96 H :    0.034285
  97 H :    0.041274
  98 H :    0.041906

  Mayer bond orders larger than 0.100000
B(  0-C ,  1-C ) :   1.6114 B(  0-C ,  6-C ) :   1.0079 B(  0-C , 18-C ) :   1.1095
B(  1-C ,  2-C ) :   1.1370 B(  1-C ,  4-C ) :   1.1670 B(  2-C ,  3-N ) :   2.9773
B(  4-C ,  5-N ) :   2.9027 B(  6-C ,  7-C ) :   1.2697 B(  6-C , 11-C ) :   1.4204
B(  7-C ,  8-C ) :   1.4266 B(  7-C , 16-C ) :   0.9780 B(  8-C ,  9-C ) :   1.2420
B(  8-C , 80-H ) :   1.0171 B(  9-C , 10-C ) :   1.3055 B(  9-C , 14-C ) :   1.1675
B( 10-C , 11-C ) :   1.3242 B( 10-C , 12-S ) :   1.0925 B( 11-C , 81-H ) :   0.9790
B( 12-S , 13-C ) :   1.0895 B( 13-C , 14-C ) :   1.6133 B( 13-C , 15-Br) :   1.0241
B( 14-C , 82-H ) :   0.9997 B( 16-C , 17-O ) :   2.0609 B( 16-C , 18-C ) :   0.9896
B( 17-O , 84-H ) :   0.1413 B( 18-C , 19-C ) :   1.4623 B( 19-C , 20-N ) :   1.3429
B( 19-C , 83-H ) :   0.9264 B( 20-N , 21-C ) :   1.1480 B( 20-N , 84-H ) :   0.8316
B( 21-C , 22-S ) :   1.1507 B( 21-C , 28-C ) :   1.4009 B( 22-S , 23-C ) :   1.0976
B( 23-C , 24-N ) :   0.9540 B( 23-C , 27-C ) :   1.4900 B( 24-N , 25-O ) :   1.5491
B( 24-N , 26-O ) :   1.5169 B( 25-O , 26-O ) :   0.2650 B( 27-C , 28-C ) :   1.2375
B( 27-C , 85-H ) :   1.0045 B( 28-C , 29-C ) :   1.0353 B( 29-C , 30-C ) :   1.7090
B( 29-C , 86-H ) :   0.9342 B( 30-C , 31-C ) :   1.1409 B( 30-C , 87-H ) :   0.9534
B( 31-C , 32-C ) :   1.3722 B( 31-C , 41-C ) :   1.2749 B( 32-C , 33-C ) :   0.9063
B( 32-C , 38-C ) :   1.3777 B( 33-C , 34-O ) :   2.1234 B( 33-C , 35-N ) :   1.0513
B( 35-N , 36-C ) :   1.0572 B( 35-N , 47-C ) :   0.9952 B( 36-C , 37-O ) :   2.1328
B( 36-C , 38-C ) :   0.8817 B( 38-C , 39-C ) :   1.3649 B( 39-C , 40-C ) :   1.3250
B( 39-C , 88-H ) :   1.0111 B( 40-C , 41-C ) :   1.3852 B( 40-C , 45-C ) :   0.8966
B( 41-C , 42-C ) :   0.9199 B( 42-C , 43-O ) :   2.1379 B( 42-C , 44-O ) :   1.0733
B( 44-O , 45-C ) :   1.0521 B( 45-C , 46-O ) :   2.2378 B( 47-C , 48-C ) :   1.7459
B( 47-C , 89-H ) :   0.9789 B( 48-C , 49-N ) :   1.0811 B( 48-C , 90-H ) :   0.9208
B( 49-N , 50-C ) :   1.2084 B( 49-N , 91-H ) :   0.9168 B( 50-C , 51-S ) :   1.1461
B( 50-C , 57-C ) :   1.3674 B( 51-S , 52-C ) :   1.0788 B( 52-C , 53-N ) :   0.9675
B( 52-C , 56-C ) :   1.4847 B( 53-N , 54-O ) :   1.5444 B( 53-N , 55-O ) :   1.5074
B( 54-O , 55-O ) :   0.2591 B( 56-C , 57-C ) :   1.2513 B( 56-C , 92-H ) :   1.0068
B( 57-C , 58-C ) :   1.0361 B( 58-C , 59-C ) :   1.6990 B( 58-C , 93-H ) :   0.9593
B( 59-C , 60-C ) :   1.1435 B( 59-C , 94-H ) :   0.9681 B( 60-C , 61-C ) :   1.6218
B( 60-C , 95-H ) :   0.9359 B( 61-C , 62-C ) :   1.0287 B( 61-C , 70-C ) :   0.9665
B( 62-C , 63-C ) :   1.6492 B( 62-C , 68-C ) :   1.0160 B( 63-C , 64-C ) :   1.1276
B( 63-C , 66-C ) :   1.1624 B( 64-C , 65-N ) :   2.9830 B( 66-C , 67-N ) :   3.0050
B( 68-C , 69-C ) :   1.2637 B( 68-C , 75-C ) :   1.4131 B( 69-C , 70-C ) :   0.9408
B( 69-C , 72-C ) :   1.3960 B( 70-C , 71-O ) :   2.1779 B( 72-C , 73-C ) :   1.2691
B( 72-C , 96-H ) :   1.0122 B( 73-C , 74-C ) :   1.3008 B( 73-C , 78-C ) :   1.1740
B( 74-C , 75-C ) :   1.3235 B( 74-C , 76-S ) :   1.0877 B( 75-C , 97-H ) :   0.9825
B( 76-S , 77-C ) :   1.0812 B( 77-C , 78-C ) :   1.6097 B( 77-C , 79-Br) :   1.0201
B( 78-C , 98-H ) :   0.9983

-----------------------------------------------------------------------------
         ABSORPTION SPECTRUM VIA TRANSITION ELECTRIC DIPOLE MOMENTS
-----------------------------------------------------------------------------
State   Energy  Wavelength   fosc         T2         TX        TY        TZ
        (cm-1)    (nm)                  (au**2)     (au)      (au)      (au)
-----------------------------------------------------------------------------
   0   20671.6    483.8   0.022750445   0.36232  -0.30201  -0.52023   0.02181
   1   21774.8    459.2   0.128175618   1.93788  -0.55396  -0.73412  -1.04502
   2   22218.7    450.1   0.439830557   6.51691  -0.08736  -2.40848   0.84174
   3   24509.2    408.0   0.440053439   5.91087  -0.16292  -2.14374  -1.13522
   4   26520.6    377.1   0.314433588   3.90321   1.38940  -0.72139  -1.20515
   5   26860.9    372.3   0.147146881   1.80346  -0.64524   0.74018   0.91611
   6   26979.3    370.7   0.023840497   0.29091  -0.26439   0.09635   0.46014
   7   27045.5    369.7   0.063701160   0.77541   0.75358   0.15354  -0.42890
   8   27568.0    362.7   0.326086653   3.89407  -0.35339   1.49048   1.24404
   9   28235.5    354.2   0.035177135   0.41015  -0.62813  -0.02217  -0.12291
  10   28285.5    353.5   0.258251067   3.00575   1.15100   1.24564  -0.35965
  11   28822.2    347.0   0.904001632  10.32566  -1.24683   1.78067   2.36649
  12   29217.3    342.3   0.088183226   0.99362  -0.09093   0.96596   0.22866
  13   29626.8    337.5   0.029955087   0.33286  -0.13788   0.56018   0.00665
  14   29827.5    335.3   0.347311566   3.83334   0.54234   1.87883   0.09589
  15   30550.1    327.3   0.272775330   2.93946  -0.45929   1.62838   0.27734
  16   30962.0    323.0   0.059492031   0.63257   0.32768   0.69483   0.20593
  17   31064.4    321.9   0.245075239   2.59724   0.79618   1.32632  -0.45191
  18   31139.4    321.1   0.105804091   1.11858   0.33790  -0.73261  -0.68388
  19   31362.2    318.9   0.177344634   1.86161  -0.35053  -1.22027   0.49968
  20   31938.0    313.1   0.082869829   0.85421  -0.85271  -0.22837   0.27376
  21   32220.0    310.4   0.012126392   0.12390  -0.06024  -0.20463  -0.28000
  22   32322.3    309.4   0.030243500   0.30804   0.32127   0.43720  -0.11697
  23   33010.9    302.9   0.475564597   4.74272  -0.57821   1.67797   1.26206
  24   33087.5    302.2   0.016659504   0.16576   0.15027   0.05046  -0.37501
  25   33405.5    299.4   0.214998717   2.11882  -0.60001   1.00699   0.86300
  26   33483.0    298.7   0.033491233   0.32929   0.42822  -0.36895  -0.09900
  27   33817.5    295.7   0.066269739   0.64513  -0.31829  -0.71815  -0.16757
  28   33899.9    295.0   0.483959306   4.69987  -1.63139   0.45504   1.35328
  29   34016.5    294.0   0.057289258   0.55445   0.28473   0.67703  -0.12248
  30   34313.6    291.4   0.011180422   0.10727   0.02613  -0.16270  -0.28304
  31   34874.5    286.7   0.079152733   0.74719  -0.27605  -0.80014  -0.17542
  32   35050.5    285.3   0.259330868   2.43576   0.30504  -1.45389  -0.47846
  33   35269.3    283.5   0.005432004   0.05070   0.02838  -0.22212  -0.02368
  34   35536.4    281.4   0.030319991   0.28089  -0.42443  -0.12418   0.29211
  35   35945.7    278.2   0.090603837   0.82980   0.49438  -0.69277  -0.32474
  36   36189.6    276.3   0.104324292   0.94902  -0.00431  -0.95996  -0.16579
  37   36579.7    273.4   0.217576620   1.95816   0.86264   0.78162  -0.77658
  38   36882.7    271.1   0.000608943   0.00544  -0.05302   0.00983  -0.05027
  39   36911.0    270.9   0.145120929   1.29434  -0.39391  -1.05558  -0.15786
  40   37362.4    267.6   0.004098812   0.03612   0.09194   0.15455  -0.06145
  41   37527.7    266.5   0.019180736   0.16826  -0.14720  -0.35173   0.15126
  42   37996.3    263.2   0.007907004   0.06851   0.04590  -0.25542   0.03407
  43   38113.7    262.4   0.022819474   0.19711  -0.28899  -0.32480   0.08999
  44   38249.2    261.4   0.060539734   0.52107   0.52062   0.23769  -0.43992
  45   38332.1    260.9   0.027292785   0.23440  -0.41350   0.16272   0.19220
  46   38501.7    259.7   0.028517794   0.24384   0.34670   0.32566  -0.13263
  47   38687.2    258.5   0.003139704   0.02672   0.06977   0.02149  -0.14625
  48   38779.5    257.9   0.000611338   0.00519   0.05836   0.02754  -0.03202
  49   39034.9    256.2   0.037756194   0.31843   0.25122  -0.21341  -0.45801
  50   39174.2    255.3   0.166269057   1.39729  -0.65511  -0.95032  -0.25496
  51   39252.7    254.8   0.015083907   0.12651  -0.13203   0.21475   0.25092
  52   39358.1    254.1   0.051455167   0.43040  -0.44557  -0.48150   0.00411
  53   39554.0    252.8   0.054849432   0.45652   0.55585   0.38186   0.04163
  54   39740.9    251.6   0.050913146   0.42176   0.55997   0.24723  -0.21697
  55   40070.1    249.6   0.005775509   0.04745   0.16334   0.06292  -0.12966
  56   40223.4    248.6   0.005993280   0.04905  -0.14185   0.15320   0.07390

FINAL SINGLE POINT ENERGY    -10125.256462119334

DIPOLE MOMENT
-------------
                                X             Y             Z
Electronic contribution:      8.76575     165.94519      72.71577
Nuclear contribution   :    -11.03880    -164.03115     -68.00288
                        -----------------------------------------
Total Dipole Moment    :     -2.27304       1.91404       4.71289
                        -----------------------------------------
Magnitude (a.u.)       :      5.57150
Magnitude (Debye)      :     14.16164

Rotational constants in cm-1:     0.000700     0.000288     0.000217
Rotational constants in MHz :    20.999939     8.642546     6.514678

                             ****ORCA TERMINATED NORMALLY****
TOTAL RUN TIME: 0 days 0 hours 24 minutes 16 seconds 855 msec
