                         Program Version 4.2.0 -  RELEASE  -
|  1> # ORCA input file
|  2> # SCF done       -189.763147656932          0.000821023940
|  3> ! CAM-B3LYP def2-SVP def2/J RIJCOSX Grid4 TightSCF
|  4> %maxcore 5000
|  5> %tddft
|  6>     Mode sTDDFT
|  7>     Ethresh 5.0
|  8>     maxcore 5000
|  9> end
| 10>
| 11> %pal
| 12>   nprocs 6
| 13>   end
| 14> * xyz 0 1
| 15>    C       -3.89055        -1.60559        -1.55033
| 16>    C       -2.57752        -1.56597        -1.15455
| 17>    C       -1.66690        -2.62753        -1.33349
| 18>    N       -0.87813        -3.45301        -1.45555
| 19>    C       -1.95505        -0.48812        -0.49138
| 20>    N       -1.37430         0.33307         0.06415
| 21>    C       -4.55606        -2.75060        -2.15399
| 22>    C       -5.93249        -2.45190        -2.29517
| 23>    C       -6.83350        -3.33879        -2.83206
| 24>    C       -6.35324        -4.58399        -3.24993
| 25>    C       -4.97468        -4.87301        -3.10996
| 26>    C       -4.06381        -3.97574        -2.56797
| 27>    S       -4.59347        -6.46455        -3.69563
| 28>    C       -6.26833        -6.71664        -4.11124
| 29>    C       -7.07300        -5.66512        -3.82829
| 30>   Br       -6.79593        -8.34404        -4.88043
| 31>    C       -6.20183        -1.08934        -1.79194
| 32>    O       -7.27821        -0.53382        -1.79955
| 33>    C       -4.87980        -0.55345        -1.37127
| 34>    C       -4.58867         0.74338        -1.07788
| 35>    C       -5.48779         1.83066        -0.80939
| 36>    C       -5.07118         3.12842        -1.16231
| 37>    C       -5.90285         4.19312        -0.93141
| 38>    C       -7.15235         3.99780        -0.31416
| 39>    C       -7.55106         2.72904         0.08535
| 40>    C       -6.72167         1.65666        -0.16578
| 41>    C       -7.79663         5.28248        -0.17206
| 42>    C       -6.94911         6.27508        -0.69869
| 43>    C       -5.70025         5.65259        -1.28053
| 44>    C       -4.42105         6.22597        -0.65233
| 45>    C       -4.37773         6.03051         0.85900
| 46>    C       -5.67083         5.74867        -2.82471
| 47>    C       -5.67595         7.15712        -3.40365
| 48>    C       -7.30203         7.59940        -0.60609
| 49>    C       -8.52848         7.96225        -0.02269
| 50>    C       -9.37496         6.95412         0.46177
| 51>    C       -9.01510         5.62516         0.39963
| 52>    C       -8.85079         9.36576         0.04953
| 53>    C       -9.93812         9.90279         0.64257
| 54>    C      -10.24216        11.29164         0.71890
| 55>    S      -11.65598        11.80508         1.58242
| 56>    C      -11.36268        13.49338         1.27274
| 57>    C      -10.20678        13.63130         0.51823
| 58>    C       -9.58431        12.40709         0.21306
| 59>    O       -8.43757        12.25318        -0.50961
| 60>    C       -7.68121        13.22980        -1.02353
| 61>    O       -6.68663        12.93422        -1.62911
| 62>    C       -8.04738        14.69468        -0.86589
| 63>    O       -7.35240        15.56161        -1.31907
| 64>    S       -9.53149        15.16564        -0.01668
| 65>    C      -12.27061        14.43873         1.82152
| 66>    C      -12.23444        15.78180         1.67782
| 67>    C      -13.17143        16.63933         2.33298
| 68>    C      -13.18877        17.98339         2.29253
| 69>    C      -12.25856        18.83200         1.48788
| 70>    C      -14.20958        18.74781         3.10225
| 71>    N      -15.16601        19.42732         2.26206
| 72>    C      -15.06519        20.72913         1.91149
| 73>    C      -15.79643        21.32143         0.93222
| 74>    C      -15.74023        22.70068         0.65450
| 75>    C      -16.49635        23.33629        -0.29094
| 76>    C      -16.49642        24.71985        -0.60187
| 77>    C      -17.37418        25.07965        -1.57394
| 78>    C      -18.12699        24.00039        -2.10225
| 79>    S      -17.66935        22.50443        -1.31303
| 80>    C      -19.08976        24.04393        -3.08162
| 81>    C      -19.56141        25.18741        -3.78177
| 82>    C      -20.52516        24.92759        -4.69381
| 83>    C      -20.89411        23.54499        -4.79086
| 84>    S      -19.93092        22.60619        -3.63922
| 85>    C      -21.80925        22.99361        -5.60023
| 86>    H       -7.87664        -3.07988        -2.92477
| 87>    H       -3.02301        -4.24103        -2.48808
| 88>    H       -8.13049        -5.64990        -4.01924
| 89>    H       -3.54182         1.02589        -1.08571
| 90>    H       -4.10753         3.26429        -1.63206
| 91>    H       -8.49489         2.58135         0.58755
| 92>    H       -7.01055         0.67366         0.16578
| 93>    H       -4.36087         7.29185        -0.87456
| 94>    H       -3.55614         5.73832        -1.10641
| 95>    H       -5.22719         6.51743         1.33359
| 96>    H       -3.46462         6.45919         1.26505
| 97>    H       -4.40296         4.97310         1.11305
| 98>    H       -6.53929         5.20803        -3.21085
| 99>    H       -4.77700         5.22431        -3.17023
|100>    H       -6.60404         7.67096        -3.16946
|101>    H       -5.58768         7.09950        -4.48646
|102>    H       -4.84160         7.74460        -3.03050
|103>    H       -6.64345         8.37831        -0.95994
|104>    H      -10.32480         7.21847         0.89943
|105>    H       -9.66930         4.86212         0.79392
|106>    H       -8.13232        10.02595        -0.41379
|107>    H      -10.66762         9.26942         1.12788
|108>    H      -13.05742        13.99952         2.42238
|109>    H      -11.46407        16.23688         1.07726
|110>    H      -13.90812        16.13513         2.94743
|111>    H      -11.82723        18.28764         0.65399
|112>    H      -11.44438        19.19220         2.11849
|113>    H      -12.78511        19.70239         1.09764
|114>    H      -13.70628        19.50136         3.71520
|115>    H      -14.75037        18.06559         3.76592
|116>    H      -15.72631        18.83776         1.66327
|117>    H      -14.38929        21.31751         2.51833
|118>    H      -16.47392        20.72230         0.33862
|119>    H      -15.05764        23.30839         1.23468
|120>    H      -15.84451        25.40443        -0.08731
|121>    H      -17.50580        26.08624        -1.92842
|122>    H      -19.16698        26.16802        -3.58072
|123>    H      -21.00026        25.66637        -5.31471
|124>    H      -22.37296        23.60173        -6.28518
|125>    H      -22.00751        21.93775        -5.59371
|126> *
|127>
|128>                          ****END OF INPUT****

CARTESIAN COORDINATES (ANGSTROEM)
---------------------------------
  C     -3.890550   -1.605590   -1.550330
  C     -2.577520   -1.565970   -1.154550
  C     -1.666900   -2.627530   -1.333490
  N     -0.878130   -3.453010   -1.455550
  C     -1.955050   -0.488120   -0.491380
  N     -1.374300    0.333070    0.064150
  C     -4.556060   -2.750600   -2.153990
  C     -5.932490   -2.451900   -2.295170
  C     -6.833500   -3.338790   -2.832060
  C     -6.353240   -4.583990   -3.249930
  C     -4.974680   -4.873010   -3.109960
  C     -4.063810   -3.975740   -2.567970
  S     -4.593470   -6.464550   -3.695630
  C     -6.268330   -6.716640   -4.111240
  C     -7.073000   -5.665120   -3.828290
  Br    -6.795930   -8.344040   -4.880430
  C     -6.201830   -1.089340   -1.791940
  O     -7.278210   -0.533820   -1.799550
  C     -4.879800   -0.553450   -1.371270
  C     -4.588670    0.743380   -1.077880
  C     -5.487790    1.830660   -0.809390
  C     -5.071180    3.128420   -1.162310
  C     -5.902850    4.193120   -0.931410
  C     -7.152350    3.997800   -0.314160
  C     -7.551060    2.729040    0.085350
  C     -6.721670    1.656660   -0.165780
  C     -7.796630    5.282480   -0.172060
  C     -6.949110    6.275080   -0.698690
  C     -5.700250    5.652590   -1.280530
  C     -4.421050    6.225970   -0.652330
  C     -4.377730    6.030510    0.859000
  C     -5.670830    5.748670   -2.824710
  C     -5.675950    7.157120   -3.403650
  C     -7.302030    7.599400   -0.606090
  C     -8.528480    7.962250   -0.022690
  C     -9.374960    6.954120    0.461770
  C     -9.015100    5.625160    0.399630
  C     -8.850790    9.365760    0.049530
  C     -9.938120    9.902790    0.642570
  C    -10.242160   11.291640    0.718900
  S    -11.655980   11.805080    1.582420
  C    -11.362680   13.493380    1.272740
  C    -10.206780   13.631300    0.518230
  C     -9.584310   12.407090    0.213060
  O     -8.437570   12.253180   -0.509610
  C     -7.681210   13.229800   -1.023530
  O     -6.686630   12.934220   -1.629110
  C     -8.047380   14.694680   -0.865890
  O     -7.352400   15.561610   -1.319070
  S     -9.531490   15.165640   -0.016680
  C    -12.270610   14.438730    1.821520
  C    -12.234440   15.781800    1.677820
  C    -13.171430   16.639330    2.332980
  C    -13.188770   17.983390    2.292530
  C    -12.258560   18.832000    1.487880
  C    -14.209580   18.747810    3.102250
  N    -15.166010   19.427320    2.262060
  C    -15.065190   20.729130    1.911490
  C    -15.796430   21.321430    0.932220
  C    -15.740230   22.700680    0.654500
  C    -16.496350   23.336290   -0.290940
  C    -16.496420   24.719850   -0.601870
  C    -17.374180   25.079650   -1.573940
  C    -18.126990   24.000390   -2.102250
  S    -17.669350   22.504430   -1.313030
  C    -19.089760   24.043930   -3.081620
  C    -19.561410   25.187410   -3.781770
  C    -20.525160   24.927590   -4.693810
  C    -20.894110   23.544990   -4.790860
  S    -19.930920   22.606190   -3.639220
  C    -21.809250   22.993610   -5.600230
  H     -7.876640   -3.079880   -2.924770
  H     -3.023010   -4.241030   -2.488080
  H     -8.130490   -5.649900   -4.019240
  H     -3.541820    1.025890   -1.085710
  H     -4.107530    3.264290   -1.632060
  H     -8.494890    2.581350    0.587550
  H     -7.010550    0.673660    0.165780
  H     -4.360870    7.291850   -0.874560
  H     -3.556140    5.738320   -1.106410
  H     -5.227190    6.517430    1.333590
  H     -3.464620    6.459190    1.265050
  H     -4.402960    4.973100    1.113050
  H     -6.539290    5.208030   -3.210850
  H     -4.777000    5.224310   -3.170230
  H     -6.604040    7.670960   -3.169460
  H     -5.587680    7.099500   -4.486460
  H     -4.841600    7.744600   -3.030500
  H     -6.643450    8.378310   -0.959940
  H    -10.324800    7.218470    0.899430
  H     -9.669300    4.862120    0.793920
  H     -8.132320   10.025950   -0.413790
  H    -10.667620    9.269420    1.127880
  H    -13.057420   13.999520    2.422380
  H    -11.464070   16.236880    1.077260
  H    -13.908120   16.135130    2.947430
  H    -11.827230   18.287640    0.653990
  H    -11.444380   19.192200    2.118490
  H    -12.785110   19.702390    1.097640
  H    -13.706280   19.501360    3.715200
  H    -14.750370   18.065590    3.765920
  H    -15.726310   18.837760    1.663270
  H    -14.389290   21.317510    2.518330
  H    -16.473920   20.722300    0.338620
  H    -15.057640   23.308390    1.234680
  H    -15.844510   25.404430   -0.087310
  H    -17.505800   26.086240   -1.928420
  H    -19.166980   26.168020   -3.580720
  H    -21.000260   25.666370   -5.314710
  H    -22.372960   23.601730   -6.285180
  H    -22.007510   21.937750   -5.593710

 Total Charge           Charge          ....    0
 Multiplicity           Mult            ....    1
 Number of Electrons    NEL             ....  556
 Basis Dimension        Dim             .... 1232

ORBITAL ENERGIES
----------------

  NO   OCC          E(Eh)            E(eV)
   0   2.0000    -482.886338    -13140.0053
   1   2.0000     -88.979460     -2421.2542
   2   2.0000     -88.976843     -2421.1830
   3   2.0000     -88.976177     -2421.1649
   4   2.0000     -88.921763     -2419.6842
   5   2.0000     -88.916720     -2419.5470
   6   2.0000     -62.564043     -1702.4542
   7   2.0000     -56.397995     -1534.6675
   8   2.0000     -56.395275     -1534.5935
   9   2.0000     -56.395244     -1534.5926
  10   2.0000     -19.313061      -525.5351
  11   2.0000     -19.249502      -523.8056
  12   2.0000     -19.235372      -523.4211
  13   2.0000     -19.215567      -522.8822
  14   2.0000     -14.437903      -392.8753
  15   2.0000     -14.414473      -392.2378
  16   2.0000     -14.414393      -392.2356
  17   2.0000     -10.438852      -284.0556
  18   2.0000     -10.415609      -283.4231
  19   2.0000     -10.368087      -282.1300
  20   2.0000     -10.367780      -282.1216
  21   2.0000     -10.359877      -281.9066
  22   2.0000     -10.341474      -281.4058
  23   2.0000     -10.340666      -281.3838
  24   2.0000     -10.332853      -281.1712
  25   2.0000     -10.328196      -281.0445
  26   2.0000     -10.326264      -280.9919
  27   2.0000     -10.323282      -280.9108
  28   2.0000     -10.319200      -280.7997
  29   2.0000     -10.317405      -280.7509
  30   2.0000     -10.317349      -280.7493
  31   2.0000     -10.315454      -280.6978
  32   2.0000     -10.315311      -280.6939
  33   2.0000     -10.308404      -280.5059
  34   2.0000     -10.308141      -280.4988
  35   2.0000     -10.306001      -280.4405
  36   2.0000     -10.301214      -280.3103
  37   2.0000     -10.297566      -280.2110
  38   2.0000     -10.297411      -280.2068
  39   2.0000     -10.297134      -280.1993
  40   2.0000     -10.292329      -280.0685
  41   2.0000     -10.291854      -280.0556
  42   2.0000     -10.290912      -280.0300
  43   2.0000     -10.290199      -280.0105
  44   2.0000     -10.290137      -280.0089
  45   2.0000     -10.287696      -279.9424
  46   2.0000     -10.286488      -279.9096
  47   2.0000     -10.285044      -279.8703
  48   2.0000     -10.283558      -279.8298
  49   2.0000     -10.283217      -279.8206
  50   2.0000     -10.282920      -279.8125
  51   2.0000     -10.282650      -279.8051
  52   2.0000     -10.282166      -279.7920
  53   2.0000     -10.280017      -279.7335
  54   2.0000     -10.279990      -279.7327
  55   2.0000     -10.279202      -279.7113
  56   2.0000     -10.278875      -279.7024
  57   2.0000     -10.277364      -279.6613
  58   2.0000     -10.276961      -279.6503
  59   2.0000     -10.275727      -279.6168
  60   2.0000     -10.275530      -279.6114
  61   2.0000     -10.274762      -279.5905
  62   2.0000     -10.274328      -279.5787
  63   2.0000     -10.274296      -279.5778
  64   2.0000     -10.270107      -279.4638
  65   2.0000     -10.268881      -279.4305
  66   2.0000     -10.267807      -279.4012
  67   2.0000     -10.266176      -279.3569
  68   2.0000     -10.265186      -279.3299
  69   2.0000     -10.264969      -279.3240
  70   2.0000     -10.262024      -279.2439
  71   2.0000     -10.253160      -279.0027
  72   2.0000     -10.252072      -278.9730
  73   2.0000     -10.247766      -278.8559
  74   2.0000     -10.247141      -278.8389
  75   2.0000      -8.793469      -239.2825
  76   2.0000      -8.075297      -219.7400
  77   2.0000      -8.072497      -219.6638
  78   2.0000      -8.072100      -219.6530
  79   2.0000      -8.018052      -218.1823
  80   2.0000      -8.013397      -218.0556
  81   2.0000      -6.629761      -180.4050
  82   2.0000      -6.615209      -180.0090
  83   2.0000      -6.615006      -180.0035
  84   2.0000      -6.045039      -164.4939
  85   2.0000      -6.041792      -164.4055
  86   2.0000      -6.041733      -164.4039
  87   2.0000      -6.040710      -164.3761
  88   2.0000      -6.037905      -164.2998
  89   2.0000      -6.037518      -164.2892
  90   2.0000      -6.036308      -164.2563
  91   2.0000      -6.034354      -164.2031
  92   2.0000      -6.033338      -164.1755
  93   2.0000      -5.987797      -162.9362
  94   2.0000      -5.983971      -162.8321
  95   2.0000      -5.983230      -162.8120
  96   2.0000      -5.979394      -162.7076
  97   2.0000      -5.978789      -162.6911
  98   2.0000      -5.973875      -162.5574
  99   2.0000      -2.745648       -74.7129
 100   2.0000      -2.741550       -74.6014
 101   2.0000      -2.741388       -74.5970
 102   2.0000      -2.729824       -74.2823
 103   2.0000      -2.729807       -74.2818
 104   2.0000      -1.241323       -33.7781
 105   2.0000      -1.172653       -31.9095
 106   2.0000      -1.136541       -30.9268
 107   2.0000      -1.131315       -30.7847
 108   2.0000      -1.039969       -28.2990
 109   2.0000      -1.023029       -27.8380
 110   2.0000      -1.013848       -27.5882
 111   2.0000      -1.013048       -27.5664
 112   2.0000      -0.994403       -27.0591
 113   2.0000      -0.992844       -27.0167
 114   2.0000      -0.989169       -26.9167
 115   2.0000      -0.970589       -26.4111
 116   2.0000      -0.956120       -26.0173
 117   2.0000      -0.947836       -25.7919
 118   2.0000      -0.943427       -25.6720
 119   2.0000      -0.938990       -25.5512
 120   2.0000      -0.929040       -25.2805
 121   2.0000      -0.925565       -25.1859
 122   2.0000      -0.908417       -24.7193
 123   2.0000      -0.904762       -24.6198
 124   2.0000      -0.899024       -24.4637
 125   2.0000      -0.890665       -24.2362
 126   2.0000      -0.886238       -24.1158
 127   2.0000      -0.882330       -24.0094
 128   2.0000      -0.872337       -23.7375
 129   2.0000      -0.861817       -23.4512
 130   2.0000      -0.852633       -23.2013
 131   2.0000      -0.849177       -23.1073
 132   2.0000      -0.840580       -22.8734
 133   2.0000      -0.839247       -22.8371
 134   2.0000      -0.836552       -22.7637
 135   2.0000      -0.829922       -22.5833
 136   2.0000      -0.826551       -22.4916
 137   2.0000      -0.823784       -22.4163
 138   2.0000      -0.818212       -22.2647
 139   2.0000      -0.803122       -21.8541
 140   2.0000      -0.798079       -21.7168
 141   2.0000      -0.786974       -21.4147
 142   2.0000      -0.781184       -21.2571
 143   2.0000      -0.771355       -20.9896
 144   2.0000      -0.769353       -20.9352
 145   2.0000      -0.767256       -20.8781
 146   2.0000      -0.758564       -20.6416
 147   2.0000      -0.750270       -20.4159
 148   2.0000      -0.743123       -20.2214
 149   2.0000      -0.728070       -19.8118
 150   2.0000      -0.718185       -19.5428
 151   2.0000      -0.708428       -19.2773
 152   2.0000      -0.708006       -19.2658
 153   2.0000      -0.694780       -18.9059
 154   2.0000      -0.692187       -18.8354
 155   2.0000      -0.689317       -18.7573
 156   2.0000      -0.687922       -18.7193
 157   2.0000      -0.678672       -18.4676
 158   2.0000      -0.674173       -18.3452
 159   2.0000      -0.669888       -18.2286
 160   2.0000      -0.664669       -18.0866
 161   2.0000      -0.660425       -17.9711
 162   2.0000      -0.655875       -17.8473
 163   2.0000      -0.653234       -17.7754
 164   2.0000      -0.640310       -17.4237
 165   2.0000      -0.628356       -17.0984
 166   2.0000      -0.623035       -16.9537
 167   2.0000      -0.620613       -16.8877
 168   2.0000      -0.618152       -16.8208
 169   2.0000      -0.606801       -16.5119
 170   2.0000      -0.601748       -16.3744
 171   2.0000      -0.600928       -16.3521
 172   2.0000      -0.599694       -16.3185
 173   2.0000      -0.597940       -16.2708
 174   2.0000      -0.597552       -16.2602
 175   2.0000      -0.593794       -16.1579
 176   2.0000      -0.587853       -15.9963
 177   2.0000      -0.580364       -15.7925
 178   2.0000      -0.579052       -15.7568
 179   2.0000      -0.575856       -15.6698
 180   2.0000      -0.565427       -15.3861
 181   2.0000      -0.563303       -15.3282
 182   2.0000      -0.559616       -15.2279
 183   2.0000      -0.558439       -15.1959
 184   2.0000      -0.549567       -14.9545
 185   2.0000      -0.547445       -14.8967
 186   2.0000      -0.544326       -14.8119
 187   2.0000      -0.541804       -14.7432
 188   2.0000      -0.540421       -14.7056
 189   2.0000      -0.537600       -14.6289
 190   2.0000      -0.535253       -14.5650
 191   2.0000      -0.534643       -14.5484
 192   2.0000      -0.531363       -14.4591
 193   2.0000      -0.529192       -14.4000
 194   2.0000      -0.524771       -14.2797
 195   2.0000      -0.524284       -14.2665
 196   2.0000      -0.522433       -14.2161
 197   2.0000      -0.520714       -14.1693
 198   2.0000      -0.517940       -14.0939
 199   2.0000      -0.513912       -13.9843
 200   2.0000      -0.512652       -13.9500
 201   2.0000      -0.508951       -13.8492
 202   2.0000      -0.507831       -13.8188
 203   2.0000      -0.506573       -13.7846
 204   2.0000      -0.502603       -13.6765
 205   2.0000      -0.502199       -13.6655
 206   2.0000      -0.500419       -13.6171
 207   2.0000      -0.495607       -13.4861
 208   2.0000      -0.492838       -13.4108
 209   2.0000      -0.490974       -13.3601
 210   2.0000      -0.488860       -13.3025
 211   2.0000      -0.484683       -13.1889
 212   2.0000      -0.483894       -13.1674
 213   2.0000      -0.480033       -13.0624
 214   2.0000      -0.474894       -12.9225
 215   2.0000      -0.474303       -12.9064
 216   2.0000      -0.473374       -12.8812
 217   2.0000      -0.472371       -12.8539
 218   2.0000      -0.467973       -12.7342
 219   2.0000      -0.467297       -12.7158
 220   2.0000      -0.462483       -12.5848
 221   2.0000      -0.460448       -12.5294
 222   2.0000      -0.458683       -12.4814
 223   2.0000      -0.456750       -12.4288
 224   2.0000      -0.455269       -12.3885
 225   2.0000      -0.451609       -12.2889
 226   2.0000      -0.449485       -12.2311
 227   2.0000      -0.448389       -12.2013
 228   2.0000      -0.447937       -12.1890
 229   2.0000      -0.447532       -12.1780
 230   2.0000      -0.446995       -12.1634
 231   2.0000      -0.446061       -12.1379
 232   2.0000      -0.442703       -12.0466
 233   2.0000      -0.442083       -12.0297
 234   2.0000      -0.440062       -11.9747
 235   2.0000      -0.438715       -11.9380
 236   2.0000      -0.435690       -11.8557
 237   2.0000      -0.434971       -11.8362
 238   2.0000      -0.432651       -11.7730
 239   2.0000      -0.430177       -11.7057
 240   2.0000      -0.427758       -11.6399
 241   2.0000      -0.425652       -11.5826
 242   2.0000      -0.423473       -11.5233
 243   2.0000      -0.421539       -11.4707
 244   2.0000      -0.416346       -11.3293
 245   2.0000      -0.415847       -11.3158
 246   2.0000      -0.414087       -11.2679
 247   2.0000      -0.407390       -11.0856
 248   2.0000      -0.407090       -11.0775
 249   2.0000      -0.406256       -11.0548
 250   2.0000      -0.399840       -10.8802
 251   2.0000      -0.399172       -10.8620
 252   2.0000      -0.397904       -10.8275
 253   2.0000      -0.390996       -10.6396
 254   2.0000      -0.389716       -10.6047
 255   2.0000      -0.387014       -10.5312
 256   2.0000      -0.383037       -10.4230
 257   2.0000      -0.376650       -10.2492
 258   2.0000      -0.375659       -10.2222
 259   2.0000      -0.375416       -10.2156
 260   2.0000      -0.373097       -10.1525
 261   2.0000      -0.359895        -9.7932
 262   2.0000      -0.356113        -9.6903
 263   2.0000      -0.342098        -9.3089
 264   2.0000      -0.338376        -9.2077
 265   2.0000      -0.328278        -8.9329
 266   2.0000      -0.325441        -8.8557
 267   2.0000      -0.318763        -8.6740
 268   2.0000      -0.317693        -8.6449
 269   2.0000      -0.315873        -8.5953
 270   2.0000      -0.314551        -8.5594
 271   2.0000      -0.310520        -8.4497
 272   2.0000      -0.301829        -8.2132
 273   2.0000      -0.294106        -8.0030
 274   2.0000      -0.280413        -7.6304
 275   2.0000      -0.263592        -7.1727
 276   2.0000      -0.246790        -6.7155
 277   2.0000      -0.192248        -5.2313
 278   0.0000      -0.089497        -2.4353
 279   0.0000      -0.067896        -1.8475
 280   0.0000      -0.057998        -1.5782
 281   0.0000      -0.048597        -1.3224
 282   0.0000      -0.039140        -1.0651

MULLIKEN ATOMIC CHARGES
-----------------------
   0 C :    0.298383
   1 C :   -0.347531
   2 C :   -0.184278
   3 N :    0.148234
   4 C :   -0.201979
   5 N :    0.160383
   6 C :    0.017992
   7 C :   -0.015908
   8 C :   -0.075348
   9 C :    0.118885
  10 C :   -0.090068
  11 C :   -0.022433
  12 S :    0.186496
  13 C :   -0.123774
  14 C :    0.040965
  15 Br:    0.024284
  16 C :    0.139532
  17 O :   -0.144093
  18 C :   -0.069463
  19 C :   -0.036400
  20 C :    0.072080
  21 C :   -0.087785
  22 C :    0.016888
  23 C :    0.115147
  24 C :   -0.062445
  25 C :    0.071126
  26 C :    0.099761
  27 C :    0.029205
  28 C :   -0.132544
  29 C :    0.050637
  30 C :    0.025990
  31 C :    0.078733
  32 C :    0.026508
  33 C :   -0.114568
  34 C :    0.124399
  35 C :   -0.010286
  36 C :   -0.041995
  37 C :   -0.021188
  38 C :    0.071294
  39 C :   -0.127805
  40 S :    0.155160
  41 C :   -0.158024
  42 C :   -0.029453
  43 C :    0.165826
  44 O :   -0.209383
  45 C :    0.212099
  46 O :   -0.123327
  47 C :    0.026545
  48 O :   -0.118267
  49 S :    0.082181
  50 C :    0.046633
  51 C :   -0.010794
  52 C :    0.001859
  53 C :   -0.189619
  54 C :    0.088517
  55 C :    0.207878
  56 N :   -0.148203
  57 C :    0.048253
  58 C :   -0.027349
  59 C :   -0.013390
  60 C :   -0.037848
  61 C :    0.040067
  62 C :    0.012945
  63 C :   -0.040849
  64 S :    0.047350
  65 C :   -0.077149
  66 C :    0.032272
  67 C :    0.038315
  68 C :   -0.058306
  69 S :    0.058627
  70 C :   -0.043393
  71 H :   -0.010710
  72 H :   -0.004956
  73 H :   -0.002696
  74 H :    0.029358
  75 H :   -0.028479
  76 H :   -0.031108
  77 H :   -0.016531
  78 H :    0.011273
  79 H :    0.001595
  80 H :    0.018503
  81 H :    0.012659
  82 H :    0.021532
  83 H :    0.005318
  84 H :   -0.003363
  85 H :    0.021369
  86 H :    0.016139
  87 H :    0.008006
  88 H :   -0.025510
  89 H :   -0.030200
  90 H :   -0.033158
  91 H :    0.001689
  92 H :   -0.027682
  93 H :   -0.018448
  94 H :    0.006831
  95 H :   -0.029745
  96 H :    0.026617
  97 H :    0.031097
  98 H :    0.028807
  99 H :    0.017549
 100 H :    0.007617
 101 H :    0.119393
 102 H :   -0.001023
 103 H :   -0.014772
 104 H :   -0.027577
 105 H :   -0.023306
 106 H :   -0.024046
 107 H :   -0.019671
 108 H :   -0.021311
 109 H :    0.010325
 110 H :    0.012415
Sum of atomic charges:   -0.0000000

LOEWDIN ATOMIC CHARGES
----------------------
   0 C :    0.076943
   1 C :   -0.141232
   2 C :   -0.017788
   3 N :   -0.054348
   4 C :   -0.024943
   5 N :   -0.051127
   6 C :   -0.022118
   7 C :   -0.050169
   8 C :    0.021507
   9 C :   -0.032082
  10 C :   -0.143429
  11 C :   -0.009533
  12 S :    0.432443
  13 C :   -0.270853
  14 C :   -0.070687
  15 Br:    0.137291
  16 C :    0.082192
  17 O :   -0.135548
  18 C :   -0.097882
  19 C :    0.085445
  20 C :   -0.043505
  21 C :    0.001125
  22 C :    0.000322
  23 C :    0.005208
  24 C :   -0.021907
  25 C :    0.026357
  26 C :   -0.018096
  27 C :    0.007991
  28 C :   -0.034664
  29 C :   -0.014887
  30 C :   -0.056041
  31 C :   -0.009313
  32 C :   -0.058596
  33 C :   -0.015896
  34 C :   -0.022834
  35 C :   -0.012969
  36 C :   -0.012454
  37 C :   -0.001322
  38 C :   -0.051908
  39 C :   -0.182371
  40 S :    0.463544
  41 C :   -0.186035
  42 C :   -0.223891
  43 C :   -0.007082
  44 O :   -0.012715
  45 C :    0.047244
  46 O :   -0.099268
  47 C :   -0.103870
  48 O :   -0.095954
  49 S :    0.392522
  50 C :   -0.051820
  51 C :   -0.022552
  52 C :   -0.052673
  53 C :   -0.032532
  54 C :   -0.051315
  55 C :    0.046107
  56 N :   -0.001838
  57 C :    0.036422
  58 C :   -0.122982
  59 C :   -0.041748
  60 C :   -0.174994
  61 C :   -0.030628
  62 C :   -0.051342
  63 C :   -0.172460
  64 S :    0.344881
  65 C :   -0.197020
  66 C :   -0.025815
  67 C :   -0.047883
  68 C :   -0.136926
  69 S :    0.334074
  70 C :   -0.100132
  71 H :    0.040761
  72 H :    0.041226
  73 H :    0.039036
  74 H :    0.045602
  75 H :    0.028592
  76 H :    0.029142
  77 H :    0.030841
  78 H :    0.021626
  79 H :    0.021608
  80 H :    0.024690
  81 H :    0.025822
  82 H :    0.025159
  83 H :    0.026521
  84 H :    0.020161
  85 H :    0.024613
  86 H :    0.029124
  87 H :    0.021642
  88 H :    0.028420
  89 H :    0.025001
  90 H :    0.028415
  91 H :    0.031062
  92 H :    0.025321
  93 H :    0.028997
  94 H :    0.012113
  95 H :    0.024498
  96 H :    0.032691
  97 H :    0.040984
  98 H :    0.036927
  99 H :    0.032011
 100 H :    0.025601
 101 H :    0.079993
 102 H :    0.025182
 103 H :    0.018243
 104 H :    0.028079
 105 H :    0.029226
 106 H :    0.027186
 107 H :    0.029317
 108 H :    0.029060
 109 H :    0.024087
 110 H :    0.021775

  Mayer bond orders larger than 0.100000
B(  0-C ,  1-C ) :   1.6384 B(  0-C ,  6-C ) :   1.0092 B(  0-C , 18-C ) :   1.0566
B(  1-C ,  2-C ) :   1.1412 B(  1-C ,  4-C ) :   1.1433 B(  2-C ,  3-N ) :   2.9710
B(  4-C ,  5-N ) :   2.9887 B(  6-C ,  7-C ) :   1.2732 B(  6-C , 11-C ) :   1.4020
B(  7-C ,  8-C ) :   1.4214 B(  7-C , 16-C ) :   0.9421 B(  8-C ,  9-C ) :   1.2447
B(  8-C , 71-H ) :   1.0176 B(  9-C , 10-C ) :   1.3059 B(  9-C , 14-C ) :   1.1635
B( 10-C , 11-C ) :   1.3339 B( 10-C , 12-S ) :   1.0845 B( 11-C , 72-H ) :   0.9806
B( 12-S , 13-C ) :   1.0870 B( 13-C , 14-C ) :   1.6174 B( 13-C , 15-Br) :   1.0195
B( 14-C , 73-H ) :   1.0001 B( 16-C , 17-O ) :   2.2282 B( 16-C , 18-C ) :   0.9331
B( 18-C , 19-C ) :   1.6111 B( 19-C , 20-C ) :   1.0936 B( 19-C , 74-H ) :   0.9517
B( 20-C , 21-C ) :   1.2530 B( 20-C , 25-C ) :   1.3482 B( 21-C , 22-C ) :   1.4006
B( 21-C , 75-H ) :   1.0100 B( 22-C , 23-C ) :   1.3593 B( 22-C , 28-C ) :   0.9253
B( 23-C , 24-C ) :   1.3233 B( 23-C , 26-C ) :   1.0074 B( 24-C , 25-C ) :   1.4073
B( 24-C , 76-H ) :   0.9928 B( 25-C , 77-H ) :   0.9759 B( 26-C , 27-C ) :   1.3833
B( 26-C , 36-C ) :   1.3183 B( 27-C , 28-C ) :   0.9170 B( 27-C , 33-C ) :   1.3753
B( 28-C , 29-C ) :   1.0314 B( 28-C , 31-C ) :   1.0144 B( 29-C , 30-C ) :   1.1042
B( 29-C , 78-H ) :   0.9388 B( 29-C , 79-H ) :   0.9394 B( 30-C , 80-H ) :   0.9651
B( 30-C , 81-H ) :   0.9648 B( 30-C , 82-H ) :   0.9630 B( 31-C , 32-C ) :   1.1137
B( 31-C , 83-H ) :   0.9390 B( 31-C , 84-H ) :   0.9370 B( 32-C , 85-H ) :   0.9614
B( 32-C , 86-H ) :   0.9594 B( 32-C , 87-H ) :   0.9639 B( 33-C , 34-C ) :   1.2824
B( 33-C , 88-H ) :   1.0102 B( 34-C , 35-C ) :   1.3391 B( 34-C , 37-C ) :   1.0700
B( 35-C , 36-C ) :   1.4081 B( 35-C , 89-H ) :   0.9835 B( 36-C , 90-H ) :   0.9898
B( 37-C , 38-C ) :   1.6795 B( 37-C , 91-H ) :   0.9885 B( 38-C , 39-C ) :   1.1198
B( 38-C , 92-H ) :   0.9441 B( 39-C , 40-S ) :   1.1244 B( 39-C , 41-C ) :   0.1101
B( 39-C , 43-C ) :   1.4972 B( 40-S , 41-C ) :   1.1297 B( 41-C , 42-C ) :   1.5360
B( 41-C , 50-C ) :   1.1159 B( 42-C , 43-C ) :   1.2659 B( 42-C , 49-S ) :   0.9545
B( 43-C , 44-O ) :   1.0548 B( 44-O , 45-C ) :   1.0859 B( 45-C , 46-O ) :   2.2223
B( 45-C , 47-C ) :   0.8092 B( 47-C , 48-O ) :   2.1705 B( 47-C , 49-S ) :   1.0474
B( 48-O , 49-S ) :   0.1385 B( 50-C , 51-C ) :   1.6972 B( 50-C , 93-H ) :   0.9603
B( 51-C , 52-C ) :   1.1192 B( 51-C , 94-H ) :   0.9606 B( 52-C , 53-C ) :   1.7548
B( 52-C , 95-H ) :   0.9769 B( 53-C , 54-C ) :   1.0708 B( 53-C , 55-C ) :   1.0428
B( 54-C , 96-H ) :   0.9492 B( 54-C , 97-H ) :   0.9435 B( 54-C , 98-H ) :   0.9453
B( 55-C , 56-N ) :   1.0108 B( 55-C , 99-H ) :   0.9289 B( 55-C ,100-H ) :   0.9402
B( 56-N , 57-C ) :   1.2143 B( 56-N ,101-H ) :   0.9378 B( 57-C , 58-C ) :   1.6053
B( 57-C ,102-H ) :   0.9649 B( 58-C , 59-C ) :   1.1601 B( 58-C ,103-H ) :   0.9641
B( 59-C , 60-C ) :   1.6045 B( 59-C ,104-H ) :   0.9781 B( 60-C , 61-C ) :   1.1358
B( 60-C , 64-S ) :   1.0056 B( 61-C , 62-C ) :   1.6090 B( 61-C ,105-H ) :   0.9970
B( 62-C , 63-C ) :   1.1698 B( 62-C ,106-H ) :   0.9925 B( 63-C , 64-S ) :   1.0422
B( 63-C , 65-C ) :   1.5586 B( 65-C , 66-C ) :   1.1599 B( 65-C , 69-S ) :   1.0263
B( 66-C , 67-C ) :   1.6537 B( 66-C ,107-H ) :   0.9912 B( 67-C , 68-C ) :   1.0845
B( 67-C ,108-H ) :   0.9923 B( 68-C , 69-S ) :   1.0108 B( 68-C , 70-C ) :   1.8599
B( 70-C ,109-H ) :   0.9500 B( 70-C ,110-H ) :   0.9408

-----------------------------------------------------------------------------
         ABSORPTION SPECTRUM VIA TRANSITION ELECTRIC DIPOLE MOMENTS
-----------------------------------------------------------------------------
State   Energy  Wavelength   fosc         T2         TX        TY        TZ
        (cm-1)    (nm)                  (au**2)     (au)      (au)      (au)
-----------------------------------------------------------------------------
   0   16771.2    596.3   0.328459037   6.44751  -1.54905   1.86293  -0.75991
   1   18997.6    526.4   0.330286683   5.72359   1.55947  -1.30226   1.26323
   2   20394.8    490.3   1.241578524  20.04148  -2.92553   2.17674  -2.59703
   3   21363.5    468.1   1.625166949  25.04387   1.61667  -4.49881  -1.48020
   4   22226.5    449.9   0.078592078   1.16408   0.09568   0.72756   0.79094
   5   23530.9    425.0   0.010998825   0.15388   0.30860   0.08752   0.22580
   6   24913.9    401.4   0.002869098   0.03791   0.01917   0.11543   0.15563
   7   26928.7    371.4   0.616202762   7.53328  -0.71072   2.55406   0.71060
   8   27322.5    366.0   0.094605336   1.13991   0.13840   0.99979   0.34812
   9   28539.3    350.4   0.416712019   4.80694   0.38003   1.94304   0.94186
  10   28917.6    345.8   0.203617874   2.31808  -1.33123   0.72578  -0.13839
  11   29292.3    341.4   0.000717927   0.00807   0.02135  -0.01844  -0.08528
  12   29955.8    333.8   0.006878660   0.07560  -0.22056  -0.02090  -0.16283
  13   30530.6    327.5   0.014821060   0.15982   0.35892  -0.11922   0.12954
  14   30672.1    326.0   0.132985196   1.42737  -0.34709  -1.13705  -0.11841
  15   32033.5    312.2   0.099804214   1.02570   0.52777  -0.79987  -0.32767
  16   32327.7    309.3   0.027066614   0.27564   0.08106   0.50326   0.12567
  17   32951.1    303.5   0.057929537   0.57877   0.65073  -0.27037  -0.28674
  18   32985.0    303.2   0.002284406   0.02280  -0.10445   0.03621   0.10285
  19   33506.4    298.5   0.079803799   0.78410   0.66108  -0.29516  -0.50985
  20   33895.9    295.0   0.531456881   5.16174   1.63941   1.25588   0.94702
  21   34115.5    293.1   0.159027665   1.53460  -0.67962  -0.97019  -0.36256
  22   34710.1    288.1   0.139355652   1.32173  -0.50588  -0.77914   0.67733
  23   34833.9    287.1   0.067723671   0.64005  -0.25907   0.67698   0.33857
  24   35507.1    281.6   0.009164726   0.08497  -0.24869   0.02409   0.15016
  25   35663.6    280.4   0.073505192   0.67853  -0.59324   0.21447   0.52971
  26   35995.0    277.8   0.011521466   0.10538  -0.29574   0.05508   0.12197
  27   36276.9    275.7   0.088349812   0.80177   0.55083   0.60621  -0.36176
  28   36774.6    271.9   0.192546646   1.72371  -0.55914  -1.10373   0.43914
  29   36968.8    270.5   0.048570323   0.43253   0.20831   0.60657   0.14561
  30   37488.0    266.8   0.084638361   0.74328  -0.28941  -0.81163   0.02773
  31   37583.6    266.1   0.020408506   0.17877  -0.33559  -0.12413  -0.22526
  32   38038.1    262.9   0.028807912   0.24933  -0.16790  -0.45646  -0.11306
  33   39423.3    253.7   0.012614386   0.10534  -0.05075   0.31716  -0.04659
  34   39521.4    253.0   0.273061428   2.27459   0.97322  -1.11703  -0.28229
  35   39663.0    252.1   0.007102030   0.05895  -0.08725  -0.22573   0.01957
  36   39843.1    251.0   0.022326785   0.18448   0.38014   0.18891  -0.06546
  37   40142.8    249.1   0.054701757   0.44861  -0.62098   0.22617   0.10878
  38   40325.7    248.0   0.004553692   0.03718  -0.07888  -0.06416  -0.16382

FINAL SINGLE POINT ENERGY     -7260.183913853397

DIPOLE MOMENT
-------------
                                X             Y             Z
Electronic contribution:     56.98552    -281.69996     -56.08422
Nuclear contribution   :    -59.13895     281.61590      57.53899
                        -----------------------------------------
Total Dipole Moment    :     -2.15344      -0.08406       1.45477
                        -----------------------------------------
Magnitude (a.u.)       :      2.60014
Magnitude (Debye)      :      6.60903

Rotational constants in cm-1:     0.001522     0.000114     0.000109
Rotational constants in MHz :    45.622032     3.419637     3.267129

                             ****ORCA TERMINATED NORMALLY****
TOTAL RUN TIME: 0 days 0 hours 9 minutes 40 seconds 822 msec
