                         Program Version 4.2.0 -  RELEASE  -
|  1> # ORCA input file
|  2> # SCF done       -200.889238735322          0.000736202429
|  3> ! CAM-B3LYP def2-SVP def2/J RIJCOSX Grid4 TightSCF
|  4> %maxcore 5000
|  5> %tddft
|  6>     Mode sTDDFT
|  7>     Ethresh 5.0
|  8>     maxcore 5000
|  9> end
| 10>
| 11> %pal
| 12>   nprocs 6
| 13>   end
| 14> * xyz 0 1
| 15>    C       -4.77337        -1.80641        -1.85719
| 16>    C       -3.50450        -2.06571        -1.41090
| 17>    C       -2.82262        -3.28105        -1.63139
| 18>    N       -2.21657        -4.24408        -1.78304
| 19>    C       -2.71279        -1.17983        -0.64909
| 20>    N       -2.01155        -0.52578        -0.01712
| 21>    C       -5.63195        -2.74430        -2.56624
| 22>    C       -6.91148        -2.15866        -2.72153
| 23>    C       -7.94830        -2.79994        -3.35501
| 24>    C       -7.71118        -4.08245        -3.85944
| 25>    C       -6.42751        -4.65919        -3.70300
| 26>    C       -5.37957        -4.01053        -3.06283
| 27>    S       -6.34987        -6.24572        -4.40752
| 28>    C       -8.01949        -6.11576        -4.89351
| 29>    C       -8.60693        -4.94547        -4.54780
| 30>   Br       -8.82793        -7.53561        -5.81400
| 31>    C       -6.92053        -0.80893        -2.12102
| 32>    O       -7.86006        -0.04557        -2.10607
| 33>    C       -5.53165        -0.58313        -1.63704
| 34>    C       -4.99216         0.61040        -1.27230
| 35>    C       -5.66526         1.84332        -0.97001
| 36>    C       -5.00193         3.04555        -1.27927
| 37>    C       -5.61799         4.24197        -1.02173
| 38>    C       -6.88523         4.27543        -0.40913
| 39>    C       -7.52340         3.09618        -0.05017
| 40>    C       -6.91548         1.89131        -0.33735
| 41>    C       -7.28262         5.65767        -0.25663
| 42>    C       -6.26391         6.47756        -0.77193
| 43>    C       -5.13009         5.64081        -1.31330
| 44>    C       -3.80539         5.94874        -0.59375
| 45>    C       -3.89297         5.74657         0.91408
| 46>    C       -4.96229         5.86315        -2.82801
| 47>    C       -6.22726         5.55459        -3.62019
| 48>    C       -6.38622         7.84548        -0.74749
| 49>    C       -7.54778         8.42939        -0.22074
| 50>    C       -8.55282         7.59843         0.29330
| 51>    C       -8.42920         6.22444         0.28213
| 52>    C       -7.66301         9.87165        -0.22829
| 53>    C       -8.80044        10.55468        -0.03238
| 54>    N       -8.87145        11.92589        -0.04498
| 55>    C      -10.01092        12.64385         0.06895
| 56>    S      -11.56056        11.86916         0.12904
| 57>    C      -12.32629        13.43034         0.17874
| 58>    N      -13.71724        13.44860         0.26249
| 59>    O      -14.27605        14.52983         0.29307
| 60>    O      -14.27376        12.36068         0.29494
| 61>    C      -11.43884        14.47203         0.14371
| 62>    C      -10.10122        14.04389         0.09114
| 63>    C       -8.94203        14.89819         0.10024
| 64>    C       -8.94310        16.19491        -0.24325
| 65>    C       -7.77339        17.04176        -0.18891
| 66>    C       -7.85946        18.40580         0.00689
| 67>    C       -9.11525        19.18954         0.14823
| 68>    F       -9.88052        19.13965        -0.96048
| 69>    F       -9.89547        18.73903         1.14939
| 70>    F       -8.88488        20.48360         0.39373
| 71>    S       -6.34015        19.19818         0.14583
| 72>    C       -5.53783        17.67868        -0.08617
| 73>    C       -4.14213        17.62506        -0.13169
| 74>    N       -2.99566        17.58637        -0.17108
| 75>    C       -6.40962        16.61951        -0.26063
| 76>    C       -5.92423        15.28418        -0.55647
| 77>    C       -4.81996        14.67816         0.01301
| 78>    C       -4.61843        13.41752        -0.62566
| 79>    C       -3.62545        12.47740        -0.48552
| 80>    C       -3.64418        11.37954        -1.36127
| 81>    C       -2.74495        10.33482        -1.54195
| 82>    C       -3.17780         9.53179        -2.64170
| 83>    C       -4.36246        10.06397        -3.11923
| 84>    C       -4.68663        11.23211        -2.35507
| 85>    C       -5.69275        12.15478        -2.47819
| 86>    C       -5.65971        13.27365        -1.61811
| 87>    C       -6.45007        14.41555        -1.56156
| 88>    C       -2.48141         8.39592        -3.20154
| 89>    C       -1.40884         7.81279        -2.67440
| 90>    H       -8.91215        -2.32629        -3.45695
| 91>    H       -4.41840        -4.48867        -2.97453
| 92>    H       -9.62919        -4.69871        -4.76930
| 93>    H       -3.91000         0.67655        -1.24649
| 94>    H       -4.02783         3.00903        -1.74579
| 95>    H       -8.48218         3.11705         0.44464
| 96>    H       -7.39293         0.97218        -0.04190
| 97>    H       -3.52634         6.98207        -0.80864
| 98>    H       -3.02583         5.30285        -1.00225
| 99>    H       -4.65105         6.39669         1.34561
|100>    H       -2.93684         5.97656         1.37798
|101>    H       -4.14949         4.71639         1.15049
|102>    H       -4.14527         5.23337        -3.18580
|103>    H       -4.67829         6.90393        -2.98786
|104>    H       -6.52195         4.51552        -3.49187
|105>    H       -6.05717         5.73357        -4.67952
|106>    H       -7.05001         6.18612        -3.29196
|107>    H       -5.60462         8.47951        -1.14258
|108>    H       -9.43822         8.03843         0.72429
|109>    H       -9.21313         5.60268         0.68696
|110>    H       -6.75241        10.41983        -0.43835
|111>    H       -9.74657        10.06495         0.13967
|112>    H       -8.00489        12.43402        -0.18031
|113>    H      -11.75572        15.49773         0.18861
|114>    H       -8.01976        14.44329         0.43434
|115>    H       -9.86427        16.67107        -0.54442
|116>    H       -4.21208        15.07580         0.80337
|117>    H       -2.83364        12.59364         0.24015
|118>    H       -1.85218        10.17217        -0.96670
|119>    H       -4.94349         9.68588        -3.94094
|120>    H       -6.47043        12.05649        -3.22274
|121>    H       -7.29042        14.64246        -2.19261
|122>    H       -2.88950         8.02368        -4.13293
|123>    H       -0.96971         8.14128        -1.74804
|124>    H       -0.93442         6.97406        -3.15253
|125> *
|126>
|127>                          ****END OF INPUT****

CARTESIAN COORDINATES (ANGSTROEM)
---------------------------------
  C     -4.773370   -1.806410   -1.857190
  C     -3.504500   -2.065710   -1.410900
  C     -2.822620   -3.281050   -1.631390
  N     -2.216570   -4.244080   -1.783040
  C     -2.712790   -1.179830   -0.649090
  N     -2.011550   -0.525780   -0.017120
  C     -5.631950   -2.744300   -2.566240
  C     -6.911480   -2.158660   -2.721530
  C     -7.948300   -2.799940   -3.355010
  C     -7.711180   -4.082450   -3.859440
  C     -6.427510   -4.659190   -3.703000
  C     -5.379570   -4.010530   -3.062830
  S     -6.349870   -6.245720   -4.407520
  C     -8.019490   -6.115760   -4.893510
  C     -8.606930   -4.945470   -4.547800
  Br    -8.827930   -7.535610   -5.814000
  C     -6.920530   -0.808930   -2.121020
  O     -7.860060   -0.045570   -2.106070
  C     -5.531650   -0.583130   -1.637040
  C     -4.992160    0.610400   -1.272300
  C     -5.665260    1.843320   -0.970010
  C     -5.001930    3.045550   -1.279270
  C     -5.617990    4.241970   -1.021730
  C     -6.885230    4.275430   -0.409130
  C     -7.523400    3.096180   -0.050170
  C     -6.915480    1.891310   -0.337350
  C     -7.282620    5.657670   -0.256630
  C     -6.263910    6.477560   -0.771930
  C     -5.130090    5.640810   -1.313300
  C     -3.805390    5.948740   -0.593750
  C     -3.892970    5.746570    0.914080
  C     -4.962290    5.863150   -2.828010
  C     -6.227260    5.554590   -3.620190
  C     -6.386220    7.845480   -0.747490
  C     -7.547780    8.429390   -0.220740
  C     -8.552820    7.598430    0.293300
  C     -8.429200    6.224440    0.282130
  C     -7.663010    9.871650   -0.228290
  C     -8.800440   10.554680   -0.032380
  N     -8.871450   11.925890   -0.044980
  C    -10.010920   12.643850    0.068950
  S    -11.560560   11.869160    0.129040
  C    -12.326290   13.430340    0.178740
  N    -13.717240   13.448600    0.262490
  O    -14.276050   14.529830    0.293070
  O    -14.273760   12.360680    0.294940
  C    -11.438840   14.472030    0.143710
  C    -10.101220   14.043890    0.091140
  C     -8.942030   14.898190    0.100240
  C     -8.943100   16.194910   -0.243250
  C     -7.773390   17.041760   -0.188910
  C     -7.859460   18.405800    0.006890
  C     -9.115250   19.189540    0.148230
  F     -9.880520   19.139650   -0.960480
  F     -9.895470   18.739030    1.149390
  F     -8.884880   20.483600    0.393730
  S     -6.340150   19.198180    0.145830
  C     -5.537830   17.678680   -0.086170
  C     -4.142130   17.625060   -0.131690
  N     -2.995660   17.586370   -0.171080
  C     -6.409620   16.619510   -0.260630
  C     -5.924230   15.284180   -0.556470
  C     -4.819960   14.678160    0.013010
  C     -4.618430   13.417520   -0.625660
  C     -3.625450   12.477400   -0.485520
  C     -3.644180   11.379540   -1.361270
  C     -2.744950   10.334820   -1.541950
  C     -3.177800    9.531790   -2.641700
  C     -4.362460   10.063970   -3.119230
  C     -4.686630   11.232110   -2.355070
  C     -5.692750   12.154780   -2.478190
  C     -5.659710   13.273650   -1.618110
  C     -6.450070   14.415550   -1.561560
  C     -2.481410    8.395920   -3.201540
  C     -1.408840    7.812790   -2.674400
  H     -8.912150   -2.326290   -3.456950
  H     -4.418400   -4.488670   -2.974530
  H     -9.629190   -4.698710   -4.769300
  H     -3.910000    0.676550   -1.246490
  H     -4.027830    3.009030   -1.745790
  H     -8.482180    3.117050    0.444640
  H     -7.392930    0.972180   -0.041900
  H     -3.526340    6.982070   -0.808640
  H     -3.025830    5.302850   -1.002250
  H     -4.651050    6.396690    1.345610
  H     -2.936840    5.976560    1.377980
  H     -4.149490    4.716390    1.150490
  H     -4.145270    5.233370   -3.185800
  H     -4.678290    6.903930   -2.987860
  H     -6.521950    4.515520   -3.491870
  H     -6.057170    5.733570   -4.679520
  H     -7.050010    6.186120   -3.291960
  H     -5.604620    8.479510   -1.142580
  H     -9.438220    8.038430    0.724290
  H     -9.213130    5.602680    0.686960
  H     -6.752410   10.419830   -0.438350
  H     -9.746570   10.064950    0.139670
  H     -8.004890   12.434020   -0.180310
  H    -11.755720   15.497730    0.188610
  H     -8.019760   14.443290    0.434340
  H     -9.864270   16.671070   -0.544420
  H     -4.212080   15.075800    0.803370
  H     -2.833640   12.593640    0.240150
  H     -1.852180   10.172170   -0.966700
  H     -4.943490    9.685880   -3.940940
  H     -6.470430   12.056490   -3.222740
  H     -7.290420   14.642460   -2.192610
  H     -2.889500    8.023680   -4.132930
  H     -0.969710    8.141280   -1.748040
  H     -0.934420    6.974060   -3.152530

 Total Charge           Charge          ....    0
 Multiplicity           Mult            ....    1
 Number of Electrons    NEL             ....  564
 Basis Dimension        Dim             .... 1255

ORBITAL ENERGIES
----------------

  NO   OCC          E(Eh)            E(eV)
   0   2.0000    -482.887152    -13140.0274
   1   2.0000     -88.996321     -2421.7130
   2   2.0000     -88.984017     -2421.3782
   3   2.0000     -88.976948     -2421.1859
   4   2.0000     -62.564877     -1702.4769
   5   2.0000     -56.398829     -1534.6902
   6   2.0000     -56.396107     -1534.6161
   7   2.0000     -56.396078     -1534.6153
   8   2.0000     -24.815939      -675.2760
   9   2.0000     -24.808686      -675.0787
  10   2.0000     -24.807536      -675.0474
  11   2.0000     -19.230649      -523.2926
  12   2.0000     -19.230568      -523.2903
  13   2.0000     -19.216795      -522.9156
  14   2.0000     -14.642922      -398.4542
  15   2.0000     -14.484719      -394.1492
  16   2.0000     -14.420089      -392.3906
  17   2.0000     -14.415937      -392.2776
  18   2.0000     -14.415576      -392.2678
  19   2.0000     -10.535939      -286.6975
  20   2.0000     -10.372650      -282.2541
  21   2.0000     -10.369203      -282.1604
  22   2.0000     -10.360715      -281.9294
  23   2.0000     -10.346293      -281.5369
  24   2.0000     -10.342760      -281.4408
  25   2.0000     -10.341560      -281.4082
  26   2.0000     -10.337330      -281.2931
  27   2.0000     -10.333199      -281.1806
  28   2.0000     -10.332625      -281.1650
  29   2.0000     -10.327257      -281.0189
  30   2.0000     -10.323274      -280.9106
  31   2.0000     -10.322592      -280.8920
  32   2.0000     -10.322522      -280.8901
  33   2.0000     -10.321768      -280.8696
  34   2.0000     -10.319768      -280.8152
  35   2.0000     -10.318785      -280.7884
  36   2.0000     -10.318599      -280.7834
  37   2.0000     -10.316267      -280.7199
  38   2.0000     -10.309432      -280.5339
  39   2.0000     -10.309316      -280.5307
  40   2.0000     -10.309201      -280.5276
  41   2.0000     -10.307866      -280.4913
  42   2.0000     -10.307170      -280.4724
  43   2.0000     -10.307071      -280.4697
  44   2.0000     -10.303143      -280.3628
  45   2.0000     -10.302357      -280.3414
  46   2.0000     -10.298235      -280.2292
  47   2.0000     -10.297959      -280.2217
  48   2.0000     -10.297951      -280.2215
  49   2.0000     -10.297668      -280.2138
  50   2.0000     -10.296783      -280.1897
  51   2.0000     -10.296100      -280.1711
  52   2.0000     -10.294884      -280.1380
  53   2.0000     -10.293585      -280.1027
  54   2.0000     -10.289401      -279.9888
  55   2.0000     -10.289340      -279.9872
  56   2.0000     -10.289028      -279.9787
  57   2.0000     -10.288228      -279.9569
  58   2.0000     -10.287434      -279.9353
  59   2.0000     -10.286381      -279.9067
  60   2.0000     -10.285665      -279.8872
  61   2.0000     -10.285546      -279.8839
  62   2.0000     -10.283545      -279.8295
  63   2.0000     -10.283018      -279.8152
  64   2.0000     -10.283000      -279.8147
  65   2.0000     -10.281990      -279.7872
  66   2.0000     -10.280158      -279.7373
  67   2.0000     -10.279408      -279.7169
  68   2.0000     -10.276268      -279.6315
  69   2.0000     -10.275987      -279.6238
  70   2.0000     -10.275368      -279.6070
  71   2.0000     -10.274701      -279.5888
  72   2.0000     -10.274574      -279.5854
  73   2.0000     -10.274221      -279.5758
  74   2.0000     -10.273391      -279.5532
  75   2.0000     -10.266913      -279.3769
  76   2.0000     -10.264464      -279.3103
  77   2.0000     -10.251328      -278.9528
  78   2.0000     -10.248929      -278.8875
  79   2.0000      -8.794315      -239.3055
  80   2.0000      -8.091365      -220.1772
  81   2.0000      -8.079473      -219.8536
  82   2.0000      -8.073027      -219.6782
  83   2.0000      -6.630633      -180.4287
  84   2.0000      -6.616050      -180.0319
  85   2.0000      -6.615825      -180.0258
  86   2.0000      -6.060755      -164.9215
  87   2.0000      -6.056425      -164.8037
  88   2.0000      -6.053406      -164.7216
  89   2.0000      -6.049212      -164.6074
  90   2.0000      -6.044795      -164.4872
  91   2.0000      -6.042697      -164.4301
  92   2.0000      -6.040776      -164.3779
  93   2.0000      -6.038450      -164.3146
  94   2.0000      -6.034223      -164.1996
  95   2.0000      -2.746504       -74.7362
  96   2.0000      -2.742396       -74.6244
  97   2.0000      -2.742264       -74.6208
  98   2.0000      -2.730660       -74.3050
  99   2.0000      -2.730648       -74.3047
 100   2.0000      -1.401246       -38.1299
 101   2.0000      -1.311414       -35.6854
 102   2.0000      -1.306554       -35.5531
 103   2.0000      -1.298339       -35.3296
 104   2.0000      -1.132711       -30.8226
 105   2.0000      -1.130496       -30.7624
 106   2.0000      -1.092032       -29.7157
 107   2.0000      -1.031241       -28.0615
 108   2.0000      -1.024089       -27.8669
 109   2.0000      -1.014237       -27.5988
 110   2.0000      -1.008897       -27.4535
 111   2.0000      -1.002972       -27.2923
 112   2.0000      -0.998757       -27.1776
 113   2.0000      -0.995134       -27.0790
 114   2.0000      -0.994344       -27.0575
 115   2.0000      -0.990224       -26.9454
 116   2.0000      -0.982909       -26.7463
 117   2.0000      -0.956478       -26.0271
 118   2.0000      -0.943478       -25.6733
 119   2.0000      -0.931803       -25.3556
 120   2.0000      -0.927650       -25.2426
 121   2.0000      -0.921138       -25.0654
 122   2.0000      -0.909548       -24.7501
 123   2.0000      -0.903665       -24.5900
 124   2.0000      -0.899145       -24.4670
 125   2.0000      -0.893909       -24.3245
 126   2.0000      -0.887508       -24.1503
 127   2.0000      -0.886540       -24.1240
 128   2.0000      -0.885083       -24.0843
 129   2.0000      -0.875741       -23.8301
 130   2.0000      -0.866722       -23.5847
 131   2.0000      -0.863328       -23.4923
 132   2.0000      -0.844648       -22.9840
 133   2.0000      -0.840867       -22.8812
 134   2.0000      -0.839990       -22.8573
 135   2.0000      -0.836558       -22.7639
 136   2.0000      -0.835005       -22.7216
 137   2.0000      -0.830427       -22.5971
 138   2.0000      -0.818973       -22.2854
 139   2.0000      -0.811247       -22.0752
 140   2.0000      -0.807850       -21.9827
 141   2.0000      -0.791285       -21.5320
 142   2.0000      -0.779963       -21.2239
 143   2.0000      -0.769666       -20.9437
 144   2.0000      -0.766772       -20.8649
 145   2.0000      -0.763630       -20.7794
 146   2.0000      -0.758141       -20.6301
 147   2.0000      -0.747719       -20.3465
 148   2.0000      -0.732606       -19.9352
 149   2.0000      -0.732299       -19.9269
 150   2.0000      -0.728889       -19.8341
 151   2.0000      -0.722357       -19.6563
 152   2.0000      -0.712595       -19.3907
 153   2.0000      -0.700348       -19.0574
 154   2.0000      -0.692271       -18.8376
 155   2.0000      -0.691468       -18.8158
 156   2.0000      -0.688986       -18.7482
 157   2.0000      -0.685745       -18.6601
 158   2.0000      -0.682845       -18.5812
 159   2.0000      -0.679434       -18.4883
 160   2.0000      -0.677266       -18.4293
 161   2.0000      -0.671749       -18.2792
 162   2.0000      -0.668906       -18.2018
 163   2.0000      -0.663429       -18.0528
 164   2.0000      -0.661297       -17.9948
 165   2.0000      -0.657237       -17.8843
 166   2.0000      -0.649046       -17.6614
 167   2.0000      -0.643414       -17.5082
 168   2.0000      -0.638696       -17.3798
 169   2.0000      -0.635051       -17.2806
 170   2.0000      -0.627907       -17.0862
 171   2.0000      -0.624391       -16.9905
 172   2.0000      -0.623781       -16.9739
 173   2.0000      -0.617329       -16.7984
 174   2.0000      -0.607694       -16.5362
 175   2.0000      -0.602661       -16.3993
 176   2.0000      -0.600663       -16.3449
 177   2.0000      -0.598384       -16.2828
 178   2.0000      -0.598074       -16.2744
 179   2.0000      -0.596803       -16.2398
 180   2.0000      -0.589238       -16.0340
 181   2.0000      -0.582634       -15.8543
 182   2.0000      -0.579412       -15.7666
 183   2.0000      -0.572587       -15.5809
 184   2.0000      -0.567444       -15.4409
 185   2.0000      -0.563825       -15.3425
 186   2.0000      -0.561863       -15.2891
 187   2.0000      -0.559833       -15.2338
 188   2.0000      -0.556278       -15.1371
 189   2.0000      -0.554715       -15.0946
 190   2.0000      -0.549661       -14.9570
 191   2.0000      -0.547722       -14.9043
 192   2.0000      -0.546861       -14.8808
 193   2.0000      -0.545082       -14.8324
 194   2.0000      -0.542007       -14.7488
 195   2.0000      -0.537924       -14.6377
 196   2.0000      -0.537277       -14.6201
 197   2.0000      -0.535243       -14.5647
 198   2.0000      -0.529860       -14.4182
 199   2.0000      -0.528871       -14.3913
 200   2.0000      -0.527842       -14.3633
 201   2.0000      -0.525208       -14.2916
 202   2.0000      -0.523934       -14.2570
 203   2.0000      -0.521580       -14.1929
 204   2.0000      -0.520185       -14.1550
 205   2.0000      -0.517985       -14.0951
 206   2.0000      -0.515071       -14.0158
 207   2.0000      -0.514300       -13.9948
 208   2.0000      -0.511256       -13.9120
 209   2.0000      -0.509028       -13.8514
 210   2.0000      -0.508188       -13.8285
 211   2.0000      -0.505303       -13.7500
 212   2.0000      -0.501316       -13.6415
 213   2.0000      -0.496381       -13.5072
 214   2.0000      -0.495972       -13.4961
 215   2.0000      -0.495745       -13.4899
 216   2.0000      -0.494334       -13.4515
 217   2.0000      -0.493702       -13.4343
 218   2.0000      -0.489168       -13.3109
 219   2.0000      -0.488150       -13.2832
 220   2.0000      -0.485945       -13.2232
 221   2.0000      -0.484059       -13.1719
 222   2.0000      -0.483040       -13.1442
 223   2.0000      -0.479458       -13.0467
 224   2.0000      -0.474923       -12.9233
 225   2.0000      -0.474200       -12.9036
 226   2.0000      -0.472569       -12.8593
 227   2.0000      -0.472317       -12.8524
 228   2.0000      -0.464422       -12.6376
 229   2.0000      -0.464069       -12.6280
 230   2.0000      -0.460911       -12.5420
 231   2.0000      -0.459850       -12.5131
 232   2.0000      -0.455992       -12.4082
 233   2.0000      -0.451896       -12.2967
 234   2.0000      -0.451452       -12.2846
 235   2.0000      -0.449371       -12.2280
 236   2.0000      -0.449108       -12.2209
 237   2.0000      -0.447178       -12.1683
 238   2.0000      -0.446761       -12.1570
 239   2.0000      -0.445656       -12.1269
 240   2.0000      -0.443692       -12.0735
 241   2.0000      -0.441973       -12.0267
 242   2.0000      -0.440342       -11.9823
 243   2.0000      -0.438368       -11.9286
 244   2.0000      -0.430793       -11.7225
 245   2.0000      -0.428250       -11.6533
 246   2.0000      -0.427639       -11.6366
 247   2.0000      -0.427596       -11.6355
 248   2.0000      -0.426451       -11.6043
 249   2.0000      -0.422684       -11.5018
 250   2.0000      -0.418817       -11.3966
 251   2.0000      -0.417254       -11.3541
 252   2.0000      -0.410586       -11.1726
 253   2.0000      -0.409046       -11.1307
 254   2.0000      -0.408857       -11.1256
 255   2.0000      -0.405385       -11.0311
 256   2.0000      -0.401599       -10.9281
 257   2.0000      -0.392454       -10.6792
 258   2.0000      -0.391354       -10.6493
 259   2.0000      -0.388158       -10.5623
 260   2.0000      -0.386858       -10.5269
 261   2.0000      -0.384678       -10.4676
 262   2.0000      -0.379221       -10.3191
 263   2.0000      -0.376504       -10.2452
 264   2.0000      -0.372927       -10.1479
 265   2.0000      -0.372527       -10.1370
 266   2.0000      -0.363785        -9.8991
 267   2.0000      -0.359869        -9.7925
 268   2.0000      -0.350931        -9.5493
 269   2.0000      -0.349905        -9.5214
 270   2.0000      -0.342740        -9.3264
 271   2.0000      -0.327024        -8.8988
 272   2.0000      -0.325216        -8.8496
 273   2.0000      -0.321832        -8.7575
 274   2.0000      -0.318704        -8.6724
 275   2.0000      -0.316902        -8.6234
 276   2.0000      -0.308615        -8.3978
 277   2.0000      -0.295276        -8.0349
 278   2.0000      -0.289415        -7.8754
 279   2.0000      -0.280587        -7.6351
 280   2.0000      -0.265608        -7.2276
 281   2.0000      -0.249500        -6.7893
 282   0.0000      -0.117915        -3.2086
 283   0.0000      -0.089170        -2.4264
 284   0.0000      -0.061476        -1.6729
 285   0.0000      -0.052858        -1.4383
 286   0.0000      -0.052598        -1.4313

MULLIKEN ATOMIC CHARGES
-----------------------
   0 C :    0.293930
   1 C :   -0.343312
   2 C :   -0.184920
   3 N :    0.149515
   4 C :   -0.202568
   5 N :    0.160402
   6 C :    0.014574
   7 C :   -0.015177
   8 C :   -0.074332
   9 C :    0.120133
  10 C :   -0.087787
  11 C :   -0.022980
  12 S :    0.187368
  13 C :   -0.123811
  14 C :    0.039181
  15 Br:    0.025313
  16 C :    0.137992
  17 O :   -0.140461
  18 C :   -0.072619
  19 C :   -0.036387
  20 C :    0.071226
  21 C :   -0.088140
  22 C :    0.009372
  23 C :    0.125194
  24 C :   -0.063552
  25 C :    0.072036
  26 C :    0.098373
  27 C :    0.024095
  28 C :   -0.140480
  29 C :    0.063890
  30 C :    0.030047
  31 C :    0.067584
  32 C :    0.025517
  33 C :   -0.108524
  34 C :    0.130668
  35 C :   -0.028735
  36 C :   -0.035252
  37 C :   -0.031988
  38 C :    0.068416
  39 N :   -0.035156
  40 C :   -0.096376
  41 S :    0.139360
  42 C :   -0.007113
  43 N :    0.280019
  44 O :   -0.255644
  45 O :   -0.274548
  46 C :    0.012343
  47 C :    0.090542
  48 C :   -0.032600
  49 C :   -0.038836
  50 C :    0.064904
  51 C :   -0.268323
  52 C :    0.538717
  53 F :   -0.163274
  54 F :   -0.160531
  55 F :   -0.151287
  56 S :    0.256918
  57 C :   -0.322859
  58 C :   -0.203122
  59 N :    0.147084
  60 C :    0.257346
  61 C :   -0.068499
  62 C :   -0.004699
  63 C :    0.050619
  64 C :    0.010214
  65 C :    0.037802
  66 C :   -0.007503
  67 C :    0.038243
  68 C :   -0.020889
  69 C :    0.051046
  70 C :   -0.017673
  71 C :    0.023338
  72 C :   -0.047967
  73 C :    0.010099
  74 C :   -0.017000
  75 H :   -0.010770
  76 H :   -0.005679
  77 H :   -0.003385
  78 H :    0.029982
  79 H :   -0.032764
  80 H :   -0.030699
  81 H :   -0.016606
  82 H :    0.006157
  83 H :   -0.002169
  84 H :    0.018325
  85 H :    0.006568
  86 H :    0.021594
  87 H :   -0.004501
  88 H :   -0.005202
  89 H :    0.025341
  90 H :    0.005680
  91 H :    0.019918
  92 H :   -0.046271
  93 H :   -0.033550
  94 H :   -0.032524
  95 H :   -0.012257
  96 H :    0.027797
  97 H :    0.141759
  98 H :    0.013221
  99 H :    0.013061
 100 H :    0.007998
 101 H :   -0.004808
 102 H :   -0.011165
 103 H :   -0.015058
 104 H :   -0.016325
 105 H :   -0.014378
 106 H :   -0.002968
 107 H :   -0.007107
 108 H :    0.014508
 109 H :    0.027778
Sum of atomic charges:    0.0000000

LOEWDIN ATOMIC CHARGES
----------------------
   0 C :    0.076563
   1 C :   -0.140955
   2 C :   -0.018163
   3 N :   -0.053775
   4 C :   -0.024849
   5 N :   -0.051529
   6 C :   -0.022205
   7 C :   -0.050354
   8 C :    0.021760
   9 C :   -0.032001
  10 C :   -0.143608
  11 C :   -0.009654
  12 S :    0.432786
  13 C :   -0.270966
  14 C :   -0.070376
  15 Br:    0.137879
  16 C :    0.081807
  17 O :   -0.134070
  18 C :   -0.097813
  19 C :    0.084267
  20 C :   -0.044646
  21 C :   -0.000666
  22 C :   -0.003685
  23 C :    0.006955
  24 C :   -0.022491
  25 C :    0.026999
  26 C :   -0.026987
  27 C :    0.011087
  28 C :   -0.033557
  29 C :   -0.012591
  30 C :   -0.057016
  31 C :   -0.012000
  32 C :   -0.057896
  33 C :   -0.028214
  34 C :   -0.013341
  35 C :   -0.024528
  36 C :   -0.008544
  37 C :   -0.064062
  38 C :    0.020645
  39 N :    0.040303
  40 C :   -0.089282
  41 S :    0.451657
  42 C :   -0.216678
  43 N :    0.273828
  44 O :   -0.221194
  45 O :   -0.241011
  46 C :    0.009895
  47 C :   -0.120837
  48 C :   -0.005108
  49 C :   -0.038256
  50 C :   -0.030058
  51 C :   -0.238335
  52 C :    0.152550
  53 F :   -0.063442
  54 F :   -0.061145
  55 F :   -0.052464
  56 S :    0.514754
  57 C :   -0.217985
  58 C :   -0.053988
  59 N :   -0.047054
  60 C :   -0.009427
  61 C :   -0.074869
  62 C :    0.030693
  63 C :   -0.067639
  64 C :    0.085291
  65 C :   -0.069087
  66 C :    0.056773
  67 C :   -0.061212
  68 C :    0.014851
  69 C :   -0.061577
  70 C :    0.066486
  71 C :   -0.078685
  72 C :    0.029894
  73 C :   -0.023099
  74 C :   -0.042499
  75 H :    0.040867
  76 H :    0.041118
  77 H :    0.038947
  78 H :    0.045334
  79 H :    0.027681
  80 H :    0.029397
  81 H :    0.031071
  82 H :    0.021635
  83 H :    0.019673
  84 H :    0.024339
  85 H :    0.023501
  86 H :    0.025369
  87 H :    0.019111
  88 H :    0.020226
  89 H :    0.026415
  90 H :    0.022774
  91 H :    0.025006
  92 H :    0.027037
  93 H :    0.023899
  94 H :    0.028877
  95 H :    0.029991
  96 H :    0.020773
  97 H :    0.092645
  98 H :    0.046796
  99 H :    0.029945
 100 H :    0.029140
 101 H :    0.032650
 102 H :    0.040766
 103 H :    0.029010
 104 H :    0.027071
 105 H :    0.038234
 106 H :    0.030500
 107 H :    0.030756
 108 H :    0.019616
 109 H :    0.027579

  Mayer bond orders larger than 0.100000
B(  0-C ,  1-C ) :   1.6466 B(  0-C ,  6-C ) :   1.0082 B(  0-C , 18-C ) :   1.0517
B(  1-C ,  2-C ) :   1.1380 B(  1-C ,  4-C ) :   1.1394 B(  2-C ,  3-N ) :   2.9735
B(  4-C ,  5-N ) :   2.9928 B(  6-C ,  7-C ) :   1.2729 B(  6-C , 11-C ) :   1.4047
B(  7-C ,  8-C ) :   1.4211 B(  7-C , 16-C ) :   0.9424 B(  8-C ,  9-C ) :   1.2461
B(  8-C , 75-H ) :   1.0174 B(  9-C , 10-C ) :   1.3044 B(  9-C , 14-C ) :   1.1617
B( 10-C , 11-C ) :   1.3332 B( 10-C , 12-S ) :   1.0855 B( 11-C , 76-H ) :   0.9806
B( 12-S , 13-C ) :   1.0871 B( 13-C , 14-C ) :   1.6180 B( 13-C , 15-Br) :   1.0203
B( 14-C , 77-H ) :   1.0007 B( 16-C , 17-O ) :   2.2327 B( 16-C , 18-C ) :   0.9339
B( 18-C , 19-C ) :   1.6186 B( 19-C , 20-C ) :   1.0896 B( 19-C , 78-H ) :   0.9529
B( 20-C , 21-C ) :   1.2535 B( 20-C , 25-C ) :   1.3490 B( 21-C , 22-C ) :   1.4023
B( 21-C , 79-H ) :   1.0118 B( 22-C , 23-C ) :   1.3481 B( 22-C , 28-C ) :   0.9148
B( 23-C , 24-C ) :   1.3315 B( 23-C , 26-C ) :   1.0036 B( 24-C , 25-C ) :   1.4020
B( 24-C , 80-H ) :   0.9926 B( 25-C , 81-H ) :   0.9769 B( 26-C , 27-C ) :   1.3636
B( 26-C , 36-C ) :   1.3263 B( 27-C , 28-C ) :   0.9147 B( 27-C , 33-C ) :   1.3818
B( 28-C , 29-C ) :   1.0421 B( 28-C , 31-C ) :   1.0373 B( 29-C , 30-C ) :   1.0979
B( 29-C , 82-H ) :   0.9373 B( 29-C , 83-H ) :   0.9374 B( 30-C , 84-H ) :   0.9641
B( 30-C , 85-H ) :   0.9641 B( 30-C , 86-H ) :   0.9635 B( 31-C , 32-C ) :   1.0988
B( 31-C , 87-H ) :   0.9389 B( 31-C , 88-H ) :   0.9327 B( 32-C , 89-H ) :   0.9631
B( 32-C , 90-H ) :   0.9635 B( 32-C , 91-H ) :   0.9642 B( 33-C , 34-C ) :   1.2963
B( 33-C , 92-H ) :   1.0158 B( 34-C , 35-C ) :   1.3403 B( 34-C , 37-C ) :   1.0822
B( 35-C , 36-C ) :   1.4040 B( 35-C , 93-H ) :   0.9822 B( 36-C , 94-H ) :   0.9905
B( 37-C , 38-C ) :   1.7104 B( 37-C , 95-H ) :   0.9759 B( 38-C , 39-N ) :   1.0957
B( 38-C , 96-H ) :   0.9531 B( 39-N , 40-C ) :   1.2552 B( 39-N , 97-H ) :   0.9039
B( 40-C , 41-S ) :   1.1366 B( 40-C , 47-C ) :   1.3392 B( 41-S , 42-C ) :   1.0562
B( 42-C , 43-N ) :   0.9851 B( 42-C , 46-C ) :   1.4822 B( 43-N , 44-O ) :   1.5279
B( 43-N , 45-O ) :   1.5004 B( 44-O , 45-O ) :   0.2518 B( 46-C , 47-C ) :   1.2454
B( 46-C , 98-H ) :   1.0042 B( 47-C , 48-C ) :   1.0706 B( 48-C , 49-C ) :   1.7531
B( 48-C , 99-H ) :   0.9531 B( 49-C , 50-C ) :   1.0868 B( 49-C ,100-H ) :   0.9452
B( 50-C , 51-C ) :   1.5120 B( 50-C , 60-C ) :   1.2333 B( 51-C , 52-C ) :   0.9561
B( 51-C , 56-S ) :   1.1290 B( 51-C , 57-C ) :   0.1190 B( 52-C , 53-F ) :   1.1428
B( 52-C , 54-F ) :   1.1659 B( 52-C , 55-F ) :   1.1727 B( 56-S , 57-C ) :   1.1416
B( 57-C , 58-C ) :   1.2290 B( 57-C , 60-C ) :   1.5250 B( 58-C , 59-N ) :   2.9949
B( 60-C , 61-C ) :   0.9383 B( 61-C , 62-C ) :   1.5186 B( 61-C , 72-C ) :   1.1847
B( 62-C , 63-C ) :   1.1048 B( 62-C ,101-H ) :   1.0142 B( 63-C , 64-C ) :   1.4261
B( 63-C , 71-C ) :   1.1488 B( 64-C , 65-C ) :   1.1481 B( 64-C ,102-H ) :   1.0049
B( 65-C , 66-C ) :   1.4118 B( 65-C , 69-C ) :   1.1328 B( 66-C , 67-C ) :   1.1587
B( 66-C ,103-H ) :   1.0101 B( 67-C , 68-C ) :   1.4867 B( 67-C , 73-C ) :   1.0810
B( 68-C , 69-C ) :   1.0836 B( 68-C ,104-H ) :   1.0223 B( 69-C , 70-C ) :   1.4521
B( 70-C , 71-C ) :   1.1156 B( 70-C ,105-H ) :   1.0132 B( 71-C , 72-C ) :   1.3868
B( 72-C ,106-H ) :   1.0139 B( 73-C , 74-C ) :   1.9334 B( 73-C ,107-H ) :   0.9580
B( 74-C ,108-H ) :   0.9534 B( 74-C ,109-H ) :   0.9486

-----------------------------------------------------------------------------
         ABSORPTION SPECTRUM VIA TRANSITION ELECTRIC DIPOLE MOMENTS
-----------------------------------------------------------------------------
State   Energy  Wavelength   fosc         T2         TX        TY        TZ
        (cm-1)    (nm)                  (au**2)     (au)      (au)      (au)
-----------------------------------------------------------------------------
   0    9784.0   1022.1   0.000670082   0.02255   0.03021   0.12517   0.07724
   1   12597.0    793.8   0.007270806   0.19002  -0.39138   0.15823   0.10866
   2   21275.6    470.0   0.010590362   0.16387  -0.31837   0.23456   0.08659
   3   21675.4    461.4   1.479594746  22.47247  -1.55153   4.42026   0.72560
   4   22926.7    436.2   0.373372375   5.36137   0.91322  -1.98887  -0.75617
   5   26289.8    380.4   0.360124482   4.50962  -1.78606   1.14819   0.03581
   6   26571.0    376.3   0.043320249   0.53673  -0.54400  -0.11187  -0.47779
   7   27191.4    367.8   0.006751960   0.08175   0.10142   0.05087   0.26244
   8   27235.6    367.2   0.008168688   0.09874  -0.16068  -0.26219   0.06463
   9   27953.3    357.7   0.404455165   4.76336   1.36888   1.69944  -0.03775
  10   28692.8    348.5   0.162424039   1.86360  -0.21243  -1.20373  -0.60787
  11   28779.6    347.5   0.109567772   1.25336  -0.41795  -0.84631  -0.60203
  12   28844.2    346.7   0.241921951   2.76117  -1.49071  -0.19733  -0.70712
  13   29166.3    342.9   0.001016838   0.01148  -0.08491  -0.00793   0.06484
  14   29505.5    338.9   0.072172746   0.80528   0.61046  -0.43540  -0.49300
  15   30404.3    328.9   0.544006863   5.89040   0.14631  -2.40053  -0.32627
  16   30588.2    326.9   0.021171901   0.22787  -0.41919   0.15955  -0.16337
  17   31112.7    321.4   0.241646545   2.55693  -0.05886  -1.53052  -0.45930
  18   31440.0    318.1   0.001600416   0.01676  -0.03053  -0.11441  -0.05230
  19   32118.2    311.4   0.020342580   0.20851  -0.18180  -0.41687  -0.04097
  20   32295.0    309.6   0.125672701   1.28109  -0.36967   1.02856   0.29413
  21   32509.1    307.6   0.313322505   3.17294  -0.87862   1.50807   0.35593
  22   32744.5    305.4   0.018880761   0.18983   0.38685  -0.20034   0.00644
  23   33207.3    301.1   0.002943689   0.02918  -0.15181   0.05675  -0.05401
  24   33423.3    299.2   0.094852534   0.93428  -0.30422   0.91549   0.06009
  25   33633.5    297.3   0.260146790   2.54637   0.78216  -1.26949  -0.56831
  26   33769.4    296.1   0.000234085   0.00228   0.04604  -0.01271  -0.00079
  27   33997.1    294.1   0.005147056   0.04984  -0.14347   0.06114  -0.15975
  28   34031.8    293.8   0.621387418   6.01109  -2.05394  -0.78463  -1.08480
  29   35111.7    284.8   0.034080112   0.31954   0.54252  -0.15106   0.04887
  30   35196.1    284.1   0.174313533   1.63047  -0.37734   1.21703  -0.08319
  31   35937.4    278.3   0.014606928   0.13381   0.07538  -0.21799  -0.28392
  32   36057.7    277.3   0.012094570   0.11043  -0.25271  -0.02038  -0.21482
  33   36212.2    276.1   0.040778474   0.37072   0.11895   0.57841   0.14840
  34   36529.5    273.8   0.007925004   0.07142  -0.20807   0.07183   0.15155
  35   36747.9    272.1   0.000001065   0.00001  -0.00135   0.00276   0.00032
  36   37156.9    269.1   0.023882734   0.21160   0.30729  -0.34013   0.03851
  37   37396.9    267.4   0.217456837   1.91431  -0.00673   1.34885   0.30799
  38   37717.7    265.1   0.057845286   0.50489   0.08884  -0.70449   0.02642
  39   38005.4    263.1   0.076467196   0.66238  -0.41102   0.69164   0.12277
  40   38431.4    260.2   0.074371325   0.63708   0.46228   0.64550   0.08194
  41   38832.5    257.5   0.018338890   0.15547  -0.23186   0.29256   0.12696
  42   38975.7    256.6   0.624603826   5.27577  -1.42600   1.73595   0.47830
  43   39537.7    252.9   0.207343939   1.72646   0.16405   1.27798   0.25749
  44   39623.3    252.4   0.160059911   1.32987  -0.05326   1.13758   0.18151
  45   39832.5    251.1   0.062699585   0.51821   0.56078  -0.40729  -0.19454
  46   40031.4    249.8   0.028309738   0.23281  -0.47038  -0.01988   0.10564
  47   40247.5    248.5   0.000794805   0.00650  -0.07400  -0.02768   0.01612

FINAL SINGLE POINT ENERGY     -6870.518997111523

DIPOLE MOMENT
-------------
                                X             Y             Z
Electronic contribution:    -60.82453    -110.45602     -40.08726
Nuclear contribution   :     61.31945     110.15654      38.79242
                        -----------------------------------------
Total Dipole Moment    :      0.49492      -0.29948      -1.29483
                        -----------------------------------------
Magnitude (a.u.)       :      1.41818
Magnitude (Debye)      :      3.60472

Rotational constants in cm-1:     0.001645     0.000197     0.000182
Rotational constants in MHz :    49.325305     5.915196     5.464875

                             ****ORCA TERMINATED NORMALLY****
TOTAL RUN TIME: 0 days 0 hours 12 minutes 55 seconds 359 msec
