                         Program Version 4.2.0 -  RELEASE  -
|  1> # ORCA input file
|  2> # SCF done       -172.521498811516          0.000684689797
|  3> ! CAM-B3LYP def2-SVP def2/J RIJCOSX Grid4 TightSCF
|  4> %maxcore 5000
|  5> %tddft
|  6>     Mode sTDDFT
|  7>     Ethresh 5.0
|  8>     maxcore 5000
|  9> end
| 10>
| 11> %pal
| 12>   nprocs 6
| 13>   end
| 14> * xyz 0 1
| 15>    C       -9.45892        -0.88650        -3.27881
| 16>    C      -10.79384        -0.81897        -2.95747
| 17>    C      -11.82965        -1.23161        -3.81698
| 18>    N      -12.70847        -1.55363        -4.48351
| 19>    C      -11.28680        -0.39602        -1.70578
| 20>    N      -11.73565        -0.14102        -0.67858
| 21>    C       -8.90155        -1.52260        -4.46634
| 22>    C       -7.49045        -1.52069        -4.35673
| 23>    C       -6.67396        -2.07538        -5.31066
| 24>    C       -7.27944        -2.66326        -6.42699
| 25>    C       -8.68967        -2.65411        -6.53044
| 26>    C       -9.51631        -2.09191        -5.56542
| 27>    S       -9.22834        -3.42599        -7.99223
| 28>    C       -7.57289        -3.74778        -8.43548
| 29>    C       -6.66286        -3.30094        -7.53865
| 30>   Br       -7.20310        -4.64349       -10.04168
| 31>    C       -7.08773        -0.82127        -3.11416
| 32>    O       -5.95075        -0.55322        -2.79277
| 33>    C       -8.35766        -0.42971        -2.45900
| 34>    C       -8.51564         0.40755        -1.38228
| 35>    C       -7.55246         0.79866        -0.42822
| 36>    C       -7.71719         1.93298         0.36689
| 37>    O       -6.76450         2.33860         1.26255
| 38>    C       -5.62117         1.59134         1.29856
| 39>    C       -5.46734         0.42223         0.49971
| 40>    C       -4.26309        -0.17632         0.67101
| 41>    S       -3.30057         0.68026         1.81651
| 42>    C       -4.53337         1.85830         2.06315
| 43>    O       -6.45671        -0.01520        -0.31970
| 44>    C       -8.83304         2.80092         0.26875
| 45>    C       -8.87518         4.03535         0.84429
| 46>    C       -9.91899         4.97043         0.68855
| 47>    S       -9.54236         6.65245         0.98237
| 48>    C      -11.07580         7.18755         0.35680
| 49>    C      -11.87970         6.07636         0.07957
| 50>    C      -11.23566         4.84539         0.23480
| 51>    S      -11.98661         3.26779        -0.01434
| 52>    C      -13.57831         3.48711        -0.73590
| 53>    O      -14.22616         2.49813        -0.95986
| 54>    C      -14.18739         4.83472        -1.03495
| 55>    O      -15.19217         4.90945        -1.69036
| 56>    S      -13.59862         6.30121        -0.24988
| 57>    C      -11.34140         8.55994         0.12380
| 58>    C      -11.99217         8.99003        -1.00751
| 59>    C      -12.58110        10.24161        -1.31396
| 60>    C      -13.30740        10.24916        -2.47289
| 61>    C      -13.31060         9.01360        -3.15157
| 62>    S      -12.21026         7.90393        -2.36592
| 63>    C      -14.14654         8.48022        -4.11728
| 64>    C      -15.23085         9.02664        -4.83480
| 65>    C      -15.98498         8.08777        -5.47937
| 66>    C      -15.54814         6.75209        -5.29321
| 67>    S      -14.05123         6.75688        -4.38839
| 68>    C      -16.25103         5.60548        -5.58058
| 69>    C      -15.92670         4.30677        -5.16276
| 70>    S      -17.21073         3.09508        -5.13818
| 71>    C      -16.19348         1.98700        -4.33952
| 72>    C      -14.90655         2.49983        -4.14967
| 73>    C      -14.74755         3.79037        -4.61333
| 74>    C      -14.12360         1.45605        -3.44090
| 75>    O      -12.93838         1.44347        -3.21257
| 76>    C      -15.12674         0.36372        -3.16299
| 77>    C      -16.31605         0.69665        -3.74736
| 78>    C      -14.80368        -0.78184        -2.36542
| 79>    C      -15.52427        -1.90324        -2.30716
| 80>    H       -5.60106        -2.05911        -5.19953
| 81>    H      -10.58612        -2.10517        -5.69018
| 82>    H       -5.60041        -3.41476        -7.65374
| 83>    H       -9.50172         0.82043        -1.24334
| 84>    H       -3.89453        -1.05742         0.19018
| 85>    H       -4.38943         2.66639         2.74933
| 86>    H       -9.66167         2.47890        -0.33476
| 87>    H       -8.00541         4.38926         1.38106
| 88>    H      -10.94617         9.28458         0.82080
| 89>    H      -12.51414        11.07342        -0.63548
| 90>    H      -13.87886        11.09088        -2.82255
| 91>    H      -15.44959        10.07949        -4.82343
| 92>    H      -16.87883         8.30917        -6.03617
| 93>    H      -17.20995         5.73247        -6.06668
| 94>    H      -13.82312         4.33476        -4.57305
| 95>    H      -17.22132         0.11828        -3.73013
| 96>    H      -13.90413        -0.68135        -1.77550
| 97>    H      -16.40920        -2.04615        -2.90387
| 98>    H      -15.23251        -2.72239        -1.67387
| 99> *
|100>
|101>                          ****END OF INPUT****

CARTESIAN COORDINATES (ANGSTROEM)
---------------------------------
  C     -9.458920   -0.886500   -3.278810
  C    -10.793840   -0.818970   -2.957470
  C    -11.829650   -1.231610   -3.816980
  N    -12.708470   -1.553630   -4.483510
  C    -11.286800   -0.396020   -1.705780
  N    -11.735650   -0.141020   -0.678580
  C     -8.901550   -1.522600   -4.466340
  C     -7.490450   -1.520690   -4.356730
  C     -6.673960   -2.075380   -5.310660
  C     -7.279440   -2.663260   -6.426990
  C     -8.689670   -2.654110   -6.530440
  C     -9.516310   -2.091910   -5.565420
  S     -9.228340   -3.425990   -7.992230
  C     -7.572890   -3.747780   -8.435480
  C     -6.662860   -3.300940   -7.538650
  Br    -7.203100   -4.643490  -10.041680
  C     -7.087730   -0.821270   -3.114160
  O     -5.950750   -0.553220   -2.792770
  C     -8.357660   -0.429710   -2.459000
  C     -8.515640    0.407550   -1.382280
  C     -7.552460    0.798660   -0.428220
  C     -7.717190    1.932980    0.366890
  O     -6.764500    2.338600    1.262550
  C     -5.621170    1.591340    1.298560
  C     -5.467340    0.422230    0.499710
  C     -4.263090   -0.176320    0.671010
  S     -3.300570    0.680260    1.816510
  C     -4.533370    1.858300    2.063150
  O     -6.456710   -0.015200   -0.319700
  C     -8.833040    2.800920    0.268750
  C     -8.875180    4.035350    0.844290
  C     -9.918990    4.970430    0.688550
  S     -9.542360    6.652450    0.982370
  C    -11.075800    7.187550    0.356800
  C    -11.879700    6.076360    0.079570
  C    -11.235660    4.845390    0.234800
  S    -11.986610    3.267790   -0.014340
  C    -13.578310    3.487110   -0.735900
  O    -14.226160    2.498130   -0.959860
  C    -14.187390    4.834720   -1.034950
  O    -15.192170    4.909450   -1.690360
  S    -13.598620    6.301210   -0.249880
  C    -11.341400    8.559940    0.123800
  C    -11.992170    8.990030   -1.007510
  C    -12.581100   10.241610   -1.313960
  C    -13.307400   10.249160   -2.472890
  C    -13.310600    9.013600   -3.151570
  S    -12.210260    7.903930   -2.365920
  C    -14.146540    8.480220   -4.117280
  C    -15.230850    9.026640   -4.834800
  C    -15.984980    8.087770   -5.479370
  C    -15.548140    6.752090   -5.293210
  S    -14.051230    6.756880   -4.388390
  C    -16.251030    5.605480   -5.580580
  C    -15.926700    4.306770   -5.162760
  S    -17.210730    3.095080   -5.138180
  C    -16.193480    1.987000   -4.339520
  C    -14.906550    2.499830   -4.149670
  C    -14.747550    3.790370   -4.613330
  C    -14.123600    1.456050   -3.440900
  O    -12.938380    1.443470   -3.212570
  C    -15.126740    0.363720   -3.162990
  C    -16.316050    0.696650   -3.747360
  C    -14.803680   -0.781840   -2.365420
  C    -15.524270   -1.903240   -2.307160
  H     -5.601060   -2.059110   -5.199530
  H    -10.586120   -2.105170   -5.690180
  H     -5.600410   -3.414760   -7.653740
  H     -9.501720    0.820430   -1.243340
  H     -3.894530   -1.057420    0.190180
  H     -4.389430    2.666390    2.749330
  H     -9.661670    2.478900   -0.334760
  H     -8.005410    4.389260    1.381060
  H    -10.946170    9.284580    0.820800
  H    -12.514140   11.073420   -0.635480
  H    -13.878860   11.090880   -2.822550
  H    -15.449590   10.079490   -4.823430
  H    -16.878830    8.309170   -6.036170
  H    -17.209950    5.732470   -6.066680
  H    -13.823120    4.334760   -4.573050
  H    -17.221320    0.118280   -3.730130
  H    -13.904130   -0.681350   -1.775500
  H    -16.409200   -2.046150   -2.903870
  H    -15.232510   -2.722390   -1.673870

 Total Charge           Charge          ....    0
 Multiplicity           Mult            ....    1
 Number of Electrons    NEL             ....  532
 Basis Dimension        Dim             .... 1055

ORBITAL ENERGIES
----------------

  NO   OCC          E(Eh)            E(eV)
   0   2.0000    -482.878398    -13139.7892
   1   2.0000     -88.967683     -2420.9337
   2   2.0000     -88.966118     -2420.8911
   3   2.0000     -88.965253     -2420.8676
   4   2.0000     -88.964326     -2420.8424
   5   2.0000     -88.957280     -2420.6507
   6   2.0000     -88.957228     -2420.6492
   7   2.0000     -88.944095     -2420.2919
   8   2.0000     -88.939533     -2420.1677
   9   2.0000     -62.556107     -1702.2382
  10   2.0000     -56.390047     -1534.4512
  11   2.0000     -56.387352     -1534.3779
  12   2.0000     -56.387315     -1534.3768
  13   2.0000     -19.290049      -524.9089
  14   2.0000     -19.267951      -524.3076
  15   2.0000     -19.233595      -523.3727
  16   2.0000     -19.232593      -523.3454
  17   2.0000     -19.213169      -522.8169
  18   2.0000     -19.197602      -522.3933
  19   2.0000     -14.401174      -391.8759
  20   2.0000     -14.400066      -391.8457
  21   2.0000     -10.396468      -282.9023
  22   2.0000     -10.394032      -282.8360
  23   2.0000     -10.369994      -282.1819
  24   2.0000     -10.356473      -281.8139
  25   2.0000     -10.352194      -281.6975
  26   2.0000     -10.351800      -281.6868
  27   2.0000     -10.350046      -281.6391
  28   2.0000     -10.342426      -281.4317
  29   2.0000     -10.338178      -281.3161
  30   2.0000     -10.327139      -281.0158
  31   2.0000     -10.326284      -280.9925
  32   2.0000     -10.325687      -280.9762
  33   2.0000     -10.323697      -280.9221
  34   2.0000     -10.320699      -280.8405
  35   2.0000     -10.319241      -280.8008
  36   2.0000     -10.315589      -280.7015
  37   2.0000     -10.314757      -280.6788
  38   2.0000     -10.313414      -280.6423
  39   2.0000     -10.308172      -280.4996
  40   2.0000     -10.306171      -280.4452
  41   2.0000     -10.304143      -280.3900
  42   2.0000     -10.304114      -280.3892
  43   2.0000     -10.304023      -280.3867
  44   2.0000     -10.303092      -280.3614
  45   2.0000     -10.302780      -280.3529
  46   2.0000     -10.301810      -280.3265
  47   2.0000     -10.296890      -280.1926
  48   2.0000     -10.296737      -280.1884
  49   2.0000     -10.295444      -280.1533
  50   2.0000     -10.294629      -280.1311
  51   2.0000     -10.293533      -280.1013
  52   2.0000     -10.291765      -280.0532
  53   2.0000     -10.291021      -280.0329
  54   2.0000     -10.290853      -280.0283
  55   2.0000     -10.290162      -280.0095
  56   2.0000     -10.288929      -279.9760
  57   2.0000     -10.288068      -279.9526
  58   2.0000     -10.286539      -279.9109
  59   2.0000     -10.285471      -279.8819
  60   2.0000     -10.284623      -279.8588
  61   2.0000     -10.283419      -279.8261
  62   2.0000     -10.282464      -279.8001
  63   2.0000     -10.281705      -279.7794
  64   2.0000     -10.279369      -279.7159
  65   2.0000     -10.272223      -279.5214
  66   2.0000     -10.263242      -279.2770
  67   2.0000     -10.254152      -279.0297
  68   2.0000     -10.250563      -278.9320
  69   2.0000      -8.785530      -239.0664
  70   2.0000      -8.063508      -219.4192
  71   2.0000      -8.062080      -219.3803
  72   2.0000      -8.060303      -219.3320
  73   2.0000      -8.060159      -219.3281
  74   2.0000      -8.053219      -219.1392
  75   2.0000      -8.053028      -219.1340
  76   2.0000      -8.040292      -218.7875
  77   2.0000      -8.035829      -218.6660
  78   2.0000      -6.621790      -180.1881
  79   2.0000      -6.607273      -179.7930
  80   2.0000      -6.607108      -179.7886
  81   2.0000      -6.032771      -164.1600
  82   2.0000      -6.031799      -164.1336
  83   2.0000      -6.030035      -164.0856
  84   2.0000      -6.029350      -164.0670
  85   2.0000      -6.028849      -164.0533
  86   2.0000      -6.027503      -164.0167
  87   2.0000      -6.025464      -163.9612
  88   2.0000      -6.025364      -163.9585
  89   2.0000      -6.025311      -163.9570
  90   2.0000      -6.023290      -163.9021
  91   2.0000      -6.023077      -163.8963
  92   2.0000      -6.022799      -163.8887
  93   2.0000      -6.022528      -163.8813
  94   2.0000      -6.021135      -163.8434
  95   2.0000      -6.018637      -163.7754
  96   2.0000      -6.018345      -163.7675
  97   2.0000      -6.014749      -163.6696
  98   2.0000      -6.013987      -163.6489
  99   2.0000      -6.010077      -163.5425
 100   2.0000      -6.005821      -163.4267
 101   2.0000      -6.005609      -163.4209
 102   2.0000      -6.001446      -163.3077
 103   2.0000      -6.001230      -163.3018
 104   2.0000      -5.996667      -163.1776
 105   2.0000      -2.737659       -74.4955
 106   2.0000      -2.733607       -74.3852
 107   2.0000      -2.733453       -74.3810
 108   2.0000      -2.721934       -74.0676
 109   2.0000      -2.721917       -74.0671
 110   2.0000      -1.210338       -32.9350
 111   2.0000      -1.170517       -31.8514
 112   2.0000      -1.169392       -31.8208
 113   2.0000      -1.136868       -30.9357
 114   2.0000      -1.122983       -30.5579
 115   2.0000      -1.112372       -30.2692
 116   2.0000      -1.013309       -27.5735
 117   2.0000      -1.011331       -27.5197
 118   2.0000      -1.000834       -27.2341
 119   2.0000      -0.999047       -27.1855
 120   2.0000      -0.993629       -27.0380
 121   2.0000      -0.987910       -26.8824
 122   2.0000      -0.980340       -26.6764
 123   2.0000      -0.976601       -26.5747
 124   2.0000      -0.973067       -26.4785
 125   2.0000      -0.938041       -25.5254
 126   2.0000      -0.931373       -25.3440
 127   2.0000      -0.929947       -25.3051
 128   2.0000      -0.926217       -25.2036
 129   2.0000      -0.913654       -24.8618
 130   2.0000      -0.897064       -24.4104
 131   2.0000      -0.890523       -24.2324
 132   2.0000      -0.885567       -24.0975
 133   2.0000      -0.874641       -23.8002
 134   2.0000      -0.869529       -23.6611
 135   2.0000      -0.865313       -23.5464
 136   2.0000      -0.853100       -23.2140
 137   2.0000      -0.847414       -23.0593
 138   2.0000      -0.844552       -22.9814
 139   2.0000      -0.834369       -22.7043
 140   2.0000      -0.827977       -22.5304
 141   2.0000      -0.824495       -22.4356
 142   2.0000      -0.818748       -22.2793
 143   2.0000      -0.817613       -22.2484
 144   2.0000      -0.816208       -22.2102
 145   2.0000      -0.808201       -21.9923
 146   2.0000      -0.787737       -21.4354
 147   2.0000      -0.768873       -20.9221
 148   2.0000      -0.755449       -20.5568
 149   2.0000      -0.745105       -20.2753
 150   2.0000      -0.742582       -20.2067
 151   2.0000      -0.739810       -20.1312
 152   2.0000      -0.735879       -20.0243
 153   2.0000      -0.724941       -19.7267
 154   2.0000      -0.710157       -19.3244
 155   2.0000      -0.695392       -18.9226
 156   2.0000      -0.691871       -18.8268
 157   2.0000      -0.689512       -18.7626
 158   2.0000      -0.677216       -18.4280
 159   2.0000      -0.674536       -18.3550
 160   2.0000      -0.670986       -18.2585
 161   2.0000      -0.658950       -17.9309
 162   2.0000      -0.657252       -17.8847
 163   2.0000      -0.645991       -17.5783
 164   2.0000      -0.642173       -17.4744
 165   2.0000      -0.638112       -17.3639
 166   2.0000      -0.629318       -17.1246
 167   2.0000      -0.627940       -17.0871
 168   2.0000      -0.619090       -16.8463
 169   2.0000      -0.615069       -16.7369
 170   2.0000      -0.613304       -16.6889
 171   2.0000      -0.605145       -16.4668
 172   2.0000      -0.603212       -16.4142
 173   2.0000      -0.600580       -16.3426
 174   2.0000      -0.590779       -16.0759
 175   2.0000      -0.586987       -15.9727
 176   2.0000      -0.581613       -15.8265
 177   2.0000      -0.578653       -15.7459
 178   2.0000      -0.569955       -15.5093
 179   2.0000      -0.566443       -15.4137
 180   2.0000      -0.559397       -15.2220
 181   2.0000      -0.556821       -15.1519
 182   2.0000      -0.552426       -15.0323
 183   2.0000      -0.549453       -14.9514
 184   2.0000      -0.547955       -14.9106
 185   2.0000      -0.547167       -14.8892
 186   2.0000      -0.542362       -14.7584
 187   2.0000      -0.537419       -14.6239
 188   2.0000      -0.532739       -14.4966
 189   2.0000      -0.529314       -14.4034
 190   2.0000      -0.524599       -14.2751
 191   2.0000      -0.523946       -14.2573
 192   2.0000      -0.518619       -14.1123
 193   2.0000      -0.516664       -14.0591
 194   2.0000      -0.514593       -14.0028
 195   2.0000      -0.511278       -13.9126
 196   2.0000      -0.509813       -13.8727
 197   2.0000      -0.506795       -13.7906
 198   2.0000      -0.505943       -13.7674
 199   2.0000      -0.503760       -13.7080
 200   2.0000      -0.500478       -13.6187
 201   2.0000      -0.496877       -13.5207
 202   2.0000      -0.495946       -13.4954
 203   2.0000      -0.493532       -13.4297
 204   2.0000      -0.492498       -13.4015
 205   2.0000      -0.491056       -13.3623
 206   2.0000      -0.485661       -13.2155
 207   2.0000      -0.482434       -13.1277
 208   2.0000      -0.480362       -13.0713
 209   2.0000      -0.477536       -12.9944
 210   2.0000      -0.476401       -12.9635
 211   2.0000      -0.474608       -12.9147
 212   2.0000      -0.473033       -12.8719
 213   2.0000      -0.467914       -12.7326
 214   2.0000      -0.466364       -12.6904
 215   2.0000      -0.464293       -12.6340
 216   2.0000      -0.464178       -12.6309
 217   2.0000      -0.462368       -12.5817
 218   2.0000      -0.457334       -12.4447
 219   2.0000      -0.452544       -12.3143
 220   2.0000      -0.448981       -12.2174
 221   2.0000      -0.446627       -12.1533
 222   2.0000      -0.440711       -11.9923
 223   2.0000      -0.435836       -11.8597
 224   2.0000      -0.434641       -11.8272
 225   2.0000      -0.433125       -11.7859
 226   2.0000      -0.432302       -11.7635
 227   2.0000      -0.430676       -11.7193
 228   2.0000      -0.428819       -11.6687
 229   2.0000      -0.427085       -11.6216
 230   2.0000      -0.423843       -11.5334
 231   2.0000      -0.421574       -11.4716
 232   2.0000      -0.420703       -11.4479
 233   2.0000      -0.418284       -11.3821
 234   2.0000      -0.412908       -11.2358
 235   2.0000      -0.408174       -11.1070
 236   2.0000      -0.405020       -11.0211
 237   2.0000      -0.403677       -10.9846
 238   2.0000      -0.401284       -10.9195
 239   2.0000      -0.394798       -10.7430
 240   2.0000      -0.393850       -10.7172
 241   2.0000      -0.391216       -10.6455
 242   2.0000      -0.383777       -10.4431
 243   2.0000      -0.381625       -10.3846
 244   2.0000      -0.376241       -10.2380
 245   2.0000      -0.374408       -10.1882
 246   2.0000      -0.367930       -10.0119
 247   2.0000      -0.365271        -9.9395
 248   2.0000      -0.351875        -9.5750
 249   2.0000      -0.344288        -9.3685
 250   2.0000      -0.339148        -9.2287
 251   2.0000      -0.332376        -9.0444
 252   2.0000      -0.325978        -8.8703
 253   2.0000      -0.322350        -8.7716
 254   2.0000      -0.320299        -8.7158
 255   2.0000      -0.319507        -8.6942
 256   2.0000      -0.310396        -8.4463
 257   2.0000      -0.305076        -8.3015
 258   2.0000      -0.304284        -8.2800
 259   2.0000      -0.298816        -8.1312
 260   2.0000      -0.290040        -7.8924
 261   2.0000      -0.284571        -7.7436
 262   2.0000      -0.282129        -7.6771
 263   2.0000      -0.261023        -7.1028
 264   2.0000      -0.241019        -6.5585
 265   2.0000      -0.208489        -5.6733
 266   0.0000      -0.094322        -2.5666
 267   0.0000      -0.079102        -2.1525
 268   0.0000      -0.055189        -1.5018
 269   0.0000      -0.052846        -1.4380
 270   0.0000      -0.047780        -1.3002

MULLIKEN ATOMIC CHARGES
-----------------------
   0 C :    0.284188
   1 C :   -0.323360
   2 C :   -0.175755
   3 N :    0.132050
   4 C :   -0.147782
   5 N :    0.102506
   6 C :    0.020072
   7 C :   -0.017587
   8 C :   -0.079919
   9 C :    0.118778
  10 C :   -0.088658
  11 C :   -0.027637
  12 S :    0.178339
  13 C :   -0.123280
  14 C :    0.037390
  15 Br:    0.015342
  16 C :    0.130222
  17 O :   -0.135528
  18 C :   -0.057255
  19 C :   -0.093536
  20 C :    0.159287
  21 C :    0.189139
  22 O :   -0.243648
  23 C :    0.207876
  24 C :    0.230406
  25 C :   -0.163455
  26 S :    0.112688
  27 C :   -0.170923
  28 O :   -0.218410
  29 C :   -0.070055
  30 C :    0.075263
  31 C :   -0.146749
  32 S :    0.158323
  33 C :   -0.139679
  34 C :   -0.063470
  35 C :   -0.005419
  36 S :    0.115171
  37 C :    0.104156
  38 O :   -0.155270
  39 C :    0.064992
  40 O :   -0.134759
  41 S :    0.114074
  42 C :   -0.005869
  43 C :   -0.054675
  44 C :    0.040739
  45 C :    0.042843
  46 C :   -0.065684
  47 S :    0.071415
  48 C :   -0.006997
  49 C :    0.019930
  50 C :    0.048336
  51 C :   -0.054205
  52 S :    0.052372
  53 C :    0.074464
  54 C :   -0.139353
  55 S :    0.160362
  56 C :   -0.043896
  57 C :   -0.009381
  58 C :    0.011211
  59 C :    0.197428
  60 O :   -0.142928
  61 C :   -0.012644
  62 C :   -0.033373
  63 C :    0.030761
  64 C :   -0.001553
  65 H :   -0.014088
  66 H :   -0.008541
  67 H :   -0.005272
  68 H :    0.036179
  69 H :    0.031738
  70 H :    0.025817
  71 H :    0.019736
  72 H :    0.005229
  73 H :   -0.000447
  74 H :   -0.012275
  75 H :   -0.011403
  76 H :   -0.012130
  77 H :   -0.008448
  78 H :   -0.012851
  79 H :    0.007109
  80 H :   -0.012922
  81 H :   -0.004183
  82 H :    0.006127
  83 H :    0.023193
Sum of atomic charges:   -0.0000000

LOEWDIN ATOMIC CHARGES
----------------------
   0 C :    0.073325
   1 C :   -0.139484
   2 C :   -0.012684
   3 N :   -0.064047
   4 C :   -0.015598
   5 N :   -0.070492
   6 C :   -0.020099
   7 C :   -0.048086
   8 C :    0.017186
   9 C :   -0.034555
  10 C :   -0.145271
  11 C :   -0.012532
  12 S :    0.426389
  13 C :   -0.274071
  14 C :   -0.071082
  15 Br:    0.130674
  16 C :    0.074066
  17 O :   -0.140787
  18 C :   -0.091159
  19 C :    0.047127
  20 C :    0.008364
  21 C :    0.074976
  22 O :   -0.037472
  23 C :   -0.011754
  24 C :   -0.003765
  25 C :   -0.201004
  26 S :    0.440922
  27 C :   -0.206855
  28 O :   -0.029947
  29 C :   -0.055253
  30 C :   -0.014394
  31 C :   -0.194231
  32 S :    0.451979
  33 C :   -0.182283
  34 C :   -0.236074
  35 C :   -0.203688
  36 S :    0.426333
  37 C :   -0.106920
  38 O :   -0.103227
  39 C :   -0.116041
  40 O :   -0.104882
  41 S :    0.394126
  42 C :   -0.122234
  43 C :   -0.129182
  44 C :   -0.050783
  45 C :   -0.017910
  46 C :   -0.197878
  47 S :    0.382689
  48 C :   -0.154269
  49 C :   -0.052230
  50 C :   -0.013388
  51 C :   -0.164426
  52 S :    0.399383
  53 C :   -0.046996
  54 C :   -0.180006
  55 S :    0.463406
  56 C :   -0.157026
  57 C :   -0.100455
  58 C :   -0.020142
  59 C :    0.109800
  60 O :   -0.113274
  61 C :   -0.029855
  62 C :   -0.000272
  63 C :   -0.016659
  64 C :   -0.021951
  65 H :    0.039065
  66 H :    0.040116
  67 H :    0.037851
  68 H :    0.047338
  69 H :    0.033292
  70 H :    0.029542
  71 H :    0.023671
  72 H :    0.034847
  73 H :    0.032872
  74 H :    0.032225
  75 H :    0.033144
  76 H :    0.032103
  77 H :    0.034236
  78 H :    0.034699
  79 H :    0.021596
  80 H :    0.030258
  81 H :    0.035551
  82 H :    0.017415
  83 H :    0.026110

  Mayer bond orders larger than 0.100000
B(  0-C ,  1-C ) :   1.6236 B(  0-C ,  6-C ) :   1.0011 B(  0-C , 18-C ) :   1.0842
B(  1-C ,  2-C ) :   1.1577 B(  1-C ,  4-C ) :   1.1566 B(  2-C ,  3-N ) :   2.8987
B(  4-C ,  5-N ) :   2.8593 B(  6-C ,  7-C ) :   1.2772 B(  6-C , 11-C ) :   1.4103
B(  7-C ,  8-C ) :   1.4274 B(  7-C , 16-C ) :   0.9310 B(  8-C ,  9-C ) :   1.2417
B(  8-C , 65-H ) :   1.0175 B(  9-C , 10-C ) :   1.3127 B(  9-C , 14-C ) :   1.1608
B( 10-C , 11-C ) :   1.3246 B( 10-C , 12-S ) :   1.0806 B( 11-C , 66-H ) :   0.9824
B( 12-S , 13-C ) :   1.0856 B( 13-C , 14-C ) :   1.6201 B( 13-C , 15-Br) :   1.0134
B( 14-C , 67-H ) :   1.0006 B( 16-C , 17-O ) :   2.2684 B( 16-C , 18-C ) :   0.9368
B( 18-C , 19-C ) :   1.5298 B( 19-C , 20-C ) :   1.2544 B( 19-C , 68-H ) :   0.9287
B( 20-C , 21-C ) :   1.3448 B( 20-C , 28-O ) :   1.0984 B( 21-C , 22-O ) :   1.1073
B( 21-C , 29-C ) :   1.2471 B( 22-O , 23-C ) :   1.0242 B( 23-C , 24-C ) :   1.2044
B( 23-C , 27-C ) :   1.5713 B( 24-C , 25-C ) :   1.5767 B( 24-C , 28-O ) :   1.0556
B( 25-C , 26-S ) :   1.1390 B( 25-C , 69-H ) :   0.9701 B( 26-S , 27-C ) :   1.1487
B( 27-C , 70-H ) :   0.9735 B( 29-C , 30-C ) :   1.6195 B( 29-C , 71-H ) :   0.9346
B( 30-C , 31-C ) :   1.1527 B( 30-C , 72-H ) :   0.9576 B( 31-C , 32-S ) :   1.1085
B( 31-C , 35-C ) :   1.4994 B( 32-S , 33-C ) :   1.1354 B( 33-C , 34-C ) :   1.4888
B( 33-C , 42-C ) :   1.1196 B( 34-C , 35-C ) :   1.3091 B( 34-C , 41-S ) :   0.9854
B( 35-C , 36-S ) :   0.9779 B( 36-S , 37-C ) :   1.0666 B( 36-S , 38-O ) :   0.1313
B( 37-C , 38-O ) :   2.0803 B( 37-C , 39-C ) :   0.7777 B( 39-C , 40-O ) :   2.1277
B( 39-C , 41-S ) :   1.0525 B( 40-O , 41-S ) :   0.1363 B( 42-C , 43-C ) :   1.5814
B( 42-C , 73-H ) :   0.9595 B( 43-C , 44-C ) :   1.1495 B( 43-C , 47-S ) :   1.0737
B( 44-C , 45-C ) :   1.5860 B( 44-C , 74-H ) :   0.9961 B( 45-C , 46-C ) :   1.2048
B( 45-C , 75-H ) :   0.9929 B( 46-C , 47-S ) :   1.0352 B( 46-C , 48-C ) :   1.4726
B( 48-C , 49-C ) :   1.1951 B( 48-C , 52-S ) :   1.0718 B( 49-C , 50-C ) :   1.5812
B( 49-C , 76-H ) :   0.9958 B( 50-C , 51-C ) :   1.1587 B( 50-C , 77-H ) :   0.9962
B( 51-C , 52-S ) :   1.0364 B( 51-C , 53-C ) :   1.5834 B( 53-C , 54-C ) :   1.1986
B( 53-C , 78-H ) :   0.9517 B( 54-C , 55-S ) :   1.0893 B( 54-C , 58-C ) :   1.3882
B( 55-S , 56-C ) :   1.1536 B( 56-C , 57-C ) :   1.4402 B( 56-C , 62-C ) :   1.0573
B( 57-C , 58-C ) :   1.3676 B( 57-C , 59-C ) :   0.9204 B( 58-C , 79-H ) :   0.9765
B( 59-C , 60-O ) :   2.1949 B( 59-C , 61-C ) :   0.9277 B( 61-C , 62-C ) :   1.6581
B( 61-C , 63-C ) :   1.1113 B( 62-C , 80-H ) :   1.0136 B( 63-C , 64-C ) :   1.9209
B( 63-C , 81-H ) :   0.9478 B( 64-C , 82-H ) :   0.9517 B( 64-C , 83-H ) :   0.9494

-----------------------------------------------------------------------------
         ABSORPTION SPECTRUM VIA TRANSITION ELECTRIC DIPOLE MOMENTS
-----------------------------------------------------------------------------
State   Energy  Wavelength   fosc         T2         TX        TY        TZ
        (cm-1)    (nm)                  (au**2)     (au)      (au)      (au)
-----------------------------------------------------------------------------
   0   10227.9    977.7   0.204373553   6.57828  -2.34813   0.54695  -0.87488
   1   14261.9    701.2   0.343698283   7.93369   0.41177   2.66424   0.81606
   2   15767.6    634.2   0.022743003   0.47485  -0.63092   0.26144  -0.09191
   3   16917.8    591.1   0.841967053  16.38425  -0.46418  -3.29031  -2.31142
   4   17373.0    575.6   0.079524882   1.50697  -0.44564   1.06962  -0.40531
   5   20617.5    485.0   0.252883885   4.03795   1.01342  -1.12912   1.31758
   6   21504.7    465.0   0.311462484   4.76812   1.07061  -1.60749   1.01877
   7   22127.0    451.9   0.042358391   0.63022  -0.15554   0.62027   0.47042
   8   23913.2    418.2   0.043752055   0.60233  -0.05395   0.76572  -0.11444
   9   24481.4    408.5   0.058354376   0.78472   0.05040   0.77230   0.43096
  10   24877.0    402.0   0.018895159   0.25005   0.44933   0.12439   0.18078
  11   25298.4    395.3   0.040586323   0.52816   0.12219   0.63610  -0.32955
  12   25577.4    391.0   0.135061308   1.73840   0.23070  -1.09922   0.69057
  13   25965.5    385.1   0.059847423   0.75880  -0.69343  -0.11421   0.51469
  14   26039.0    384.0   0.080644780   1.01960   0.54873   0.80290  -0.27173
  15   26977.5    370.7   0.257826414   3.14631  -1.08138   1.40603  -0.00176
  16   27078.5    369.3   0.208180331   2.53099   0.91498  -1.30131   0.02009
  17   27376.5    365.3   0.142110121   1.70892   0.04343  -0.01846   1.30641
  18   28391.1    352.2   0.060853952   0.70564   0.06300   0.82908   0.11956
  19   28715.7    348.2   0.046152821   0.52912   0.60881   0.15166   0.36806
  20   29052.5    344.2   0.010219049   0.11580   0.04222  -0.26223  -0.21273
  21   29339.7    340.8   0.193695729   2.17340  -0.46985  -0.52458  -1.29517
  22   29386.2    340.3   0.038002064   0.42573  -0.02349  -0.57728   0.30321
  23   29612.1    337.7   0.012679799   0.14097  -0.21032   0.18179  -0.25236
  24   29678.7    336.9   0.007420837   0.08232   0.19087   0.15993   0.14250
  25   30314.4    329.9   0.153898330   1.67132   0.95031   0.74359  -0.46401
  26   30884.9    323.8   0.058131789   0.61964  -0.56099   0.14429   0.53302
  27   31299.2    319.5   0.045802555   0.48176   0.62542  -0.29958   0.02928
  28   31582.9    316.6   0.067432547   0.70290  -0.13100   0.12396   0.81876
  29   32059.4    311.9   0.052806252   0.54226   0.39296  -0.23279   0.57762
  30   32196.9    310.6   0.107262952   1.09676  -0.60875   0.44291   0.72802
  31   32501.1    307.7   0.050397336   0.51049   0.59423  -0.20375   0.34038
  32   32647.3    306.3   0.037069516   0.37380  -0.60148   0.09684  -0.05148
  33   32984.6    303.2   0.158749417   1.58444   0.35854  -0.93120  -0.76730
  34   33126.1    301.9   0.027656029   0.27485   0.37686   0.12864   0.34100
  35   33292.4    300.4   0.347073498   3.43204   0.31023   1.22719   1.35270
  36   33603.3    297.6   0.260886544   2.55591  -0.99069   0.32072   1.21309
  37   33819.3    295.7   0.024220690   0.23577   0.25249   0.33610   0.24302
  38   34303.4    291.5   0.022025361   0.21138  -0.35130  -0.20848  -0.21096
  39   34463.3    290.2   0.035349534   0.33768  -0.26090  -0.35227   0.38147
  40   34627.1    288.8   0.014978028   0.14240  -0.25804  -0.27391  -0.02814
  41   35350.2    282.9   0.023908124   0.22265   0.24338  -0.08119  -0.39601
  42   35555.6    281.2   0.058010470   0.53712  -0.21553  -0.69375  -0.09688
  43   35839.2    279.0   0.062890749   0.57770   0.75925   0.03121   0.01614
  44   35953.3    278.1   0.009799360   0.08973  -0.12552  -0.14103  -0.23256
  45   36241.3    275.9   0.009959176   0.09047  -0.13968  -0.18877   0.18794
  46   36283.8    275.6   0.022186376   0.20130  -0.35136   0.17428  -0.21789
  47   36543.1    273.6   0.046419858   0.41819   0.51780  -0.15074   0.35687
  48   36576.0    273.4   0.018017031   0.16217  -0.20787   0.09885  -0.33043
  49   36810.7    271.7   0.075519626   0.67540   0.69764  -0.26205   0.34646
  50   36826.2    271.5   0.024804475   0.22174   0.15911   0.09888   0.43203
  51   37104.1    269.5   0.032552973   0.28883   0.52311   0.07949   0.09417
  52   37249.3    268.5   0.009435462   0.08339   0.26824  -0.02216  -0.10463
  53   37275.9    268.3   0.035678243   0.31510  -0.47157  -0.29711  -0.06668
  54   37427.1    267.2   0.134608228   1.18403  -0.86313   0.50073  -0.43393
  55   37544.3    266.4   0.030298905   0.26568  -0.05287   0.43454  -0.27214
  56   37600.7    266.0   0.007392700   0.06473   0.01493   0.01576   0.25349
  57   37941.4    263.6   0.006860955   0.05953   0.12148   0.08360   0.19439
  58   38027.3    263.0   0.028710680   0.24856   0.44268   0.12231  -0.19399
  59   38288.4    261.2   0.049836698   0.42851   0.08856   0.08599  -0.64286
  60   38371.3    260.6   0.029790893   0.25560  -0.07676  -0.49742  -0.04774
  61   38541.3    259.5   0.017806737   0.15210   0.04060   0.37777   0.08798
  62   38717.7    258.3   0.038944557   0.33114  -0.27045   0.46123  -0.21275
  63   39130.8    255.6   0.004889264   0.04113   0.15811  -0.00914  -0.12669
  64   39229.6    254.9   0.039261303   0.32948  -0.46595  -0.29330  -0.16231
  65   39305.4    254.4   0.111945061   0.93762   0.81921  -0.06046   0.51270
  66   39448.8    253.5   0.043292580   0.36129   0.22018  -0.51266  -0.22358
  67   39576.9    252.7   0.029841202   0.24823   0.09875   0.48826   0.00878
  68   39857.5    250.9   0.059715341   0.49323  -0.55103   0.30528  -0.31048
  69   40220.3    248.6   0.057946374   0.47430   0.07126  -0.49124   0.47739

FINAL SINGLE POINT ENERGY     -8156.697625344475

DIPOLE MOMENT
-------------
                                X             Y             Z
Electronic contribution:     47.74555     -75.06752     -71.99803
Nuclear contribution   :    -47.51172      77.21937      71.74237
                        -----------------------------------------
Total Dipole Moment    :      0.23383       2.15185      -0.25566
                        -----------------------------------------
Magnitude (a.u.)       :      2.17956
Magnitude (Debye)      :      5.54001

Rotational constants in cm-1:     0.000988     0.000563     0.000421
Rotational constants in MHz :    29.606444    16.867780    12.607744

                             ****ORCA TERMINATED NORMALLY****
TOTAL RUN TIME: 0 days 0 hours 9 minutes 35 seconds 914 msec
