                         Program Version 4.2.0 -  RELEASE  -
|  1> # ORCA input file
|  2> # SCF done       -159.399994977503          0.000388782919
|  3> ! CAM-B3LYP def2-SVP def2/J RIJCOSX Grid4 TightSCF
|  4> %maxcore 5000
|  5> %tddft
|  6>     Mode sTDDFT
|  7>     Ethresh 5.0
|  8>     maxcore 5000
|  9> end
| 10>
| 11> %pal
| 12>   nprocs 6
| 13>   end
| 14> * xyz 0 1
| 15>    C       -6.33132        11.70711         0.41353
| 16>    C       -6.19293        12.49526         1.52743
| 17>    C       -6.46656        13.87831         1.54671
| 18>    N       -6.68075        15.00410         1.62109
| 19>    C       -5.70143        12.07023         2.78046
| 20>    N       -5.27496        11.82608         3.81786
| 21>    C       -6.71504        12.18889        -0.91210
| 22>    C       -6.58383        11.11889        -1.82693
| 23>    C       -6.88953        11.23038        -3.16023
| 24>    C       -7.32526        12.47546        -3.62186
| 25>    C       -7.42165        13.55381        -2.71179
| 26>    C       -7.13495        13.42991        -1.35603
| 27>    S       -7.92500        15.01465        -3.51135
| 28>    C       -7.99644        14.16216        -5.03188
| 29>    C       -7.67572        12.85064        -4.94680
| 30>   Br       -8.45689        15.07261        -6.60534
| 31>    C       -6.04988         9.93419        -1.12722
| 32>    O       -5.62567         8.94363        -1.68614
| 33>    C       -6.06699        10.28152         0.31419
| 34>    C       -5.97393         9.42739         1.38607
| 35>    C       -5.83639         8.02718         1.36178
| 36>    O       -5.69944         7.33390         0.20431
| 37>    C       -5.84444         7.10053         2.40181
| 38>    C       -5.96719         6.95370         3.86203
| 39>    O       -6.12703         7.77025         4.72801
| 40>    N       -5.87256         5.57910         4.05687
| 41>    C       -5.71948         4.81914         2.89443
| 42>    O       -5.63039         3.62017         2.86185
| 43>    C       -5.70791         5.82313         1.82796
| 44>    C       -5.62047         6.00217         0.44621
| 45>    C       -5.50222         5.13093        -0.65375
| 46>    C       -5.43584         5.68321        -1.90758
| 47>    C       -5.41001         5.00672        -3.13696
| 48>    C       -5.38203         5.69264        -4.35871
| 49>    O       -5.53952         5.04247        -5.55939
| 50>    C       -5.63648         3.68479        -5.49342
| 51>    C       -5.59107         2.98334        -4.25370
| 52>    C       -5.68380         1.63839        -4.40796
| 53>    S       -5.83031         1.20918        -6.07044
| 54>    C       -5.76485         2.85911        -6.56215
| 55>    O       -5.48210         3.63240        -3.06357
| 56>    C       -5.19063         7.08134        -4.45889
| 57>    C       -5.35369         7.82142        -5.60899
| 58>    C       -5.10940         9.19167        -5.62298
| 59>    C       -5.41149        10.06127        -6.65420
| 60>    C       -5.19083        11.45478        -6.66066
| 61>    C       -5.66692        12.09418        -7.77145
| 62>    C       -6.28500        11.23454        -8.69844
| 63>    S       -6.22380         9.57893        -8.12920
| 64>    C       -6.89677        11.57782        -9.89445
| 65>    C       -7.07258        12.86831       -10.43458
| 66>    C       -7.73304        12.87622       -11.62673
| 67>    C       -8.11780        11.59728       -12.10102
| 68>    S       -7.59472        10.37750       -10.95256
| 69>    C       -8.80787        11.37220       -13.27013
| 70>    C       -9.25914        10.16842       -13.84839
| 71>    C       -9.02994         8.89634       -13.36525
| 72>    C       -9.60556         7.82870       -14.12904
| 73>    C      -10.30324         8.19069       -15.23500
| 74>   Si      -10.28661        10.03451       -15.41762
| 75>    H       -6.79388        10.38880        -3.82845
| 76>    H       -7.24012        14.27808        -0.70062
| 77>    H       -7.67549        12.17608        -5.78272
| 78>    H       -6.06785         9.83200         2.38505
| 79>    H       -5.92081         5.15916         4.97414
| 80>    H       -5.48214         4.06942        -0.47117
| 81>    H       -5.45120         6.75924        -1.94744
| 82>    H       -5.67477         0.88618        -3.64754
| 83>    H       -5.82238         3.12478        -7.59679
| 84>    H       -4.91232         7.61585        -3.56631
| 85>    H       -5.70954         7.34480        -6.51253
| 86>    H       -4.66635         9.63079        -4.73762
| 87>    H       -4.69625        11.94702        -5.84162
| 88>    H       -5.59381        13.15388        -7.93742
| 89>    H       -6.72408        13.75167        -9.93120
| 90>    H       -7.96211        13.76716       -12.18433
| 91>    H       -9.05013        12.27241       -13.82376
| 92>    H       -8.45376         8.67426       -12.48114
| 93>    H       -9.46974         6.80487       -13.81148
| 94>    H      -10.77090         7.45239       -15.86590
| 95>    H      -11.59828        10.67255       -15.28933
| 96>    H       -9.57463        10.52231       -16.60059
| 97> *
| 98>
| 99>                          ****END OF INPUT****

CARTESIAN COORDINATES (ANGSTROEM)
---------------------------------
  C     -6.331320   11.707110    0.413530
  C     -6.192930   12.495260    1.527430
  C     -6.466560   13.878310    1.546710
  N     -6.680750   15.004100    1.621090
  C     -5.701430   12.070230    2.780460
  N     -5.274960   11.826080    3.817860
  C     -6.715040   12.188890   -0.912100
  C     -6.583830   11.118890   -1.826930
  C     -6.889530   11.230380   -3.160230
  C     -7.325260   12.475460   -3.621860
  C     -7.421650   13.553810   -2.711790
  C     -7.134950   13.429910   -1.356030
  S     -7.925000   15.014650   -3.511350
  C     -7.996440   14.162160   -5.031880
  C     -7.675720   12.850640   -4.946800
  Br    -8.456890   15.072610   -6.605340
  C     -6.049880    9.934190   -1.127220
  O     -5.625670    8.943630   -1.686140
  C     -6.066990   10.281520    0.314190
  C     -5.973930    9.427390    1.386070
  C     -5.836390    8.027180    1.361780
  O     -5.699440    7.333900    0.204310
  C     -5.844440    7.100530    2.401810
  C     -5.967190    6.953700    3.862030
  O     -6.127030    7.770250    4.728010
  N     -5.872560    5.579100    4.056870
  C     -5.719480    4.819140    2.894430
  O     -5.630390    3.620170    2.861850
  C     -5.707910    5.823130    1.827960
  C     -5.620470    6.002170    0.446210
  C     -5.502220    5.130930   -0.653750
  C     -5.435840    5.683210   -1.907580
  C     -5.410010    5.006720   -3.136960
  C     -5.382030    5.692640   -4.358710
  O     -5.539520    5.042470   -5.559390
  C     -5.636480    3.684790   -5.493420
  C     -5.591070    2.983340   -4.253700
  C     -5.683800    1.638390   -4.407960
  S     -5.830310    1.209180   -6.070440
  C     -5.764850    2.859110   -6.562150
  O     -5.482100    3.632400   -3.063570
  C     -5.190630    7.081340   -4.458890
  C     -5.353690    7.821420   -5.608990
  C     -5.109400    9.191670   -5.622980
  C     -5.411490   10.061270   -6.654200
  C     -5.190830   11.454780   -6.660660
  C     -5.666920   12.094180   -7.771450
  C     -6.285000   11.234540   -8.698440
  S     -6.223800    9.578930   -8.129200
  C     -6.896770   11.577820   -9.894450
  C     -7.072580   12.868310  -10.434580
  C     -7.733040   12.876220  -11.626730
  C     -8.117800   11.597280  -12.101020
  S     -7.594720   10.377500  -10.952560
  C     -8.807870   11.372200  -13.270130
  C     -9.259140   10.168420  -13.848390
  C     -9.029940    8.896340  -13.365250
  C     -9.605560    7.828700  -14.129040
  C    -10.303240    8.190690  -15.235000
  Si   -10.286610   10.034510  -15.417620
  H     -6.793880   10.388800   -3.828450
  H     -7.240120   14.278080   -0.700620
  H     -7.675490   12.176080   -5.782720
  H     -6.067850    9.832000    2.385050
  H     -5.920810    5.159160    4.974140
  H     -5.482140    4.069420   -0.471170
  H     -5.451200    6.759240   -1.947440
  H     -5.674770    0.886180   -3.647540
  H     -5.822380    3.124780   -7.596790
  H     -4.912320    7.615850   -3.566310
  H     -5.709540    7.344800   -6.512530
  H     -4.666350    9.630790   -4.737620
  H     -4.696250   11.947020   -5.841620
  H     -5.593810   13.153880   -7.937420
  H     -6.724080   13.751670   -9.931200
  H     -7.962110   13.767160  -12.184330
  H     -9.050130   12.272410  -13.823760
  H     -8.453760    8.674260  -12.481140
  H     -9.469740    6.804870  -13.811480
  H    -10.770900    7.452390  -15.865900
  H    -11.598280   10.672550  -15.289330
  H     -9.574630   10.522310  -16.600590

 Total Charge           Charge          ....    0
 Multiplicity           Mult            ....    1
 Number of Electrons    NEL             ....  474
 Basis Dimension        Dim             ....  988

ORBITAL ENERGIES
----------------

  NO   OCC          E(Eh)            E(eV)
   0   2.0000    -482.890828    -13140.1275
   1   2.0000     -88.977460     -2421.1998
   2   2.0000     -88.960954     -2420.7506
   3   2.0000     -88.956586     -2420.6318
   4   2.0000     -88.955564     -2420.6039
   5   2.0000     -66.191124     -1801.1521
   6   2.0000     -62.568380     -1702.5722
   7   2.0000     -56.402313     -1534.7850
   8   2.0000     -56.399615     -1534.7115
   9   2.0000     -56.399606     -1534.7113
  10   2.0000     -19.302049      -525.2355
  11   2.0000     -19.285291      -524.7795
  12   2.0000     -19.277151      -524.5580
  13   2.0000     -19.220186      -523.0079
  14   2.0000     -19.212929      -522.8104
  15   2.0000     -19.208320      -522.6849
  16   2.0000     -14.452359      -393.2687
  17   2.0000     -14.414362      -392.2347
  18   2.0000     -14.412442      -392.1825
  19   2.0000     -10.401398      -283.0364
  20   2.0000     -10.397972      -282.9432
  21   2.0000     -10.373051      -282.2651
  22   2.0000     -10.367870      -282.1241
  23   2.0000     -10.362483      -281.9775
  24   2.0000     -10.361132      -281.9407
  25   2.0000     -10.360269      -281.9172
  26   2.0000     -10.349111      -281.6136
  27   2.0000     -10.344952      -281.5005
  28   2.0000     -10.343962      -281.4735
  29   2.0000     -10.342341      -281.4294
  30   2.0000     -10.341768      -281.4138
  31   2.0000     -10.327591      -281.0280
  32   2.0000     -10.324162      -280.9347
  33   2.0000     -10.322589      -280.8919
  34   2.0000     -10.319429      -280.8059
  35   2.0000     -10.319420      -280.8057
  36   2.0000     -10.317225      -280.7460
  37   2.0000     -10.314063      -280.6599
  38   2.0000     -10.312826      -280.6263
  39   2.0000     -10.309921      -280.5472
  40   2.0000     -10.308439      -280.5069
  41   2.0000     -10.306974      -280.4670
  42   2.0000     -10.305669      -280.4315
  43   2.0000     -10.305076      -280.4154
  44   2.0000     -10.300970      -280.3036
  45   2.0000     -10.298551      -280.2378
  46   2.0000     -10.298471      -280.2356
  47   2.0000     -10.296633      -280.1856
  48   2.0000     -10.296602      -280.1848
  49   2.0000     -10.294359      -280.1237
  50   2.0000     -10.293137      -280.0905
  51   2.0000     -10.293091      -280.0893
  52   2.0000     -10.292971      -280.0860
  53   2.0000     -10.292718      -280.0791
  54   2.0000     -10.291643      -280.0498
  55   2.0000     -10.289751      -279.9984
  56   2.0000     -10.289665      -279.9960
  57   2.0000     -10.285265      -279.8763
  58   2.0000     -10.284805      -279.8638
  59   2.0000     -10.283089      -279.8171
  60   2.0000     -10.282665      -279.8056
  61   2.0000     -10.281683      -279.7788
  62   2.0000     -10.266304      -279.3603
  63   2.0000     -10.257670      -279.1254
  64   2.0000      -8.797762      -239.3993
  65   2.0000      -8.073400      -219.6884
  66   2.0000      -8.056824      -219.2373
  67   2.0000      -8.052487      -219.1193
  68   2.0000      -8.051937      -219.1043
  69   2.0000      -6.633950      -180.5190
  70   2.0000      -6.619603      -180.1286
  71   2.0000      -6.619312      -180.1206
  72   2.0000      -6.043081      -164.4406
  73   2.0000      -6.038850      -164.3255
  74   2.0000      -6.034597      -164.2097
  75   2.0000      -6.026318      -163.9844
  76   2.0000      -6.022188      -163.8721
  77   2.0000      -6.022140      -163.8707
  78   2.0000      -6.021610      -163.8563
  79   2.0000      -6.018495      -163.7716
  80   2.0000      -6.018069      -163.7600
  81   2.0000      -6.017616      -163.7476
  82   2.0000      -6.013583      -163.6379
  83   2.0000      -6.012902      -163.6194
  84   2.0000      -5.362888      -145.9316
  85   2.0000      -3.725669      -101.3806
  86   2.0000      -3.724309      -101.3436
  87   2.0000      -3.724203      -101.3407
  88   2.0000      -2.749841       -74.8270
  89   2.0000      -2.745821       -74.7176
  90   2.0000      -2.745649       -74.7129
  91   2.0000      -2.734224       -74.4020
  92   2.0000      -2.734202       -74.4014
  93   2.0000      -1.227293       -33.3963
  94   2.0000      -1.208162       -32.8758
  95   2.0000      -1.171207       -31.8701
  96   2.0000      -1.155344       -31.4385
  97   2.0000      -1.135530       -30.8994
  98   2.0000      -1.134568       -30.8732
  99   2.0000      -1.042120       -28.3575
 100   2.0000      -1.023963       -27.8634
 101   2.0000      -1.012846       -27.5609
 102   2.0000      -1.005135       -27.3511
 103   2.0000      -0.991885       -26.9906
 104   2.0000      -0.990659       -26.9572
 105   2.0000      -0.990371       -26.9494
 106   2.0000      -0.982982       -26.7483
 107   2.0000      -0.948042       -25.7975
 108   2.0000      -0.936825       -25.4923
 109   2.0000      -0.927443       -25.2370
 110   2.0000      -0.925253       -25.1774
 111   2.0000      -0.922506       -25.1027
 112   2.0000      -0.910355       -24.7720
 113   2.0000      -0.906932       -24.6789
 114   2.0000      -0.892668       -24.2907
 115   2.0000      -0.886828       -24.1318
 116   2.0000      -0.881041       -23.9743
 117   2.0000      -0.868878       -23.6434
 118   2.0000      -0.856284       -23.3007
 119   2.0000      -0.850551       -23.1447
 120   2.0000      -0.835600       -22.7378
 121   2.0000      -0.831656       -22.6305
 122   2.0000      -0.830020       -22.5860
 123   2.0000      -0.821713       -22.3600
 124   2.0000      -0.814900       -22.1746
 125   2.0000      -0.803839       -21.8736
 126   2.0000      -0.784529       -21.3481
 127   2.0000      -0.774664       -21.0797
 128   2.0000      -0.766255       -20.8509
 129   2.0000      -0.760955       -20.7066
 130   2.0000      -0.759197       -20.6588
 131   2.0000      -0.748389       -20.3647
 132   2.0000      -0.732066       -19.9205
 133   2.0000      -0.716885       -19.5074
 134   2.0000      -0.708136       -19.2694
 135   2.0000      -0.703732       -19.1495
 136   2.0000      -0.695674       -18.9302
 137   2.0000      -0.691323       -18.8119
 138   2.0000      -0.687606       -18.7107
 139   2.0000      -0.686691       -18.6858
 140   2.0000      -0.681613       -18.5476
 141   2.0000      -0.670457       -18.2441
 142   2.0000      -0.659854       -17.9555
 143   2.0000      -0.657376       -17.8881
 144   2.0000      -0.644810       -17.5462
 145   2.0000      -0.630725       -17.1629
 146   2.0000      -0.629535       -17.1305
 147   2.0000      -0.624905       -17.0045
 148   2.0000      -0.622790       -16.9470
 149   2.0000      -0.622064       -16.9272
 150   2.0000      -0.603185       -16.4135
 151   2.0000      -0.602280       -16.3889
 152   2.0000      -0.599905       -16.3243
 153   2.0000      -0.597421       -16.2566
 154   2.0000      -0.585746       -15.9390
 155   2.0000      -0.585537       -15.9333
 156   2.0000      -0.585121       -15.9220
 157   2.0000      -0.580861       -15.8060
 158   2.0000      -0.575505       -15.6603
 159   2.0000      -0.574009       -15.6196
 160   2.0000      -0.572722       -15.5846
 161   2.0000      -0.569692       -15.5021
 162   2.0000      -0.560223       -15.2444
 163   2.0000      -0.550264       -14.9734
 164   2.0000      -0.548319       -14.9205
 165   2.0000      -0.545434       -14.8420
 166   2.0000      -0.540245       -14.7008
 167   2.0000      -0.539415       -14.6782
 168   2.0000      -0.538262       -14.6469
 169   2.0000      -0.532774       -14.4975
 170   2.0000      -0.526630       -14.3303
 171   2.0000      -0.526101       -14.3159
 172   2.0000      -0.521236       -14.1835
 173   2.0000      -0.518960       -14.1216
 174   2.0000      -0.516518       -14.0552
 175   2.0000      -0.513464       -13.9721
 176   2.0000      -0.510227       -13.8840
 177   2.0000      -0.508150       -13.8275
 178   2.0000      -0.507262       -13.8033
 179   2.0000      -0.506402       -13.7799
 180   2.0000      -0.501743       -13.6531
 181   2.0000      -0.501217       -13.6388
 182   2.0000      -0.494795       -13.4641
 183   2.0000      -0.493202       -13.4207
 184   2.0000      -0.492671       -13.4063
 185   2.0000      -0.485808       -13.2195
 186   2.0000      -0.483007       -13.1433
 187   2.0000      -0.481643       -13.1062
 188   2.0000      -0.478637       -13.0244
 189   2.0000      -0.478572       -13.0226
 190   2.0000      -0.474064       -12.8999
 191   2.0000      -0.470005       -12.7895
 192   2.0000      -0.469144       -12.7660
 193   2.0000      -0.465069       -12.6552
 194   2.0000      -0.459806       -12.5120
 195   2.0000      -0.458976       -12.4894
 196   2.0000      -0.454880       -12.3779
 197   2.0000      -0.450505       -12.2589
 198   2.0000      -0.448911       -12.2155
 199   2.0000      -0.446611       -12.1529
 200   2.0000      -0.442136       -12.0311
 201   2.0000      -0.441026       -12.0009
 202   2.0000      -0.438801       -11.9404
 203   2.0000      -0.435749       -11.8573
 204   2.0000      -0.430296       -11.7090
 205   2.0000      -0.429220       -11.6797
 206   2.0000      -0.423681       -11.5289
 207   2.0000      -0.422489       -11.4965
 208   2.0000      -0.420943       -11.4544
 209   2.0000      -0.419087       -11.4039
 210   2.0000      -0.410686       -11.1753
 211   2.0000      -0.408119       -11.1055
 212   2.0000      -0.406759       -11.0685
 213   2.0000      -0.400946       -10.9103
 214   2.0000      -0.398934       -10.8555
 215   2.0000      -0.391607       -10.6562
 216   2.0000      -0.387448       -10.5430
 217   2.0000      -0.381703       -10.3867
 218   2.0000      -0.379835       -10.3358
 219   2.0000      -0.379534       -10.3277
 220   2.0000      -0.373012       -10.1502
 221   2.0000      -0.369690       -10.0598
 222   2.0000      -0.360195        -9.8014
 223   2.0000      -0.359955        -9.7949
 224   2.0000      -0.347070        -9.4443
 225   2.0000      -0.344658        -9.3786
 226   2.0000      -0.342222        -9.3123
 227   2.0000      -0.338858        -9.2208
 228   2.0000      -0.332690        -9.0530
 229   2.0000      -0.320215        -8.7135
 230   2.0000      -0.316955        -8.6248
 231   2.0000      -0.309589        -8.4243
 232   2.0000      -0.296132        -8.0582
 233   2.0000      -0.288176        -7.8417
 234   2.0000      -0.283239        -7.7073
 235   2.0000      -0.251022        -6.8307
 236   2.0000      -0.210152        -5.7185
 237   0.0000      -0.108504        -2.9525
 238   0.0000      -0.091456        -2.4887
 239   0.0000      -0.063080        -1.7165
 240   0.0000      -0.055900        -1.5211
 241   0.0000      -0.025437        -0.6922

MULLIKEN ATOMIC CHARGES
-----------------------
   0 C :    0.292086
   1 C :   -0.347916
   2 C :   -0.182298
   3 N :    0.145691
   4 C :   -0.199924
   5 N :    0.176891
   6 C :    0.026672
   7 C :    0.004569
   8 C :   -0.086298
   9 C :    0.111299
  10 C :   -0.090421
  11 C :   -0.027222
  12 S :    0.184385
  13 C :   -0.131348
  14 C :    0.048357
  15 Br:    0.015908
  16 C :    0.138813
  17 O :   -0.145952
  18 C :   -0.073846
  19 C :   -0.024105
  20 C :    0.071485
  21 O :   -0.194318
  22 C :   -0.010931
  23 C :    0.166591
  24 O :   -0.124131
  25 N :   -0.169305
  26 C :    0.165345
  27 O :   -0.137654
  28 C :   -0.047450
  29 C :    0.118649
  30 C :   -0.044762
  31 C :   -0.049441
  32 C :    0.191828
  33 C :    0.200612
  34 O :   -0.245187
  35 C :    0.212126
  36 C :    0.221185
  37 C :   -0.170618
  38 S :    0.113903
  39 C :   -0.171051
  40 O :   -0.248500
  41 C :   -0.093929
  42 C :    0.030360
  43 C :   -0.020700
  44 C :   -0.024035
  45 C :    0.016875
  46 C :    0.016654
  47 C :   -0.052752
  48 S :    0.089830
  49 C :   -0.031324
  50 C :    0.023522
  51 C :    0.040729
  52 C :   -0.021532
  53 S :    0.069054
  54 C :    0.012578
  55 C :   -0.171451
  56 C :   -0.029960
  57 C :    0.032563
  58 C :   -0.167115
  59 Si:    0.508463
  60 H :   -0.016559
  61 H :   -0.005215
  62 H :    0.008647
  63 H :    0.030511
  64 H :    0.140155
  65 H :    0.012980
  66 H :    0.036667
  67 H :    0.029752
  68 H :    0.026861
  69 H :    0.019718
  70 H :    0.008514
  71 H :   -0.000320
  72 H :   -0.004280
  73 H :   -0.005753
  74 H :   -0.014368
  75 H :   -0.009575
  76 H :   -0.019925
  77 H :    0.001668
  78 H :   -0.006056
  79 H :    0.010680
  80 H :   -0.078207
  81 H :   -0.077444
Sum of atomic charges:   -0.0000000

LOEWDIN ATOMIC CHARGES
----------------------
   0 C :    0.072649
   1 C :   -0.137170
   2 C :   -0.016607
   3 N :   -0.053888
   4 C :   -0.029637
   5 N :   -0.036442
   6 C :   -0.019480
   7 C :   -0.050391
   8 C :    0.015868
   9 C :   -0.034377
  10 C :   -0.143359
  11 C :   -0.010797
  12 S :    0.429599
  13 C :   -0.276615
  14 C :   -0.067630
  15 Br:    0.132415
  16 C :    0.086740
  17 O :   -0.144645
  18 C :   -0.088161
  19 C :    0.045918
  20 C :    0.033604
  21 O :    0.033323
  22 C :   -0.051280
  23 C :    0.083135
  24 O :   -0.141140
  25 N :   -0.008107
  26 C :    0.085338
  27 O :   -0.155563
  28 C :   -0.110610
  29 C :    0.100381
  30 C :   -0.062269
  31 C :    0.013395
  32 C :    0.007906
  33 C :    0.058293
  34 O :   -0.043770
  35 C :   -0.010725
  36 C :   -0.007656
  37 C :   -0.208543
  38 S :    0.441222
  39 C :   -0.207962
  40 O :   -0.052489
  41 C :   -0.046295
  42 C :   -0.002802
  43 C :   -0.066402
  44 C :   -0.143137
  45 C :   -0.042070
  46 C :   -0.026275
  47 C :   -0.187026
  48 S :    0.376854
  49 C :   -0.167540
  50 C :   -0.043765
  51 C :   -0.020610
  52 C :   -0.150245
  53 S :    0.393949
  54 C :   -0.049662
  55 C :   -0.185059
  56 C :   -0.022822
  57 C :   -0.014383
  58 C :   -0.189178
  59 Si:    0.548283
  60 H :    0.039847
  61 H :    0.041152
  62 H :    0.040264
  63 H :    0.059212
  64 H :    0.095628
  65 H :    0.044329
  66 H :    0.040787
  67 H :    0.031058
  68 H :    0.029905
  69 H :    0.037880
  70 H :    0.027157
  71 H :    0.035331
  72 H :    0.035327
  73 H :    0.033416
  74 H :    0.031420
  75 H :    0.034697
  76 H :    0.030527
  77 H :    0.009463
  78 H :    0.026368
  79 H :    0.021145
  80 H :   -0.088809
  81 H :   -0.088389

  Mayer bond orders larger than 0.100000
B(  0-C ,  1-C ) :   1.6389 B(  0-C ,  6-C ) :   1.0027 B(  0-C , 18-C ) :   1.0665
B(  1-C ,  2-C ) :   1.1448 B(  1-C ,  4-C ) :   1.1367 B(  2-C ,  3-N ) :   2.9680
B(  4-C ,  5-N ) :   2.9940 B(  6-C ,  7-C ) :   1.2744 B(  6-C , 11-C ) :   1.4110
B(  7-C ,  8-C ) :   1.4108 B(  7-C , 16-C ) :   0.9468 B(  8-C ,  9-C ) :   1.2530
B(  8-C , 60-H ) :   1.0169 B(  9-C , 10-C ) :   1.3045 B(  9-C , 14-C ) :   1.1694
B( 10-C , 11-C ) :   1.3257 B( 10-C , 12-S ) :   1.0856 B( 11-C , 61-H ) :   0.9820
B( 12-S , 13-C ) :   1.0824 B( 13-C , 14-C ) :   1.6117 B( 13-C , 15-Br) :   1.0173
B( 14-C , 62-H ) :   0.9934 B( 16-C , 17-O ) :   2.1398 B( 16-C , 18-C ) :   0.9465
B( 18-C , 19-C ) :   1.5149 B( 19-C , 20-C ) :   1.2514 B( 19-C , 63-H ) :   0.9353
B( 20-C , 21-O ) :   1.1375 B( 20-C , 22-C ) :   1.3387 B( 21-O , 29-C ) :   1.1796
B( 22-C , 23-C ) :   0.8623 B( 22-C , 28-C ) :   1.3499 B( 23-C , 24-O ) :   2.2721
B( 23-C , 25-N ) :   1.0891 B( 25-N , 26-C ) :   1.0640 B( 25-N , 64-H ) :   0.9139
B( 26-C , 27-O ) :   2.2812 B( 26-C , 28-C ) :   0.8833 B( 28-C , 29-C ) :   1.2718
B( 29-C , 30-C ) :   1.2208 B( 30-C , 31-C ) :   1.5163 B( 30-C , 65-H ) :   0.9828
B( 31-C , 32-C ) :   1.2231 B( 31-C , 66-H ) :   0.9470 B( 32-C , 33-C ) :   1.3441
B( 32-C , 40-O ) :   1.0726 B( 33-C , 34-O ) :   1.0913 B( 33-C , 41-C ) :   1.2156
B( 34-O , 35-C ) :   1.0413 B( 35-C , 36-C ) :   1.2004 B( 35-C , 39-C ) :   1.5701
B( 36-C , 37-C ) :   1.5724 B( 36-C , 40-O ) :   1.0581 B( 37-C , 38-S ) :   1.1417
B( 37-C , 67-H ) :   0.9718 B( 38-S , 39-C ) :   1.1472 B( 39-C , 68-H ) :   0.9730
B( 41-C , 42-C ) :   1.5478 B( 41-C , 69-H ) :   0.9602 B( 42-C , 43-C ) :   1.1885
B( 42-C , 70-H ) :   0.9849 B( 43-C , 44-C ) :   1.4907 B( 43-C , 71-H ) :   0.9809
B( 44-C , 45-C ) :   1.1672 B( 44-C , 48-S ) :   1.0501 B( 45-C , 46-C ) :   1.5431
B( 45-C , 72-H ) :   1.0024 B( 46-C , 47-C ) :   1.2121 B( 46-C , 73-H ) :   0.9983
B( 47-C , 48-S ) :   1.0408 B( 47-C , 49-C ) :   1.4730 B( 49-C , 50-C ) :   1.2007
B( 49-C , 53-S ) :   1.0556 B( 50-C , 51-C ) :   1.5722 B( 50-C , 74-H ) :   0.9937
B( 51-C , 52-C ) :   1.1547 B( 51-C , 75-H ) :   0.9989 B( 52-C , 53-S ) :   1.0327
B( 52-C , 54-C ) :   1.5620 B( 54-C , 55-C ) :   1.1947 B( 54-C , 76-H ) :   0.9638
B( 55-C , 56-C ) :   1.6175 B( 55-C , 59-Si) :   0.9145 B( 56-C , 57-C ) :   1.1181
B( 56-C , 77-H ) :   0.9756 B( 57-C , 58-C ) :   1.7959 B( 57-C , 78-H ) :   0.9850
B( 58-C , 59-Si) :   0.9498 B( 58-C , 79-H ) :   0.9450 B( 59-Si, 80-H ) :   0.9504
B( 59-Si, 81-H ) :   0.9503

-----------------------------------------------------------------------------
         ABSORPTION SPECTRUM VIA TRANSITION ELECTRIC DIPOLE MOMENTS
-----------------------------------------------------------------------------
State   Energy  Wavelength   fosc         T2         TX        TY        TZ
        (cm-1)    (nm)                  (au**2)     (au)      (au)      (au)
-----------------------------------------------------------------------------
   0    9039.1   1106.3   0.706294064  25.72377   0.84678  -0.12008   4.99923
   1   13936.3    717.6   0.758841547  17.92583  -1.47094   2.11148  -3.36212
   2   17093.7    585.0   0.178985222   3.44713   0.90593  -1.50875   0.59169
   3   17967.1    556.6   0.006279027   0.11505  -0.16348  -0.05599  -0.29187
   4   19577.2    510.8   0.037510122   0.63077  -0.74067   0.27930  -0.06457
   5   22165.6    451.1   0.420782638   6.24962  -0.75181  -2.37374   0.22304
   6   23864.9    419.0   0.224396093   3.09550  -0.37125  -1.71935   0.03880
   7   24344.7    410.8   0.035014778   0.47350  -0.42778   0.53882   0.01342
   8   25373.8    394.1   0.067558749   0.87654   0.38875  -0.07384   0.84850
   9   26327.6    379.8   0.071107867   0.88917   0.23461  -0.23416   0.88278
  10   27122.9    368.7   0.620896411   7.53631  -0.28347  -2.72857  -0.10436
  11   27309.8    366.2   0.052558566   0.63358  -0.04878   0.67536   0.41844
  12   27369.7    365.4   0.012098389   0.14552  -0.12028   0.24094  -0.27019
  13   28552.7    350.2   0.233734997   2.69495   0.18432   0.66392   1.49003
  14   28823.9    346.9   0.002893885   0.03305  -0.02890  -0.12018  -0.13331
  15   29683.3    336.9   0.068954701   0.76476  -0.01741   0.86221   0.14511
  16   29816.7    335.4   0.202292882   2.23355  -0.29944   0.13438  -1.45802
  17   30093.8    332.3   0.067029720   0.73327   0.01055   0.85419   0.05928
  18   30710.1    325.6   0.124589385   1.33560   0.17349   0.50991   1.02249
  19   30957.2    323.0   0.042299656   0.44983  -0.03690  -0.51469   0.42845
  20   31643.4    316.0   0.091982359   0.95697   0.06105  -0.49786   0.83987
  21   32047.4    312.0   0.005644134   0.05798  -0.12484   0.03545  -0.20283
  22   32225.8    310.3   0.433324055   4.42675  -0.47903   0.32970  -2.02202
  23   32845.5    304.5   0.007284962   0.07302   0.07641  -0.22373   0.13085
  24   32980.5    303.2   0.069856594   0.69731   0.09389  -0.39960   0.72720
  25   33568.5    297.9   0.150943273   1.48033  -0.15044  -1.14312   0.38855
  26   33711.3    296.6   0.023242942   0.22698   0.04086   0.43859  -0.18152
  27   34405.3    290.7   0.370940233   3.54940   0.26744  -0.32612   1.83617
  28   34591.6    289.1   0.001037734   0.00988  -0.01109  -0.07982  -0.05816
  29   34985.0    285.8   0.002914322   0.02742  -0.12852   0.08184  -0.06488
  30   35467.2    282.0   0.017351471   0.16106  -0.01543  -0.10548  -0.38690
  31   35674.8    280.3   0.069062238   0.63732  -0.03687   0.70829   0.36644
  32   35918.1    278.4   0.008097223   0.07422  -0.15455  -0.13045   0.18252
  33   36201.3    276.2   0.003449553   0.03137   0.03841   0.17142  -0.02256
  34   36279.3    275.6   0.001101041   0.00999   0.04847  -0.01219  -0.08656
  35   36575.3    273.4   0.011926008   0.10735   0.01223  -0.31638  -0.08427
  36   36708.4    272.4   0.060275563   0.54057  -0.13661   0.04752  -0.72087
  37   37042.2    270.0   0.017348177   0.15418   0.01348   0.28448   0.27031
  38   37593.5    266.0   0.016622787   0.14557   0.05314  -0.17281   0.33598
  39   37719.0    265.1   0.171057938   1.49300  -0.00422   1.02166   0.67021
  40   37967.5    263.4   0.022254580   0.19297  -0.15061   0.40964  -0.04975
  41   38627.2    258.9   0.019825283   0.16897  -0.01888   0.39039  -0.12731
  42   38697.5    258.4   0.000873295   0.00743  -0.01794  -0.05817  -0.06102
  43   38729.2    258.2   0.120379196   1.02327   0.19013  -0.94915   0.29366
  44   39118.4    255.6   0.000298668   0.00251  -0.03831   0.02941  -0.01344
  45   39280.5    254.6   0.066873311   0.56047  -0.13954   0.68697  -0.26281
  46   39330.4    254.3   0.035334088   0.29576   0.17112  -0.40329   0.32223
  47   39734.6    251.7   0.025444446   0.21081   0.20511  -0.40539   0.06635

FINAL SINGLE POINT ENERGY     -6796.211120423193

DIPOLE MOMENT
-------------
                                X             Y             Z
Electronic contribution:    -10.72170      59.72279      26.35599
Nuclear contribution   :      9.97244     -60.00704     -31.05249
                        -----------------------------------------
Total Dipole Moment    :     -0.74926      -0.28425      -4.69650
                        -----------------------------------------
Magnitude (a.u.)       :      4.76438
Magnitude (Debye)      :     12.11010

Rotational constants in cm-1:     0.001168     0.000586     0.000403
Rotational constants in MHz :    35.020517    17.560329    12.067228

                             ****ORCA TERMINATED NORMALLY****
TOTAL RUN TIME: 0 days 0 hours 7 minutes 46 seconds 294 msec
