                         Program Version 4.2.0 -  RELEASE  -
|  1> # ORCA input file
|  2> # SCF done       -186.192635077780          0.000870596058
|  3> ! CAM-B3LYP def2-SVP def2/J RIJCOSX Grid4 TightSCF
|  4> %maxcore 5000
|  5> %tddft
|  6>     Mode sTDDFT
|  7>     Ethresh 5.0
|  8>     maxcore 5000
|  9> end
| 10>
| 11> %pal
| 12>   nprocs 6
| 13>   end
| 14> * xyz 0 1
| 15>    C      -12.88657         7.76604         1.99408
| 16>    C      -13.54353         7.27620         3.09411
| 17>    C      -14.30186         8.06537         3.98164
| 18>    N      -14.93099         8.66083         4.73506
| 19>    C      -13.53835         5.91858         3.47228
| 20>    N      -13.55940         4.82267         3.81385
| 21>    C      -12.86399         9.16393         1.56427
| 22>    C      -12.07905         9.26895         0.38727
| 23>    C      -11.86364        10.45982        -0.26198
| 24>    C      -12.45094        11.60893         0.27709
| 25>    C      -13.23268        11.49756         1.45139
| 26>    C      -13.45098        10.28996         2.10694
| 27>    S      -13.86202        13.03862         1.94642
| 28>    C      -13.07679        13.80097         0.58907
| 29>    C      -12.37879        12.94710        -0.19712
| 30>   Br      -13.25063        15.65086         0.33752
| 31>    C      -11.57593         7.93788         0.03433
| 32>    O      -10.85942         7.64443        -0.92010
| 33>    C      -12.09171         7.01805         1.05013
| 34>    C      -11.78984         5.67370         1.01438
| 35>    N      -11.01316         5.20952         0.03172
| 36>    C      -10.57218         3.94955        -0.18559
| 37>    S      -10.99270         2.61957         0.84544
| 38>    C      -10.01367         1.58141        -0.14281
| 39>    N       -9.93317         0.22712         0.21552
| 40>    O       -9.24323        -0.49827        -0.47438
| 41>    O      -10.56422        -0.11827         1.19790
| 42>    C       -9.40811         2.21760        -1.19090
| 43>    C       -9.71568         3.59350        -1.24389
| 44>    C       -9.23818         4.53436        -2.20477
| 45>    C       -8.31124         4.30072        -3.16819
| 46>    C       -7.85295         5.31281        -4.03476
| 47>    C       -6.82902         5.20361        -4.98626
| 48>    C       -6.56204         6.43180        -5.66671
| 49>    N       -5.51752         6.53202        -6.49923
| 50>    C       -4.85151         5.43920        -6.74701
| 51>    C       -5.19712         4.18208        -6.17751
| 52>    C       -4.43187         2.94797        -6.53393
| 53>    C       -3.09132         2.91828        -5.79685
| 54>    N       -6.14253         4.08498        -5.27551
| 55>    C       -7.43027         7.47221        -5.28210
| 56>    S       -8.49120         6.93379        -4.02683
| 57>    C       -7.45562         8.80840        -5.72590
| 58>    C       -6.77876         9.26029        -6.88570
| 59>    C       -6.58543        10.66802        -7.14665
| 60>    N       -5.76660        11.02943        -8.13001
| 61>    C       -5.21205        10.12277        -8.91062
| 62>    C       -5.60861         8.75683        -8.78959
| 63>    N       -6.36067         8.36699        -7.78682
| 64>    C       -5.20198         7.79915        -9.74927
| 65>    N       -4.83813         7.03595       -10.52288
| 66>    C       -4.27555        10.52024        -9.88967
| 67>    N       -3.50456        10.79204       -10.69445
| 68>    C       -7.22821        11.68252        -6.38029
| 69>    C       -8.07310        11.19846        -5.33558
| 70>    C       -8.16085         9.80238        -5.00486
| 71>    N       -8.96023         9.58002        -3.96810
| 72>    S       -9.55779        10.98918        -3.45967
| 73>    N       -8.81613        11.94498        -4.52775
| 74>    C       -7.08704        13.06436        -6.52604
| 75>    C       -6.29844        13.84403        -7.35382
| 76>    C       -6.31003        15.25939        -7.27550
| 77>    C       -5.43857        15.88518        -8.11606
| 78>    C       -4.69602        14.98291        -8.90379
| 79>    S       -5.15462        13.32256        -8.56038
| 80>    C       -3.71357        15.26713        -9.83453
| 81>    C       -3.22699        16.54973       -10.21361
| 82>    C       -2.24633        16.51543       -11.14391
| 83>    C       -1.88889        15.19214       -11.56807
| 84>    S       -2.88571        14.00763       -10.70561
| 85>    C       -0.95805        14.84000       -12.46697
| 86>    H      -11.26100        10.50280        -1.15602
| 87>    H      -14.05450        10.25874         2.99861
| 88>    H      -11.83481        13.24567        -1.07463
| 89>    H      -12.15057         4.96914         1.75243
| 90>    H      -10.70962         5.95333        -0.62955
| 91>    H       -8.77533         1.70117        -1.88863
| 92>    H       -9.63251         5.54056        -2.14902
| 93>    H       -7.84618         3.33431        -3.29750
| 94>    H       -4.00140         5.53160        -7.40857
| 95>    H       -4.25657         2.92867        -7.61105
| 96>    H       -5.02285         2.07688        -6.25080
| 97>    H       -2.48705         3.78300        -6.06112
| 98>    H       -2.54178         2.01829        -6.05903
| 99>    H       -3.25427         2.92538        -4.72189
|100>    H       -7.70105        13.62766        -5.83136
|101>    H       -6.96259        15.77080        -6.58936
|102>    H       -5.31796        16.95202        -8.17761
|103>    H       -3.62287        17.45055        -9.77946
|104>    H       -1.75398        17.37938       -11.55314
|105>    H       -0.36928        15.58554       -12.97203
|106>    H       -0.77359        13.80931       -12.70948
|107> *
|108>
|109>                          ****END OF INPUT****

CARTESIAN COORDINATES (ANGSTROEM)
---------------------------------
  C    -12.886570    7.766040    1.994080
  C    -13.543530    7.276200    3.094110
  C    -14.301860    8.065370    3.981640
  N    -14.930990    8.660830    4.735060
  C    -13.538350    5.918580    3.472280
  N    -13.559400    4.822670    3.813850
  C    -12.863990    9.163930    1.564270
  C    -12.079050    9.268950    0.387270
  C    -11.863640   10.459820   -0.261980
  C    -12.450940   11.608930    0.277090
  C    -13.232680   11.497560    1.451390
  C    -13.450980   10.289960    2.106940
  S    -13.862020   13.038620    1.946420
  C    -13.076790   13.800970    0.589070
  C    -12.378790   12.947100   -0.197120
  Br   -13.250630   15.650860    0.337520
  C    -11.575930    7.937880    0.034330
  O    -10.859420    7.644430   -0.920100
  C    -12.091710    7.018050    1.050130
  C    -11.789840    5.673700    1.014380
  N    -11.013160    5.209520    0.031720
  C    -10.572180    3.949550   -0.185590
  S    -10.992700    2.619570    0.845440
  C    -10.013670    1.581410   -0.142810
  N     -9.933170    0.227120    0.215520
  O     -9.243230   -0.498270   -0.474380
  O    -10.564220   -0.118270    1.197900
  C     -9.408110    2.217600   -1.190900
  C     -9.715680    3.593500   -1.243890
  C     -9.238180    4.534360   -2.204770
  C     -8.311240    4.300720   -3.168190
  C     -7.852950    5.312810   -4.034760
  C     -6.829020    5.203610   -4.986260
  C     -6.562040    6.431800   -5.666710
  N     -5.517520    6.532020   -6.499230
  C     -4.851510    5.439200   -6.747010
  C     -5.197120    4.182080   -6.177510
  C     -4.431870    2.947970   -6.533930
  C     -3.091320    2.918280   -5.796850
  N     -6.142530    4.084980   -5.275510
  C     -7.430270    7.472210   -5.282100
  S     -8.491200    6.933790   -4.026830
  C     -7.455620    8.808400   -5.725900
  C     -6.778760    9.260290   -6.885700
  C     -6.585430   10.668020   -7.146650
  N     -5.766600   11.029430   -8.130010
  C     -5.212050   10.122770   -8.910620
  C     -5.608610    8.756830   -8.789590
  N     -6.360670    8.366990   -7.786820
  C     -5.201980    7.799150   -9.749270
  N     -4.838130    7.035950  -10.522880
  C     -4.275550   10.520240   -9.889670
  N     -3.504560   10.792040  -10.694450
  C     -7.228210   11.682520   -6.380290
  C     -8.073100   11.198460   -5.335580
  C     -8.160850    9.802380   -5.004860
  N     -8.960230    9.580020   -3.968100
  S     -9.557790   10.989180   -3.459670
  N     -8.816130   11.944980   -4.527750
  C     -7.087040   13.064360   -6.526040
  C     -6.298440   13.844030   -7.353820
  C     -6.310030   15.259390   -7.275500
  C     -5.438570   15.885180   -8.116060
  C     -4.696020   14.982910   -8.903790
  S     -5.154620   13.322560   -8.560380
  C     -3.713570   15.267130   -9.834530
  C     -3.226990   16.549730  -10.213610
  C     -2.246330   16.515430  -11.143910
  C     -1.888890   15.192140  -11.568070
  S     -2.885710   14.007630  -10.705610
  C     -0.958050   14.840000  -12.466970
  H    -11.261000   10.502800   -1.156020
  H    -14.054500   10.258740    2.998610
  H    -11.834810   13.245670   -1.074630
  H    -12.150570    4.969140    1.752430
  H    -10.709620    5.953330   -0.629550
  H     -8.775330    1.701170   -1.888630
  H     -9.632510    5.540560   -2.149020
  H     -7.846180    3.334310   -3.297500
  H     -4.001400    5.531600   -7.408570
  H     -4.256570    2.928670   -7.611050
  H     -5.022850    2.076880   -6.250800
  H     -2.487050    3.783000   -6.061120
  H     -2.541780    2.018290   -6.059030
  H     -3.254270    2.925380   -4.721890
  H     -7.701050   13.627660   -5.831360
  H     -6.962590   15.770800   -6.589360
  H     -5.317960   16.952020   -8.177610
  H     -3.622870   17.450550   -9.779460
  H     -1.753980   17.379380  -11.553140
  H     -0.369280   15.585540  -12.972030
  H     -0.773590   13.809310  -12.709480

 Total Charge           Charge          ....    0
 Multiplicity           Mult            ....    1
 Number of Electrons    NEL             ....  554
 Basis Dimension        Dim             .... 1141

ORBITAL ENERGIES
----------------

  NO   OCC          E(Eh)            E(eV)
   0   2.0000    -482.891338    -13140.1413
   1   2.0000     -89.036223     -2422.7988
   2   2.0000     -88.987827     -2421.4819
   3   2.0000     -88.982189     -2421.3285
   4   2.0000     -88.965951     -2420.8866
   5   2.0000     -88.963141     -2420.8101
   6   2.0000     -88.958536     -2420.6848
   7   2.0000     -62.569036     -1702.5900
   8   2.0000     -56.402994     -1534.8035
   9   2.0000     -56.400272     -1534.7294
  10   2.0000     -56.400230     -1534.7283
  11   2.0000     -19.237757      -523.4860
  12   2.0000     -19.237110      -523.4684
  13   2.0000     -19.235977      -523.4375
  14   2.0000     -14.649183      -398.6245
  15   2.0000     -14.495671      -394.4473
  16   2.0000     -14.455444      -393.3526
  17   2.0000     -14.452494      -393.2723
  18   2.0000     -14.446223      -393.1017
  19   2.0000     -14.442401      -392.9977
  20   2.0000     -14.421587      -392.4313
  21   2.0000     -14.420533      -392.4027
  22   2.0000     -14.418972      -392.3602
  23   2.0000     -14.418337      -392.3429
  24   2.0000     -14.416584      -392.2952
  25   2.0000     -14.413666      -392.2158
  26   2.0000     -10.381923      -282.5065
  27   2.0000     -10.370993      -282.2091
  28   2.0000     -10.367745      -282.1207
  29   2.0000     -10.365025      -282.0467
  30   2.0000     -10.363930      -282.0169
  31   2.0000     -10.363642      -282.0090
  32   2.0000     -10.348439      -281.5953
  33   2.0000     -10.346835      -281.5517
  34   2.0000     -10.343709      -281.4666
  35   2.0000     -10.341411      -281.4041
  36   2.0000     -10.338525      -281.3256
  37   2.0000     -10.336841      -281.2797
  38   2.0000     -10.336366      -281.2668
  39   2.0000     -10.335111      -281.2327
  40   2.0000     -10.332199      -281.1534
  41   2.0000     -10.328640      -281.0566
  42   2.0000     -10.324665      -280.9484
  43   2.0000     -10.322889      -280.9001
  44   2.0000     -10.319862      -280.8177
  45   2.0000     -10.317078      -280.7420
  46   2.0000     -10.315227      -280.6916
  47   2.0000     -10.315217      -280.6913
  48   2.0000     -10.314263      -280.6654
  49   2.0000     -10.313796      -280.6526
  50   2.0000     -10.313617      -280.6478
  51   2.0000     -10.312790      -280.6253
  52   2.0000     -10.312118      -280.6070
  53   2.0000     -10.310324      -280.5582
  54   2.0000     -10.309974      -280.5487
  55   2.0000     -10.309482      -280.5353
  56   2.0000     -10.308809      -280.5170
  57   2.0000     -10.308329      -280.5039
  58   2.0000     -10.307808      -280.4897
  59   2.0000     -10.307199      -280.4731
  60   2.0000     -10.306595      -280.4567
  61   2.0000     -10.305919      -280.4383
  62   2.0000     -10.303528      -280.3732
  63   2.0000     -10.301953      -280.3304
  64   2.0000     -10.301453      -280.3168
  65   2.0000     -10.300755      -280.2978
  66   2.0000     -10.300391      -280.2879
  67   2.0000     -10.298829      -280.2454
  68   2.0000     -10.296112      -280.1714
  69   2.0000     -10.294188      -280.1191
  70   2.0000     -10.293549      -280.1017
  71   2.0000     -10.289398      -279.9887
  72   2.0000     -10.287140      -279.9273
  73   2.0000     -10.265999      -279.3520
  74   2.0000     -10.259070      -279.1635
  75   2.0000      -8.798460      -239.4183
  76   2.0000      -8.127020      -221.1474
  77   2.0000      -8.083003      -219.9497
  78   2.0000      -8.078119      -219.8168
  79   2.0000      -8.059522      -219.3107
  80   2.0000      -8.056062      -219.2166
  81   2.0000      -8.054856      -219.1838
  82   2.0000      -6.634784      -180.5416
  83   2.0000      -6.620167      -180.1439
  84   2.0000      -6.619995      -180.1392
  85   2.0000      -6.098409      -165.9461
  86   2.0000      -6.090713      -165.7367
  87   2.0000      -6.089216      -165.6960
  88   2.0000      -6.052647      -164.7009
  89   2.0000      -6.048321      -164.5832
  90   2.0000      -6.047804      -164.5691
  91   2.0000      -6.044473      -164.4785
  92   2.0000      -6.043507      -164.4522
  93   2.0000      -6.039381      -164.3399
  94   2.0000      -6.028624      -164.0472
  95   2.0000      -6.025953      -163.9745
  96   2.0000      -6.024566      -163.9368
  97   2.0000      -6.024357      -163.9311
  98   2.0000      -6.022263      -163.8741
  99   2.0000      -6.021345      -163.8491
 100   2.0000      -6.020397      -163.8233
 101   2.0000      -6.017528      -163.7453
 102   2.0000      -6.015732      -163.6964
 103   2.0000      -2.750653       -74.8491
 104   2.0000      -2.746561       -74.7377
 105   2.0000      -2.746395       -74.7332
 106   2.0000      -2.734798       -74.4176
 107   2.0000      -2.734785       -74.4173
 108   2.0000      -1.319377       -35.9021
 109   2.0000      -1.151358       -31.3301
 110   2.0000      -1.138453       -30.9789
 111   2.0000      -1.135515       -30.8989
 112   2.0000      -1.110109       -30.2076
 113   2.0000      -1.103227       -30.0203
 114   2.0000      -1.075209       -29.2579
 115   2.0000      -1.036250       -28.1978
 116   2.0000      -1.029213       -28.0063
 117   2.0000      -1.017995       -27.7011
 118   2.0000      -1.009071       -27.4582
 119   2.0000      -1.008743       -27.4493
 120   2.0000      -1.005431       -27.3592
 121   2.0000      -0.999378       -27.1945
 122   2.0000      -0.998096       -27.1596
 123   2.0000      -0.996298       -27.1107
 124   2.0000      -0.994790       -27.0696
 125   2.0000      -0.993274       -27.0284
 126   2.0000      -0.986669       -26.8486
 127   2.0000      -0.979191       -26.6451
 128   2.0000      -0.962670       -26.1956
 129   2.0000      -0.947985       -25.7960
 130   2.0000      -0.922705       -25.1081
 131   2.0000      -0.914786       -24.8926
 132   2.0000      -0.909476       -24.7481
 133   2.0000      -0.902897       -24.5691
 134   2.0000      -0.898773       -24.4569
 135   2.0000      -0.892838       -24.2954
 136   2.0000      -0.890126       -24.2216
 137   2.0000      -0.883364       -24.0376
 138   2.0000      -0.878538       -23.9062
 139   2.0000      -0.865146       -23.5418
 140   2.0000      -0.861846       -23.4520
 141   2.0000      -0.853112       -23.2144
 142   2.0000      -0.849156       -23.1067
 143   2.0000      -0.836497       -22.7622
 144   2.0000      -0.836126       -22.7521
 145   2.0000      -0.826330       -22.4856
 146   2.0000      -0.823990       -22.4219
 147   2.0000      -0.808745       -22.0071
 148   2.0000      -0.802327       -21.8324
 149   2.0000      -0.797302       -21.6957
 150   2.0000      -0.780932       -21.2503
 151   2.0000      -0.768188       -20.9034
 152   2.0000      -0.760549       -20.6956
 153   2.0000      -0.750978       -20.4352
 154   2.0000      -0.747929       -20.3522
 155   2.0000      -0.735504       -20.0141
 156   2.0000      -0.727668       -19.8009
 157   2.0000      -0.725639       -19.7456
 158   2.0000      -0.715849       -19.4792
 159   2.0000      -0.707423       -19.2500
 160   2.0000      -0.699241       -19.0273
 161   2.0000      -0.695848       -18.9350
 162   2.0000      -0.689352       -18.7582
 163   2.0000      -0.685367       -18.6498
 164   2.0000      -0.681813       -18.5531
 165   2.0000      -0.673894       -18.3376
 166   2.0000      -0.666063       -18.1245
 167   2.0000      -0.662909       -18.0387
 168   2.0000      -0.652680       -17.7603
 169   2.0000      -0.648564       -17.6483
 170   2.0000      -0.642670       -17.4879
 171   2.0000      -0.636823       -17.3288
 172   2.0000      -0.635198       -17.2846
 173   2.0000      -0.632322       -17.2063
 174   2.0000      -0.630606       -17.1597
 175   2.0000      -0.627746       -17.0818
 176   2.0000      -0.624950       -17.0057
 177   2.0000      -0.622412       -16.9367
 178   2.0000      -0.616454       -16.7746
 179   2.0000      -0.614111       -16.7108
 180   2.0000      -0.608252       -16.5514
 181   2.0000      -0.605777       -16.4840
 182   2.0000      -0.597912       -16.2700
 183   2.0000      -0.592026       -16.1099
 184   2.0000      -0.583395       -15.8750
 185   2.0000      -0.577621       -15.7179
 186   2.0000      -0.576248       -15.6805
 187   2.0000      -0.568463       -15.4687
 188   2.0000      -0.568284       -15.4638
 189   2.0000      -0.563724       -15.3397
 190   2.0000      -0.560345       -15.2478
 191   2.0000      -0.557994       -15.1838
 192   2.0000      -0.553438       -15.0598
 193   2.0000      -0.549819       -14.9613
 194   2.0000      -0.544347       -14.8124
 195   2.0000      -0.543004       -14.7759
 196   2.0000      -0.540736       -14.7142
 197   2.0000      -0.537053       -14.6140
 198   2.0000      -0.532163       -14.4809
 199   2.0000      -0.530072       -14.4240
 200   2.0000      -0.529270       -14.4022
 201   2.0000      -0.524046       -14.2600
 202   2.0000      -0.523046       -14.2328
 203   2.0000      -0.518043       -14.0967
 204   2.0000      -0.514261       -13.9938
 205   2.0000      -0.513877       -13.9833
 206   2.0000      -0.511422       -13.9165
 207   2.0000      -0.511128       -13.9085
 208   2.0000      -0.507486       -13.8094
 209   2.0000      -0.503397       -13.6981
 210   2.0000      -0.501752       -13.6534
 211   2.0000      -0.497130       -13.5276
 212   2.0000      -0.495717       -13.4892
 213   2.0000      -0.488775       -13.3002
 214   2.0000      -0.487896       -13.2763
 215   2.0000      -0.485350       -13.2070
 216   2.0000      -0.483507       -13.1569
 217   2.0000      -0.482436       -13.1278
 218   2.0000      -0.479448       -13.0465
 219   2.0000      -0.475205       -12.9310
 220   2.0000      -0.470955       -12.8153
 221   2.0000      -0.468222       -12.7410
 222   2.0000      -0.465453       -12.6656
 223   2.0000      -0.463691       -12.6177
 224   2.0000      -0.462489       -12.5850
 225   2.0000      -0.455935       -12.4066
 226   2.0000      -0.454934       -12.3794
 227   2.0000      -0.454706       -12.3732
 228   2.0000      -0.453027       -12.3275
 229   2.0000      -0.450270       -12.2525
 230   2.0000      -0.447587       -12.1795
 231   2.0000      -0.446834       -12.1590
 232   2.0000      -0.446144       -12.1402
 233   2.0000      -0.444881       -12.1058
 234   2.0000      -0.442494       -12.0409
 235   2.0000      -0.441030       -12.0010
 236   2.0000      -0.438521       -11.9328
 237   2.0000      -0.434425       -11.8213
 238   2.0000      -0.430958       -11.7270
 239   2.0000      -0.430717       -11.7204
 240   2.0000      -0.430556       -11.7160
 241   2.0000      -0.423451       -11.5227
 242   2.0000      -0.421878       -11.4799
 243   2.0000      -0.420135       -11.4324
 244   2.0000      -0.417314       -11.3557
 245   2.0000      -0.414759       -11.2862
 246   2.0000      -0.413776       -11.2594
 247   2.0000      -0.411581       -11.1997
 248   2.0000      -0.405782       -11.0419
 249   2.0000      -0.402482       -10.9521
 250   2.0000      -0.397613       -10.8196
 251   2.0000      -0.396082       -10.7779
 252   2.0000      -0.394996       -10.7484
 253   2.0000      -0.391671       -10.6579
 254   2.0000      -0.384788       -10.4706
 255   2.0000      -0.380784       -10.3617
 256   2.0000      -0.377170       -10.2633
 257   2.0000      -0.375951       -10.2302
 258   2.0000      -0.367113        -9.9896
 259   2.0000      -0.366374        -9.9695
 260   2.0000      -0.360738        -9.8162
 261   2.0000      -0.358625        -9.7587
 262   2.0000      -0.354989        -9.6598
 263   2.0000      -0.351019        -9.5517
 264   2.0000      -0.344239        -9.3672
 265   2.0000      -0.341640        -9.2965
 266   2.0000      -0.339721        -9.2443
 267   2.0000      -0.336290        -9.1509
 268   2.0000      -0.332406        -9.0452
 269   2.0000      -0.324076        -8.8186
 270   2.0000      -0.315075        -8.5736
 271   2.0000      -0.307414        -8.3652
 272   2.0000      -0.300714        -8.1828
 273   2.0000      -0.298706        -8.1282
 274   2.0000      -0.284563        -7.7434
 275   2.0000      -0.256699        -6.9851
 276   2.0000      -0.211705        -5.7608
 277   0.0000      -0.123911        -3.3718
 278   0.0000      -0.089930        -2.4471
 279   0.0000      -0.072512        -1.9731
 280   0.0000      -0.066317        -1.8046
 281   0.0000      -0.060772        -1.6537

MULLIKEN ATOMIC CHARGES
-----------------------
   0 C :    0.325664
   1 C :   -0.344988
   2 C :   -0.186385
   3 N :    0.153046
   4 C :   -0.198808
   5 N :    0.146738
   6 C :    0.008076
   7 C :    0.001359
   8 C :   -0.053969
   9 C :    0.124254
  10 C :   -0.095359
  11 C :   -0.017950
  12 S :    0.192486
  13 C :   -0.123123
  14 C :    0.037938
  15 Br:    0.025681
  16 C :    0.163821
  17 O :   -0.226002
  18 C :   -0.135787
  19 C :    0.033974
  20 N :   -0.004333
  21 C :   -0.128268
  22 S :    0.178473
  23 C :    0.005358
  24 N :    0.273385
  25 O :   -0.245086
  26 O :   -0.256101
  27 C :    0.003668
  28 C :    0.158585
  29 C :   -0.081129
  30 C :    0.017762
  31 C :   -0.131859
  32 C :    0.029541
  33 C :    0.067896
  34 N :    0.013638
  35 C :    0.019181
  36 C :   -0.136502
  37 C :    0.104575
  38 C :   -0.006088
  39 N :   -0.006901
  40 C :   -0.247073
  41 S :    0.182810
  42 C :    0.145258
  43 C :   -0.088503
  44 C :   -0.012536
  45 N :   -0.032772
  46 C :   -0.071077
  47 C :   -0.135744
  48 N :    0.069836
  49 C :   -0.220330
  50 N :    0.217619
  51 C :   -0.231392
  52 N :    0.202730
  53 C :    0.114475
  54 C :   -0.007057
  55 C :   -0.009959
  56 N :   -0.303115
  57 S :    0.482855
  58 N :   -0.256792
  59 C :   -0.132073
  60 C :    0.034575
  61 C :    0.015361
  62 C :    0.043507
  63 C :   -0.036464
  64 S :    0.127347
  65 C :   -0.059405
  66 C :    0.027575
  67 C :    0.069431
  68 C :   -0.081810
  69 S :    0.150681
  70 C :   -0.001088
  71 H :   -0.044457
  72 H :   -0.004862
  73 H :   -0.007635
  74 H :    0.044010
  75 H :    0.191835
  76 H :    0.016952
  77 H :    0.001162
  78 H :   -0.004034
  79 H :    0.003683
  80 H :    0.016086
  81 H :    0.014173
  82 H :    0.012436
  83 H :    0.024164
  84 H :    0.023819
  85 H :   -0.003045
  86 H :   -0.006860
  87 H :   -0.011970
  88 H :   -0.004691
  89 H :   -0.000928
  90 H :    0.032572
  91 H :    0.044255
Sum of atomic charges:   -0.0000000

LOEWDIN ATOMIC CHARGES
----------------------
   0 C :    0.078105
   1 C :   -0.149400
   2 C :   -0.020125
   3 N :   -0.054842
   4 C :   -0.020622
   5 N :   -0.053044
   6 C :   -0.016834
   7 C :   -0.049926
   8 C :    0.018738
   9 C :   -0.034472
  10 C :   -0.143978
  11 C :   -0.007147
  12 S :    0.438362
  13 C :   -0.271578
  14 C :   -0.071675
  15 Br:    0.138525
  16 C :    0.096024
  17 O :   -0.175472
  18 C :   -0.149480
  19 C :    0.111970
  20 N :    0.085412
  21 C :   -0.123364
  22 S :    0.466940
  23 C :   -0.197041
  24 N :    0.272750
  25 O :   -0.211430
  26 O :   -0.222739
  27 C :    0.004391
  28 C :   -0.076560
  29 C :   -0.050890
  30 C :   -0.012847
  31 C :   -0.191391
  32 C :   -0.043543
  33 C :   -0.045974
  34 N :   -0.015411
  35 C :    0.002546
  36 C :    0.004116
  37 C :   -0.034669
  38 C :   -0.047073
  39 N :   -0.057542
  40 C :   -0.163546
  41 S :    0.526327
  42 C :   -0.076621
  43 C :    0.004883
  44 C :   -0.008974
  45 N :   -0.030973
  46 C :   -0.047946
  47 C :   -0.031764
  48 N :    0.019812
  49 C :   -0.030531
  50 N :   -0.024100
  51 C :   -0.044883
  52 N :   -0.033479
  53 C :   -0.028890
  54 C :   -0.044315
  55 C :   -0.045248
  56 N :   -0.300092
  57 S :    0.633654
  58 N :   -0.275372
  59 C :   -0.049070
  60 C :   -0.122300
  61 C :   -0.039822
  62 C :   -0.018094
  63 C :   -0.209719
  64 S :    0.467536
  65 C :   -0.145457
  66 C :   -0.029898
  67 C :   -0.008102
  68 C :   -0.146391
  69 S :    0.417999
  70 C :   -0.032839
  71 H :    0.026552
  72 H :    0.042238
  73 H :    0.036914
  74 H :    0.037409
  75 H :    0.083840
  76 H :    0.047322
  77 H :    0.020311
  78 H :    0.037280
  79 H :    0.023757
  80 H :    0.032139
  81 H :    0.034002
  82 H :    0.022097
  83 H :    0.027679
  84 H :    0.027486
  85 H :    0.041572
  86 H :    0.034560
  87 H :    0.031094
  88 H :    0.034965
  89 H :    0.037748
  90 H :    0.034224
  91 H :    0.036208

  Mayer bond orders larger than 0.100000
B(  0-C ,  1-C ) :   1.6241 B(  0-C ,  6-C ) :   0.9996 B(  0-C , 18-C ) :   1.1005
B(  1-C ,  2-C ) :   1.1446 B(  1-C ,  4-C ) :   1.1501 B(  2-C ,  3-N ) :   2.9692
B(  4-C ,  5-N ) :   2.9565 B(  6-C ,  7-C ) :   1.2709 B(  6-C , 11-C ) :   1.4274
B(  7-C ,  8-C ) :   1.4336 B(  7-C , 16-C ) :   0.9828 B(  8-C ,  9-C ) :   1.2398
B(  8-C , 71-H ) :   1.0146 B(  9-C , 10-C ) :   1.3112 B(  9-C , 14-C ) :   1.1633
B( 10-C , 11-C ) :   1.3155 B( 10-C , 12-S ) :   1.0906 B( 11-C , 72-H ) :   0.9809
B( 12-S , 13-C ) :   1.0896 B( 13-C , 14-C ) :   1.6167 B( 13-C , 15-Br) :   1.0198
B( 14-C , 73-H ) :   0.9995 B( 16-C , 17-O ) :   2.0095 B( 16-C , 18-C ) :   1.0191
B( 17-O , 75-H ) :   0.1465 B( 18-C , 19-C ) :   1.4284 B( 19-C , 20-N ) :   1.3578
B( 19-C , 74-H ) :   0.9340 B( 20-N , 21-C ) :   1.1978 B( 20-N , 75-H ) :   0.8139
B( 21-C , 22-S ) :   1.1236 B( 21-C , 28-C ) :   1.3598 B( 22-S , 23-C ) :   1.0840
B( 23-C , 24-N ) :   0.9612 B( 23-C , 27-C ) :   1.5035 B( 24-N , 25-O ) :   1.5389
B( 24-N , 26-O ) :   1.5174 B( 25-O , 26-O ) :   0.2629 B( 27-C , 28-C ) :   1.2098
B( 27-C , 76-H ) :   1.0022 B( 28-C , 29-C ) :   1.0888 B( 29-C , 30-C ) :   1.6160
B( 29-C , 77-H ) :   0.9692 B( 30-C , 31-C ) :   1.2151 B( 30-C , 78-H ) :   0.9816
B( 31-C , 32-C ) :   1.3146 B( 31-C , 40-C ) :   0.1380 B( 31-C , 41-S ) :   1.0911
B( 32-C , 33-C ) :   1.2306 B( 32-C , 39-N ) :   1.4110 B( 33-C , 34-N ) :   1.4037
B( 33-C , 40-C ) :   1.2768 B( 34-N , 35-C ) :   1.6916 B( 35-C , 36-C ) :   1.1611
B( 35-C , 79-H ) :   0.9750 B( 36-C , 37-C ) :   1.0264 B( 36-C , 39-N ) :   1.6969
B( 37-C , 38-C ) :   1.0952 B( 37-C , 80-H ) :   0.9318 B( 37-C , 81-H ) :   0.9264
B( 38-C , 82-H ) :   0.9748 B( 38-C , 83-H ) :   0.9707 B( 38-C , 84-H ) :   0.9684
B( 40-C , 41-S ) :   1.1981 B( 40-C , 42-C ) :   1.2329 B( 42-C , 43-C ) :   1.2451
B( 42-C , 55-C ) :   1.1612 B( 43-C , 44-C ) :   1.0976 B( 43-C , 48-N ) :   1.4488
B( 44-C , 45-N ) :   1.4461 B( 44-C , 53-C ) :   1.1550 B( 45-N , 46-C ) :   1.5911
B( 46-C , 47-C ) :   1.2292 B( 46-C , 51-C ) :   1.1561 B( 47-C , 48-N ) :   1.6757
B( 47-C , 49-C ) :   1.1712 B( 49-C , 50-N ) :   3.0396 B( 51-C , 52-N ) :   2.9843
B( 53-C , 54-C ) :   1.1305 B( 53-C , 59-C ) :   1.3478 B( 54-C , 55-C ) :   1.1229
B( 54-C , 58-N ) :   1.5821 B( 55-C , 56-N ) :   1.5251 B( 56-N , 57-S ) :   1.2357
B( 56-N , 58-N ) :   0.1401 B( 57-S , 58-N ) :   1.2592 B( 59-C , 60-C ) :   1.3856
B( 59-C , 85-H ) :   0.9546 B( 60-C , 61-C ) :   1.1910 B( 60-C , 64-S ) :   1.0994
B( 61-C , 62-C ) :   1.5386 B( 61-C , 86-H ) :   1.0025 B( 62-C , 63-C ) :   1.2129
B( 62-C , 87-H ) :   0.9921 B( 63-C , 64-S ) :   0.9972 B( 63-C , 65-C ) :   1.4758
B( 65-C , 66-C ) :   1.1588 B( 65-C , 69-S ) :   1.0979 B( 66-C , 67-C ) :   1.6481
B( 66-C , 88-H ) :   0.9938 B( 67-C , 68-C ) :   1.0791 B( 67-C , 89-H ) :   0.9936
B( 68-C , 69-S ) :   1.0067 B( 68-C , 70-C ) :   1.8537 B( 70-C , 90-H ) :   0.9524
B( 70-C , 91-H ) :   0.9403

-----------------------------------------------------------------------------
         ABSORPTION SPECTRUM VIA TRANSITION ELECTRIC DIPOLE MOMENTS
-----------------------------------------------------------------------------
State   Energy  Wavelength   fosc         T2         TX        TY        TZ
        (cm-1)    (nm)                  (au**2)     (au)      (au)      (au)
-----------------------------------------------------------------------------
   0    5539.4   1805.3   0.415715694  24.70650   2.03012   3.63620  -2.71351
   1   14357.3    696.5   0.342742055   7.85905  -1.75793  -0.10684   2.18113
   2   15082.2    663.0   0.034757305   0.75868  -0.01438  -0.71775  -0.49326
   3   17025.3    587.4   0.323120218   6.24806  -0.68618  -2.09971   1.16980
   4   17594.4    568.4   0.040079497   0.74993  -0.74631  -0.39054   0.20107
   5   18172.4    550.3   0.060241218   1.09133   0.05599  -0.98595   0.34073
   6   20374.1    490.8   0.017867931   0.28872   0.47771   0.03495  -0.24349
   7   21765.7    459.4   0.188949378   2.85791  -1.12007   0.75339   1.01772
   8   22265.6    449.1   0.028458184   0.42077   0.39777   0.13568  -0.49411
   9   22874.7    437.2   0.383805404   5.52371   1.65238  -0.19676  -1.65971
  10   23521.4    425.1   0.362440024   5.07282  -0.55612   2.16820   0.24995
  11   24871.6    402.1   0.063106313   0.83531   0.50796  -0.11040  -0.75173
  12   25206.5    396.7   0.021301432   0.27821  -0.42993   0.30550  -0.00625
  13   25760.6    388.2   0.081418560   1.04050   0.16077   0.88231  -0.48599
  14   25871.7    386.5   0.035083856   0.44644  -0.38774  -0.29576   0.45675
  15   26284.6    380.5   0.027124599   0.33973   0.18833  -0.54993  -0.04296
  16   27021.6    370.1   0.139040414   1.69397  -0.14589   1.28015  -0.18410
  17   27960.4    357.6   0.031636763   0.37250   0.30885  -0.52604   0.01967
  18   28010.0    357.0   0.066491262   0.78150   0.19166   0.75470  -0.41855
  19   28331.1    353.0   0.067935288   0.78942  -0.45163   0.51141   0.56913
  20   28659.9    348.9   0.102475815   1.17713  -0.36451   0.99909   0.21464
  21   29172.2    342.8   0.036335017   0.41004   0.37628   0.19926  -0.47828
  22   29546.2    338.5   0.030156725   0.33601   0.27626   0.29304  -0.41692
  23   30086.4    332.4   0.617667306   6.75865  -0.18821   2.53675  -0.53677
  24   30407.6    328.9   0.345330781   3.73877  -1.11703  -0.17028   1.56908
  25   30594.3    326.9   0.143933275   1.54880   0.67102   0.13159  -1.03982
  26   30917.1    323.4   0.104836207   1.11632  -0.06869   1.05319  -0.04890
  27   31762.0    314.8   0.157257953   1.62998   0.51780  -1.15702  -0.15218
  28   32004.4    312.5   0.297470380   3.05992  -0.53819  -1.40655   0.88987
  29   32265.4    309.9   0.196902824   2.00905   0.77874   0.10525  -1.17963
  30   32602.8    306.7   0.021565018   0.21776   0.07652   0.32854  -0.32243
  31   32960.5    303.4   0.033682625   0.33642   0.15051   0.55194  -0.09554
  32   32966.9    303.3   0.118951403   1.18786  -0.21909  -0.94128   0.50384
  33   33404.7    299.4   0.028012811   0.27607  -0.37662  -0.08459   0.35647
  34   33834.7    295.6   0.000027675   0.00027   0.01194   0.00818   0.00773
  35   33926.3    294.8   0.048783523   0.47338  -0.30739  -0.03665   0.61445
  36   34175.1    292.6   0.059494335   0.57311  -0.14915  -0.40607   0.62127
  37   34372.8    290.9   0.012084421   0.11574   0.07697  -0.11856  -0.30945
  38   34429.1    290.5   0.004513032   0.04315   0.19496   0.05000   0.05141
  39   34583.7    289.2   0.043120588   0.41048  -0.18334   0.57480   0.21558
  40   34631.0    288.8   0.378426616   3.59743  -1.00434  -0.63419   1.47869
  41   34659.3    288.5   0.001710959   0.01625   0.00749   0.08509  -0.09463
  42   34848.9    287.0   0.140289304   1.32529   0.42960  -1.04062  -0.24053
  43   34984.3    285.8   0.010964101   0.10318  -0.16644   0.08727   0.26049
  44   35293.3    283.3   0.009262748   0.08640  -0.18805  -0.02057   0.22498
  45   35587.3    281.0   0.099474054   0.92022   0.60393  -0.30172  -0.68151
  46   35836.8    279.0   0.154962892   1.42355  -0.77348   0.51133   0.75088
  47   36004.0    277.7   0.000027254   0.00025   0.01505   0.00360  -0.00313
  48   36377.7    274.9   0.243982759   2.20800  -1.02112   0.64543   0.86529
  49   37099.8    269.5   0.011818804   0.10488  -0.11107  -0.13144   0.27434
  50   37307.9    268.0   0.058275477   0.51423  -0.23753  -0.55559   0.38618
  51   37521.1    266.5   0.000038944   0.00034  -0.00611   0.01466  -0.00946
  52   37762.1    264.8   0.002710173   0.02363  -0.05359  -0.09409  -0.10910
  53   38266.7    261.3   0.151619602   1.30440   0.38630  -1.07243  -0.07120
  54   38542.3    259.5   0.085531807   0.73058  -0.46653   0.56807   0.43615
  55   38705.8    258.4   0.050121892   0.42631  -0.37815  -0.23933   0.47543
  56   38799.6    257.7   0.000302246   0.00256   0.01832   0.04569   0.01191
  57   38834.5    257.5   0.102739425   0.87095   0.50457  -0.44663  -0.64567
  58   38888.1    257.1   0.005456083   0.04619  -0.09674   0.13428   0.13711
  59   39145.4    255.5   0.054495872   0.45831  -0.26615   0.59327   0.18844
  60   39406.0    253.8   0.019897591   0.16623   0.30647  -0.17248  -0.20630
  61   39502.5    253.1   0.029490087   0.24577   0.33729  -0.33300  -0.14531
  62   39671.8    252.1   0.295077008   2.44866  -1.02255   0.79829   0.87510
  63   40080.7    249.5   0.076444821   0.62790   0.47427   0.14929  -0.61699
  64   40147.5    249.1   0.024716558   0.20268   0.28831   0.15659  -0.30827

FINAL SINGLE POINT ENERGY     -7721.231052879511

DIPOLE MOMENT
-------------
                                X             Y             Z
Electronic contribution:    -85.30793      74.04290      67.46991
Nuclear contribution   :     87.30948     -68.11821     -69.85929
                        -----------------------------------------
Total Dipole Moment    :      2.00155       5.92469      -2.38938
                        -----------------------------------------
Magnitude (a.u.)       :      6.69457
Magnitude (Debye)      :     17.01624

Rotational constants in cm-1:     0.000820     0.000422     0.000282
Rotational constants in MHz :    24.584302    12.656489     8.439641

                             ****ORCA TERMINATED NORMALLY****
TOTAL RUN TIME: 0 days 0 hours 9 minutes 42 seconds 369 msec
