                         Program Version 4.2.0 -  RELEASE  -
|  1> # ORCA input file
|  2> # SCF done       -194.158539604667          0.000936983464
|  3> ! CAM-B3LYP def2-SVP def2/J RIJCOSX Grid4 TightSCF
|  4> %maxcore 5000
|  5> %tddft
|  6>     Mode sTDDFT
|  7>     Ethresh 5.0
|  8>     maxcore 5000
|  9> end
| 10>
| 11> %pal
| 12>   nprocs 6
| 13>   end
| 14> * xyz 0 1
| 15>    C       -4.53359        -2.33708        -1.22773
| 16>    C       -3.16193        -2.33132        -1.24248
| 17>    C       -2.37215        -3.43794        -1.61655
| 18>    N       -1.67732        -4.30102        -1.91753
| 19>    C       -2.34582        -1.24542        -0.86190
| 20>    N       -1.60953        -0.41889        -0.55511
| 21>    C       -5.37769        -3.48468        -1.52788
| 22>    C       -6.72503        -3.13423        -1.27168
| 23>    C       -7.76784        -4.00762        -1.46259
| 24>    C       -7.46650        -5.29212        -1.92689
| 25>    C       -6.11655        -5.63442        -2.17983
| 26>    C       -5.06244        -4.75054        -1.98813
| 27>    S       -5.96863        -7.26820        -2.75395
| 28>    C       -7.69748        -7.46656        -2.64511
| 29>    C       -8.35418        -6.36777        -2.20350
| 30>   Br       -8.47344        -9.10347        -3.13248
| 31>    C       -6.79574        -1.73683        -0.79600
| 32>    O       -7.80934        -1.13673        -0.51323
| 33>    C       -5.39698        -1.23563        -0.83145
| 34>    C       -4.99711         0.06278        -0.73441
| 35>    C       -5.72268         1.20546        -0.25968
| 36>    C       -5.36676         2.46744        -0.77491
| 37>    C       -6.02276         3.58735        -0.33800
| 38>    C       -7.02189         3.48991         0.65093
| 39>    C       -7.34902         2.25618         1.19791
| 40>    C       -6.70461         1.12635         0.73937
| 41>    C       -7.52581         4.81607         0.92606
| 42>    C       -6.83699         5.73233         0.11119
| 43>    C       -5.82422         5.02512        -0.75626
| 44>    C       -4.39233         5.50562        -0.45303
| 45>    C       -4.00771         5.33543         1.01171
| 46>    C       -6.13181         5.23051        -2.25166
| 47>    C       -7.54466         4.80187        -2.62944
| 48>    C       -7.13127         7.07016         0.16480
| 49>    C       -8.13650         7.53157         1.03116
| 50>    C       -8.80816         6.60785         1.84399
| 51>    C       -8.50983         5.26143         1.80002
| 52>    C       -8.44341         8.93857         0.99414
| 53>    C       -9.44942         9.58588         1.61577
| 54>    C       -9.71567        10.98022         1.42175
| 55>    O      -10.31669        11.66638         2.43636
| 56>    C      -10.37100        12.94886         2.12465
| 57>    C       -9.82080        13.15981         0.87896
| 58>    N       -9.69111        14.38423         0.21087
| 59>    O      -10.20762        15.36737         0.70872
| 60>    O       -9.06126        14.38352        -0.84266
| 61>    C       -9.40880        11.87240         0.39043
| 62>    N       -8.91230        11.65603        -0.85865
| 63>    C       -8.99787        10.48860        -1.54965
| 64>    C       -8.36251        10.24244        -2.72912
| 65>    C       -8.43959         9.04216        -3.48472
| 66>    C       -7.71293         9.06359        -4.63334
| 67>    C       -7.01320        10.27167        -4.85649
| 68>    S       -7.30564        11.39671        -3.54182
| 69>    C       -6.19646        10.59004        -5.92221
| 70>    C       -5.91101         9.80089        -7.05987
| 71>    C       -5.06593        10.39568        -7.94398
| 72>    C       -4.61588        11.68643        -7.56157
| 73>    S       -5.34451        12.11504        -6.01819
| 74>    C       -3.74420        12.45766        -8.28355
| 75>    C       -3.20113        13.72426        -7.97696
| 76>    C       -2.29247        14.40599        -8.79504
| 77>    C       -1.93701        15.62520        -8.17050
| 78>    C       -1.08129        16.63893        -8.54620
| 79>    C       -0.94033        17.72912        -7.67531
| 80>    C       -0.17264        18.88499        -7.75574
| 81>    C       -0.39452        19.67916        -6.59085
| 82>    C       -1.30329        19.01251        -5.78496
| 83>    C       -1.67146        17.78914        -6.42316
| 84>    C       -2.52575        16.78538        -6.04643
| 85>    C       -2.66748        15.68642        -6.91798
| 86>    C       -3.42767        14.53492        -6.81479
| 87>    C        0.25136        20.94951        -6.35809
| 88>    C        0.06176        21.73092        -5.29848
| 89>    H       -8.78425        -3.70944        -1.25816
| 90>    H       -4.05211        -5.05685        -2.20145
| 91>    H       -9.42041        -6.31555        -2.07932
| 92>    H       -4.00001         0.29331        -1.09302
| 93>    H       -4.59311         2.53300        -1.52675
| 94>    H       -8.09411         2.17912         1.97498
| 95>    H       -6.93507         0.17051         1.17831
| 96>    H       -4.31372         6.55944        -0.72828
| 97>    H       -3.69480         4.94432        -1.07795
| 98>    H       -4.68440         5.89408         1.65484
| 99>    H       -2.99676         5.70044         1.17621
|100>    H       -4.04520         4.28766         1.30102
|101>    H       -5.40994         4.65920        -2.83889
|102>    H       -5.99785         6.28727        -2.49378
|103>    H       -7.69783         3.74641        -2.41557
|104>    H       -7.71393         4.96593        -3.69127
|105>    H       -8.28187         5.37424        -2.07035
|106>    H       -6.61058         7.77743        -0.46527
|107>    H       -9.57445         6.95619         2.51903
|108>    H       -9.03909         4.56403         2.43188
|109>    H       -7.79178         9.51542         0.35139
|110>    H      -10.08464         9.09415         2.33762
|111>    H      -10.79419        13.64067         2.82551
|112>    H       -8.58617        12.49342        -1.34223
|113>    H       -9.61772         9.71822        -1.11667
|114>    H       -9.02719         8.20748        -3.14607
|115>    H       -7.65390         8.24270        -5.32510
|116>    H       -6.34074         8.82476        -7.19619
|117>    H       -4.74064         9.94707        -8.86647
|118>    H       -3.41085        12.02579        -9.22041
|119>    H       -1.92133        14.05898        -9.74219
|120>    H       -0.53232        16.60100        -9.47679
|121>    H        0.48804        19.15162        -8.56198
|122>    H       -1.67985        19.34108        -4.83444
|123>    H       -3.07571        16.82023        -5.11649
|124>    H       -4.07867        14.28764        -5.99728
|125>    H        0.93986        21.26119        -7.13410
|126>    H       -0.61384        21.46365        -4.50472
|127>    H        0.57810        22.66871        -5.19020
|128> *
|129>
|130>                          ****END OF INPUT****

CARTESIAN COORDINATES (ANGSTROEM)
---------------------------------
  C     -4.533590   -2.337080   -1.227730
  C     -3.161930   -2.331320   -1.242480
  C     -2.372150   -3.437940   -1.616550
  N     -1.677320   -4.301020   -1.917530
  C     -2.345820   -1.245420   -0.861900
  N     -1.609530   -0.418890   -0.555110
  C     -5.377690   -3.484680   -1.527880
  C     -6.725030   -3.134230   -1.271680
  C     -7.767840   -4.007620   -1.462590
  C     -7.466500   -5.292120   -1.926890
  C     -6.116550   -5.634420   -2.179830
  C     -5.062440   -4.750540   -1.988130
  S     -5.968630   -7.268200   -2.753950
  C     -7.697480   -7.466560   -2.645110
  C     -8.354180   -6.367770   -2.203500
  Br    -8.473440   -9.103470   -3.132480
  C     -6.795740   -1.736830   -0.796000
  O     -7.809340   -1.136730   -0.513230
  C     -5.396980   -1.235630   -0.831450
  C     -4.997110    0.062780   -0.734410
  C     -5.722680    1.205460   -0.259680
  C     -5.366760    2.467440   -0.774910
  C     -6.022760    3.587350   -0.338000
  C     -7.021890    3.489910    0.650930
  C     -7.349020    2.256180    1.197910
  C     -6.704610    1.126350    0.739370
  C     -7.525810    4.816070    0.926060
  C     -6.836990    5.732330    0.111190
  C     -5.824220    5.025120   -0.756260
  C     -4.392330    5.505620   -0.453030
  C     -4.007710    5.335430    1.011710
  C     -6.131810    5.230510   -2.251660
  C     -7.544660    4.801870   -2.629440
  C     -7.131270    7.070160    0.164800
  C     -8.136500    7.531570    1.031160
  C     -8.808160    6.607850    1.843990
  C     -8.509830    5.261430    1.800020
  C     -8.443410    8.938570    0.994140
  C     -9.449420    9.585880    1.615770
  C     -9.715670   10.980220    1.421750
  O    -10.316690   11.666380    2.436360
  C    -10.371000   12.948860    2.124650
  C     -9.820800   13.159810    0.878960
  N     -9.691110   14.384230    0.210870
  O    -10.207620   15.367370    0.708720
  O     -9.061260   14.383520   -0.842660
  C     -9.408800   11.872400    0.390430
  N     -8.912300   11.656030   -0.858650
  C     -8.997870   10.488600   -1.549650
  C     -8.362510   10.242440   -2.729120
  C     -8.439590    9.042160   -3.484720
  C     -7.712930    9.063590   -4.633340
  C     -7.013200   10.271670   -4.856490
  S     -7.305640   11.396710   -3.541820
  C     -6.196460   10.590040   -5.922210
  C     -5.911010    9.800890   -7.059870
  C     -5.065930   10.395680   -7.943980
  C     -4.615880   11.686430   -7.561570
  S     -5.344510   12.115040   -6.018190
  C     -3.744200   12.457660   -8.283550
  C     -3.201130   13.724260   -7.976960
  C     -2.292470   14.405990   -8.795040
  C     -1.937010   15.625200   -8.170500
  C     -1.081290   16.638930   -8.546200
  C     -0.940330   17.729120   -7.675310
  C     -0.172640   18.884990   -7.755740
  C     -0.394520   19.679160   -6.590850
  C     -1.303290   19.012510   -5.784960
  C     -1.671460   17.789140   -6.423160
  C     -2.525750   16.785380   -6.046430
  C     -2.667480   15.686420   -6.917980
  C     -3.427670   14.534920   -6.814790
  C      0.251360   20.949510   -6.358090
  C      0.061760   21.730920   -5.298480
  H     -8.784250   -3.709440   -1.258160
  H     -4.052110   -5.056850   -2.201450
  H     -9.420410   -6.315550   -2.079320
  H     -4.000010    0.293310   -1.093020
  H     -4.593110    2.533000   -1.526750
  H     -8.094110    2.179120    1.974980
  H     -6.935070    0.170510    1.178310
  H     -4.313720    6.559440   -0.728280
  H     -3.694800    4.944320   -1.077950
  H     -4.684400    5.894080    1.654840
  H     -2.996760    5.700440    1.176210
  H     -4.045200    4.287660    1.301020
  H     -5.409940    4.659200   -2.838890
  H     -5.997850    6.287270   -2.493780
  H     -7.697830    3.746410   -2.415570
  H     -7.713930    4.965930   -3.691270
  H     -8.281870    5.374240   -2.070350
  H     -6.610580    7.777430   -0.465270
  H     -9.574450    6.956190    2.519030
  H     -9.039090    4.564030    2.431880
  H     -7.791780    9.515420    0.351390
  H    -10.084640    9.094150    2.337620
  H    -10.794190   13.640670    2.825510
  H     -8.586170   12.493420   -1.342230
  H     -9.617720    9.718220   -1.116670
  H     -9.027190    8.207480   -3.146070
  H     -7.653900    8.242700   -5.325100
  H     -6.340740    8.824760   -7.196190
  H     -4.740640    9.947070   -8.866470
  H     -3.410850   12.025790   -9.220410
  H     -1.921330   14.058980   -9.742190
  H     -0.532320   16.601000   -9.476790
  H      0.488040   19.151620   -8.561980
  H     -1.679850   19.341080   -4.834440
  H     -3.075710   16.820230   -5.116490
  H     -4.078670   14.287640   -5.997280
  H      0.939860   21.261190   -7.134100
  H     -0.613840   21.463650   -4.504720
  H      0.578100   22.668710   -5.190200

 Total Charge           Charge          ....    0
 Multiplicity           Mult            ....    1
 Number of Electrons    NEL             ....  554
 Basis Dimension        Dim             .... 1261

ORBITAL ENERGIES
----------------

  NO   OCC          E(Eh)            E(eV)
   0   2.0000    -482.886567    -13140.0115
   1   2.0000     -88.976297     -2421.1681
   2   2.0000     -88.936813     -2420.0937
   3   2.0000     -88.932224     -2419.9689
   4   2.0000     -62.564277     -1702.4605
   5   2.0000     -56.398229     -1534.6738
   6   2.0000     -56.395509     -1534.5998
   7   2.0000     -56.395479     -1534.5990
   8   2.0000     -19.319766      -525.7176
   9   2.0000     -19.251004      -523.8465
  10   2.0000     -19.249145      -523.7959
  11   2.0000     -19.215960      -522.8928
  12   2.0000     -14.659807      -398.9136
  13   2.0000     -14.458725      -393.4419
  14   2.0000     -14.414731      -392.2448
  15   2.0000     -14.414467      -392.2376
  16   2.0000     -10.368467      -282.1403
  17   2.0000     -10.365218      -282.0519
  18   2.0000     -10.360044      -281.9111
  19   2.0000     -10.341636      -281.4102
  20   2.0000     -10.341626      -281.4099
  21   2.0000     -10.341119      -281.3961
  22   2.0000     -10.340625      -281.3827
  23   2.0000     -10.332867      -281.1716
  24   2.0000     -10.326390      -280.9953
  25   2.0000     -10.317669      -280.7580
  26   2.0000     -10.317498      -280.7534
  27   2.0000     -10.316713      -280.7320
  28   2.0000     -10.315979      -280.7121
  29   2.0000     -10.308576      -280.5106
  30   2.0000     -10.308270      -280.5023
  31   2.0000     -10.306212      -280.4463
  32   2.0000     -10.301560      -280.3197
  33   2.0000     -10.299733      -280.2700
  34   2.0000     -10.297620      -280.2125
  35   2.0000     -10.297231      -280.2019
  36   2.0000     -10.296713      -280.1878
  37   2.0000     -10.296117      -280.1716
  38   2.0000     -10.295157      -280.1455
  39   2.0000     -10.294940      -280.1396
  40   2.0000     -10.292562      -280.0749
  41   2.0000     -10.291837      -280.0551
  42   2.0000     -10.289835      -280.0007
  43   2.0000     -10.288699      -279.9697
  44   2.0000     -10.286484      -279.9095
  45   2.0000     -10.284667      -279.8600
  46   2.0000     -10.283342      -279.8240
  47   2.0000     -10.282414      -279.7987
  48   2.0000     -10.281515      -279.7742
  49   2.0000     -10.280242      -279.7396
  50   2.0000     -10.280151      -279.7371
  51   2.0000     -10.279630      -279.7230
  52   2.0000     -10.278563      -279.6939
  53   2.0000     -10.277391      -279.6620
  54   2.0000     -10.277065      -279.6532
  55   2.0000     -10.276822      -279.6465
  56   2.0000     -10.276785      -279.6455
  57   2.0000     -10.276755      -279.6447
  58   2.0000     -10.275023      -279.5976
  59   2.0000     -10.274864      -279.5933
  60   2.0000     -10.274300      -279.5779
  61   2.0000     -10.273718      -279.5621
  62   2.0000     -10.272171      -279.5200
  63   2.0000     -10.269372      -279.4438
  64   2.0000     -10.268197      -279.4118
  65   2.0000     -10.268151      -279.4106
  66   2.0000     -10.266754      -279.3726
  67   2.0000     -10.265104      -279.3277
  68   2.0000     -10.263292      -279.2784
  69   2.0000     -10.263145      -279.2744
  70   2.0000     -10.260536      -279.2034
  71   2.0000     -10.257801      -279.1289
  72   2.0000     -10.257042      -279.1083
  73   2.0000     -10.256872      -279.1037
  74   2.0000     -10.256783      -279.1013
  75   2.0000     -10.251639      -278.9613
  76   2.0000     -10.251448      -278.9561
  77   2.0000     -10.247142      -278.8389
  78   2.0000      -8.793708      -239.2890
  79   2.0000      -8.072307      -219.6586
  80   2.0000      -8.033038      -218.5901
  81   2.0000      -8.028225      -218.4591
  82   2.0000      -6.630000      -180.4115
  83   2.0000      -6.615454      -180.0157
  84   2.0000      -6.615239      -180.0098
  85   2.0000      -6.041976      -164.4105
  86   2.0000      -6.037740      -164.2952
  87   2.0000      -6.033522      -164.1805
  88   2.0000      -6.002922      -163.3478
  89   2.0000      -5.998935      -163.2393
  90   2.0000      -5.998009      -163.2141
  91   2.0000      -5.994047      -163.1063
  92   2.0000      -5.993667      -163.0960
  93   2.0000      -5.989039      -162.9700
  94   2.0000      -2.745884       -74.7193
  95   2.0000      -2.741774       -74.6075
  96   2.0000      -2.741642       -74.6039
  97   2.0000      -2.730061       -74.2887
  98   2.0000      -2.730047       -74.2884
  99   2.0000      -1.326383       -36.0927
 100   2.0000      -1.239819       -33.7372
 101   2.0000      -1.146034       -31.1852
 102   2.0000      -1.131590       -30.7921
 103   2.0000      -1.063989       -28.9526
 104   2.0000      -1.023213       -27.8430
 105   2.0000      -1.013260       -27.5722
 106   2.0000      -0.995473       -27.0882
 107   2.0000      -0.993158       -27.0252
 108   2.0000      -0.989410       -26.9232
 109   2.0000      -0.983332       -26.7578
 110   2.0000      -0.979541       -26.6547
 111   2.0000      -0.962470       -26.1902
 112   2.0000      -0.956729       -26.0339
 113   2.0000      -0.952834       -25.9279
 114   2.0000      -0.947318       -25.7778
 115   2.0000      -0.942863       -25.6566
 116   2.0000      -0.929388       -25.2899
 117   2.0000      -0.909501       -24.7488
 118   2.0000      -0.908589       -24.7240
 119   2.0000      -0.898882       -24.4598
 120   2.0000      -0.893163       -24.3042
 121   2.0000      -0.886504       -24.1230
 122   2.0000      -0.882521       -24.0146
 123   2.0000      -0.873239       -23.7620
 124   2.0000      -0.862095       -23.4588
 125   2.0000      -0.857316       -23.3288
 126   2.0000      -0.851332       -23.1659
 127   2.0000      -0.842136       -22.9157
 128   2.0000      -0.840472       -22.8704
 129   2.0000      -0.840021       -22.8581
 130   2.0000      -0.837488       -22.7892
 131   2.0000      -0.832208       -22.6455
 132   2.0000      -0.830372       -22.5956
 133   2.0000      -0.827966       -22.5301
 134   2.0000      -0.821416       -22.3519
 135   2.0000      -0.812069       -22.0975
 136   2.0000      -0.801572       -21.8119
 137   2.0000      -0.792895       -21.5758
 138   2.0000      -0.786313       -21.3967
 139   2.0000      -0.769316       -20.9342
 140   2.0000      -0.765460       -20.8292
 141   2.0000      -0.758727       -20.6460
 142   2.0000      -0.756848       -20.5949
 143   2.0000      -0.741323       -20.1724
 144   2.0000      -0.735627       -20.0174
 145   2.0000      -0.728391       -19.8205
 146   2.0000      -0.724456       -19.7134
 147   2.0000      -0.712144       -19.3784
 148   2.0000      -0.706290       -19.2191
 149   2.0000      -0.698445       -19.0057
 150   2.0000      -0.691259       -18.8101
 151   2.0000      -0.690830       -18.7984
 152   2.0000      -0.678660       -18.4673
 153   2.0000      -0.677041       -18.4232
 154   2.0000      -0.670703       -18.2508
 155   2.0000      -0.669783       -18.2257
 156   2.0000      -0.663552       -18.0562
 157   2.0000      -0.662176       -18.0187
 158   2.0000      -0.659097       -17.9349
 159   2.0000      -0.653965       -17.7953
 160   2.0000      -0.644550       -17.5391
 161   2.0000      -0.642639       -17.4871
 162   2.0000      -0.639230       -17.3943
 163   2.0000      -0.635226       -17.2854
 164   2.0000      -0.627037       -17.0625
 165   2.0000      -0.623793       -16.9743
 166   2.0000      -0.621361       -16.9081
 167   2.0000      -0.618785       -16.8380
 168   2.0000      -0.617632       -16.8066
 169   2.0000      -0.606390       -16.5007
 170   2.0000      -0.601817       -16.3763
 171   2.0000      -0.601404       -16.3650
 172   2.0000      -0.599090       -16.3021
 173   2.0000      -0.595402       -16.2017
 174   2.0000      -0.594437       -16.1754
 175   2.0000      -0.591397       -16.0927
 176   2.0000      -0.586309       -15.9543
 177   2.0000      -0.575855       -15.6698
 178   2.0000      -0.574663       -15.6374
 179   2.0000      -0.572373       -15.5751
 180   2.0000      -0.568710       -15.4754
 181   2.0000      -0.561572       -15.2811
 182   2.0000      -0.555961       -15.1285
 183   2.0000      -0.550636       -14.9836
 184   2.0000      -0.549064       -14.9408
 185   2.0000      -0.547308       -14.8930
 186   2.0000      -0.546439       -14.8694
 187   2.0000      -0.544228       -14.8092
 188   2.0000      -0.540913       -14.7190
 189   2.0000      -0.536972       -14.6117
 190   2.0000      -0.536278       -14.5929
 191   2.0000      -0.528261       -14.3747
 192   2.0000      -0.527675       -14.3588
 193   2.0000      -0.523607       -14.2481
 194   2.0000      -0.522074       -14.2064
 195   2.0000      -0.520820       -14.1722
 196   2.0000      -0.520390       -14.1605
 197   2.0000      -0.514233       -13.9930
 198   2.0000      -0.513076       -13.9615
 199   2.0000      -0.511224       -13.9111
 200   2.0000      -0.507947       -13.8219
 201   2.0000      -0.503257       -13.6943
 202   2.0000      -0.501267       -13.6402
 203   2.0000      -0.498878       -13.5751
 204   2.0000      -0.495278       -13.4772
 205   2.0000      -0.492695       -13.4069
 206   2.0000      -0.491864       -13.3843
 207   2.0000      -0.488326       -13.2880
 208   2.0000      -0.486270       -13.2321
 209   2.0000      -0.485160       -13.2019
 210   2.0000      -0.483360       -13.1529
 211   2.0000      -0.481279       -13.0963
 212   2.0000      -0.479610       -13.0508
 213   2.0000      -0.476567       -12.9680
 214   2.0000      -0.474699       -12.9172
 215   2.0000      -0.473951       -12.8969
 216   2.0000      -0.473076       -12.8730
 217   2.0000      -0.471323       -12.8253
 218   2.0000      -0.464906       -12.6507
 219   2.0000      -0.460040       -12.5183
 220   2.0000      -0.459248       -12.4968
 221   2.0000      -0.455184       -12.3862
 222   2.0000      -0.453495       -12.3402
 223   2.0000      -0.451902       -12.2969
 224   2.0000      -0.451294       -12.2803
 225   2.0000      -0.449781       -12.2392
 226   2.0000      -0.448060       -12.1923
 227   2.0000      -0.445564       -12.1244
 228   2.0000      -0.443199       -12.0601
 229   2.0000      -0.442144       -12.0313
 230   2.0000      -0.440540       -11.9877
 231   2.0000      -0.439520       -11.9599
 232   2.0000      -0.439030       -11.9466
 233   2.0000      -0.431114       -11.7312
 234   2.0000      -0.430465       -11.7135
 235   2.0000      -0.427677       -11.6377
 236   2.0000      -0.426492       -11.6054
 237   2.0000      -0.424990       -11.5646
 238   2.0000      -0.422376       -11.4934
 239   2.0000      -0.421151       -11.4601
 240   2.0000      -0.418070       -11.3763
 241   2.0000      -0.417293       -11.3551
 242   2.0000      -0.413290       -11.2462
 243   2.0000      -0.410282       -11.1643
 244   2.0000      -0.408225       -11.1084
 245   2.0000      -0.405728       -11.0404
 246   2.0000      -0.399265       -10.8645
 247   2.0000      -0.396227       -10.7819
 248   2.0000      -0.395712       -10.7679
 249   2.0000      -0.392791       -10.6884
 250   2.0000      -0.392140       -10.6707
 251   2.0000      -0.388855       -10.5813
 252   2.0000      -0.388446       -10.5702
 253   2.0000      -0.387459       -10.5433
 254   2.0000      -0.387144       -10.5347
 255   2.0000      -0.380497       -10.3539
 256   2.0000      -0.378978       -10.3125
 257   2.0000      -0.375942       -10.2299
 258   2.0000      -0.375859       -10.2277
 259   2.0000      -0.361364        -9.8332
 260   2.0000      -0.359873        -9.7926
 261   2.0000      -0.355706        -9.6793
 262   2.0000      -0.342029        -9.3071
 263   2.0000      -0.333764        -9.0822
 264   2.0000      -0.330321        -8.9885
 265   2.0000      -0.325955        -8.8697
 266   2.0000      -0.322116        -8.7652
 267   2.0000      -0.318641        -8.6707
 268   2.0000      -0.316072        -8.6008
 269   2.0000      -0.314511        -8.5583
 270   2.0000      -0.297847        -8.1048
 271   2.0000      -0.293023        -7.9736
 272   2.0000      -0.282091        -7.6761
 273   2.0000      -0.261067        -7.1040
 274   2.0000      -0.256430        -6.9778
 275   2.0000      -0.240276        -6.5382
 276   2.0000      -0.193067        -5.2536
 277   0.0000      -0.091553        -2.4913
 278   0.0000      -0.089543        -2.4366
 279   0.0000      -0.062461        -1.6996
 280   0.0000      -0.057580        -1.5668
 281   0.0000      -0.049310        -1.3418

MULLIKEN ATOMIC CHARGES
-----------------------
   0 C :    0.296429
   1 C :   -0.343170
   2 C :   -0.183843
   3 N :    0.147483
   4 C :   -0.201207
   5 N :    0.156902
   6 C :    0.021983
   7 C :   -0.018970
   8 C :   -0.075598
   9 C :    0.121725
  10 C :   -0.088293
  11 C :   -0.024942
  12 S :    0.186579
  13 C :   -0.122395
  14 C :    0.035910
  15 Br:    0.024462
  16 C :    0.141200
  17 O :   -0.144866
  18 C :   -0.071605
  19 C :   -0.037078
  20 C :    0.079016
  21 C :   -0.095363
  22 C :    0.014348
  23 C :    0.124852
  24 C :   -0.066497
  25 C :    0.066655
  26 C :    0.107024
  27 C :    0.013840
  28 C :   -0.139101
  29 C :    0.066171
  30 C :    0.026019
  31 C :    0.065456
  32 C :    0.020186
  33 C :   -0.115237
  34 C :    0.116283
  35 C :   -0.012207
  36 C :   -0.036489
  37 C :   -0.048483
  38 C :    0.000742
  39 C :    0.013634
  40 O :   -0.158936
  41 C :    0.075935
  42 C :    0.117809
  43 N :    0.285230
  44 O :   -0.240368
  45 O :   -0.268861
  46 C :    0.028662
  47 N :   -0.019311
  48 C :    0.002931
  49 C :   -0.050592
  50 C :    0.034434
  51 C :    0.014136
  52 C :   -0.054795
  53 S :    0.056749
  54 C :   -0.035239
  55 C :    0.022062
  56 C :    0.034438
  57 C :   -0.023264
  58 S :    0.035807
  59 C :   -0.018653
  60 C :    0.058612
  61 C :   -0.036825
  62 C :    0.065895
  63 C :   -0.000395
  64 C :    0.053079
  65 C :   -0.025702
  66 C :    0.058479
  67 C :   -0.020978
  68 C :    0.044596
  69 C :    0.006099
  70 C :    0.035262
  71 C :   -0.024547
  72 C :    0.007399
  73 C :   -0.017743
  74 H :   -0.010786
  75 H :   -0.005610
  76 H :   -0.002874
  77 H :    0.028063
  78 H :   -0.026836
  79 H :   -0.028809
  80 H :   -0.014718
  81 H :    0.002741
  82 H :    0.002389
  83 H :    0.020094
  84 H :    0.013374
  85 H :    0.021888
  86 H :   -0.000456
  87 H :    0.004227
  88 H :    0.023217
  89 H :    0.008811
  90 H :    0.020773
  91 H :   -0.029149
  92 H :   -0.029074
  93 H :   -0.032689
  94 H :    0.017060
  95 H :   -0.005026
  96 H :    0.028514
  97 H :    0.147859
  98 H :    0.029975
  99 H :   -0.016127
 100 H :   -0.017228
 101 H :   -0.021861
 102 H :   -0.019320
 103 H :   -0.029387
 104 H :   -0.031913
 105 H :   -0.028305
 106 H :   -0.024549
 107 H :   -0.029419
 108 H :   -0.022809
 109 H :   -0.006916
 110 H :   -0.023218
 111 H :    0.007977
 112 H :    0.017157
Sum of atomic charges:   -0.0000000

LOEWDIN ATOMIC CHARGES
----------------------
   0 C :    0.076712
   1 C :   -0.141242
   2 C :   -0.017945
   3 N :   -0.054270
   4 C :   -0.025231
   5 N :   -0.051309
   6 C :   -0.021975
   7 C :   -0.050363
   8 C :    0.021386
   9 C :   -0.032177
  10 C :   -0.143512
  11 C :   -0.009730
  12 S :    0.432572
  13 C :   -0.270986
  14 C :   -0.070734
  15 Br:    0.137078
  16 C :    0.082044
  17 O :   -0.137110
  18 C :   -0.098522
  19 C :    0.085297
  20 C :   -0.044236
  21 C :    0.000991
  22 C :   -0.002968
  23 C :    0.007388
  24 C :   -0.022865
  25 C :    0.027465
  26 C :   -0.023382
  27 C :    0.008468
  28 C :   -0.035689
  29 C :   -0.010924
  30 C :   -0.057263
  31 C :   -0.011664
  32 C :   -0.058568
  33 C :   -0.020170
  34 C :   -0.020604
  35 C :   -0.016475
  36 C :   -0.009985
  37 C :   -0.019686
  38 C :   -0.045093
  39 C :   -0.017602
  40 O :    0.046727
  41 C :    0.085307
  42 C :   -0.100423
  43 N :    0.295094
  44 O :   -0.203276
  45 O :   -0.220085
  46 C :   -0.007768
  47 N :    0.037545
  48 C :   -0.008689
  49 C :   -0.193103
  50 C :   -0.036616
  51 C :   -0.045837
  52 C :   -0.181541
  53 S :    0.340850
  54 C :   -0.185763
  55 C :   -0.043751
  56 C :   -0.033515
  57 C :   -0.156166
  58 S :    0.362190
  59 C :   -0.051721
  60 C :   -0.067855
  61 C :    0.016562
  62 C :   -0.066559
  63 C :    0.075018
  64 C :   -0.072509
  65 C :    0.042502
  66 C :   -0.067052
  67 C :    0.026805
  68 C :   -0.063117
  69 C :    0.079667
  70 C :   -0.067532
  71 C :    0.036008
  72 C :   -0.025093
  73 C :   -0.050272
  74 H :    0.040638
  75 H :    0.041103
  76 H :    0.038946
  77 H :    0.045451
  78 H :    0.029134
  79 H :    0.029615
  80 H :    0.031348
  81 H :    0.021969
  82 H :    0.021580
  83 H :    0.024861
  84 H :    0.026273
  85 H :    0.025418
  86 H :    0.020685
  87 H :    0.022011
  88 H :    0.026313
  89 H :    0.023336
  90 H :    0.023239
  91 H :    0.027949
  92 H :    0.025861
  93 H :    0.028531
  94 H :    0.033205
  95 H :    0.032770
  96 H :    0.038323
  97 H :    0.076794
  98 H :    0.035516
  99 H :    0.031308
 100 H :    0.030067
 101 H :    0.028649
 102 H :    0.030721
 103 H :    0.032885
 104 H :    0.022360
 105 H :    0.033697
 106 H :    0.024461
 107 H :    0.023246
 108 H :    0.035863
 109 H :    0.014740
 110 H :    0.026413
 111 H :    0.018503
 112 H :    0.023068

  Mayer bond orders larger than 0.100000
B(  0-C ,  1-C ) :   1.6388 B(  0-C ,  6-C ) :   1.0077 B(  0-C , 18-C ) :   1.0568
B(  1-C ,  2-C ) :   1.1401 B(  1-C ,  4-C ) :   1.1401 B(  2-C ,  3-N ) :   2.9697
B(  4-C ,  5-N ) :   2.9894 B(  6-C ,  7-C ) :   1.2705 B(  6-C , 11-C ) :   1.4038
B(  7-C ,  8-C ) :   1.4219 B(  7-C , 16-C ) :   0.9414 B(  8-C ,  9-C ) :   1.2463
B(  8-C , 74-H ) :   1.0176 B(  9-C , 10-C ) :   1.3030 B(  9-C , 14-C ) :   1.1620
B( 10-C , 11-C ) :   1.3323 B( 10-C , 12-S ) :   1.0858 B( 11-C , 75-H ) :   0.9810
B( 12-S , 13-C ) :   1.0859 B( 13-C , 14-C ) :   1.6189 B( 13-C , 15-Br) :   1.0195
B( 14-C , 76-H ) :   1.0012 B( 16-C , 17-O ) :   2.2279 B( 16-C , 18-C ) :   0.9364
B( 18-C , 19-C ) :   1.6013 B( 19-C , 20-C ) :   1.1020 B( 19-C , 77-H ) :   0.9520
B( 20-C , 21-C ) :   1.2454 B( 20-C , 25-C ) :   1.3465 B( 21-C , 22-C ) :   1.4003
B( 21-C , 78-H ) :   1.0145 B( 22-C , 23-C ) :   1.3509 B( 22-C , 28-C ) :   0.9132
B( 23-C , 24-C ) :   1.3265 B( 23-C , 26-C ) :   1.0046 B( 24-C , 25-C ) :   1.4038
B( 24-C , 79-H ) :   0.9948 B( 25-C , 80-H ) :   0.9764 B( 26-C , 27-C ) :   1.3657
B( 26-C , 36-C ) :   1.3225 B( 27-C , 28-C ) :   0.9155 B( 27-C , 33-C ) :   1.3763
B( 28-C , 29-C ) :   1.0386 B( 28-C , 31-C ) :   1.0391 B( 29-C , 30-C ) :   1.1019
B( 29-C , 81-H ) :   0.9395 B( 29-C , 82-H ) :   0.9390 B( 30-C , 83-H ) :   0.9643
B( 30-C , 84-H ) :   0.9640 B( 30-C , 85-H ) :   0.9638 B( 31-C , 32-C ) :   1.1006
B( 31-C , 86-H ) :   0.9391 B( 31-C , 87-H ) :   0.9385 B( 32-C , 88-H ) :   0.9634
B( 32-C , 89-H ) :   0.9643 B( 32-C , 90-H ) :   0.9629 B( 33-C , 34-C ) :   1.2854
B( 33-C , 91-H ) :   1.0155 B( 34-C , 35-C ) :   1.3436 B( 34-C , 37-C ) :   1.0835
B( 35-C , 36-C ) :   1.4039 B( 35-C , 92-H ) :   0.9846 B( 36-C , 93-H ) :   0.9904
B( 37-C , 38-C ) :   1.6917 B( 37-C , 94-H ) :   0.9765 B( 38-C , 39-C ) :   1.1169
B( 38-C , 95-H ) :   0.9459 B( 39-C , 40-O ) :   1.0861 B( 39-C , 46-C ) :   1.4087
B( 40-O , 41-C ) :   1.2322 B( 41-C , 42-C ) :   1.4192 B( 41-C , 96-H ) :   1.0147
B( 42-C , 43-N ) :   0.9546 B( 42-C , 46-C ) :   1.2389 B( 43-N , 44-O ) :   1.5459
B( 43-N , 45-O ) :   1.4689 B( 44-O , 45-O ) :   0.2596 B( 46-C , 47-N ) :   1.2201
B( 47-N , 48-C ) :   1.1396 B( 47-N , 97-H ) :   0.8626 B( 48-C , 49-C ) :   1.6163
B( 48-C , 98-H ) :   0.9561 B( 49-C , 50-C ) :   1.1391 B( 49-C , 53-S ) :   1.0126
B( 50-C , 51-C ) :   1.6081 B( 50-C , 99-H ) :   0.9973 B( 51-C , 52-C ) :   1.1808
B( 51-C ,100-H ) :   0.9930 B( 52-C , 53-S ) :   1.0317 B( 52-C , 54-C ) :   1.5300
B( 54-C , 55-C ) :   1.1796 B( 54-C , 58-S ) :   1.0328 B( 55-C , 56-C ) :   1.5987
B( 55-C ,101-H ) :   0.9922 B( 56-C , 57-C ) :   1.1362 B( 56-C ,102-H ) :   0.9990
B( 57-C , 58-S ) :   1.0169 B( 57-C , 59-C ) :   1.5888 B( 59-C , 60-C ) :   1.1264
B( 59-C ,103-H ) :   0.9683 B( 60-C , 61-C ) :   1.4144 B( 60-C , 71-C ) :   1.1572
B( 61-C , 62-C ) :   1.1272 B( 61-C ,104-H ) :   1.0193 B( 62-C , 63-C ) :   1.4000
B( 62-C , 70-C ) :   1.1419 B( 63-C , 64-C ) :   1.1627 B( 63-C ,105-H ) :   1.0048
B( 64-C , 65-C ) :   1.3754 B( 64-C , 68-C ) :   1.1398 B( 65-C , 66-C ) :   1.1786
B( 65-C ,106-H ) :   1.0125 B( 66-C , 67-C ) :   1.4790 B( 66-C , 72-C ) :   1.0744
B( 67-C , 68-C ) :   1.1206 B( 67-C ,107-H ) :   1.0107 B( 68-C , 69-C ) :   1.4220
B( 69-C , 70-C ) :   1.1479 B( 69-C ,108-H ) :   1.0039 B( 70-C , 71-C ) :   1.4173
B( 71-C ,109-H ) :   0.9920 B( 72-C , 73-C ) :   1.9471 B( 72-C ,110-H ) :   0.9655
B( 73-C ,111-H ) :   0.9527 B( 73-C ,112-H ) :   0.9485

-----------------------------------------------------------------------------
         ABSORPTION SPECTRUM VIA TRANSITION ELECTRIC DIPOLE MOMENTS
-----------------------------------------------------------------------------
State   Energy  Wavelength   fosc         T2         TX        TY        TZ
        (cm-1)    (nm)                  (au**2)     (au)      (au)      (au)
-----------------------------------------------------------------------------
   0    5061.8   1975.6   0.005819247   0.37847   0.37196   0.29973  -0.38766
   1   13510.4    740.2   0.503660076  12.27279  -1.32475  -2.54681   2.00789
   2   14496.6    689.8   0.022940297   0.52096  -0.42799  -0.11497   0.56971
   3   15129.0    661.0   0.366038973   7.96510   1.94574   0.61713  -1.94894
   4   17307.9    577.8   0.746888698  14.20650   1.82896   2.71867  -1.86286
   5   20614.5    485.1   0.173182506   2.76571   1.34979   0.79844  -0.55343
   6   21949.6    455.6   1.059397225  15.88941   1.73763  -3.44294  -1.00805
   7   22251.7    449.4   0.113866556   1.68465   1.07144   0.73253   0.00802
   8   23097.6    432.9   0.168807337   2.40602  -0.83145  -1.28274  -0.26326
   9   24931.8    401.1   0.375270344   4.95525  -0.37590  -1.90350  -1.09116
  10   25675.2    389.5   0.069698353   0.89368   0.58565  -0.03827  -0.74110
  11   26049.5    383.9   0.017206006   0.21745   0.19647  -0.36874  -0.20707
  12   26944.8    371.1   0.037543436   0.45871   0.60164  -0.09298   0.29680
  13   27571.2    362.7   0.000872174   0.01041   0.09049   0.04540   0.01282
  14   27968.4    357.5   0.043622916   0.51348   0.02036   0.52203  -0.49046
  15   28721.3    348.2   0.512800337   5.87787   1.02990   1.98915   0.92761
  16   28897.9    346.0   0.096181848   1.09573   0.63767  -0.69650  -0.45165
  17   29292.3    341.4   0.136955190   1.53922  -0.22184  -1.06537  -0.59581
  18   29845.4    335.1   0.139959249   1.54383  -0.89805  -0.85769  -0.04127
  19   30547.2    327.4   0.024432492   0.26331  -0.43278   0.25506   0.10468
  20   30666.4    326.1   0.511598650   5.49214  -0.28775  -2.13043  -0.93307
  21   31484.6    317.6   0.187908428   1.96483  -0.01982   1.37704   0.26113
  22   31582.1    316.6   0.015691520   0.16357  -0.09623   0.29136   0.26347
  23   31592.4    316.5   0.017904178   0.18657  -0.12989   0.20196   0.35904
  24   31716.6    315.3   0.180925607   1.87797   0.17606  -1.28060  -0.45502
  25   31956.7    312.9   0.097441140   1.00382   0.17636   0.85536   0.49100
  26   32061.0    311.9   0.226321659   2.32394   0.24155  -1.28945  -0.77647
  27   32471.3    308.0   0.178940229   1.81420  -0.35231  -1.27499  -0.25391
  28   32919.1    303.8   0.003628274   0.03629   0.04555  -0.13661   0.12469
  29   33208.4    301.1   0.336935191   3.34021  -0.22917  -1.76716  -0.40598
  30   33571.5    297.9   0.038098433   0.37360  -0.17808   0.44817   0.37555
  31   33929.6    294.7   0.608577870   5.90491  -1.61363  -1.80591  -0.19954
  32   33979.3    294.3   0.053745472   0.52072  -0.50787  -0.50892  -0.06157
  33   34244.1    292.0   0.261228926   2.51138   1.25317  -0.95713   0.15766
  34   34799.0    287.4   0.001773719   0.01678   0.07904  -0.08252   0.06102
  35   35441.0    282.2   0.004895661   0.04548   0.05621  -0.04330   0.20110
  36   35840.6    279.0   0.043244977   0.39722   0.30464  -0.51340  -0.20209
  37   35984.7    277.9   0.009055419   0.08285  -0.18792  -0.19627   0.09493
  38   36177.3    276.4   0.003104457   0.02825  -0.11463   0.00604   0.12278
  39   36271.5    275.7   0.112544272   1.02149   0.85186   0.44970   0.30593
  40   36756.0    272.1   0.040652997   0.36412   0.60309   0.01976  -0.00160
  41   37036.8    270.0   0.021717717   0.19304  -0.12615   0.40723   0.10629
  42   37079.7    269.7   0.057576047   0.51119  -0.20400   0.68032   0.08206
  43   37531.7    266.4   0.006107526   0.05357  -0.14240   0.09103  -0.15814
  44   37657.4    265.6   0.001027687   0.00898   0.05927   0.00106  -0.07397
  45   38463.7    260.0   0.034103468   0.29189  -0.12243  -0.46400   0.24820
  46   38842.1    257.5   0.013394837   0.11353  -0.19785   0.20831   0.17606
  47   38885.9    257.2   0.032965030   0.27909   0.24239  -0.44669  -0.14424
  48   39039.4    256.2   0.027840771   0.23478   0.34722  -0.15310  -0.30129
  49   39208.1    255.0   0.018339361   0.15399  -0.37696  -0.03802  -0.10220
  50   39411.4    253.7   0.016114441   0.13461  -0.31142  -0.08283  -0.17539
  51   39761.8    251.5   0.036881521   0.30536  -0.04661   0.54841  -0.04934
  52   39878.0    250.8   0.093537330   0.77220  -0.80052   0.13560   0.33612
  53   39937.1    250.4   0.303476027   2.50163   0.04668   1.52614   0.41275
  54   40241.6    248.5   0.080401605   0.65776   0.15966   0.79376   0.04700

FINAL SINGLE POINT ENERGY     -6670.219668170700

DIPOLE MOMENT
-------------
                                X             Y             Z
Electronic contribution:    -44.21168    -233.79530      -2.52425
Nuclear contribution   :     42.14962     233.22098       2.63237
                        -----------------------------------------
Total Dipole Moment    :     -2.06206      -0.57432       0.10812
                        -----------------------------------------
Magnitude (a.u.)       :      2.14327
Magnitude (Debye)      :      5.44776

Rotational constants in cm-1:     0.001037     0.000194     0.000175
Rotational constants in MHz :    31.088194     5.818235     5.253019

                             ****ORCA TERMINATED NORMALLY****
TOTAL RUN TIME: 0 days 0 hours 14 minutes 41 seconds 720 msec
