                         Program Version 4.2.0 -  RELEASE  -
|  1> # ORCA input file
|  2> # SCF done       -214.690706900058          0.000683132030
|  3> ! CAM-B3LYP def2-SVP def2/J RIJCOSX Grid4 TightSCF
|  4> %maxcore 5000
|  5> %tddft
|  6>     Mode sTDDFT
|  7>     Ethresh 5.0
|  8>     maxcore 5000
|  9> end
| 10>
| 11> %pal
| 12>   nprocs 6
| 13>   end
| 14> * xyz 0 1
| 15>    C       -4.35909        -1.94586        -2.66432
| 16>    C       -3.57664        -2.96194        -2.18916
| 17>    C       -3.08368        -4.01583        -2.99035
| 18>    N       -2.65759        -4.89557        -3.59081
| 19>    C       -3.10345        -3.08938        -0.86339
| 20>    N       -2.64960        -3.25378         0.17753
| 21>    C       -4.75337        -1.75544        -4.05437
| 22>    C       -5.42628        -0.51235        -4.17347
| 23>    C       -5.90718        -0.03832        -5.37140
| 24>    C       -5.72102        -0.83213        -6.50691
| 25>    C       -5.05449        -2.07650        -6.37880
| 26>    C       -4.56516        -2.55236        -5.16858
| 27>    S       -4.93630        -2.89748        -7.90300
| 28>    C       -5.76903        -1.57877        -8.68404
| 29>    C       -6.11967        -0.57326        -7.84603
| 30>   Br       -6.09658        -1.65553       -10.52735
| 31>    C       -5.49879         0.12719        -2.85443
| 32>    O       -5.96622         1.22248        -2.60134
| 33>    C       -4.89611        -0.82450        -1.90265
| 34>    C       -4.93166        -0.73933        -0.54227
| 35>    C       -5.42359         0.30137         0.28228
| 36>    S       -5.88394         1.88410        -0.27055
| 37>    C       -6.08741         2.46612         1.34766
| 38>    C       -5.81972         1.46407         2.28070
| 39>    C       -5.49931         0.23767         1.67713
| 40>    C       -5.34854        -1.04984         2.44333
| 41>    F       -5.77556        -2.11159         1.73365
| 42>    F       -4.08308        -1.30704         2.79149
| 43>    F       -6.08668        -1.06516         3.55763
| 44>    C       -5.81612         1.68806         3.76661
| 45>    F       -7.01185         1.45769         4.33335
| 46>    F       -4.91389         0.93900         4.40239
| 47>    F       -5.50312         2.95911         4.09055
| 48>    C       -6.52453         3.79641         1.59283
| 49>    C       -6.82195         4.67381         0.60768
| 50>    N       -7.21996         5.94507         0.87037
| 51>    C       -7.61141         6.87583        -0.03690
| 52>    S       -7.77602         6.48234        -1.71396
| 53>    C       -8.30909         8.10574        -2.02224
| 54>    N       -8.61110         8.43600        -3.35019
| 55>    O       -8.97411         9.57087        -3.58537
| 56>    O       -8.47900         7.54402        -4.17080
| 57>    C       -8.35768         8.89055        -0.90409
| 58>    C       -7.95201         8.20506         0.25939
| 59>    C       -7.84661         8.77310         1.57381
| 60>    C       -8.29335         9.99292         1.93672
| 61>    C       -8.08151        10.52741         3.24488
| 62>    O       -7.22114         9.88101         4.08873
| 63>    C       -7.09585        10.57938         5.20277
| 64>    C       -7.87795        11.70862         5.14566
| 65>    N       -8.00685        12.69707         6.14492
| 66>    O       -7.37492        12.55299         7.16455
| 67>    O       -8.75947        13.63025         5.91055
| 68>    C       -8.53987        11.68286         3.87228
| 69>    N       -9.41151        12.65413         3.47875
| 70>    C      -10.30247        12.61253         2.47632
| 71>    C      -11.10612        13.63281         2.06838
| 72>    C      -12.27960        13.30809         1.21868
| 73>    O      -12.49175        12.25182         0.66418
| 74>    C      -13.12749        14.51182         1.25401
| 75>    C      -14.36706        14.70459         0.71585
| 76>    C      -15.02239        15.93975         0.91768
| 77>    C      -14.37636        16.95557         1.68098
| 78>    C      -15.03928        18.18049         1.88915
| 79>    C      -16.28336        18.36939         1.35406
| 80>    C      -16.93417        17.38405         0.59894
| 81>    C      -16.30510        16.18864         0.38802
| 82>    F      -16.91848        19.53775         1.55188
| 83>    C      -13.08704        16.73205         2.21808
| 84>    C      -12.46864        15.53003         2.00335
| 85>    C      -11.15293        15.03824         2.40729
| 86>    C      -10.11434        15.82136         2.84373
| 87>    C       -8.78719        15.36399         2.96412
| 88>    N       -7.69298        15.01896         3.02293
| 89>    C      -10.22661        17.20173         3.11234
| 90>    N      -10.26227        18.32275         3.35439
| 91>    H       -6.41023         0.91407        -5.42921
| 92>    H       -4.06735        -3.50633        -5.12384
| 93>    H       -6.63808         0.31468        -8.15846
| 94>    H       -4.51740        -1.58011        -0.00282
| 95>    H       -6.63446         4.11453         2.61816
| 96>    H       -6.75771         4.40042        -0.43608
| 97>    H       -7.23866         6.22348         1.84528
| 98>    H       -8.66194         9.91997        -0.94316
| 99>    H       -7.35308         8.17755         2.32974
|100>    H       -8.80634        10.62784         1.23375
|101>    H       -6.44521        10.21828         5.97520
|102>    H       -9.39566        13.47077         4.09408
|103>    H      -10.47253        11.64955         2.00982
|104>    H      -14.84387        13.92200         0.14504
|105>    H      -14.56701        18.96240         2.46307
|106>    H      -17.91545        17.59008         0.20189
|107>    H      -16.78659        15.41432        -0.18997
|108>    H      -12.62604        17.51613         2.79730
|109> *
|110>
|111>                          ****END OF INPUT****

CARTESIAN COORDINATES (ANGSTROEM)
---------------------------------
  C     -4.359090   -1.945860   -2.664320
  C     -3.576640   -2.961940   -2.189160
  C     -3.083680   -4.015830   -2.990350
  N     -2.657590   -4.895570   -3.590810
  C     -3.103450   -3.089380   -0.863390
  N     -2.649600   -3.253780    0.177530
  C     -4.753370   -1.755440   -4.054370
  C     -5.426280   -0.512350   -4.173470
  C     -5.907180   -0.038320   -5.371400
  C     -5.721020   -0.832130   -6.506910
  C     -5.054490   -2.076500   -6.378800
  C     -4.565160   -2.552360   -5.168580
  S     -4.936300   -2.897480   -7.903000
  C     -5.769030   -1.578770   -8.684040
  C     -6.119670   -0.573260   -7.846030
  Br    -6.096580   -1.655530  -10.527350
  C     -5.498790    0.127190   -2.854430
  O     -5.966220    1.222480   -2.601340
  C     -4.896110   -0.824500   -1.902650
  C     -4.931660   -0.739330   -0.542270
  C     -5.423590    0.301370    0.282280
  S     -5.883940    1.884100   -0.270550
  C     -6.087410    2.466120    1.347660
  C     -5.819720    1.464070    2.280700
  C     -5.499310    0.237670    1.677130
  C     -5.348540   -1.049840    2.443330
  F     -5.775560   -2.111590    1.733650
  F     -4.083080   -1.307040    2.791490
  F     -6.086680   -1.065160    3.557630
  C     -5.816120    1.688060    3.766610
  F     -7.011850    1.457690    4.333350
  F     -4.913890    0.939000    4.402390
  F     -5.503120    2.959110    4.090550
  C     -6.524530    3.796410    1.592830
  C     -6.821950    4.673810    0.607680
  N     -7.219960    5.945070    0.870370
  C     -7.611410    6.875830   -0.036900
  S     -7.776020    6.482340   -1.713960
  C     -8.309090    8.105740   -2.022240
  N     -8.611100    8.436000   -3.350190
  O     -8.974110    9.570870   -3.585370
  O     -8.479000    7.544020   -4.170800
  C     -8.357680    8.890550   -0.904090
  C     -7.952010    8.205060    0.259390
  C     -7.846610    8.773100    1.573810
  C     -8.293350    9.992920    1.936720
  C     -8.081510   10.527410    3.244880
  O     -7.221140    9.881010    4.088730
  C     -7.095850   10.579380    5.202770
  C     -7.877950   11.708620    5.145660
  N     -8.006850   12.697070    6.144920
  O     -7.374920   12.552990    7.164550
  O     -8.759470   13.630250    5.910550
  C     -8.539870   11.682860    3.872280
  N     -9.411510   12.654130    3.478750
  C    -10.302470   12.612530    2.476320
  C    -11.106120   13.632810    2.068380
  C    -12.279600   13.308090    1.218680
  O    -12.491750   12.251820    0.664180
  C    -13.127490   14.511820    1.254010
  C    -14.367060   14.704590    0.715850
  C    -15.022390   15.939750    0.917680
  C    -14.376360   16.955570    1.680980
  C    -15.039280   18.180490    1.889150
  C    -16.283360   18.369390    1.354060
  C    -16.934170   17.384050    0.598940
  C    -16.305100   16.188640    0.388020
  F    -16.918480   19.537750    1.551880
  C    -13.087040   16.732050    2.218080
  C    -12.468640   15.530030    2.003350
  C    -11.152930   15.038240    2.407290
  C    -10.114340   15.821360    2.843730
  C     -8.787190   15.363990    2.964120
  N     -7.692980   15.018960    3.022930
  C    -10.226610   17.201730    3.112340
  N    -10.262270   18.322750    3.354390
  H     -6.410230    0.914070   -5.429210
  H     -4.067350   -3.506330   -5.123840
  H     -6.638080    0.314680   -8.158460
  H     -4.517400   -1.580110   -0.002820
  H     -6.634460    4.114530    2.618160
  H     -6.757710    4.400420   -0.436080
  H     -7.238660    6.223480    1.845280
  H     -8.661940    9.919970   -0.943160
  H     -7.353080    8.177550    2.329740
  H     -8.806340   10.627840    1.233750
  H     -6.445210   10.218280    5.975200
  H     -9.395660   13.470770    4.094080
  H    -10.472530   11.649550    2.009820
  H    -14.843870   13.922000    0.145040
  H    -14.567010   18.962400    2.463070
  H    -17.915450   17.590080    0.201890
  H    -16.786590   15.414320   -0.189970
  H    -12.626040   17.516130    2.797300

 Total Charge           Charge          ....    0
 Multiplicity           Mult            ....    1
 Number of Electrons    NEL             ....  576
 Basis Dimension        Dim             .... 1184

ORBITAL ENERGIES
----------------

  NO   OCC          E(Eh)            E(eV)
   0   2.0000    -482.892218    -13140.1653
   1   2.0000     -89.000625     -2421.8301
   2   2.0000     -88.988873     -2421.5103
   3   2.0000     -88.983985     -2421.3773
   4   2.0000     -62.569924     -1702.6142
   5   2.0000     -56.403885     -1534.8277
   6   2.0000     -56.401149     -1534.7533
   7   2.0000     -56.401121     -1534.7525
   8   2.0000     -24.812817      -675.1911
   9   2.0000     -24.809316      -675.0958
  10   2.0000     -24.809004      -675.0873
  11   2.0000     -24.807748      -675.0531
  12   2.0000     -24.805060      -674.9800
  13   2.0000     -24.804843      -674.9741
  14   2.0000     -24.787232      -674.4949
  15   2.0000     -19.345110      -526.4072
  16   2.0000     -19.271750      -524.4110
  17   2.0000     -19.270097      -524.3660
  18   2.0000     -19.246426      -523.7219
  19   2.0000     -19.246388      -523.7209
  20   2.0000     -19.237715      -523.4848
  21   2.0000     -19.215581      -522.8825
  22   2.0000     -14.681689      -399.5091
  23   2.0000     -14.658513      -398.8784
  24   2.0000     -14.509448      -394.8222
  25   2.0000     -14.497977      -394.5100
  26   2.0000     -14.424102      -392.4998
  27   2.0000     -14.424011      -392.4973
  28   2.0000     -14.422183      -392.4475
  29   2.0000     -14.416399      -392.2901
  30   2.0000     -10.533964      -286.6437
  31   2.0000     -10.533559      -286.6327
  32   2.0000     -10.388837      -282.6946
  33   2.0000     -10.387740      -282.6648
  34   2.0000     -10.385741      -282.6104
  35   2.0000     -10.373330      -282.2727
  36   2.0000     -10.371009      -282.2095
  37   2.0000     -10.369066      -282.1566
  38   2.0000     -10.368913      -282.1525
  39   2.0000     -10.367988      -282.1273
  40   2.0000     -10.367136      -282.1041
  41   2.0000     -10.364356      -282.0285
  42   2.0000     -10.356605      -281.8175
  43   2.0000     -10.354950      -281.7725
  44   2.0000     -10.354283      -281.7544
  45   2.0000     -10.352166      -281.6967
  46   2.0000     -10.347657      -281.5741
  47   2.0000     -10.345831      -281.5244
  48   2.0000     -10.345083      -281.5040
  49   2.0000     -10.343536      -281.4619
  50   2.0000     -10.337162      -281.2885
  51   2.0000     -10.335420      -281.2411
  52   2.0000     -10.334252      -281.2093
  53   2.0000     -10.326412      -280.9959
  54   2.0000     -10.325571      -280.9731
  55   2.0000     -10.324128      -280.9338
  56   2.0000     -10.323605      -280.9196
  57   2.0000     -10.323600      -280.9194
  58   2.0000     -10.319412      -280.8055
  59   2.0000     -10.319322      -280.8030
  60   2.0000     -10.319190      -280.7994
  61   2.0000     -10.317880      -280.7638
  62   2.0000     -10.317387      -280.7504
  63   2.0000     -10.317353      -280.7495
  64   2.0000     -10.315333      -280.6945
  65   2.0000     -10.314849      -280.6813
  66   2.0000     -10.312520      -280.6179
  67   2.0000     -10.309508      -280.5360
  68   2.0000     -10.308138      -280.4987
  69   2.0000     -10.307640      -280.4851
  70   2.0000     -10.304622      -280.4030
  71   2.0000     -10.304423      -280.3976
  72   2.0000     -10.302814      -280.3538
  73   2.0000     -10.301960      -280.3306
  74   2.0000     -10.300336      -280.2864
  75   2.0000     -10.299322      -280.2588
  76   2.0000     -10.296714      -280.1878
  77   2.0000     -10.296024      -280.1691
  78   2.0000     -10.291989      -280.0593
  79   2.0000     -10.290596      -280.0214
  80   2.0000      -8.799355      -239.4426
  81   2.0000      -8.096108      -220.3063
  82   2.0000      -8.082555      -219.9375
  83   2.0000      -8.080061      -219.8696
  84   2.0000      -6.635711      -180.5669
  85   2.0000      -6.621069      -180.1685
  86   2.0000      -6.620844      -180.1623
  87   2.0000      -6.065849      -165.0601
  88   2.0000      -6.061359      -164.9380
  89   2.0000      -6.057465      -164.8320
  90   2.0000      -6.051947      -164.6819
  91   2.0000      -6.049732      -164.6216
  92   2.0000      -6.047457      -164.5597
  93   2.0000      -6.045448      -164.5050
  94   2.0000      -6.044669      -164.4838
  95   2.0000      -6.041282      -164.3916
  96   2.0000      -2.751565       -74.8739
  97   2.0000      -2.747468       -74.7624
  98   2.0000      -2.747312       -74.7582
  99   2.0000      -2.735661       -74.4411
 100   2.0000      -2.735657       -74.4410
 101   2.0000      -1.403718       -38.1971
 102   2.0000      -1.398349       -38.0510
 103   2.0000      -1.352176       -36.7946
 104   2.0000      -1.328433       -36.1485
 105   2.0000      -1.305968       -35.5372
 106   2.0000      -1.302453       -35.4416
 107   2.0000      -1.301022       -35.4026
 108   2.0000      -1.299394       -35.3583
 109   2.0000      -1.298463       -35.3330
 110   2.0000      -1.265548       -34.4373
 111   2.0000      -1.172173       -31.8965
 112   2.0000      -1.153816       -31.3969
 113   2.0000      -1.147990       -31.2384
 114   2.0000      -1.131693       -30.7949
 115   2.0000      -1.115703       -30.3598
 116   2.0000      -1.101946       -29.9855
 117   2.0000      -1.033432       -28.1211
 118   2.0000      -1.028661       -27.9913
 119   2.0000      -1.022205       -27.8156
 120   2.0000      -1.021322       -27.7916
 121   2.0000      -1.020223       -27.7617
 122   2.0000      -1.004064       -27.3220
 123   2.0000      -1.002599       -27.2821
 124   2.0000      -1.000729       -27.2312
 125   2.0000      -0.997209       -27.1354
 126   2.0000      -0.980588       -26.6831
 127   2.0000      -0.971432       -26.4340
 128   2.0000      -0.954747       -25.9800
 129   2.0000      -0.951172       -25.8827
 130   2.0000      -0.938228       -25.5305
 131   2.0000      -0.928762       -25.2729
 132   2.0000      -0.920450       -25.0467
 133   2.0000      -0.918308       -24.9884
 134   2.0000      -0.911244       -24.7962
 135   2.0000      -0.902349       -24.5542
 136   2.0000      -0.895921       -24.3793
 137   2.0000      -0.894752       -24.3474
 138   2.0000      -0.891021       -24.2459
 139   2.0000      -0.887890       -24.1607
 140   2.0000      -0.872872       -23.7521
 141   2.0000      -0.871483       -23.7142
 142   2.0000      -0.853625       -23.2283
 143   2.0000      -0.851788       -23.1783
 144   2.0000      -0.838932       -22.8285
 145   2.0000      -0.836391       -22.7594
 146   2.0000      -0.834108       -22.6972
 147   2.0000      -0.813441       -22.1349
 148   2.0000      -0.806274       -21.9398
 149   2.0000      -0.798843       -21.7376
 150   2.0000      -0.784370       -21.3438
 151   2.0000      -0.774791       -21.0831
 152   2.0000      -0.771873       -21.0037
 153   2.0000      -0.766461       -20.8565
 154   2.0000      -0.754160       -20.5217
 155   2.0000      -0.748758       -20.3748
 156   2.0000      -0.741365       -20.1736
 157   2.0000      -0.738467       -20.0947
 158   2.0000      -0.726802       -19.7773
 159   2.0000      -0.720452       -19.6045
 160   2.0000      -0.716176       -19.4881
 161   2.0000      -0.711186       -19.3523
 162   2.0000      -0.709188       -19.2980
 163   2.0000      -0.703138       -19.1334
 164   2.0000      -0.697948       -18.9921
 165   2.0000      -0.685704       -18.6590
 166   2.0000      -0.684714       -18.6320
 167   2.0000      -0.684121       -18.6159
 168   2.0000      -0.683701       -18.6044
 169   2.0000      -0.680947       -18.5295
 170   2.0000      -0.678790       -18.4708
 171   2.0000      -0.675202       -18.3732
 172   2.0000      -0.671090       -18.2613
 173   2.0000      -0.667399       -18.1608
 174   2.0000      -0.662435       -18.0258
 175   2.0000      -0.660605       -17.9760
 176   2.0000      -0.652417       -17.7532
 177   2.0000      -0.649094       -17.6627
 178   2.0000      -0.644405       -17.5352
 179   2.0000      -0.640033       -17.4162
 180   2.0000      -0.638113       -17.3639
 181   2.0000      -0.637320       -17.3424
 182   2.0000      -0.635501       -17.2929
 183   2.0000      -0.630966       -17.1694
 184   2.0000      -0.630091       -17.1456
 185   2.0000      -0.618912       -16.8415
 186   2.0000      -0.615326       -16.7439
 187   2.0000      -0.604509       -16.4495
 188   2.0000      -0.603621       -16.4254
 189   2.0000      -0.602959       -16.4073
 190   2.0000      -0.601341       -16.3633
 191   2.0000      -0.597682       -16.2638
 192   2.0000      -0.592735       -16.1291
 193   2.0000      -0.585799       -15.9404
 194   2.0000      -0.578610       -15.7448
 195   2.0000      -0.576025       -15.6744
 196   2.0000      -0.571697       -15.5567
 197   2.0000      -0.570058       -15.5121
 198   2.0000      -0.568054       -15.4575
 199   2.0000      -0.566442       -15.4137
 200   2.0000      -0.562527       -15.3071
 201   2.0000      -0.559838       -15.2340
 202   2.0000      -0.559564       -15.2265
 203   2.0000      -0.557921       -15.1818
 204   2.0000      -0.556085       -15.1318
 205   2.0000      -0.555600       -15.1186
 206   2.0000      -0.553621       -15.0648
 207   2.0000      -0.552636       -15.0380
 208   2.0000      -0.551933       -15.0189
 209   2.0000      -0.551061       -14.9951
 210   2.0000      -0.550490       -14.9796
 211   2.0000      -0.543722       -14.7954
 212   2.0000      -0.540174       -14.6989
 213   2.0000      -0.539012       -14.6673
 214   2.0000      -0.534257       -14.5379
 215   2.0000      -0.530782       -14.4433
 216   2.0000      -0.526729       -14.3330
 217   2.0000      -0.525544       -14.3008
 218   2.0000      -0.523991       -14.2585
 219   2.0000      -0.518804       -14.1174
 220   2.0000      -0.518122       -14.0988
 221   2.0000      -0.517218       -14.0742
 222   2.0000      -0.512404       -13.9432
 223   2.0000      -0.511562       -13.9203
 224   2.0000      -0.511076       -13.9071
 225   2.0000      -0.509375       -13.8608
 226   2.0000      -0.508338       -13.8326
 227   2.0000      -0.505891       -13.7660
 228   2.0000      -0.501341       -13.6422
 229   2.0000      -0.499281       -13.5861
 230   2.0000      -0.498522       -13.5655
 231   2.0000      -0.497603       -13.5405
 232   2.0000      -0.495492       -13.4830
 233   2.0000      -0.492873       -13.4118
 234   2.0000      -0.491794       -13.3824
 235   2.0000      -0.486265       -13.2319
 236   2.0000      -0.484634       -13.1876
 237   2.0000      -0.482560       -13.1311
 238   2.0000      -0.482015       -13.1163
 239   2.0000      -0.480951       -13.0873
 240   2.0000      -0.472694       -12.8627
 241   2.0000      -0.471523       -12.8308
 242   2.0000      -0.467816       -12.7299
 243   2.0000      -0.463737       -12.6189
 244   2.0000      -0.458763       -12.4836
 245   2.0000      -0.458679       -12.4813
 246   2.0000      -0.455899       -12.4057
 247   2.0000      -0.454860       -12.3774
 248   2.0000      -0.451332       -12.2814
 249   2.0000      -0.447625       -12.1805
 250   2.0000      -0.446497       -12.1498
 251   2.0000      -0.441314       -12.0088
 252   2.0000      -0.440501       -11.9866
 253   2.0000      -0.437612       -11.9080
 254   2.0000      -0.435682       -11.8555
 255   2.0000      -0.434385       -11.8202
 256   2.0000      -0.433193       -11.7878
 257   2.0000      -0.429199       -11.6791
 258   2.0000      -0.426387       -11.6026
 259   2.0000      -0.424665       -11.5557
 260   2.0000      -0.415845       -11.3157
 261   2.0000      -0.415829       -11.3153
 262   2.0000      -0.414464       -11.2781
 263   2.0000      -0.412390       -11.2217
 264   2.0000      -0.408926       -11.1274
 265   2.0000      -0.408126       -11.1057
 266   2.0000      -0.400381       -10.8949
 267   2.0000      -0.397237       -10.8094
 268   2.0000      -0.393884       -10.7181
 269   2.0000      -0.387708       -10.5501
 270   2.0000      -0.385641       -10.4938
 271   2.0000      -0.382253       -10.4016
 272   2.0000      -0.381414       -10.3788
 273   2.0000      -0.379430       -10.3248
 274   2.0000      -0.375411       -10.2154
 275   2.0000      -0.370245       -10.0749
 276   2.0000      -0.362220        -9.8565
 277   2.0000      -0.355980        -9.6867
 278   2.0000      -0.348790        -9.4911
 279   2.0000      -0.342233        -9.3126
 280   2.0000      -0.334140        -9.0924
 281   2.0000      -0.325615        -8.8604
 282   2.0000      -0.320303        -8.7159
 283   2.0000      -0.314574        -8.5600
 284   2.0000      -0.302738        -8.2379
 285   2.0000      -0.300578        -8.1791
 286   2.0000      -0.288264        -7.8441
 287   2.0000      -0.263097        -7.1592
 288   0.0000      -0.108822        -2.9612
 289   0.0000      -0.088209        -2.4003
 290   0.0000      -0.076564        -2.0834
 291   0.0000      -0.069104        -1.8804
 292   0.0000      -0.066142        -1.7998

MULLIKEN ATOMIC CHARGES
-----------------------
   0 C :    0.307662
   1 C :   -0.332802
   2 C :   -0.187375
   3 N :    0.155622
   4 C :   -0.202776
   5 N :    0.171493
   6 C :    0.013603
   7 C :   -0.011863
   8 C :   -0.064378
   9 C :    0.115041
  10 C :   -0.090412
  11 C :   -0.014046
  12 S :    0.194235
  13 C :   -0.124015
  14 C :    0.040532
  15 Br:    0.031853
  16 C :    0.166735
  17 O :   -0.181124
  18 C :   -0.090186
  19 C :   -0.027345
  20 C :   -0.092433
  21 S :    0.181058
  22 C :   -0.072500
  23 C :   -0.076826
  24 C :   -0.064090
  25 C :    0.538444
  26 F :   -0.165003
  27 F :   -0.145225
  28 F :   -0.148905
  29 C :    0.516927
  30 F :   -0.156252
  31 F :   -0.146424
  32 F :   -0.170073
  33 C :   -0.026098
  34 C :    0.065371
  35 N :   -0.022876
  36 C :   -0.104894
  37 S :    0.165592
  38 C :   -0.005070
  39 N :    0.276404
  40 O :   -0.242784
  41 O :   -0.264418
  42 C :    0.017394
  43 C :    0.125911
  44 C :   -0.037404
  45 C :   -0.046625
  46 C :    0.030647
  47 O :   -0.172353
  48 C :    0.084778
  49 C :    0.136522
  50 N :    0.292364
  51 O :   -0.221825
  52 O :   -0.255031
  53 C :    0.068282
  54 N :    0.021180
  55 C :    0.050112
  56 C :   -0.136970
  57 C :    0.138079
  58 O :   -0.158616
  59 C :    0.004560
  60 C :   -0.081897
  61 C :    0.101266
  62 C :    0.103912
  63 C :   -0.100044
  64 C :    0.304474
  65 C :   -0.028323
  66 C :   -0.010946
  67 F :   -0.188904
  68 C :   -0.088992
  69 C :    0.043010
  70 C :    0.295899
  71 C :   -0.334500
  72 C :   -0.246943
  73 N :    0.163440
  74 C :   -0.173111
  75 N :    0.148884
  76 H :   -0.007050
  77 H :   -0.005218
  78 H :    0.000168
  79 H :    0.032018
  80 H :    0.004961
  81 H :    0.052755
  82 H :    0.141925
  83 H :    0.017470
  84 H :   -0.019705
  85 H :    0.008559
  86 H :    0.037468
  87 H :    0.168053
  88 H :    0.029575
  89 H :   -0.011760
  90 H :    0.000027
  91 H :    0.003895
  92 H :   -0.008612
  93 H :   -0.003140
Sum of atomic charges:   -0.0000000

LOEWDIN ATOMIC CHARGES
----------------------
   0 C :    0.073090
   1 C :   -0.129852
   2 C :   -0.017476
   3 N :   -0.045643
   4 C :   -0.028314
   5 N :   -0.034440
   6 C :   -0.019168
   7 C :   -0.053510
   8 C :    0.026046
   9 C :   -0.031432
  10 C :   -0.141931
  11 C :   -0.007517
  12 S :    0.439210
  13 C :   -0.269484
  14 C :   -0.069427
  15 Br:    0.143434
  16 C :    0.087153
  17 O :   -0.166289
  18 C :   -0.091885
  19 C :    0.051040
  20 C :   -0.172869
  21 S :    0.529297
  22 C :   -0.132784
  23 C :   -0.122209
  24 C :   -0.070680
  25 C :    0.161732
  26 F :   -0.054847
  27 F :   -0.045126
  28 F :   -0.044811
  29 C :    0.162170
  30 F :   -0.060652
  31 F :   -0.043136
  32 F :   -0.062731
  33 C :   -0.102538
  34 C :    0.046459
  35 N :    0.051128
  36 C :   -0.099156
  37 S :    0.465248
  38 C :   -0.205602
  39 N :    0.272911
  40 O :   -0.209062
  41 O :   -0.230822
  42 C :    0.008649
  43 C :   -0.106256
  44 C :   -0.018142
  45 C :   -0.044773
  46 C :    0.008001
  47 O :    0.043904
  48 C :    0.096308
  49 C :   -0.089005
  50 N :    0.296009
  51 O :   -0.181969
  52 O :   -0.204530
  53 C :   -0.002985
  54 N :    0.087379
  55 C :    0.106524
  56 C :   -0.143354
  57 C :    0.082439
  58 O :   -0.161342
  59 C :   -0.059867
  60 C :    0.034594
  61 C :   -0.018730
  62 C :    0.002831
  63 C :   -0.041293
  64 C :    0.093089
  65 C :   -0.035959
  66 C :    0.004517
  67 F :   -0.063538
  68 C :    0.013302
  69 C :   -0.018080
  70 C :    0.072898
  71 C :   -0.150776
  72 C :   -0.029371
  73 N :   -0.059630
  74 C :   -0.019279
  75 N :   -0.050893
  76 H :    0.042458
  77 H :    0.041963
  78 H :    0.040282
  79 H :    0.046494
  80 H :    0.030311
  81 H :    0.025615
  82 H :    0.099528
  83 H :    0.047161
  84 H :    0.023323
  85 H :    0.038011
  86 H :    0.043217
  87 H :    0.083932
  88 H :    0.040186
  89 H :    0.039792
  90 H :    0.043785
  91 H :    0.042125
  92 H :    0.035804
  93 H :    0.039821

  Mayer bond orders larger than 0.100000
B(  0-C ,  1-C ) :   1.6510 B(  0-C ,  6-C ) :   1.0064 B(  0-C , 18-C ) :   1.0499
B(  1-C ,  2-C ) :   1.1425 B(  1-C ,  4-C ) :   1.1353 B(  2-C ,  3-N ) :   2.9717
B(  4-C ,  5-N ) :   2.9850 B(  6-C ,  7-C ) :   1.2716 B(  6-C , 11-C ) :   1.4124
B(  7-C ,  8-C ) :   1.4123 B(  7-C , 16-C ) :   0.9683 B(  8-C ,  9-C ) :   1.2515
B(  8-C , 76-H ) :   1.0167 B(  9-C , 10-C ) :   1.2996 B(  9-C , 14-C ) :   1.1631
B( 10-C , 11-C ) :   1.3303 B( 10-C , 12-S ) :   1.0912 B( 11-C , 77-H ) :   0.9792
B( 12-S , 13-C ) :   1.0874 B( 13-C , 14-C ) :   1.6173 B( 13-C , 15-Br) :   1.0236
B( 14-C , 78-H ) :   1.0000 B( 16-C , 17-O ) :   2.1267 B( 16-C , 18-C ) :   0.9588
B( 18-C , 19-C ) :   1.6024 B( 19-C , 20-C ) :   1.2058 B( 19-C , 79-H ) :   0.9221
B( 20-C , 21-S ) :   1.1153 B( 20-C , 24-C ) :   1.4523 B( 21-S , 22-C ) :   1.1309
B( 22-C , 23-C ) :   1.4479 B( 22-C , 33-C ) :   1.2001 B( 23-C , 24-C ) :   1.3763
B( 23-C , 29-C ) :   0.9376 B( 24-C , 25-C ) :   0.9372 B( 25-C , 26-F ) :   1.1196
B( 25-C , 27-F ) :   1.1773 B( 25-C , 28-F ) :   1.1518 B( 29-C , 30-F ) :   1.1881
B( 29-C , 31-F ) :   1.1619 B( 29-C , 32-F ) :   1.1145 B( 33-C , 34-C ) :   1.6305
B( 33-C , 80-H ) :   0.9565 B( 34-C , 35-N ) :   1.1541 B( 34-C , 81-H ) :   0.9586
B( 35-N , 36-C ) :   1.2161 B( 35-N , 82-H ) :   0.9114 B( 36-C , 37-S ) :   1.1377
B( 36-C , 43-C ) :   1.3586 B( 37-S , 38-C ) :   1.0698 B( 38-C , 39-N ) :   0.9681
B( 38-C , 42-C ) :   1.5120 B( 39-N , 40-O ) :   1.5379 B( 39-N , 41-O ) :   1.5089
B( 40-O , 41-O ) :   0.2591 B( 42-C , 43-C ) :   1.2263 B( 42-C , 83-H ) :   0.9965
B( 43-C , 44-C ) :   1.0523 B( 44-C , 45-C ) :   1.7168 B( 44-C , 84-H ) :   0.9744
B( 45-C , 46-C ) :   1.1421 B( 45-C , 85-H ) :   0.9606 B( 46-C , 47-O ) :   1.0959
B( 46-C , 53-C ) :   1.3863 B( 47-O , 48-C ) :   1.2106 B( 48-C , 49-C ) :   1.4473
B( 48-C , 86-H ) :   1.0137 B( 49-C , 50-N ) :   0.9404 B( 49-C , 53-C ) :   1.2416
B( 50-N , 51-O ) :   1.5667 B( 50-N , 52-O ) :   1.4739 B( 51-O , 52-O ) :   0.2636
B( 52-O , 87-H ) :   0.1079 B( 53-C , 54-N ) :   1.1896 B( 54-N , 55-C ) :   1.2839
B( 54-N , 87-H ) :   0.8455 B( 55-C , 56-C ) :   1.5706 B( 55-C , 88-H ) :   0.9128
B( 56-C , 57-C ) :   0.9725 B( 56-C , 70-C ) :   1.0429 B( 57-C , 58-O ) :   2.2475
B( 57-C , 59-C ) :   0.9296 B( 59-C , 60-C ) :   1.4749 B( 59-C , 69-C ) :   1.2164
B( 60-C , 61-C ) :   1.1875 B( 60-C , 89-H ) :   1.0156 B( 61-C , 62-C ) :   1.2564
B( 61-C , 66-C ) :   1.2363 B( 62-C , 63-C ) :   1.2037 B( 62-C , 68-C ) :   1.2022
B( 63-C , 64-C ) :   1.4398 B( 63-C , 90-H ) :   1.0064 B( 64-C , 65-C ) :   1.2549
B( 64-C , 67-F ) :   1.0905 B( 65-C , 66-C ) :   1.4598 B( 65-C , 91-H ) :   0.9927
B( 66-C , 92-H ) :   0.9968 B( 68-C , 69-C ) :   1.4643 B( 68-C , 93-H ) :   0.9921
B( 69-C , 70-C ) :   1.0029 B( 70-C , 71-C ) :   1.6256 B( 71-C , 72-C ) :   1.1656
B( 71-C , 74-C ) :   1.1357 B( 72-C , 73-N ) :   3.0072 B( 74-C , 75-N ) :   2.9782

-----------------------------------------------------------------------------
         ABSORPTION SPECTRUM VIA TRANSITION ELECTRIC DIPOLE MOMENTS
-----------------------------------------------------------------------------
State   Energy  Wavelength   fosc         T2         TX        TY        TZ
        (cm-1)    (nm)                  (au**2)     (au)      (au)      (au)
-----------------------------------------------------------------------------
   0   18995.6    526.4   1.434415298  24.85977   1.68554  -4.42926  -1.54932
   1   22696.6    440.6   0.376294106   5.45810   0.99435  -2.11054  -0.12239
   2   25100.0    398.4   0.120638923   1.58230  -0.16115  -0.67275  -1.05059
   3   26094.7    383.2   0.143719760   1.81318   0.33778  -0.37142   1.24945
   4   26223.2    381.3   0.125393940   1.57422  -0.18498  -0.22865   1.21972
   5   27410.9    364.8   0.337426882   4.05258   0.33366  -0.22108   1.97291
   6   27509.9    363.5   0.062521161   0.74819  -0.21634   0.80303  -0.23778
   7   28308.3    353.3   0.136059287   1.58230  -0.73189   0.97289  -0.31644
   8   28462.6    351.3   0.099886041   1.15533   0.75830  -0.73688   0.19317
   9   28891.9    346.1   0.004719028   0.05377   0.01989   0.22050  -0.06897
  10   29303.8    341.3   0.000804381   0.00904   0.01762  -0.00519   0.09327
  11   30091.3    332.3   0.137525091   1.50458  -0.25507   1.16096   0.30280
  12   31495.6    317.5   0.234606650   2.45226   1.01412  -1.19308  -0.01933
  13   32031.5    312.2   0.351086436   3.60838  -0.29880  -0.44032   1.82352
  14   32200.4    310.6   0.589469744   6.02665  -1.29219   0.58066  -2.00493
  15   32581.9    306.9   0.114974188   1.16171  -0.94816   0.51230  -0.01614
  16   32746.4    305.4   0.031758180   0.31928  -0.16533   0.40894   0.35314
  17   33194.6    301.3   0.086009004   0.85301  -0.17553  -0.88381  -0.20268
  18   33437.8    299.1   0.063464028   0.62484   0.13641  -0.28892  -0.72302
  19   33632.4    297.3   0.108878429   1.06576   0.96206   0.10163   0.36037
  20   34182.8    292.5   0.033407649   0.32175  -0.53934  -0.03953  -0.17115
  21   34683.6    288.3   0.159998274   1.51868   0.84107  -0.05037   0.89930
  22   35053.7    285.3   0.426504161   4.00557  -1.92206   0.55471  -0.05950
  23   35423.4    282.3   0.107356949   0.99773  -0.23067   0.54056   0.80767
  24   35755.0    279.7   0.002529938   0.02329   0.14315   0.01027   0.05192
  25   36014.0    277.7   0.061195906   0.55941  -0.63835  -0.24134  -0.30604
  26   36310.4    275.4   0.150280194   1.36253  -0.94112  -0.10169  -0.68300
  27   36573.0    273.4   0.291722313   2.62594   0.78623  -0.35054   1.37292
  28   37036.5    270.0   0.116403431   1.03469   0.28103  -0.28657   0.93466
  29   37173.9    269.0   0.151260655   1.33956   0.76914   0.25809   0.82546
  30   37559.8    266.2   0.179062270   1.56948  -0.89568   0.84565  -0.22829
  31   37718.0    265.1   0.153460870   1.33944  -0.16647  -0.49931  -1.03074
  32   39084.5    255.9   0.084665410   0.71314  -0.21443   0.78574   0.22310
  33   39256.5    254.7   0.167986271   1.40876  -0.21373  -0.01438  -1.16742
  34   39414.2    253.7   0.029918435   0.24990   0.45014  -0.14685   0.16033
  35   39635.5    252.3   0.052549365   0.43647  -0.47516   0.36359  -0.28017
  36   39844.1    251.0   0.051056390   0.42185  -0.53350  -0.04855  -0.36725
  37   39929.0    250.4   0.155379903   1.28110  -0.04247   1.08393   0.32308
  38   40279.5    248.3   0.126024073   1.03002  -0.45831   0.89978   0.10180

FINAL SINGLE POINT ENERGY     -7343.287636314168

DIPOLE MOMENT
-------------
                                X             Y             Z
Electronic contribution:     45.77126    -139.43742     -83.98736
Nuclear contribution   :    -47.85824     139.24988      82.95488
                        -----------------------------------------
Total Dipole Moment    :     -2.08698      -0.18754      -1.03248
                        -----------------------------------------
Magnitude (a.u.)       :      2.33595
Magnitude (Debye)      :      5.93752

Rotational constants in cm-1:     0.000971     0.000207     0.000177
Rotational constants in MHz :    29.100376     6.196304     5.301727

                             ****ORCA TERMINATED NORMALLY****
TOTAL RUN TIME: 0 days 0 hours 9 minutes 46 seconds 792 msec
