                         Program Version 4.2.0 -  RELEASE  -
|  1> # ORCA input file
|  2> # SCF done       -192.048697953324          0.000606865924
|  3> ! CAM-B3LYP def2-SVP def2/J RIJCOSX Grid4 TightSCF
|  4> %maxcore 5000
|  5> %tddft
|  6>     Mode sTDDFT
|  7>     Ethresh 5.0
|  8>     maxcore 5000
|  9> end
| 10>
| 11> %pal
| 12>   nprocs 6
| 13>   end
| 14> * xyz 0 1
| 15>    C       -8.03364        -1.04123        -1.57255
| 16>    C       -7.31867        -1.74471        -0.63215
| 17>    C       -6.59489        -2.92215        -0.90916
| 18>    N       -5.98925        -3.88647        -1.06177
| 19>    C       -7.19065        -1.42556         0.73438
| 20>    N       -7.02733        -1.25552         1.86008
| 21>    C       -8.14506        -1.40674        -2.98127
| 22>    C       -8.96251        -0.45270        -3.63512
| 23>    C       -9.25838        -0.51775        -4.97391
| 24>    C       -8.72308        -1.58161        -5.70837
| 25>    C       -7.90918        -2.53178        -5.04864
| 26>    C       -7.60831        -2.46327        -3.69383
| 27>    S       -7.35375        -3.76483        -6.14098
| 28>    C       -8.21094        -2.99570        -7.45044
| 29>    C       -8.87892        -1.87420        -7.09104
| 30>   Br       -8.14428        -3.74745        -9.16801
| 31>    C       -9.39781         0.56126        -2.65599
| 32>    O      -10.09708         1.53010        -2.89111
| 33>    C       -8.81041         0.16498        -1.37175
| 34>    C       -8.98806         0.80246        -0.16795
| 35>    C       -9.70076         1.96501         0.15546
| 36>    S      -10.33016         3.12328        -0.98981
| 37>    C      -10.67493         4.21987         0.27697
| 38>    C      -10.37210         3.75442         1.52452
| 39>    C      -10.61169         4.51193         2.78814
| 40>    C       -9.83758         2.44309         1.47699
| 41>    C       -9.49421         1.70075         2.65461
| 42>    C       -9.63779         0.36254         2.79739
| 43>    C       -9.20950        -0.41756         3.91150
| 44>    C       -8.48637         0.02716         4.96609
| 45>    C       -8.01960        -0.83658         5.98857
| 46>    N       -8.17822        -2.12486         6.04337
| 47>    C       -7.56190        -2.66016         7.10128
| 48>    C       -6.90078        -1.76317         7.91737
| 49>    S       -7.06926        -0.16457         7.34443
| 50>    C       -6.43874        -2.46641         9.12457
| 51>    C       -6.23667        -3.88334         8.56055
| 52>    C       -7.40963        -4.09918         7.54958
| 53>    C       -6.97551        -4.97337         6.35621
| 54>    C       -8.01326        -5.09066         5.24477
| 55>    C       -8.68873        -4.68756         8.16507
| 56>    C       -9.24780        -3.98317         9.39476
| 57>    N       -6.01405        -4.70114         9.73172
| 58>    C       -5.45506        -3.90202        10.81685
| 59>    S       -4.93573        -2.27476        10.13637
| 60>    C       -5.68050        -6.03653         9.74766
| 61>    C       -5.10231        -6.82285         8.80329
| 62>    C       -4.45164        -6.53944         7.56826
| 63>    C       -3.88931        -7.61878         6.96983
| 64>    C       -4.06985        -8.84175         7.66431
| 65>    S       -4.99373        -8.56550         9.12715
| 66>    C       -3.58900       -10.08214         7.31888
| 67>    C       -2.82792       -10.43429         6.17724
| 68>    C       -2.47091       -11.74193         6.13364
| 69>    C       -2.91909       -12.52189         7.23978
| 70>    S       -3.85016       -11.49634         8.32650
| 71>    C       -2.61312       -13.83638         7.42985
| 72>    C       -2.99543       -14.69567         8.50465
| 73>    C       -4.00110       -14.42849         9.41075
| 74>    S       -4.29009       -15.65754        10.58040
| 75>    C       -3.02047       -16.60456         9.89364
| 76>    C       -2.41669       -15.97409         8.79934
| 77>    N       -1.41140       -16.77568         8.31310
| 78>    C       -0.52993       -16.46945         7.21436
| 79>    C        0.48807       -15.39315         7.59020
| 80>    C       -1.36508       -17.90468         9.09677
| 81>    C       -2.36998       -17.82911        10.07354
| 82>    S       -2.45778       -19.25042        11.04398
| 83>    C       -1.17184       -19.94283        10.11985
| 84>    C       -0.65652       -19.14057         9.13823
| 85>    C        0.47759       -19.59622         8.33566
| 86>    C        1.57572       -18.89704         8.08820
| 87>    H       -9.88314         0.22770        -5.44039
| 88>    H       -6.98198        -3.21320        -3.24111
| 89>    H       -9.45821        -1.27651        -7.77089
| 90>    H       -8.49025         0.35600         0.68374
| 91>    H      -11.11010         5.17270         0.04211
| 92>    H      -11.07870         5.46892         2.57221
| 93>    H       -9.67062         4.69403         3.30654
| 94>    H      -11.26063         3.94559         3.45451
| 95>    H       -9.13570         2.28928         3.48790
| 96>    H      -10.13155        -0.18964         2.00816
| 97>    H       -9.44774        -1.47100         3.88600
| 98>    H       -8.20523         1.06523         5.06368
| 99>    H       -7.24022        -2.42936         9.86951
|100>    H       -5.31948        -3.83149         7.94848
|101>    H       -6.07294        -4.53416         5.92444
|102>    H       -6.72829        -5.97045         6.72407
|103>    H       -8.37050        -4.10575         4.95900
|104>    H       -8.85657        -5.70440         5.54894
|105>    H       -7.55511        -5.55786         4.37621
|106>    H       -9.45524        -4.66756         7.39011
|107>    H       -8.48444        -5.73101         8.41663
|108>    H       -9.40814        -2.92480         9.19886
|109>    H       -8.59082        -4.10189        10.25225
|110>    H      -10.20879        -4.42434         9.65177
|111>    H       -4.58401        -4.37965        11.26574
|112>    H       -6.20439        -3.70685        11.59269
|113>    H       -5.91968        -6.50753        10.69603
|114>    H       -4.35105        -5.53978         7.19024
|115>    H       -3.32876        -7.56994         6.05343
|116>    H       -2.56377        -9.70961         5.42802
|117>    H       -1.88717       -12.18557         5.34566
|118>    H       -1.99440       -14.27353         6.66014
|119>    H       -4.63866       -13.56860         9.42901
|120>    H       -1.12834       -16.14458         6.35716
|121>    H       -0.01756       -17.39099         6.93322
|122>    H       -0.01217       -14.46752         7.86425
|123>    H        1.15162       -15.19974         6.75145
|124>    H        1.08376       -15.71721         8.44020
|125>    H       -0.82678       -20.92382        10.38224
|126>    H        0.40295       -20.61991         7.98916
|127>    H        1.71755       -17.89917         8.46651
|128>    H        2.38737       -19.30910         7.51336
|129> *
|130>
|131>                          ****END OF INPUT****

CARTESIAN COORDINATES (ANGSTROEM)
---------------------------------
  C     -8.033640   -1.041230   -1.572550
  C     -7.318670   -1.744710   -0.632150
  C     -6.594890   -2.922150   -0.909160
  N     -5.989250   -3.886470   -1.061770
  C     -7.190650   -1.425560    0.734380
  N     -7.027330   -1.255520    1.860080
  C     -8.145060   -1.406740   -2.981270
  C     -8.962510   -0.452700   -3.635120
  C     -9.258380   -0.517750   -4.973910
  C     -8.723080   -1.581610   -5.708370
  C     -7.909180   -2.531780   -5.048640
  C     -7.608310   -2.463270   -3.693830
  S     -7.353750   -3.764830   -6.140980
  C     -8.210940   -2.995700   -7.450440
  C     -8.878920   -1.874200   -7.091040
  Br    -8.144280   -3.747450   -9.168010
  C     -9.397810    0.561260   -2.655990
  O    -10.097080    1.530100   -2.891110
  C     -8.810410    0.164980   -1.371750
  C     -8.988060    0.802460   -0.167950
  C     -9.700760    1.965010    0.155460
  S    -10.330160    3.123280   -0.989810
  C    -10.674930    4.219870    0.276970
  C    -10.372100    3.754420    1.524520
  C    -10.611690    4.511930    2.788140
  C     -9.837580    2.443090    1.476990
  C     -9.494210    1.700750    2.654610
  C     -9.637790    0.362540    2.797390
  C     -9.209500   -0.417560    3.911500
  C     -8.486370    0.027160    4.966090
  C     -8.019600   -0.836580    5.988570
  N     -8.178220   -2.124860    6.043370
  C     -7.561900   -2.660160    7.101280
  C     -6.900780   -1.763170    7.917370
  S     -7.069260   -0.164570    7.344430
  C     -6.438740   -2.466410    9.124570
  C     -6.236670   -3.883340    8.560550
  C     -7.409630   -4.099180    7.549580
  C     -6.975510   -4.973370    6.356210
  C     -8.013260   -5.090660    5.244770
  C     -8.688730   -4.687560    8.165070
  C     -9.247800   -3.983170    9.394760
  N     -6.014050   -4.701140    9.731720
  C     -5.455060   -3.902020   10.816850
  S     -4.935730   -2.274760   10.136370
  C     -5.680500   -6.036530    9.747660
  C     -5.102310   -6.822850    8.803290
  C     -4.451640   -6.539440    7.568260
  C     -3.889310   -7.618780    6.969830
  C     -4.069850   -8.841750    7.664310
  S     -4.993730   -8.565500    9.127150
  C     -3.589000  -10.082140    7.318880
  C     -2.827920  -10.434290    6.177240
  C     -2.470910  -11.741930    6.133640
  C     -2.919090  -12.521890    7.239780
  S     -3.850160  -11.496340    8.326500
  C     -2.613120  -13.836380    7.429850
  C     -2.995430  -14.695670    8.504650
  C     -4.001100  -14.428490    9.410750
  S     -4.290090  -15.657540   10.580400
  C     -3.020470  -16.604560    9.893640
  C     -2.416690  -15.974090    8.799340
  N     -1.411400  -16.775680    8.313100
  C     -0.529930  -16.469450    7.214360
  C      0.488070  -15.393150    7.590200
  C     -1.365080  -17.904680    9.096770
  C     -2.369980  -17.829110   10.073540
  S     -2.457780  -19.250420   11.043980
  C     -1.171840  -19.942830   10.119850
  C     -0.656520  -19.140570    9.138230
  C      0.477590  -19.596220    8.335660
  C      1.575720  -18.897040    8.088200
  H     -9.883140    0.227700   -5.440390
  H     -6.981980   -3.213200   -3.241110
  H     -9.458210   -1.276510   -7.770890
  H     -8.490250    0.356000    0.683740
  H    -11.110100    5.172700    0.042110
  H    -11.078700    5.468920    2.572210
  H     -9.670620    4.694030    3.306540
  H    -11.260630    3.945590    3.454510
  H     -9.135700    2.289280    3.487900
  H    -10.131550   -0.189640    2.008160
  H     -9.447740   -1.471000    3.886000
  H     -8.205230    1.065230    5.063680
  H     -7.240220   -2.429360    9.869510
  H     -5.319480   -3.831490    7.948480
  H     -6.072940   -4.534160    5.924440
  H     -6.728290   -5.970450    6.724070
  H     -8.370500   -4.105750    4.959000
  H     -8.856570   -5.704400    5.548940
  H     -7.555110   -5.557860    4.376210
  H     -9.455240   -4.667560    7.390110
  H     -8.484440   -5.731010    8.416630
  H     -9.408140   -2.924800    9.198860
  H     -8.590820   -4.101890   10.252250
  H    -10.208790   -4.424340    9.651770
  H     -4.584010   -4.379650   11.265740
  H     -6.204390   -3.706850   11.592690
  H     -5.919680   -6.507530   10.696030
  H     -4.351050   -5.539780    7.190240
  H     -3.328760   -7.569940    6.053430
  H     -2.563770   -9.709610    5.428020
  H     -1.887170  -12.185570    5.345660
  H     -1.994400  -14.273530    6.660140
  H     -4.638660  -13.568600    9.429010
  H     -1.128340  -16.144580    6.357160
  H     -0.017560  -17.390990    6.933220
  H     -0.012170  -14.467520    7.864250
  H      1.151620  -15.199740    6.751450
  H      1.083760  -15.717210    8.440200
  H     -0.826780  -20.923820   10.382240
  H      0.402950  -20.619910    7.989160
  H      1.717550  -17.899170    8.466510
  H      2.387370  -19.309100    7.513360

 Total Charge           Charge          ....    0
 Multiplicity           Mult            ....    1
 Number of Electrons    NEL             ....  590
 Basis Dimension        Dim             .... 1268

ORBITAL ENERGIES
----------------

  NO   OCC          E(Eh)            E(eV)
   0   2.0000    -482.884370    -13139.9517
   1   2.0000     -88.973750     -2421.0988
   2   2.0000     -88.964884     -2420.8576
   3   2.0000     -88.958329     -2420.6792
   4   2.0000     -88.935525     -2420.0587
   5   2.0000     -88.934319     -2420.0259
   6   2.0000     -88.927602     -2419.8431
   7   2.0000     -88.926354     -2419.8091
   8   2.0000     -88.919237     -2419.6155
   9   2.0000     -62.562106     -1702.4014
  10   2.0000     -56.396056     -1534.6147
  11   2.0000     -56.393341     -1534.5408
  12   2.0000     -56.393304     -1534.5398
  13   2.0000     -19.215861      -522.8902
  14   2.0000     -14.445477      -393.0814
  15   2.0000     -14.429998      -392.6602
  16   2.0000     -14.414825      -392.2473
  17   2.0000     -14.410792      -392.1376
  18   2.0000     -14.406362      -392.0170
  19   2.0000     -10.364686      -282.0374
  20   2.0000     -10.357443      -281.8404
  21   2.0000     -10.338880      -281.3352
  22   2.0000     -10.336748      -281.2772
  23   2.0000     -10.333824      -281.1977
  24   2.0000     -10.328192      -281.0444
  25   2.0000     -10.323227      -280.9093
  26   2.0000     -10.318250      -280.7738
  27   2.0000     -10.318227      -280.7732
  28   2.0000     -10.314623      -280.6751
  29   2.0000     -10.310769      -280.5703
  30   2.0000     -10.309678      -280.5406
  31   2.0000     -10.309557      -280.5373
  32   2.0000     -10.307510      -280.4816
  33   2.0000     -10.305614      -280.4300
  34   2.0000     -10.305277      -280.4209
  35   2.0000     -10.303167      -280.3634
  36   2.0000     -10.301216      -280.3103
  37   2.0000     -10.298848      -280.2459
  38   2.0000     -10.298331      -280.2318
  39   2.0000     -10.298170      -280.2275
  40   2.0000     -10.297937      -280.2211
  41   2.0000     -10.296526      -280.1827
  42   2.0000     -10.295986      -280.1680
  43   2.0000     -10.295290      -280.1491
  44   2.0000     -10.291380      -280.0427
  45   2.0000     -10.291282      -280.0400
  46   2.0000     -10.289980      -280.0046
  47   2.0000     -10.289386      -279.9884
  48   2.0000     -10.288873      -279.9745
  49   2.0000     -10.288680      -279.9692
  50   2.0000     -10.286899      -279.9207
  51   2.0000     -10.286150      -279.9004
  52   2.0000     -10.285425      -279.8807
  53   2.0000     -10.284847      -279.8649
  54   2.0000     -10.283789      -279.8361
  55   2.0000     -10.282028      -279.7882
  56   2.0000     -10.279268      -279.7131
  57   2.0000     -10.276166      -279.6287
  58   2.0000     -10.275019      -279.5975
  59   2.0000     -10.274247      -279.5765
  60   2.0000     -10.274143      -279.5736
  61   2.0000     -10.272446      -279.5275
  62   2.0000     -10.270989      -279.4878
  63   2.0000     -10.270317      -279.4695
  64   2.0000     -10.269718      -279.4532
  65   2.0000     -10.269302      -279.4419
  66   2.0000     -10.268670      -279.4247
  67   2.0000     -10.267528      -279.3937
  68   2.0000     -10.266871      -279.3758
  69   2.0000     -10.263710      -279.2898
  70   2.0000     -10.259100      -279.1643
  71   2.0000     -10.256524      -279.0942
  72   2.0000     -10.255984      -279.0795
  73   2.0000     -10.249927      -278.9147
  74   2.0000     -10.249355      -278.8991
  75   2.0000     -10.231286      -278.4074
  76   2.0000      -8.791547      -239.2301
  77   2.0000      -8.069770      -219.5896
  78   2.0000      -8.060274      -219.3312
  79   2.0000      -8.052592      -219.1222
  80   2.0000      -8.030825      -218.5299
  81   2.0000      -8.029578      -218.4959
  82   2.0000      -8.023407      -218.3280
  83   2.0000      -8.022735      -218.3097
  84   2.0000      -8.015255      -218.1062
  85   2.0000      -6.627864      -180.3533
  86   2.0000      -6.613267      -179.9561
  87   2.0000      -6.613083      -179.9511
  88   2.0000      -6.039454      -164.3419
  89   2.0000      -6.035189      -164.2258
  90   2.0000      -6.030978      -164.1113
  91   2.0000      -6.029269      -164.0648
  92   2.0000      -6.025465      -163.9612
  93   2.0000      -6.022663      -163.8850
  94   2.0000      -6.021959      -163.8658
  95   2.0000      -6.017289      -163.7388
  96   2.0000      -6.014942      -163.6749
  97   2.0000      -6.000437      -163.2802
  98   2.0000      -5.999215      -163.2469
  99   2.0000      -5.996292      -163.1674
 100   2.0000      -5.994960      -163.1312
 101   2.0000      -5.993225      -163.0839
 102   2.0000      -5.992709      -163.0699
 103   2.0000      -5.992412      -163.0618
 104   2.0000      -5.991229      -163.0296
 105   2.0000      -5.989191      -162.9742
 106   2.0000      -5.988713      -162.9612
 107   2.0000      -5.985523      -162.8744
 108   2.0000      -5.984235      -162.8393
 109   2.0000      -5.983128      -162.8092
 110   2.0000      -5.982540      -162.7932
 111   2.0000      -5.974037      -162.5618
 112   2.0000      -2.743681       -74.6593
 113   2.0000      -2.739660       -74.5499
 114   2.0000      -2.739511       -74.5459
 115   2.0000      -2.727914       -74.2303
 116   2.0000      -2.727884       -74.2295
 117   2.0000      -1.131159       -30.7804
 118   2.0000      -1.070860       -29.1396
 119   2.0000      -1.066072       -29.0093
 120   2.0000      -1.052394       -28.6371
 121   2.0000      -1.020664       -27.7737
 122   2.0000      -1.011488       -27.5240
 123   2.0000      -0.994610       -27.0647
 124   2.0000      -0.991661       -26.9845
 125   2.0000      -0.986225       -26.8366
 126   2.0000      -0.977126       -26.5889
 127   2.0000      -0.958597       -26.0847
 128   2.0000      -0.953942       -25.9581
 129   2.0000      -0.950885       -25.8749
 130   2.0000      -0.946689       -25.7607
 131   2.0000      -0.940330       -25.5877
 132   2.0000      -0.918958       -25.0061
 133   2.0000      -0.907750       -24.7011
 134   2.0000      -0.906185       -24.6585
 135   2.0000      -0.902145       -24.5486
 136   2.0000      -0.888968       -24.1900
 137   2.0000      -0.884934       -24.0803
 138   2.0000      -0.883710       -24.0470
 139   2.0000      -0.879154       -23.9230
 140   2.0000      -0.872667       -23.7465
 141   2.0000      -0.869267       -23.6540
 142   2.0000      -0.860241       -23.4084
 143   2.0000      -0.849651       -23.1202
 144   2.0000      -0.841938       -22.9103
 145   2.0000      -0.837717       -22.7954
 146   2.0000      -0.831456       -22.6251
 147   2.0000      -0.827772       -22.5248
 148   2.0000      -0.827442       -22.5158
 149   2.0000      -0.819231       -22.2924
 150   2.0000      -0.812718       -22.1152
 151   2.0000      -0.808618       -22.0036
 152   2.0000      -0.799275       -21.7494
 153   2.0000      -0.789523       -21.4840
 154   2.0000      -0.782712       -21.2987
 155   2.0000      -0.777736       -21.1633
 156   2.0000      -0.769890       -20.9498
 157   2.0000      -0.761568       -20.7233
 158   2.0000      -0.759475       -20.6664
 159   2.0000      -0.752329       -20.4719
 160   2.0000      -0.749108       -20.3843
 161   2.0000      -0.737400       -20.0657
 162   2.0000      -0.717850       -19.5337
 163   2.0000      -0.710492       -19.3335
 164   2.0000      -0.707764       -19.2592
 165   2.0000      -0.697389       -18.9769
 166   2.0000      -0.691451       -18.8153
 167   2.0000      -0.688692       -18.7403
 168   2.0000      -0.685544       -18.6546
 169   2.0000      -0.677170       -18.4267
 170   2.0000      -0.672745       -18.3063
 171   2.0000      -0.667476       -18.1629
 172   2.0000      -0.662947       -18.0397
 173   2.0000      -0.661066       -17.9885
 174   2.0000      -0.656698       -17.8697
 175   2.0000      -0.650773       -17.7084
 176   2.0000      -0.645831       -17.5739
 177   2.0000      -0.641462       -17.4551
 178   2.0000      -0.635980       -17.3059
 179   2.0000      -0.627647       -17.0792
 180   2.0000      -0.621265       -16.9055
 181   2.0000      -0.619824       -16.8663
 182   2.0000      -0.614765       -16.7286
 183   2.0000      -0.606892       -16.5144
 184   2.0000      -0.600185       -16.3319
 185   2.0000      -0.599397       -16.3104
 186   2.0000      -0.598299       -16.2805
 187   2.0000      -0.595359       -16.2005
 188   2.0000      -0.588671       -16.0186
 189   2.0000      -0.584204       -15.8970
 190   2.0000      -0.582654       -15.8548
 191   2.0000      -0.577389       -15.7116
 192   2.0000      -0.564488       -15.3605
 193   2.0000      -0.561466       -15.2783
 194   2.0000      -0.557702       -15.1758
 195   2.0000      -0.552079       -15.0228
 196   2.0000      -0.541637       -14.7387
 197   2.0000      -0.541300       -14.7295
 198   2.0000      -0.540941       -14.7198
 199   2.0000      -0.539213       -14.6727
 200   2.0000      -0.537004       -14.6126
 201   2.0000      -0.533644       -14.5212
 202   2.0000      -0.530790       -14.4435
 203   2.0000      -0.529838       -14.4176
 204   2.0000      -0.527634       -14.3577
 205   2.0000      -0.525875       -14.3098
 206   2.0000      -0.524407       -14.2698
 207   2.0000      -0.522584       -14.2202
 208   2.0000      -0.516746       -14.0614
 209   2.0000      -0.514901       -14.0112
 210   2.0000      -0.513998       -13.9866
 211   2.0000      -0.513072       -13.9614
 212   2.0000      -0.511194       -13.9103
 213   2.0000      -0.507142       -13.8000
 214   2.0000      -0.506790       -13.7905
 215   2.0000      -0.503240       -13.6939
 216   2.0000      -0.498585       -13.5672
 217   2.0000      -0.494072       -13.4444
 218   2.0000      -0.493429       -13.4269
 219   2.0000      -0.492437       -13.3999
 220   2.0000      -0.490950       -13.3594
 221   2.0000      -0.486299       -13.2329
 222   2.0000      -0.485608       -13.2141
 223   2.0000      -0.481549       -13.1036
 224   2.0000      -0.479276       -13.0418
 225   2.0000      -0.478503       -13.0207
 226   2.0000      -0.473318       -12.8796
 227   2.0000      -0.472791       -12.8653
 228   2.0000      -0.471838       -12.8394
 229   2.0000      -0.469604       -12.7786
 230   2.0000      -0.464760       -12.6468
 231   2.0000      -0.461865       -12.5680
 232   2.0000      -0.460087       -12.5196
 233   2.0000      -0.459446       -12.5022
 234   2.0000      -0.458184       -12.4678
 235   2.0000      -0.456747       -12.4287
 236   2.0000      -0.453607       -12.3433
 237   2.0000      -0.452108       -12.3025
 238   2.0000      -0.450968       -12.2715
 239   2.0000      -0.448139       -12.1945
 240   2.0000      -0.446679       -12.1547
 241   2.0000      -0.445849       -12.1322
 242   2.0000      -0.442825       -12.0499
 243   2.0000      -0.442261       -12.0345
 244   2.0000      -0.439581       -11.9616
 245   2.0000      -0.437625       -11.9084
 246   2.0000      -0.437145       -11.8953
 247   2.0000      -0.436194       -11.8695
 248   2.0000      -0.434244       -11.8164
 249   2.0000      -0.430031       -11.7017
 250   2.0000      -0.427233       -11.6256
 251   2.0000      -0.425140       -11.5686
 252   2.0000      -0.424912       -11.5625
 253   2.0000      -0.421677       -11.4744
 254   2.0000      -0.418944       -11.4001
 255   2.0000      -0.418393       -11.3851
 256   2.0000      -0.415569       -11.3082
 257   2.0000      -0.415266       -11.3000
 258   2.0000      -0.410759       -11.1773
 259   2.0000      -0.409175       -11.1342
 260   2.0000      -0.407479       -11.0881
 261   2.0000      -0.405236       -11.0270
 262   2.0000      -0.404205       -10.9990
 263   2.0000      -0.399877       -10.8812
 264   2.0000      -0.395241       -10.7550
 265   2.0000      -0.392736       -10.6869
 266   2.0000      -0.387380       -10.5412
 267   2.0000      -0.386794       -10.5252
 268   2.0000      -0.384156       -10.4534
 269   2.0000      -0.380879       -10.3643
 270   2.0000      -0.379057       -10.3147
 271   2.0000      -0.378420       -10.2973
 272   2.0000      -0.373850       -10.1730
 273   2.0000      -0.373042       -10.1510
 274   2.0000      -0.360458        -9.8086
 275   2.0000      -0.357312        -9.7230
 276   2.0000      -0.350464        -9.5366
 277   2.0000      -0.346621        -9.4320
 278   2.0000      -0.343486        -9.3467
 279   2.0000      -0.337371        -9.1803
 280   2.0000      -0.331862        -9.0304
 281   2.0000      -0.324171        -8.8211
 282   2.0000      -0.315250        -8.5784
 283   2.0000      -0.314493        -8.5578
 284   2.0000      -0.309689        -8.4271
 285   2.0000      -0.308593        -8.3972
 286   2.0000      -0.300565        -8.1788
 287   2.0000      -0.295658        -8.0453
 288   2.0000      -0.293341        -7.9822
 289   2.0000      -0.282376        -7.6838
 290   2.0000      -0.276098        -7.5130
 291   2.0000      -0.253988        -6.9114
 292   2.0000      -0.249593        -6.7918
 293   2.0000      -0.236415        -6.4332
 294   2.0000      -0.196805        -5.3553
 295   0.0000      -0.092453        -2.5158
 296   0.0000      -0.060340        -1.6419
 297   0.0000      -0.047050        -1.2803
 298   0.0000      -0.041589        -1.1317
 299   0.0000      -0.008292        -0.2256

MULLIKEN ATOMIC CHARGES
-----------------------
   0 C :    0.333376
   1 C :   -0.362932
   2 C :   -0.188095
   3 N :    0.143086
   4 C :   -0.192660
   5 N :    0.149990
   6 C :    0.006820
   7 C :   -0.010108
   8 C :   -0.076475
   9 C :    0.118716
  10 C :   -0.091063
  11 C :   -0.021434
  12 S :    0.184948
  13 C :   -0.123753
  14 C :    0.038664
  15 Br:    0.021922
  16 C :    0.153602
  17 O :   -0.173880
  18 C :   -0.103209
  19 C :   -0.047686
  20 C :   -0.120844
  21 S :    0.195051
  22 C :   -0.094105
  23 C :   -0.087048
  24 C :    0.120964
  25 C :    0.119161
  26 C :   -0.024264
  27 C :    0.005662
  28 C :    0.037397
  29 C :    0.079348
  30 C :   -0.107609
  31 N :   -0.026547
  32 C :   -0.053589
  33 C :   -0.055908
  34 S :    0.124073
  35 C :   -0.128499
  36 C :    0.093132
  37 C :   -0.163258
  38 C :    0.030911
  39 C :    0.025432
  40 C :    0.068826
  41 C :    0.026709
  42 N :   -0.276015
  43 C :    0.119545
  44 S :   -0.026256
  45 C :    0.068722
  46 C :   -0.075658
  47 C :    0.040983
  48 C :    0.005569
  49 C :   -0.044716
  50 S :    0.062960
  51 C :   -0.050116
  52 C :    0.030505
  53 C :    0.024378
  54 C :   -0.021558
  55 S :    0.053448
  56 C :   -0.058806
  57 C :    0.102405
  58 C :   -0.178719
  59 S :    0.134038
  60 C :   -0.131759
  61 C :    0.079657
  62 N :   -0.172481
  63 C :    0.099353
  64 C :    0.001576
  65 C :    0.091201
  66 C :   -0.147587
  67 S :    0.127625
  68 C :   -0.140719
  69 C :    0.051845
  70 C :   -0.056037
  71 C :   -0.012574
  72 H :   -0.011391
  73 H :   -0.007510
  74 H :   -0.003911
  75 H :    0.016596
  76 H :    0.020742
  77 H :    0.010241
  78 H :    0.030640
  79 H :    0.033310
  80 H :   -0.002539
  81 H :    0.008292
  82 H :    0.011100
  83 H :   -0.018911
  84 H :    0.063280
  85 H :    0.018810
  86 H :   -0.006104
  87 H :    0.032452
  88 H :    0.029202
  89 H :    0.007102
  90 H :    0.005510
  91 H :    0.012527
  92 H :    0.007390
  93 H :    0.013927
  94 H :    0.009044
  95 H :    0.009180
  96 H :    0.051252
  97 H :    0.048256
  98 H :   -0.000918
  99 H :   -0.017902
 100 H :   -0.016747
 101 H :   -0.019181
 102 H :   -0.021281
 103 H :   -0.042484
 104 H :    0.029662
 105 H :    0.025284
 106 H :    0.025257
 107 H :    0.031268
 108 H :    0.016784
 109 H :    0.023812
 110 H :    0.007467
 111 H :    0.007684
 112 H :    0.015952
 113 H :    0.021222
Sum of atomic charges:   -0.0000000

LOEWDIN ATOMIC CHARGES
----------------------
   0 C :    0.079715
   1 C :   -0.151374
   2 C :   -0.017959
   3 N :   -0.061184
   4 C :   -0.021543
   5 N :   -0.052882
   6 C :   -0.021290
   7 C :   -0.049316
   8 C :    0.020413
   9 C :   -0.033206
  10 C :   -0.144801
  11 C :   -0.009631
  12 S :    0.431412
  13 C :   -0.271973
  14 C :   -0.070540
  15 Br:    0.135277
  16 C :    0.081168
  17 O :   -0.165610
  18 C :   -0.118793
  19 C :    0.057875
  20 C :   -0.187948
  21 S :    0.505904
  22 C :   -0.169115
  23 C :   -0.067999
  24 C :   -0.045011
  25 C :   -0.019044
  26 C :   -0.019037
  27 C :   -0.004438
  28 C :    0.006326
  29 C :   -0.036871
  30 C :   -0.114263
  31 N :   -0.079465
  32 C :   -0.024550
  33 C :   -0.219431
  34 S :    0.416354
  35 C :   -0.133806
  36 C :    0.035460
  37 C :   -0.042930
  38 C :   -0.022046
  39 C :   -0.061666
  40 C :   -0.018726
  41 C :   -0.061103
  42 N :   -0.081402
  43 C :   -0.040865
  44 S :    0.215678
  45 C :   -0.009303
  46 C :   -0.189217
  47 C :   -0.036106
  48 C :   -0.036108
  49 C :   -0.174327
  50 S :    0.346585
  51 C :   -0.193184
  52 C :   -0.037397
  53 C :   -0.041465
  54 C :   -0.142938
  55 S :    0.366858
  56 C :   -0.070378
  57 C :   -0.080441
  58 C :   -0.195895
  59 S :    0.419287
  60 C :   -0.229042
  61 C :   -0.018289
  62 N :    0.036680
  63 C :    0.038415
  64 C :   -0.062605
  65 C :   -0.021649
  66 C :   -0.229231
  67 S :    0.410767
  68 C :   -0.184913
  69 C :   -0.081923
  70 C :   -0.015649
  71 C :   -0.051596
  72 H :    0.040489
  73 H :    0.040840
  74 H :    0.038546
  75 H :    0.048569
  76 H :    0.024381
  77 H :    0.033979
  78 H :    0.035717
  79 H :    0.037715
  80 H :    0.029020
  81 H :    0.033647
  82 H :    0.038472
  83 H :    0.025362
  84 H :    0.030435
  85 H :    0.012298
  86 H :    0.018177
  87 H :    0.025976
  88 H :    0.022029
  89 H :    0.017604
  90 H :    0.024978
  91 H :    0.028354
  92 H :    0.026579
  93 H :    0.021216
  94 H :    0.016753
  95 H :    0.027018
  96 H :    0.022731
  97 H :    0.011191
  98 H :    0.019463
  99 H :    0.029409
 100 H :    0.031162
 101 H :    0.029622
 102 H :    0.029153
 103 H :    0.026903
 104 H :    0.006410
 105 H :    0.022777
 106 H :    0.031167
 107 H :    0.028763
 108 H :    0.028263
 109 H :    0.025525
 110 H :    0.018436
 111 H :    0.032478
 112 H :    0.020959
 113 H :    0.024737

  Mayer bond orders larger than 0.100000
B(  0-C ,  1-C ) :   1.6024 B(  0-C ,  6-C ) :   0.9970 B(  0-C , 18-C ) :   1.0899
B(  1-C ,  2-C ) :   1.1478 B(  1-C ,  4-C ) :   1.1502 B(  2-C ,  3-N ) :   2.9643
B(  4-C ,  5-N ) :   2.9515 B(  6-C ,  7-C ) :   1.2763 B(  6-C , 11-C ) :   1.4117
B(  7-C ,  8-C ) :   1.4233 B(  7-C , 16-C ) :   0.9504 B(  8-C ,  9-C ) :   1.2405
B(  8-C , 72-H ) :   1.0179 B(  9-C , 10-C ) :   1.3103 B(  9-C , 14-C ) :   1.1621
B( 10-C , 11-C ) :   1.3274 B( 10-C , 12-S ) :   1.0844 B( 11-C , 73-H ) :   0.9796
B( 12-S , 13-C ) :   1.0877 B( 13-C , 14-C ) :   1.6173 B( 13-C , 15-Br) :   1.0177
B( 14-C , 74-H ) :   1.0009 B( 16-C , 17-O ) :   2.1579 B( 16-C , 18-C ) :   0.9686
B( 18-C , 19-C ) :   1.5133 B( 19-C , 20-C ) :   1.2715 B( 19-C , 75-H ) :   0.9327
B( 20-C , 21-S ) :   1.1121 B( 20-C , 25-C ) :   1.3299 B( 21-S , 22-C ) :   1.1727
B( 22-C , 23-C ) :   1.5260 B( 22-C , 76-H ) :   0.9625 B( 23-C , 24-C ) :   1.0950
B( 23-C , 25-C ) :   1.2857 B( 24-C , 77-H ) :   0.9491 B( 24-C , 78-H ) :   0.9418
B( 24-C , 79-H ) :   0.9449 B( 25-C , 26-C ) :   1.1160 B( 26-C , 27-C ) :   1.6934
B( 26-C , 80-H ) :   0.9403 B( 27-C , 28-C ) :   1.1250 B( 27-C , 81-H ) :   0.9825
B( 28-C , 29-C ) :   1.7321 B( 28-C , 82-H ) :   0.9726 B( 29-C , 30-C ) :   1.1074
B( 29-C , 83-H ) :   0.9373 B( 30-C , 31-N ) :   1.6795 B( 30-C , 34-S ) :   1.0839
B( 31-N , 32-C ) :   1.3871 B( 31-N , 34-S ) :   0.1006 B( 32-C , 33-C ) :   1.5407
B( 32-C , 37-C ) :   0.9495 B( 33-C , 34-S ) :   1.1204 B( 33-C , 35-C ) :   1.0393
B( 35-C , 36-C ) :   0.9833 B( 35-C , 44-S ) :   0.9970 B( 35-C , 84-H ) :   0.8826
B( 36-C , 37-C ) :   0.9583 B( 36-C , 42-N ) :   0.9853 B( 36-C , 85-H ) :   0.9101
B( 37-C , 38-C ) :   1.0612 B( 37-C , 40-C ) :   1.0259 B( 38-C , 39-C ) :   1.1037
B( 38-C , 86-H ) :   0.9324 B( 38-C , 87-H ) :   0.9345 B( 39-C , 88-H ) :   0.9547
B( 39-C , 89-H ) :   0.9613 B( 39-C , 90-H ) :   0.9571 B( 40-C , 41-C ) :   1.1204
B( 40-C , 91-H ) :   0.9345 B( 40-C , 92-H ) :   0.9372 B( 41-C , 93-H ) :   0.9579
B( 41-C , 94-H ) :   0.9569 B( 41-C , 95-H ) :   0.9544 B( 42-N , 43-C ) :   0.9481
B( 42-N , 45-C ) :   1.1592 B( 43-C , 44-S ) :   1.0092 B( 43-C , 96-H ) :   0.9516
B( 43-C , 97-H ) :   0.9496 B( 45-C , 46-C ) :   1.6621 B( 45-C , 98-H ) :   0.9436
B( 46-C , 47-C ) :   1.1044 B( 46-C , 50-S ) :   1.0011 B( 47-C , 48-C ) :   1.6327
B( 47-C , 99-H ) :   0.9910 B( 48-C , 49-C ) :   1.1689 B( 48-C ,100-H ) :   0.9933
B( 49-C , 50-S ) :   1.0444 B( 49-C , 51-C ) :   1.5453 B( 51-C , 52-C ) :   1.1699
B( 51-C , 55-S ) :   1.0195 B( 52-C , 53-C ) :   1.6157 B( 52-C ,101-H ) :   0.9911
B( 53-C , 54-C ) :   1.1193 B( 53-C ,102-H ) :   0.9968 B( 54-C , 55-S ) :   1.0285
B( 54-C , 56-C ) :   1.6390 B( 56-C , 57-C ) :   1.0809 B( 56-C ,103-H ) :   0.9646
B( 57-C , 58-C ) :   1.4974 B( 57-C , 61-C ) :   1.1679 B( 58-C , 59-S ) :   1.1406
B( 58-C ,104-H ) :   0.9457 B( 59-S , 60-C ) :   1.0378 B( 60-C , 61-C ) :   1.4432
B( 60-C , 66-C ) :   1.3736 B( 61-C , 62-N ) :   1.1613 B( 62-N , 63-C ) :   0.9582
B( 62-N , 65-C ) :   1.1585 B( 63-C , 64-C ) :   1.1002 B( 63-C ,105-H ) :   0.9458
B( 63-C ,106-H ) :   0.9383 B( 64-C ,107-H ) :   0.9610 B( 64-C ,108-H ) :   0.9659
B( 64-C ,109-H ) :   0.9605 B( 65-C , 66-C ) :   1.4265 B( 65-C , 69-C ) :   1.2048
B( 66-C , 67-S ) :   1.0427 B( 67-S , 68-C ) :   1.1389 B( 68-C , 69-C ) :   1.5472
B( 68-C ,110-H ) :   0.9679 B( 69-C , 70-C ) :   1.0147 B( 70-C , 71-C ) :   1.9810
B( 70-C ,111-H ) :   0.9591 B( 71-C ,112-H ) :   0.9571 B( 71-C ,113-H ) :   0.9496

-----------------------------------------------------------------------------
         ABSORPTION SPECTRUM VIA TRANSITION ELECTRIC DIPOLE MOMENTS
-----------------------------------------------------------------------------
State   Energy  Wavelength   fosc         T2         TX        TY        TZ
        (cm-1)    (nm)                  (au**2)     (au)      (au)      (au)
-----------------------------------------------------------------------------
   0   14593.0    685.3   0.007410469   0.16718  -0.11862   0.29335  -0.25894
   1   18305.0    546.3   1.006700723  18.10528  -1.15168   3.82749  -1.45918
   2   19015.2    525.9   0.931821233  16.13271   0.84242  -2.86748  -2.68339
   3   21701.7    460.8   0.001039072   0.01576   0.02132   0.06845   0.10307
   4   24707.9    404.7   0.357521546   4.76368   1.13158  -1.85998  -0.15383
   5   25109.4    398.3   0.000268073   0.00351  -0.02533  -0.04644  -0.02675
   6   25786.1    387.8   0.000110723   0.00141   0.02125  -0.02233  -0.02153
   7   26265.8    380.7   0.161388592   2.02283  -0.63730   0.86398  -0.93285
   8   26595.3    376.0   0.037559172   0.46493   0.40502  -0.43918  -0.32864
   9   28042.4    356.6   0.003633122   0.04265   0.06215   0.06382   0.18632
  10   28080.4    356.1   0.646659759   7.58138  -0.38250  -0.38922  -2.69881
  11   28842.0    346.7   0.038606954   0.44067  -0.15218  -0.29433   0.57522
  12   28937.8    345.6   0.005413130   0.06158   0.11284  -0.21235  -0.06132
  13   29772.6    335.9   0.022974846   0.25405   0.09083  -0.17479  -0.46395
  14   30321.0    329.8   0.433478908   4.70653   1.41622  -1.53467   0.58789
  15   30809.7    324.6   0.326864459   3.49265   0.50890  -0.35588  -1.76267
  16   30894.2    323.7   0.175869700   1.87409  -0.02095   1.19041  -0.67571
  17   31533.0    317.1   0.077205902   0.80605  -0.15894   0.09830  -0.87814
  18   32368.7    308.9   0.021515611   0.21883  -0.13004   0.14726  -0.42454
  19   32646.2    306.3   0.041989195   0.42343   0.05189   0.01419   0.64849
  20   32882.5    304.1   0.014320195   0.14337   0.24237  -0.00628  -0.29084
  21   32936.4    303.6   0.001298023   0.01297  -0.08580   0.04212  -0.06196
  22   33428.9    299.1   0.073991177   0.72867  -0.47493   0.04024   0.70817
  23   33528.2    298.3   0.415506091   4.07984  -0.72999   0.45690  -1.82707
  24   33894.1    295.0   0.073908750   0.71787   0.06729   0.20664   0.81893
  25   33917.5    294.8   0.009689971   0.09405   0.17306  -0.24353  -0.06926
  26   33971.2    294.4   0.000206819   0.00200  -0.01789   0.01751  -0.03712
  27   34264.0    291.9   0.084306789   0.81003  -0.17264   0.80540  -0.36271
  28   35156.2    284.4   0.080954226   0.75808  -0.01031  -0.32214  -0.80882
  29   35215.8    284.0   0.057685830   0.53927  -0.03744  -0.30796  -0.66561
  30   35873.5    278.8   0.001775007   0.01629  -0.00914  -0.05215   0.11613
  31   36635.3    273.0   0.000409286   0.00368  -0.02265   0.00107  -0.05625
  32   37046.6    269.9   0.068079720   0.60499   0.07581  -0.49787   0.59276
  33   38016.2    263.0   0.120021465   1.03936  -0.54413   0.80404  -0.31113
  34   38216.4    261.7   0.013477737   0.11610   0.06260  -0.31157   0.12292
  35   38517.2    259.6   0.013967544   0.11938   0.27344  -0.17982  -0.11081
  36   38824.2    257.6   0.001215225   0.01030   0.03187  -0.08847   0.03824
  37   39013.6    256.3   0.006343821   0.05353  -0.04709   0.21823  -0.06074
  38   39141.6    255.5   0.203669971   1.71303   0.27681  -1.21523   0.39952
  39   39209.3    255.0   0.016202590   0.13604  -0.09093   0.34704  -0.08566
  40   39365.4    254.0   0.002017861   0.01688  -0.11106  -0.00486  -0.06722
  41   39751.5    251.6   0.029981855   0.24830  -0.43241   0.24701  -0.01755
  42   39898.5    250.6   0.002008423   0.01657  -0.04889   0.07228  -0.09464
  43   39954.2    250.3   0.120291000   0.99117  -0.12935   0.96544  -0.20582
  44   40264.1    248.4   0.058279481   0.47651  -0.37840   0.57688   0.02296

FINAL SINGLE POINT ENERGY     -8301.419189346763

DIPOLE MOMENT
-------------
                                X             Y             Z
Electronic contribution:    -34.63230      42.00308    -201.18025
Nuclear contribution   :     33.86101     -39.11095     199.67188
                        -----------------------------------------
Total Dipole Moment    :     -0.77129       2.89213      -1.50836
                        -----------------------------------------
Magnitude (a.u.)       :      3.35179
Magnitude (Debye)      :      8.51956

Rotational constants in cm-1:     0.000711     0.000195     0.000157
Rotational constants in MHz :    21.329371     5.857050     4.696868

                             ****ORCA TERMINATED NORMALLY****
TOTAL RUN TIME: 0 days 0 hours 11 minutes 14 seconds 300 msec
