                         Program Version 4.2.0 -  RELEASE  -
|  1> # ORCA input file
|  2> # SCF done       -158.891323447530          0.000923987013
|  3> ! CAM-B3LYP def2-SVP def2/J RIJCOSX Grid4 TightSCF
|  4> %maxcore 5000
|  5> %tddft
|  6>     Mode sTDDFT
|  7>     Ethresh 5.0
|  8>     maxcore 5000
|  9> end
| 10>
| 11> %pal
| 12>   nprocs 6
| 13>   end
| 14> * xyz 0 1
| 15>    C       -9.03755        -0.63113        -1.32452
| 16>    C       -9.75783        -1.00115        -0.21402
| 17>    C      -11.09558        -1.44511        -0.25288
| 18>    N      -12.18469        -1.80749        -0.21290
| 19>    C       -9.29599        -0.98598         1.11746
| 20>    N       -9.00900        -0.99613         2.23121
| 21>    C       -9.54672        -0.63015        -2.69322
| 22>    C       -8.53863        -0.12617        -3.55109
| 23>    C       -8.70865        -0.00549        -4.90783
| 24>    C       -9.93593        -0.40481        -5.44855
| 25>    C      -10.93794        -0.90684        -4.58547
| 26>    C      -10.76507        -1.02664        -3.21159
| 27>    S      -12.37399        -1.34543        -5.46074
| 28>    C      -11.61796        -0.85549        -6.95342
| 29>    C      -10.35602        -0.38672        -6.80668
| 30>   Br      -12.56558        -1.00957        -8.56481
| 31>    C       -7.34564         0.21042        -2.74987
| 32>    O       -6.30765         0.68580        -3.17338
| 33>    C       -7.67230        -0.15008        -1.36722
| 34>    C       -6.82791        -0.09803        -0.28388
| 35>    C       -5.50591         0.33709        -0.16157
| 36>    S       -4.52538         0.97928        -1.45442
| 37>    C       -3.19857         1.12581        -0.39166
| 38>    C       -3.43300         0.69566         0.88562
| 39>    C       -2.40204         0.78807         1.96215
| 40>    C       -4.76694         0.24197         1.04488
| 41>    C       -5.35082        -0.23095         2.26434
| 42>    C       -4.71124        -0.90541         3.25087
| 43>    C       -5.38195        -1.36154         4.41270
| 44>    C       -4.78558        -2.14768         5.34756
| 45>    C       -5.41699        -2.64187         6.50836
| 46>    S       -4.56548        -3.73594         7.58041
| 47>    C       -5.90381        -3.88992         8.68757
| 48>    C       -6.96640        -3.10663         8.23173
| 49>    C       -6.68718        -2.42363         7.01691
| 50>    S       -8.06910        -1.49528         6.54231
| 51>    C       -8.87469        -2.09502         7.98375
| 52>    N       -8.21076        -2.88718         8.73273
| 53>    C       -5.80968        -4.71442         9.82117
| 54>    C       -6.80856        -4.82878        10.74515
| 55>    C       -6.72885        -5.66365        11.87246
| 56>    S       -8.00952        -5.68257        13.04697
| 57>    C       -7.23648        -6.86186        14.05217
| 58>    C       -6.01126        -7.24436        13.48888
| 59>    C       -5.72199        -6.56684        12.25927
| 60>    N       -4.58605        -6.82059        11.58518
| 61>    C       -3.78164        -7.70549        12.11571
| 62>    C       -4.06779        -8.36697        13.33251
| 63>    N       -5.16006        -8.14304        14.01088
| 64>    C       -7.81311        -7.31685        15.25953
| 65>    S       -9.31827        -6.65652        15.86939
| 66>    C       -9.33005        -7.64245        17.27339
| 67>    C       -8.22700        -8.46007        17.29371
| 68>    C       -7.37510        -8.27330        16.15625
| 69>    O       -6.31523        -9.09980        16.21817
| 70>    C       -6.47091        -9.80370        17.36741
| 71>    N       -5.48188       -10.76630        17.69355
| 72>    O       -5.64873       -11.37779        18.73259
| 73>    O       -4.55360       -10.91420        16.93129
| 74>    C       -7.59863        -9.47342        18.06895
| 75>    H       -7.91992         0.38221        -5.53329
| 76>    H      -11.55972        -1.41810        -2.59891
| 77>    H       -9.74481        -0.04294        -7.62108
| 78>    H       -7.24406        -0.47729         0.63895
| 79>    H       -2.27553         1.53437        -0.75785
| 80>    H       -1.66139         1.54018         1.70064
| 81>    H       -1.88348        -0.16266         2.08398
| 82>    H       -2.86132         1.05562         2.91123
| 83>    H       -6.41335        -0.06865         2.39444
| 84>    H       -3.67056        -1.17446         3.14955
| 85>    H       -6.41989        -1.08113         4.52910
| 86>    H       -3.75431        -2.44626         5.21125
| 87>    H       -9.88048        -1.78812         8.19380
| 88>    H       -4.89878        -5.27904         9.95673
| 89>    H       -7.71204        -4.24805        10.61846
| 90>    H       -2.87044        -7.91070        11.57083
| 91>    H       -3.38605        -9.09297        13.75191
| 92>    H      -10.12906        -7.56240        17.98039
| 93>    H       -7.91564        -9.90106        18.99727
| 94> *
| 95>
| 96>                          ****END OF INPUT****

CARTESIAN COORDINATES (ANGSTROEM)
---------------------------------
  C     -9.037550   -0.631130   -1.324520
  C     -9.757830   -1.001150   -0.214020
  C    -11.095580   -1.445110   -0.252880
  N    -12.184690   -1.807490   -0.212900
  C     -9.295990   -0.985980    1.117460
  N     -9.009000   -0.996130    2.231210
  C     -9.546720   -0.630150   -2.693220
  C     -8.538630   -0.126170   -3.551090
  C     -8.708650   -0.005490   -4.907830
  C     -9.935930   -0.404810   -5.448550
  C    -10.937940   -0.906840   -4.585470
  C    -10.765070   -1.026640   -3.211590
  S    -12.373990   -1.345430   -5.460740
  C    -11.617960   -0.855490   -6.953420
  C    -10.356020   -0.386720   -6.806680
  Br   -12.565580   -1.009570   -8.564810
  C     -7.345640    0.210420   -2.749870
  O     -6.307650    0.685800   -3.173380
  C     -7.672300   -0.150080   -1.367220
  C     -6.827910   -0.098030   -0.283880
  C     -5.505910    0.337090   -0.161570
  S     -4.525380    0.979280   -1.454420
  C     -3.198570    1.125810   -0.391660
  C     -3.433000    0.695660    0.885620
  C     -2.402040    0.788070    1.962150
  C     -4.766940    0.241970    1.044880
  C     -5.350820   -0.230950    2.264340
  C     -4.711240   -0.905410    3.250870
  C     -5.381950   -1.361540    4.412700
  C     -4.785580   -2.147680    5.347560
  C     -5.416990   -2.641870    6.508360
  S     -4.565480   -3.735940    7.580410
  C     -5.903810   -3.889920    8.687570
  C     -6.966400   -3.106630    8.231730
  C     -6.687180   -2.423630    7.016910
  S     -8.069100   -1.495280    6.542310
  C     -8.874690   -2.095020    7.983750
  N     -8.210760   -2.887180    8.732730
  C     -5.809680   -4.714420    9.821170
  C     -6.808560   -4.828780   10.745150
  C     -6.728850   -5.663650   11.872460
  S     -8.009520   -5.682570   13.046970
  C     -7.236480   -6.861860   14.052170
  C     -6.011260   -7.244360   13.488880
  C     -5.721990   -6.566840   12.259270
  N     -4.586050   -6.820590   11.585180
  C     -3.781640   -7.705490   12.115710
  C     -4.067790   -8.366970   13.332510
  N     -5.160060   -8.143040   14.010880
  C     -7.813110   -7.316850   15.259530
  S     -9.318270   -6.656520   15.869390
  C     -9.330050   -7.642450   17.273390
  C     -8.227000   -8.460070   17.293710
  C     -7.375100   -8.273300   16.156250
  O     -6.315230   -9.099800   16.218170
  C     -6.470910   -9.803700   17.367410
  N     -5.481880  -10.766300   17.693550
  O     -5.648730  -11.377790   18.732590
  O     -4.553600  -10.914200   16.931290
  C     -7.598630   -9.473420   18.068950
  H     -7.919920    0.382210   -5.533290
  H    -11.559720   -1.418100   -2.598910
  H     -9.744810   -0.042940   -7.621080
  H     -7.244060   -0.477290    0.638950
  H     -2.275530    1.534370   -0.757850
  H     -1.661390    1.540180    1.700640
  H     -1.883480   -0.162660    2.083980
  H     -2.861320    1.055620    2.911230
  H     -6.413350   -0.068650    2.394440
  H     -3.670560   -1.174460    3.149550
  H     -6.419890   -1.081130    4.529100
  H     -3.754310   -2.446260    5.211250
  H     -9.880480   -1.788120    8.193800
  H     -4.898780   -5.279040    9.956730
  H     -7.712040   -4.248050   10.618460
  H     -2.870440   -7.910700   11.570830
  H     -3.386050   -9.092970   13.751910
  H    -10.129060   -7.562400   17.980390
  H     -7.915640   -9.901060   18.997270

 Total Charge           Charge          ....    0
 Multiplicity           Mult            ....    1
 Number of Electrons    NEL             ....  482
 Basis Dimension        Dim             ....  977

ORBITAL ENERGIES
----------------

  NO   OCC          E(Eh)            E(eV)
   0   2.0000    -482.883461    -13139.9270
   1   2.0000     -88.977270     -2421.1946
   2   2.0000     -88.976908     -2421.1848
   3   2.0000     -88.972725     -2421.0709
   4   2.0000     -88.961939     -2420.7774
   5   2.0000     -88.961615     -2420.7686
   6   2.0000     -88.956561     -2420.6311
   7   2.0000     -62.561170     -1702.3760
   8   2.0000     -56.395118     -1534.5892
   9   2.0000     -56.392408     -1534.5154
  10   2.0000     -56.392371     -1534.5144
  11   2.0000     -19.300106      -525.1826
  12   2.0000     -19.241946      -523.6000
  13   2.0000     -19.238979      -523.5192
  14   2.0000     -19.214174      -522.8443
  15   2.0000     -14.652795      -398.7228
  16   2.0000     -14.425275      -392.5317
  17   2.0000     -14.419267      -392.3682
  18   2.0000     -14.417055      -392.3080
  19   2.0000     -14.416579      -392.2950
  20   2.0000     -14.409584      -392.1047
  21   2.0000     -10.382794      -282.5302
  22   2.0000     -10.363089      -281.9940
  23   2.0000     -10.356261      -281.8082
  24   2.0000     -10.346816      -281.5512
  25   2.0000     -10.337785      -281.3054
  26   2.0000     -10.337559      -281.2993
  27   2.0000     -10.335390      -281.2403
  28   2.0000     -10.323471      -280.9159
  29   2.0000     -10.322009      -280.8761
  30   2.0000     -10.320574      -280.8371
  31   2.0000     -10.317443      -280.7519
  32   2.0000     -10.316628      -280.7297
  33   2.0000     -10.315944      -280.7111
  34   2.0000     -10.313556      -280.6461
  35   2.0000     -10.313533      -280.6455
  36   2.0000     -10.313170      -280.6356
  37   2.0000     -10.313158      -280.6353
  38   2.0000     -10.310996      -280.5765
  39   2.0000     -10.309176      -280.5269
  40   2.0000     -10.308438      -280.5069
  41   2.0000     -10.308181      -280.4999
  42   2.0000     -10.307571      -280.4833
  43   2.0000     -10.306482      -280.4536
  44   2.0000     -10.305352      -280.4229
  45   2.0000     -10.304301      -280.3943
  46   2.0000     -10.303828      -280.3814
  47   2.0000     -10.303690      -280.3777
  48   2.0000     -10.301838      -280.3273
  49   2.0000     -10.297406      -280.2067
  50   2.0000     -10.297402      -280.2065
  51   2.0000     -10.297138      -280.1994
  52   2.0000     -10.296598      -280.1847
  53   2.0000     -10.294166      -280.1185
  54   2.0000     -10.289336      -279.9871
  55   2.0000     -10.288703      -279.9698
  56   2.0000     -10.288084      -279.9530
  57   2.0000     -10.283890      -279.8389
  58   2.0000     -10.283336      -279.8238
  59   2.0000     -10.277938      -279.6769
  60   2.0000     -10.277434      -279.6632
  61   2.0000     -10.275971      -279.6234
  62   2.0000     -10.275082      -279.5992
  63   2.0000     -10.271845      -279.5111
  64   2.0000      -8.790596      -239.2043
  65   2.0000      -8.072282      -219.6580
  66   2.0000      -8.071750      -219.6435
  67   2.0000      -8.068705      -219.5606
  68   2.0000      -8.057346      -219.2515
  69   2.0000      -8.057022      -219.2427
  70   2.0000      -8.050765      -219.0725
  71   2.0000      -6.626899      -180.3271
  72   2.0000      -6.612324      -179.9305
  73   2.0000      -6.612134      -179.9253
  74   2.0000      -6.041695      -164.4029
  75   2.0000      -6.040709      -164.3760
  76   2.0000      -6.038395      -164.3131
  77   2.0000      -6.037257      -164.2821
  78   2.0000      -6.036721      -164.2675
  79   2.0000      -6.034560      -164.2087
  80   2.0000      -6.034539      -164.2082
  81   2.0000      -6.034116      -164.1966
  82   2.0000      -6.029939      -164.0830
  83   2.0000      -6.026855      -163.9991
  84   2.0000      -6.026263      -163.9829
  85   2.0000      -6.022660      -163.8849
  86   2.0000      -6.022308      -163.8753
  87   2.0000      -6.020033      -163.8134
  88   2.0000      -6.019157      -163.7896
  89   2.0000      -6.018909      -163.7828
  90   2.0000      -6.015466      -163.6892
  91   2.0000      -6.013231      -163.6283
  92   2.0000      -2.742743       -74.6338
  93   2.0000      -2.738709       -74.5240
  94   2.0000      -2.738528       -74.5191
  95   2.0000      -2.726963       -74.2044
  96   2.0000      -2.726943       -74.2039
  97   2.0000      -1.324662       -36.0459
  98   2.0000      -1.224760       -33.3274
  99   2.0000      -1.141024       -31.0488
 100   2.0000      -1.129456       -30.7341
 101   2.0000      -1.078654       -29.3517
 102   2.0000      -1.069440       -29.1009
 103   2.0000      -1.019704       -27.7475
 104   2.0000      -1.011209       -27.5164
 105   2.0000      -1.004869       -27.3439
 106   2.0000      -0.999202       -27.1897
 107   2.0000      -0.991980       -26.9932
 108   2.0000      -0.991595       -26.9827
 109   2.0000      -0.984777       -26.7971
 110   2.0000      -0.979111       -26.6430
 111   2.0000      -0.976577       -26.5740
 112   2.0000      -0.939279       -25.5591
 113   2.0000      -0.930485       -25.3198
 114   2.0000      -0.921698       -25.0807
 115   2.0000      -0.906587       -24.6695
 116   2.0000      -0.905215       -24.6322
 117   2.0000      -0.900687       -24.5089
 118   2.0000      -0.892234       -24.2789
 119   2.0000      -0.882540       -24.0151
 120   2.0000      -0.880887       -23.9701
 121   2.0000      -0.875025       -23.8107
 122   2.0000      -0.870517       -23.6880
 123   2.0000      -0.853218       -23.2172
 124   2.0000      -0.851519       -23.1710
 125   2.0000      -0.840342       -22.8669
 126   2.0000      -0.827497       -22.5173
 127   2.0000      -0.824812       -22.4443
 128   2.0000      -0.819708       -22.3054
 129   2.0000      -0.804257       -21.8849
 130   2.0000      -0.785864       -21.3844
 131   2.0000      -0.780743       -21.2451
 132   2.0000      -0.767695       -20.8900
 133   2.0000      -0.757790       -20.6205
 134   2.0000      -0.751447       -20.4479
 135   2.0000      -0.747626       -20.3439
 136   2.0000      -0.731807       -19.9135
 137   2.0000      -0.721194       -19.6247
 138   2.0000      -0.709254       -19.2998
 139   2.0000      -0.705216       -19.1899
 140   2.0000      -0.703305       -19.1379
 141   2.0000      -0.692444       -18.8424
 142   2.0000      -0.687466       -18.7069
 143   2.0000      -0.684008       -18.6128
 144   2.0000      -0.667399       -18.1609
 145   2.0000      -0.660861       -17.9829
 146   2.0000      -0.655294       -17.8315
 147   2.0000      -0.647268       -17.6130
 148   2.0000      -0.640092       -17.4178
 149   2.0000      -0.638015       -17.3613
 150   2.0000      -0.637706       -17.3529
 151   2.0000      -0.637546       -17.3485
 152   2.0000      -0.625220       -17.0131
 153   2.0000      -0.619157       -16.8481
 154   2.0000      -0.616618       -16.7790
 155   2.0000      -0.612328       -16.6623
 156   2.0000      -0.607006       -16.5175
 157   2.0000      -0.599495       -16.3131
 158   2.0000      -0.595271       -16.1982
 159   2.0000      -0.589936       -16.0530
 160   2.0000      -0.583879       -15.8881
 161   2.0000      -0.582276       -15.8445
 162   2.0000      -0.568398       -15.4669
 163   2.0000      -0.563171       -15.3247
 164   2.0000      -0.560620       -15.2552
 165   2.0000      -0.557757       -15.1773
 166   2.0000      -0.552135       -15.0244
 167   2.0000      -0.548232       -14.9181
 168   2.0000      -0.546780       -14.8786
 169   2.0000      -0.540173       -14.6989
 170   2.0000      -0.537667       -14.6307
 171   2.0000      -0.532424       -14.4880
 172   2.0000      -0.530972       -14.4485
 173   2.0000      -0.529128       -14.3983
 174   2.0000      -0.528074       -14.3696
 175   2.0000      -0.523025       -14.2322
 176   2.0000      -0.521518       -14.1912
 177   2.0000      -0.519337       -14.1319
 178   2.0000      -0.514116       -13.9898
 179   2.0000      -0.511938       -13.9305
 180   2.0000      -0.505831       -13.7644
 181   2.0000      -0.505461       -13.7543
 182   2.0000      -0.502520       -13.6743
 183   2.0000      -0.500098       -13.6083
 184   2.0000      -0.494133       -13.4460
 185   2.0000      -0.492349       -13.3975
 186   2.0000      -0.489497       -13.3199
 187   2.0000      -0.488036       -13.2801
 188   2.0000      -0.484128       -13.1738
 189   2.0000      -0.474122       -12.9015
 190   2.0000      -0.473268       -12.8783
 191   2.0000      -0.469651       -12.7799
 192   2.0000      -0.466407       -12.6916
 193   2.0000      -0.463388       -12.6094
 194   2.0000      -0.457857       -12.4589
 195   2.0000      -0.455320       -12.3899
 196   2.0000      -0.453943       -12.3524
 197   2.0000      -0.451555       -12.2874
 198   2.0000      -0.451071       -12.2743
 199   2.0000      -0.448490       -12.2040
 200   2.0000      -0.444442       -12.0939
 201   2.0000      -0.444058       -12.0834
 202   2.0000      -0.443286       -12.0624
 203   2.0000      -0.440379       -11.9833
 204   2.0000      -0.436303       -11.8724
 205   2.0000      -0.433499       -11.7961
 206   2.0000      -0.430728       -11.7207
 207   2.0000      -0.426186       -11.5971
 208   2.0000      -0.424956       -11.5636
 209   2.0000      -0.424069       -11.5395
 210   2.0000      -0.422305       -11.4915
 211   2.0000      -0.420161       -11.4332
 212   2.0000      -0.415129       -11.2962
 213   2.0000      -0.413682       -11.2569
 214   2.0000      -0.407091       -11.0775
 215   2.0000      -0.400833       -10.9072
 216   2.0000      -0.395925       -10.7737
 217   2.0000      -0.391146       -10.6436
 218   2.0000      -0.387489       -10.5441
 219   2.0000      -0.386248       -10.5103
 220   2.0000      -0.382515       -10.4088
 221   2.0000      -0.378294       -10.2939
 222   2.0000      -0.377543       -10.2735
 223   2.0000      -0.372900       -10.1471
 224   2.0000      -0.368882       -10.0378
 225   2.0000      -0.360414        -9.8074
 226   2.0000      -0.352020        -9.5789
 227   2.0000      -0.350667        -9.5421
 228   2.0000      -0.342698        -9.3253
 229   2.0000      -0.331911        -9.0317
 230   2.0000      -0.329383        -8.9630
 231   2.0000      -0.327177        -8.9029
 232   2.0000      -0.316492        -8.6122
 233   2.0000      -0.315116        -8.5747
 234   2.0000      -0.312923        -8.5151
 235   2.0000      -0.311769        -8.4837
 236   2.0000      -0.299437        -8.1481
 237   2.0000      -0.291985        -7.9453
 238   2.0000      -0.280646        -7.6368
 239   2.0000      -0.257951        -7.0192
 240   2.0000      -0.216220        -5.8836
 241   0.0000      -0.093260        -2.5377
 242   0.0000      -0.080255        -2.1839
 243   0.0000      -0.059217        -1.6114
 244   0.0000      -0.055186        -1.5017
 245   0.0000      -0.035867        -0.9760

MULLIKEN ATOMIC CHARGES
-----------------------
   0 C :    0.324158
   1 C :   -0.362612
   2 C :   -0.188999
   3 N :    0.146827
   4 C :   -0.178345
   5 N :    0.131302
   6 C :    0.007364
   7 C :   -0.011517
   8 C :   -0.075111
   9 C :    0.117231
  10 C :   -0.093062
  11 C :   -0.019140
  12 S :    0.184660
  13 C :   -0.123509
  14 C :    0.040442
  15 Br:    0.020971
  16 C :    0.149990
  17 O :   -0.171026
  18 C :   -0.099525
  19 C :   -0.019368
  20 C :   -0.114370
  21 S :    0.198744
  22 C :   -0.088381
  23 C :   -0.096751
  24 C :    0.109678
  25 C :    0.137147
  26 C :   -0.074939
  27 C :    0.021893
  28 C :   -0.008800
  29 C :    0.063240
  30 C :   -0.194772
  31 S :    0.153466
  32 C :   -0.137442
  33 C :    0.072241
  34 C :   -0.009976
  35 S :    0.108389
  36 C :    0.026648
  37 N :   -0.053886
  38 C :    0.020549
  39 C :    0.020852
  40 C :   -0.146144
  41 S :    0.188141
  42 C :   -0.116344
  43 C :    0.006685
  44 C :    0.037094
  45 N :   -0.012997
  46 C :    0.029645
  47 C :    0.020184
  48 N :    0.002624
  49 C :   -0.211001
  50 S :    0.152320
  51 C :   -0.140150
  52 C :    0.122234
  53 C :    0.190365
  54 O :   -0.151631
  55 C :    0.239918
  56 N :    0.269354
  57 O :   -0.250946
  58 O :   -0.226704
  59 C :   -0.079981
  60 H :   -0.012181
  61 H :   -0.007130
  62 H :   -0.005040
  63 H :   -0.014725
  64 H :    0.019587
  65 H :    0.011547
  66 H :    0.036024
  67 H :    0.033470
  68 H :    0.023379
  69 H :   -0.015008
  70 H :    0.005898
  71 H :   -0.022841
  72 H :    0.044259
  73 H :   -0.015269
  74 H :   -0.013370
  75 H :    0.009989
  76 H :    0.021193
  77 H :    0.033301
  78 H :    0.009992
Sum of atomic charges:   -0.0000000

LOEWDIN ATOMIC CHARGES
----------------------
   0 C :    0.081218
   1 C :   -0.153960
   2 C :   -0.018991
   3 N :   -0.061221
   4 C :   -0.014866
   5 N :   -0.068038
   6 C :   -0.021160
   7 C :   -0.048826
   8 C :    0.020132
   9 C :   -0.033456
  10 C :   -0.145245
  11 C :   -0.009767
  12 S :    0.431183
  13 C :   -0.272503
  14 C :   -0.070376
  15 Br:    0.134724
  16 C :    0.080524
  17 O :   -0.165033
  18 C :   -0.117556
  19 C :    0.059689
  20 C :   -0.193266
  21 S :    0.509256
  22 C :   -0.166140
  23 C :   -0.066623
  24 C :   -0.046608
  25 C :   -0.013962
  26 C :   -0.038045
  27 C :   -0.000944
  28 C :   -0.031542
  29 C :   -0.034664
  30 C :   -0.199010
  31 S :    0.455288
  32 C :   -0.166693
  33 C :   -0.067589
  34 C :   -0.198319
  35 S :    0.402039
  36 C :   -0.095223
  37 N :   -0.084968
  38 C :   -0.033960
  39 C :   -0.034492
  40 C :   -0.175215
  41 S :    0.489843
  42 C :   -0.207936
  43 C :   -0.048208
  44 C :   -0.047800
  45 N :   -0.034442
  46 C :    0.004905
  47 C :    0.006003
  48 N :   -0.024319
  49 C :   -0.214328
  50 S :    0.467160
  51 C :   -0.187721
  52 C :   -0.080791
  53 C :    0.024347
  54 O :    0.025133
  55 C :    0.026259
  56 N :    0.272012
  57 O :   -0.212156
  58 O :   -0.189688
  59 C :   -0.014663
  60 H :    0.040330
  61 H :    0.040874
  62 H :    0.038365
  63 H :    0.046406
  64 H :    0.024237
  65 H :    0.033306
  66 H :    0.034768
  67 H :    0.036493
  68 H :    0.034456
  69 H :    0.028187
  70 H :    0.023816
  71 H :    0.028364
  72 H :    0.021399
  73 H :    0.028242
  74 H :    0.029970
  75 H :    0.025991
  76 H :    0.030195
  77 H :    0.029533
  78 H :    0.045665

  Mayer bond orders larger than 0.100000
B(  0-C ,  1-C ) :   1.5986 B(  0-C ,  6-C ) :   0.9964 B(  0-C , 18-C ) :   1.0984
B(  1-C ,  2-C ) :   1.1471 B(  1-C ,  4-C ) :   1.1518 B(  2-C ,  3-N ) :   2.9672
B(  4-C ,  5-N ) :   2.9547 B(  6-C ,  7-C ) :   1.2779 B(  6-C , 11-C ) :   1.4138
B(  7-C ,  8-C ) :   1.4293 B(  7-C , 16-C ) :   0.9496 B(  8-C ,  9-C ) :   1.2379
B(  8-C , 60-H ) :   1.0167 B(  9-C , 10-C ) :   1.3122 B(  9-C , 14-C ) :   1.1636
B( 10-C , 11-C ) :   1.3267 B( 10-C , 12-S ) :   1.0845 B( 11-C , 61-H ) :   0.9784
B( 12-S , 13-C ) :   1.0875 B( 13-C , 14-C ) :   1.6181 B( 13-C , 15-Br) :   1.0166
B( 14-C , 62-H ) :   1.0000 B( 16-C , 17-O ) :   2.1625 B( 16-C , 18-C ) :   0.9681
B( 18-C , 19-C ) :   1.4984 B( 19-C , 20-C ) :   1.3109 B( 19-C , 63-H ) :   0.9253
B( 20-C , 21-S ) :   1.1015 B( 20-C , 25-C ) :   1.3001 B( 21-S , 22-C ) :   1.1811
B( 22-C , 23-C ) :   1.5129 B( 22-C , 64-H ) :   0.9648 B( 23-C , 24-C ) :   1.0878
B( 23-C , 25-C ) :   1.3043 B( 24-C , 65-H ) :   0.9475 B( 24-C , 66-H ) :   0.9419
B( 24-C , 67-H ) :   0.9460 B( 25-C , 26-C ) :   1.0868 B( 26-C , 27-C ) :   1.6501
B( 26-C , 68-H ) :   0.9502 B( 27-C , 28-C ) :   1.1532 B( 27-C , 69-H ) :   0.9915
B( 28-C , 29-C ) :   1.6125 B( 28-C , 70-H ) :   0.9818 B( 29-C , 30-C ) :   1.1566
B( 29-C , 71-H ) :   0.9620 B( 30-C , 31-S ) :   1.1080 B( 30-C , 32-C ) :   0.1053
B( 30-C , 34-C ) :   1.4792 B( 31-S , 32-C ) :   1.1339 B( 32-C , 33-C ) :   1.3748
B( 32-C , 38-C ) :   1.1660 B( 33-C , 34-C ) :   1.2729 B( 33-C , 37-N ) :   1.2980
B( 34-C , 35-S ) :   1.0626 B( 35-S , 36-C ) :   1.0928 B( 35-S , 37-N ) :   0.1046
B( 36-C , 37-N ) :   1.7716 B( 36-C , 72-H ) :   0.9636 B( 38-C , 39-C ) :   1.6299
B( 38-C , 73-H ) :   0.9420 B( 39-C , 40-C ) :   1.1825 B( 39-C , 74-H ) :   0.9387
B( 40-C , 41-S ) :   1.1465 B( 40-C , 42-C ) :   0.1477 B( 40-C , 44-C ) :   1.3225
B( 41-S , 42-C ) :   1.1702 B( 42-C , 43-C ) :   1.3670 B( 42-C , 49-C ) :   1.1502
B( 43-C , 44-C ) :   1.2114 B( 43-C , 48-N ) :   1.4464 B( 44-C , 45-N ) :   1.4092
B( 45-N , 46-C ) :   1.6824 B( 46-C , 47-C ) :   1.1808 B( 46-C , 75-H ) :   0.9747
B( 47-C , 48-N ) :   1.6858 B( 47-C , 76-H ) :   0.9754 B( 49-C , 50-S ) :   1.1404
B( 49-C , 51-C ) :   0.1284 B( 49-C , 53-C ) :   1.4966 B( 50-S , 51-C ) :   1.1713
B( 51-C , 52-C ) :   1.4397 B( 51-C , 77-H ) :   0.9768 B( 52-C , 53-C ) :   1.2125
B( 52-C , 59-C ) :   1.0596 B( 53-C , 54-O ) :   1.1325 B( 54-O , 55-C ) :   1.1403
B( 55-C , 56-N ) :   0.9104 B( 55-C , 59-C ) :   1.5714 B( 56-N , 57-O ) :   1.5323
B( 56-N , 58-O ) :   1.5232 B( 57-O , 58-O ) :   0.2800 B( 59-C , 78-H ) :   1.0247

-----------------------------------------------------------------------------
         ABSORPTION SPECTRUM VIA TRANSITION ELECTRIC DIPOLE MOMENTS
-----------------------------------------------------------------------------
State   Energy  Wavelength   fosc         T2         TX        TY        TZ
        (cm-1)    (nm)                  (au**2)     (au)      (au)      (au)
-----------------------------------------------------------------------------
   0   13475.5    742.1   1.619961349  39.57630  -0.13846   2.60708  -5.72366
   1   16375.9    610.7   0.123430931   2.48138   1.23993   0.85158  -0.46772
   2   20494.4    487.9   0.024730089   0.39725  -0.31940   0.50548  -0.19932
   3   22508.9    444.3   0.302599062   4.42577  -1.48667  -1.03897   1.06589
   4   22785.0    438.9   0.393831127   5.69031  -1.20815   0.56762  -1.97699
   5   24424.5    409.4   0.118729173   1.60032   0.71648  -0.46045   0.93540
   6   24896.5    401.7   0.261511058   3.45802   1.40015   1.16695  -0.36855
   7   26427.3    378.4   0.002448762   0.03050   0.03053   0.10148   0.13884
   8   26864.1    372.2   0.124029199   1.51994   1.03802   0.39772  -0.53318
   9   27973.7    357.5   0.175772517   2.06860   0.74617   0.12541   1.22315
  10   29364.3    340.5   0.056387745   0.63218  -0.26427   0.03420  -0.74912
  11   29541.2    338.5   0.239067256   2.66420  -0.79345  -0.33492  -1.38653
  12   30171.2    331.4   0.047700890   0.52049  -0.08383   0.12497  -0.70558
  13   30740.4    325.3   0.092263303   0.98809   0.00866  -0.06205   0.99205
  14   30970.8    322.9   0.145257669   1.54405   0.94307  -0.23588   0.77397
  15   31445.5    318.0   0.122222460   1.27958  -0.55930  -0.37288   0.90979
  16   32478.9    307.9   0.043820957   0.44418  -0.04178   0.11293  -0.65550
  17   32560.2    307.1   0.047431106   0.47957   0.55159   0.14956  -0.39108
  18   32740.7    305.4   0.262749746   2.64198   1.47361   0.00014  -0.68590
  19   33382.1    299.6   0.043624587   0.43022   0.55953  -0.14146   0.31166
  20   33829.9    295.6   0.190911865   1.85784   0.00610   0.21995   1.34515
  21   33908.3    294.9   0.312742469   3.03638   0.03472   0.60124  -1.63514
  22   34045.3    293.7   0.021168831   0.20470  -0.06014  -0.42282   0.14935
  23   34799.0    287.4   0.110291741   1.04340   0.58983   0.30738  -0.77525
  24   35059.7    285.2   0.003332185   0.03129   0.11237   0.06182  -0.12182
  25   35277.1    283.5   0.076012670   0.70936   0.37758  -0.15841   0.73601
  26   35928.8    278.3   0.088999564   0.81549   0.70616   0.13400  -0.54670
  27   36399.9    274.7   0.001255109   0.01135   0.00076   0.09376  -0.05060
  28   37014.4    270.2   0.013923922   0.12384  -0.26442  -0.04868   0.22706
  29   37743.7    264.9   0.003652511   0.03186   0.15251  -0.08179   0.04369
  30   38018.5    263.0   0.007422381   0.06427   0.08865  -0.22815   0.06601
  31   38119.2    262.3   0.019061797   0.16462   0.20949   0.15714  -0.30992
  32   38447.2    260.1   0.029403183   0.25177  -0.31624   0.38603  -0.05238
  33   38529.1    259.5   0.003960345   0.03384  -0.13831  -0.02637  -0.11838
  34   38823.9    257.6   0.090915675   0.77093   0.81678   0.31684   0.05845
  35   39067.6    256.0   0.497581694   4.19298  -1.61429   1.25535   0.10551
  36   39592.3    252.6   0.031695864   0.26355   0.19504   0.46536   0.09464
  37   39605.7    252.5   0.026501974   0.22029  -0.00363   0.46874  -0.02371
  38   39828.5    251.1   0.362909333   2.99971   1.66181  -0.44073   0.20941
  39   40160.8    249.0   0.010245212   0.08398  -0.13080  -0.17667   0.18884

FINAL SINGLE POINT ENERGY     -7238.745044427438

DIPOLE MOMENT
-------------
                                X             Y             Z
Electronic contribution:    -76.22158       9.44887    -130.32732
Nuclear contribution   :     76.83827      -7.93001     129.38297
                        -----------------------------------------
Total Dipole Moment    :      0.61669       1.51886      -0.94435
                        -----------------------------------------
Magnitude (a.u.)       :      1.89184
Magnitude (Debye)      :      4.80866

Rotational constants in cm-1:     0.002130     0.000206     0.000194
Rotational constants in MHz :    63.843613     6.165333     5.811273

                             ****ORCA TERMINATED NORMALLY****
TOTAL RUN TIME: 0 days 0 hours 6 minutes 57 seconds 744 msec
