                         Program Version 4.2.0 -  RELEASE  -
|  1> # ORCA input file
|  2> # SCF done       -181.891153779199          0.000525967156
|  3> ! CAM-B3LYP def2-SVP def2/J RIJCOSX Grid4 TightSCF
|  4> %maxcore 5000
|  5> %tddft
|  6>     Mode sTDDFT
|  7>     Ethresh 5.0
|  8>     maxcore 5000
|  9> end
| 10>
| 11> %pal
| 12>   nprocs 6
| 13>   end
| 14> * xyz 0 1
| 15>    C       -2.90465        -0.87782         0.40519
| 16>    C       -3.05665        -1.96727         1.22700
| 17>    C       -2.44266        -3.21677         1.00897
| 18>    N       -1.96908        -4.25626         0.88829
| 19>    C       -3.82352        -1.99066         2.40924
| 20>    N       -4.42387        -2.08865         3.38381
| 21>    C       -2.11253        -0.84855        -0.82097
| 22>    C       -2.14556         0.46119        -1.35766
| 23>    C       -1.49095         0.80465        -2.51410
| 24>    C       -0.78294        -0.19706        -3.18713
| 25>    C       -0.75827        -1.50369        -2.64619
| 26>    C       -1.40936        -1.84830        -1.46838
| 27>    S        0.17929        -2.58618        -3.63288
| 28>    C        0.51816        -1.28529        -4.74284
| 29>    C       -0.03944        -0.10148        -4.39561
| 30>   Br        1.57673        -1.61191        -6.25743
| 31>    C       -2.93433         1.33402        -0.46140
| 32>    O       -2.94036         2.54645        -0.47314
| 33>    C       -3.52145         0.42244         0.55627
| 34>    C       -4.45525         0.80017         1.47502
| 35>    C       -5.26847         1.96457         1.34266
| 36>    C       -5.79286         2.62415         2.45218
| 37>    C       -6.55336         3.77307         2.34216
| 38>    C       -6.85917         4.33852         1.10089
| 39>    C       -6.46026         3.59709        -0.05550
| 40>    C       -5.67911         2.42424         0.05552
| 41>    N       -5.40439         1.70587        -1.04557
| 42>    C       -5.78563         2.14405        -2.21731
| 43>    C       -6.49884         3.36847        -2.33805
| 44>    N       -6.83742         4.03466        -1.26321
| 45>    C       -6.91809         3.91848        -3.65829
| 46>    C       -5.45632         1.30628        -3.40755
| 47>    C       -7.58284         5.54747         0.91921
| 48>    S       -8.37857         5.84501        -0.58617
| 49>    C       -9.15293         7.29642        -0.00807
| 50>    C       -8.76716         7.56378         1.32958
| 51>    C       -7.84041         6.59612         1.82920
| 52>    C       -7.25548         6.78916         3.09463
| 53>    C       -7.68095         7.82278         3.88286
| 54>    F       -7.14011         7.99956         5.09813
| 55>    C       -8.70192         8.68367         3.44564
| 56>    F       -9.16067         9.63963         4.27730
| 57>    C       -9.22592         8.57811         2.18631
| 58>    C       -9.98179         7.98672        -0.90025
| 59>    C      -10.43301         9.27733        -0.75276
| 60>    C      -11.33490         9.93178        -1.58672
| 61>    C      -11.75069        11.22422        -1.30889
| 62>    C      -12.67999        12.04099        -1.98445
| 63>    C      -12.88668        13.26254        -1.39729
| 64>    C      -12.12264        13.46286        -0.23446
| 65>    S      -11.13286        12.06554         0.09538
| 66>    C      -12.02939        14.53135         0.64870
| 67>    C      -12.67366        15.78167         0.69722
| 68>    C      -12.28211        16.55461         1.75416
| 69>    C      -11.30195        15.95532         2.58696
| 70>    S      -10.91310        14.36508         1.97702
| 71>    C      -10.73203        16.49971         3.71318
| 72>    C       -9.73389        15.92031         4.52174
| 73>    S       -9.23799        16.73696         6.00134
| 74>    C       -8.07277        15.55094         6.43040
| 75>    C       -8.04142        14.55046         5.48761
| 76>    C       -8.97361        14.76333         4.42385
| 77>    O       -8.87961        13.76804         3.51847
| 78>    C       -7.91998        12.92849         3.98245
| 79>    N       -7.62495        11.79593         3.18822
| 80>    O       -6.70738        11.08758         3.55616
| 81>    O       -8.29400        11.60896         2.19256
| 82>    C       -7.36896        13.33746         5.16681
| 83>    H       -1.52577         1.81495        -2.89068
| 84>    H       -1.35409        -2.85688        -1.09437
| 85>    H        0.07057         0.80350        -4.96479
| 86>    H       -4.64305         0.17864         2.34056
| 87>    H       -5.56246         2.24019         3.43561
| 88>    H       -6.94679         4.21765         3.24100
| 89>    H       -6.04417         4.12354        -4.27477
| 90>    H       -7.47357         4.83855        -3.50267
| 91>    H       -7.54306         3.20188        -4.18906
| 92>    H       -4.83087         1.86716        -4.10035
| 93>    H       -6.36462         1.01492        -3.93297
| 94>    H       -4.92431         0.41497        -3.08623
| 95>    H       -6.45242         6.16516         3.44669
| 96>    H       -9.99141         9.27477         1.89465
| 97>    H      -10.25358         7.44717        -1.79998
| 98>    H      -10.04257         9.86293         0.06598
| 99>    H      -11.75061         9.42508        -2.44682
|100>    H      -13.17616        11.71062        -2.88038
|101>    H      -13.56314        14.00972        -1.77321
|102>    H      -13.40165        16.08071        -0.03604
|103>    H      -12.66256        17.53984         1.95912
|104>    H      -11.08462        17.47276         4.02696
|105>    H       -7.49633        15.66110         7.32473
|106>    H       -6.60050        12.83320         5.71482
|107> *
|108>
|109>                          ****END OF INPUT****

CARTESIAN COORDINATES (ANGSTROEM)
---------------------------------
  C     -2.904650   -0.877820    0.405190
  C     -3.056650   -1.967270    1.227000
  C     -2.442660   -3.216770    1.008970
  N     -1.969080   -4.256260    0.888290
  C     -3.823520   -1.990660    2.409240
  N     -4.423870   -2.088650    3.383810
  C     -2.112530   -0.848550   -0.820970
  C     -2.145560    0.461190   -1.357660
  C     -1.490950    0.804650   -2.514100
  C     -0.782940   -0.197060   -3.187130
  C     -0.758270   -1.503690   -2.646190
  C     -1.409360   -1.848300   -1.468380
  S      0.179290   -2.586180   -3.632880
  C      0.518160   -1.285290   -4.742840
  C     -0.039440   -0.101480   -4.395610
  Br     1.576730   -1.611910   -6.257430
  C     -2.934330    1.334020   -0.461400
  O     -2.940360    2.546450   -0.473140
  C     -3.521450    0.422440    0.556270
  C     -4.455250    0.800170    1.475020
  C     -5.268470    1.964570    1.342660
  C     -5.792860    2.624150    2.452180
  C     -6.553360    3.773070    2.342160
  C     -6.859170    4.338520    1.100890
  C     -6.460260    3.597090   -0.055500
  C     -5.679110    2.424240    0.055520
  N     -5.404390    1.705870   -1.045570
  C     -5.785630    2.144050   -2.217310
  C     -6.498840    3.368470   -2.338050
  N     -6.837420    4.034660   -1.263210
  C     -6.918090    3.918480   -3.658290
  C     -5.456320    1.306280   -3.407550
  C     -7.582840    5.547470    0.919210
  S     -8.378570    5.845010   -0.586170
  C     -9.152930    7.296420   -0.008070
  C     -8.767160    7.563780    1.329580
  C     -7.840410    6.596120    1.829200
  C     -7.255480    6.789160    3.094630
  C     -7.680950    7.822780    3.882860
  F     -7.140110    7.999560    5.098130
  C     -8.701920    8.683670    3.445640
  F     -9.160670    9.639630    4.277300
  C     -9.225920    8.578110    2.186310
  C     -9.981790    7.986720   -0.900250
  C    -10.433010    9.277330   -0.752760
  C    -11.334900    9.931780   -1.586720
  C    -11.750690   11.224220   -1.308890
  C    -12.679990   12.040990   -1.984450
  C    -12.886680   13.262540   -1.397290
  C    -12.122640   13.462860   -0.234460
  S    -11.132860   12.065540    0.095380
  C    -12.029390   14.531350    0.648700
  C    -12.673660   15.781670    0.697220
  C    -12.282110   16.554610    1.754160
  C    -11.301950   15.955320    2.586960
  S    -10.913100   14.365080    1.977020
  C    -10.732030   16.499710    3.713180
  C     -9.733890   15.920310    4.521740
  S     -9.237990   16.736960    6.001340
  C     -8.072770   15.550940    6.430400
  C     -8.041420   14.550460    5.487610
  C     -8.973610   14.763330    4.423850
  O     -8.879610   13.768040    3.518470
  C     -7.919980   12.928490    3.982450
  N     -7.624950   11.795930    3.188220
  O     -6.707380   11.087580    3.556160
  O     -8.294000   11.608960    2.192560
  C     -7.368960   13.337460    5.166810
  H     -1.525770    1.814950   -2.890680
  H     -1.354090   -2.856880   -1.094370
  H      0.070570    0.803500   -4.964790
  H     -4.643050    0.178640    2.340560
  H     -5.562460    2.240190    3.435610
  H     -6.946790    4.217650    3.241000
  H     -6.044170    4.123540   -4.274770
  H     -7.473570    4.838550   -3.502670
  H     -7.543060    3.201880   -4.189060
  H     -4.830870    1.867160   -4.100350
  H     -6.364620    1.014920   -3.932970
  H     -4.924310    0.414970   -3.086230
  H     -6.452420    6.165160    3.446690
  H     -9.991410    9.274770    1.894650
  H    -10.253580    7.447170   -1.799980
  H    -10.042570    9.862930    0.065980
  H    -11.750610    9.425080   -2.446820
  H    -13.176160   11.710620   -2.880380
  H    -13.563140   14.009720   -1.773210
  H    -13.401650   16.080710   -0.036040
  H    -12.662560   17.539840    1.959120
  H    -11.084620   17.472760    4.026960
  H     -7.496330   15.661100    7.324730
  H     -6.600500   12.833200    5.714820

 Total Charge           Charge          ....    0
 Multiplicity           Mult            ....    1
 Number of Electrons    NEL             ....  530
 Basis Dimension        Dim             .... 1110

ORBITAL ENERGIES
----------------

  NO   OCC          E(Eh)            E(eV)
   0   2.0000    -482.882628    -13139.9043
   1   2.0000     -88.975377     -2421.1431
   2   2.0000     -88.971061     -2421.0257
   3   2.0000     -88.955264     -2420.5958
   4   2.0000     -88.938611     -2420.1426
   5   2.0000     -88.937142     -2420.1027
   6   2.0000     -62.560362     -1702.3540
   7   2.0000     -56.394306     -1534.5671
   8   2.0000     -56.391601     -1534.4935
   9   2.0000     -56.391564     -1534.4925
  10   2.0000     -24.778030      -674.2445
  11   2.0000     -24.776778      -674.2104
  12   2.0000     -19.307113      -525.3733
  13   2.0000     -19.246109      -523.7132
  14   2.0000     -19.244317      -523.6645
  15   2.0000     -19.201056      -522.4873
  16   2.0000     -14.656498      -398.8236
  17   2.0000     -14.421922      -392.4405
  18   2.0000     -14.418076      -392.3358
  19   2.0000     -14.406752      -392.0277
  20   2.0000     -14.406114      -392.0103
  21   2.0000     -10.387713      -282.6640
  22   2.0000     -10.357167      -281.8329
  23   2.0000     -10.355814      -281.7960
  24   2.0000     -10.355062      -281.7756
  25   2.0000     -10.352645      -281.7098
  26   2.0000     -10.348060      -281.5850
  27   2.0000     -10.331987      -281.1477
  28   2.0000     -10.330998      -281.1207
  29   2.0000     -10.325162      -280.9619
  30   2.0000     -10.323779      -280.9243
  31   2.0000     -10.320612      -280.8381
  32   2.0000     -10.320294      -280.8295
  33   2.0000     -10.315134      -280.6891
  34   2.0000     -10.312818      -280.6261
  35   2.0000     -10.312342      -280.6131
  36   2.0000     -10.312092      -280.6063
  37   2.0000     -10.309797      -280.5438
  38   2.0000     -10.309604      -280.5386
  39   2.0000     -10.309512      -280.5361
  40   2.0000     -10.307212      -280.4735
  41   2.0000     -10.305180      -280.4182
  42   2.0000     -10.303803      -280.3807
  43   2.0000     -10.302704      -280.3508
  44   2.0000     -10.301357      -280.3142
  45   2.0000     -10.300740      -280.2974
  46   2.0000     -10.299618      -280.2669
  47   2.0000     -10.299507      -280.2638
  48   2.0000     -10.299152      -280.2542
  49   2.0000     -10.296655      -280.1862
  50   2.0000     -10.295387      -280.1517
  51   2.0000     -10.294872      -280.1377
  52   2.0000     -10.293054      -280.0882
  53   2.0000     -10.291440      -280.0443
  54   2.0000     -10.287970      -279.9499
  55   2.0000     -10.287583      -279.9394
  56   2.0000     -10.287094      -279.9261
  57   2.0000     -10.286732      -279.9162
  58   2.0000     -10.285070      -279.8710
  59   2.0000     -10.284822      -279.8642
  60   2.0000     -10.284493      -279.8553
  61   2.0000     -10.283864      -279.8382
  62   2.0000     -10.283469      -279.8274
  63   2.0000     -10.281451      -279.7725
  64   2.0000     -10.279290      -279.7137
  65   2.0000     -10.278816      -279.7008
  66   2.0000     -10.277435      -279.6632
  67   2.0000     -10.276899      -279.6486
  68   2.0000     -10.276344      -279.6335
  69   2.0000     -10.274636      -279.5871
  70   2.0000     -10.274553      -279.5848
  71   2.0000     -10.273336      -279.5517
  72   2.0000      -8.789801      -239.1827
  73   2.0000      -8.070403      -219.6068
  74   2.0000      -8.067012      -219.5146
  75   2.0000      -8.048186      -219.0023
  76   2.0000      -8.035108      -218.6464
  77   2.0000      -8.033760      -218.6097
  78   2.0000      -6.626089      -180.3050
  79   2.0000      -6.611528      -179.9088
  80   2.0000      -6.611359      -179.9042
  81   2.0000      -6.039749      -164.3499
  82   2.0000      -6.036730      -164.2678
  83   2.0000      -6.035433      -164.2325
  84   2.0000      -6.032684      -164.1577
  85   2.0000      -6.032431      -164.1508
  86   2.0000      -6.028226      -164.0364
  87   2.0000      -6.017450      -163.7431
  88   2.0000      -6.012802      -163.6167
  89   2.0000      -6.011094      -163.5702
  90   2.0000      -6.004788      -163.3986
  91   2.0000      -6.003475      -163.3629
  92   2.0000      -6.000640      -163.2857
  93   2.0000      -5.999268      -163.2484
  94   2.0000      -5.996104      -163.1623
  95   2.0000      -5.994548      -163.1199
  96   2.0000      -2.741943       -74.6121
  97   2.0000      -2.737904       -74.5022
  98   2.0000      -2.737723       -74.4972
  99   2.0000      -2.726177       -74.1830
 100   2.0000      -2.726162       -74.1826
 101   2.0000      -1.328057       -36.1383
 102   2.0000      -1.297826       -35.3156
 103   2.0000      -1.283402       -34.9232
 104   2.0000      -1.231050       -33.4986
 105   2.0000      -1.143327       -31.1115
 106   2.0000      -1.118244       -30.4290
 107   2.0000      -1.082815       -29.4649
 108   2.0000      -1.016263       -27.6539
 109   2.0000      -1.008966       -27.4554
 110   2.0000      -1.005453       -27.3598
 111   2.0000      -0.998283       -27.1647
 112   2.0000      -0.993062       -27.0226
 113   2.0000      -0.990075       -26.9413
 114   2.0000      -0.985161       -26.8076
 115   2.0000      -0.981059       -26.6960
 116   2.0000      -0.971870       -26.4459
 117   2.0000      -0.960065       -26.1247
 118   2.0000      -0.935816       -25.4649
 119   2.0000      -0.935535       -25.4572
 120   2.0000      -0.930434       -25.3184
 121   2.0000      -0.910812       -24.7845
 122   2.0000      -0.901936       -24.5429
 123   2.0000      -0.900274       -24.4977
 124   2.0000      -0.895122       -24.3575
 125   2.0000      -0.888646       -24.1813
 126   2.0000      -0.880896       -23.9704
 127   2.0000      -0.879873       -23.9426
 128   2.0000      -0.873309       -23.7639
 129   2.0000      -0.859893       -23.3989
 130   2.0000      -0.851721       -23.1765
 131   2.0000      -0.838416       -22.8144
 132   2.0000      -0.834220       -22.7003
 133   2.0000      -0.824926       -22.4474
 134   2.0000      -0.823623       -22.4119
 135   2.0000      -0.821422       -22.3520
 136   2.0000      -0.817326       -22.2406
 137   2.0000      -0.812205       -22.1012
 138   2.0000      -0.803871       -21.8744
 139   2.0000      -0.796734       -21.6802
 140   2.0000      -0.785454       -21.3733
 141   2.0000      -0.770095       -20.9554
 142   2.0000      -0.754690       -20.5362
 143   2.0000      -0.748596       -20.3703
 144   2.0000      -0.734471       -19.9860
 145   2.0000      -0.728653       -19.8277
 146   2.0000      -0.722234       -19.6530
 147   2.0000      -0.718945       -19.5635
 148   2.0000      -0.710227       -19.3263
 149   2.0000      -0.708979       -19.2923
 150   2.0000      -0.700192       -19.0532
 151   2.0000      -0.689801       -18.7704
 152   2.0000      -0.681266       -18.5382
 153   2.0000      -0.677116       -18.4253
 154   2.0000      -0.668390       -18.1878
 155   2.0000      -0.662231       -18.0202
 156   2.0000      -0.660768       -17.9804
 157   2.0000      -0.653501       -17.7827
 158   2.0000      -0.649936       -17.6856
 159   2.0000      -0.649485       -17.6734
 160   2.0000      -0.643016       -17.4974
 161   2.0000      -0.634249       -17.2588
 162   2.0000      -0.631566       -17.1858
 163   2.0000      -0.626439       -17.0463
 164   2.0000      -0.622082       -16.9277
 165   2.0000      -0.616895       -16.7866
 166   2.0000      -0.615613       -16.7517
 167   2.0000      -0.614601       -16.7242
 168   2.0000      -0.611598       -16.6424
 169   2.0000      -0.604662       -16.4537
 170   2.0000      -0.598258       -16.2794
 171   2.0000      -0.595769       -16.2117
 172   2.0000      -0.588818       -16.0226
 173   2.0000      -0.588462       -16.0129
 174   2.0000      -0.580762       -15.8033
 175   2.0000      -0.575710       -15.6659
 176   2.0000      -0.569911       -15.5081
 177   2.0000      -0.568070       -15.4580
 178   2.0000      -0.562862       -15.3162
 179   2.0000      -0.559157       -15.2154
 180   2.0000      -0.555565       -15.1177
 181   2.0000      -0.553682       -15.0665
 182   2.0000      -0.551362       -15.0033
 183   2.0000      -0.543138       -14.7795
 184   2.0000      -0.540723       -14.7138
 185   2.0000      -0.536233       -14.5916
 186   2.0000      -0.530998       -14.4492
 187   2.0000      -0.528802       -14.3894
 188   2.0000      -0.528456       -14.3800
 189   2.0000      -0.525253       -14.2929
 190   2.0000      -0.524529       -14.2732
 191   2.0000      -0.521634       -14.1944
 192   2.0000      -0.519116       -14.1259
 193   2.0000      -0.516546       -14.0559
 194   2.0000      -0.511770       -13.9260
 195   2.0000      -0.509010       -13.8509
 196   2.0000      -0.503203       -13.6929
 197   2.0000      -0.502143       -13.6640
 198   2.0000      -0.501168       -13.6375
 199   2.0000      -0.497321       -13.5328
 200   2.0000      -0.496693       -13.5157
 201   2.0000      -0.496083       -13.4991
 202   2.0000      -0.494197       -13.4478
 203   2.0000      -0.490301       -13.3418
 204   2.0000      -0.488356       -13.2888
 205   2.0000      -0.487548       -13.2668
 206   2.0000      -0.484436       -13.1822
 207   2.0000      -0.481785       -13.1100
 208   2.0000      -0.480575       -13.0771
 209   2.0000      -0.479567       -13.0497
 210   2.0000      -0.475867       -12.9490
 211   2.0000      -0.473609       -12.8876
 212   2.0000      -0.472228       -12.8500
 213   2.0000      -0.469321       -12.7709
 214   2.0000      -0.466747       -12.7008
 215   2.0000      -0.462448       -12.5838
 216   2.0000      -0.459911       -12.5148
 217   2.0000      -0.457086       -12.4379
 218   2.0000      -0.452383       -12.3100
 219   2.0000      -0.449327       -12.2268
 220   2.0000      -0.448733       -12.2107
 221   2.0000      -0.444365       -12.0918
 222   2.0000      -0.440687       -11.9917
 223   2.0000      -0.439749       -11.9662
 224   2.0000      -0.435817       -11.8592
 225   2.0000      -0.435798       -11.8587
 226   2.0000      -0.433954       -11.8085
 227   2.0000      -0.431721       -11.7477
 228   2.0000      -0.428597       -11.6627
 229   2.0000      -0.425923       -11.5900
 230   2.0000      -0.423257       -11.5174
 231   2.0000      -0.420600       -11.4451
 232   2.0000      -0.418218       -11.3803
 233   2.0000      -0.417229       -11.3534
 234   2.0000      -0.414085       -11.2678
 235   2.0000      -0.411954       -11.2098
 236   2.0000      -0.404954       -11.0194
 237   2.0000      -0.401627       -10.9288
 238   2.0000      -0.398788       -10.8516
 239   2.0000      -0.394018       -10.7218
 240   2.0000      -0.387920       -10.5559
 241   2.0000      -0.384131       -10.4527
 242   2.0000      -0.381838       -10.3903
 243   2.0000      -0.380010       -10.3406
 244   2.0000      -0.372846       -10.1457
 245   2.0000      -0.372299       -10.1308
 246   2.0000      -0.372117       -10.1258
 247   2.0000      -0.368829       -10.0364
 248   2.0000      -0.359333        -9.7779
 249   2.0000      -0.354797        -9.6545
 250   2.0000      -0.336811        -9.1651
 251   2.0000      -0.333679        -9.0799
 252   2.0000      -0.329069        -8.9544
 253   2.0000      -0.325333        -8.8528
 254   2.0000      -0.319082        -8.6827
 255   2.0000      -0.317024        -8.6267
 256   2.0000      -0.316318        -8.6074
 257   2.0000      -0.315524        -8.5859
 258   2.0000      -0.308920        -8.4061
 259   2.0000      -0.296748        -8.0749
 260   2.0000      -0.295088        -8.0297
 261   2.0000      -0.287439        -7.8216
 262   2.0000      -0.277973        -7.5640
 263   2.0000      -0.239244        -6.5101
 264   2.0000      -0.196499        -5.3470
 265   0.0000      -0.099756        -2.7145
 266   0.0000      -0.078907        -2.1472
 267   0.0000      -0.062653        -1.7049
 268   0.0000      -0.051569        -1.4033
 269   0.0000      -0.038225        -1.0402

MULLIKEN ATOMIC CHARGES
-----------------------
   0 C :    0.311979
   1 C :   -0.361810
   2 C :   -0.183263
   3 N :    0.141450
   4 C :   -0.179420
   5 N :    0.141994
   6 C :    0.021984
   7 C :   -0.011251
   8 C :   -0.083559
   9 C :    0.119885
  10 C :   -0.090762
  11 C :   -0.029081
  12 S :    0.183625
  13 C :   -0.122661
  14 C :    0.034852
  15 Br:    0.019502
  16 C :    0.145864
  17 O :   -0.158274
  18 C :   -0.054206
  19 C :   -0.043078
  20 C :    0.085086
  21 C :   -0.013477
  22 C :   -0.074469
  23 C :    0.137906
  24 C :   -0.025581
  25 C :    0.003229
  26 N :   -0.011034
  27 C :   -0.151950
  28 C :   -0.149123
  29 N :   -0.050998
  30 C :    0.122583
  31 C :    0.122195
  32 C :   -0.150448
  33 S :    0.183249
  34 C :   -0.088430
  35 C :    0.116931
  36 C :    0.139136
  37 C :   -0.144240
  38 C :    0.242144
  39 F :   -0.178951
  40 C :    0.210027
  41 F :   -0.195811
  42 C :   -0.094789
  43 C :    0.027934
  44 C :   -0.028698
  45 C :    0.004867
  46 C :   -0.019875
  47 C :    0.033298
  48 C :    0.024286
  49 C :   -0.035005
  50 S :    0.060637
  51 C :   -0.030305
  52 C :    0.034841
  53 C :    0.031759
  54 C :   -0.031903
  55 S :    0.078107
  56 C :    0.057511
  57 C :   -0.232228
  58 S :    0.146569
  59 C :   -0.137302
  60 C :    0.127179
  61 C :    0.191890
  62 O :   -0.193002
  63 C :    0.261301
  64 N :    0.281997
  65 O :   -0.245691
  66 O :   -0.232502
  67 C :   -0.083248
  68 H :   -0.017478
  69 H :   -0.007719
  70 H :   -0.005967
  71 H :    0.019348
  72 H :   -0.009824
  73 H :   -0.013798
  74 H :    0.029895
  75 H :    0.031985
  76 H :    0.026826
  77 H :    0.025762
  78 H :    0.027150
  79 H :    0.030838
  80 H :   -0.010183
  81 H :   -0.014988
  82 H :   -0.023914
  83 H :    0.037609
  84 H :   -0.019247
  85 H :   -0.014451
  86 H :   -0.014585
  87 H :   -0.014868
  88 H :   -0.015340
  89 H :   -0.023811
  90 H :    0.033000
  91 H :    0.014390
Sum of atomic charges:   -0.0000000

LOEWDIN ATOMIC CHARGES
----------------------
   0 C :    0.077450
   1 C :   -0.146018
   2 C :   -0.018443
   3 N :   -0.060756
   4 C :   -0.018535
   5 N :   -0.057190
   6 C :   -0.018881
   7 C :   -0.045315
   8 C :    0.014123
   9 C :   -0.034167
  10 C :   -0.145020
  11 C :   -0.011551
  12 S :    0.429335
  13 C :   -0.272609
  14 C :   -0.072421
  15 Br:    0.133186
  16 C :    0.084285
  17 O :   -0.151646
  18 C :   -0.082559
  19 C :    0.072739
  20 C :   -0.047773
  21 C :    0.017636
  22 C :   -0.031670
  23 C :   -0.013157
  24 C :   -0.012757
  25 C :    0.017522
  26 N :   -0.031373
  27 C :    0.006409
  28 C :    0.004877
  29 N :   -0.058773
  30 C :   -0.052031
  31 C :   -0.052503
  32 C :   -0.189652
  33 S :    0.520772
  34 C :   -0.168114
  35 C :   -0.047724
  36 C :   -0.028841
  37 C :   -0.050563
  38 C :    0.069479
  39 F :   -0.055872
  40 C :    0.052751
  41 F :   -0.067540
  42 C :   -0.026122
  43 C :   -0.047258
  44 C :   -0.030193
  45 C :   -0.054230
  46 C :   -0.143144
  47 C :   -0.037125
  48 C :   -0.032906
  49 C :   -0.178378
  50 S :    0.394862
  51 C :   -0.182939
  52 C :   -0.032174
  53 C :   -0.036494
  54 C :   -0.145315
  55 S :    0.409688
  56 C :   -0.086411
  57 C :   -0.198645
  58 S :    0.472619
  59 C :   -0.189508
  60 C :   -0.079782
  61 C :    0.008272
  62 O :   -0.000851
  63 C :    0.029367
  64 N :    0.276591
  65 O :   -0.203355
  66 O :   -0.192502
  67 C :   -0.006496
  68 H :    0.037795
  69 H :    0.040638
  70 H :    0.037606
  71 H :    0.043222
  72 H :    0.037013
  73 H :    0.032678
  74 H :    0.040282
  75 H :    0.038932
  76 H :    0.038335
  77 H :    0.038197
  78 H :    0.038371
  79 H :    0.038617
  80 H :    0.038893
  81 H :    0.037713
  82 H :    0.025233
  83 H :    0.023241
  84 H :    0.030941
  85 H :    0.032398
  86 H :    0.031802
  87 H :    0.031880
  88 H :    0.031470
  89 H :    0.032872
  90 H :    0.028992
  91 H :    0.048197

  Mayer bond orders larger than 0.100000
B(  0-C ,  1-C ) :   1.6151 B(  0-C ,  6-C ) :   1.0004 B(  0-C , 18-C ) :   1.1007
B(  1-C ,  2-C ) :   1.1420 B(  1-C ,  4-C ) :   1.1473 B(  2-C ,  3-N ) :   2.9652
B(  4-C ,  5-N ) :   2.9613 B(  6-C ,  7-C ) :   1.2801 B(  6-C , 11-C ) :   1.4021
B(  7-C ,  8-C ) :   1.4228 B(  7-C , 16-C ) :   0.9285 B(  8-C ,  9-C ) :   1.2424
B(  8-C , 68-H ) :   1.0175 B(  9-C , 10-C ) :   1.3094 B(  9-C , 14-C ) :   1.1607
B( 10-C , 11-C ) :   1.3326 B( 10-C , 12-S ) :   1.0833 B( 11-C , 69-H ) :   0.9798
B( 12-S , 13-C ) :   1.0857 B( 13-C , 14-C ) :   1.6200 B( 13-C , 15-Br) :   1.0161
B( 14-C , 70-H ) :   1.0002 B( 16-C , 17-O ) :   2.2338 B( 16-C , 18-C ) :   0.9209
B( 18-C , 19-C ) :   1.6144 B( 19-C , 20-C ) :   1.1170 B( 19-C , 71-H ) :   0.9411
B( 20-C , 21-C ) :   1.3485 B( 20-C , 25-C ) :   1.2007 B( 21-C , 22-C ) :   1.3010
B( 21-C , 72-H ) :   0.9996 B( 22-C , 23-C ) :   1.3494 B( 22-C , 73-H ) :   0.9979
B( 23-C , 24-C ) :   1.1789 B( 23-C , 32-C ) :   1.1692 B( 24-C , 25-C ) :   1.2839
B( 24-C , 29-N ) :   1.4037 B( 25-C , 26-N ) :   1.4137 B( 26-N , 27-C ) :   1.6566
B( 27-C , 28-C ) :   1.1846 B( 27-C , 31-C ) :   1.0985 B( 28-C , 29-N ) :   1.6430
B( 28-C , 30-C ) :   1.1023 B( 30-C , 74-H ) :   0.9401 B( 30-C , 75-H ) :   0.9440
B( 30-C , 76-H ) :   0.9401 B( 31-C , 77-H ) :   0.9393 B( 31-C , 78-H ) :   0.9416
B( 31-C , 79-H ) :   0.9426 B( 32-C , 33-S ) :   1.1490 B( 32-C , 36-C ) :   1.3013
B( 33-S , 34-C ) :   1.1170 B( 34-C , 35-C ) :   1.2772 B( 34-C , 43-C ) :   1.2141
B( 35-C , 36-C ) :   1.2424 B( 35-C , 42-C ) :   1.1785 B( 36-C , 37-C ) :   1.1696
B( 37-C , 38-C ) :   1.4775 B( 37-C , 42-C ) :   0.1069 B( 37-C , 80-H ) :   0.9954
B( 38-C , 39-F ) :   1.1314 B( 38-C , 40-C ) :   1.1808 B( 40-C , 41-F ) :   1.0948
B( 40-C , 42-C ) :   1.4910 B( 42-C , 81-H ) :   0.9885 B( 43-C , 44-C ) :   1.5492
B( 43-C , 82-H ) :   0.9583 B( 44-C , 45-C ) :   1.2165 B( 44-C , 83-H ) :   0.9610
B( 45-C , 46-C ) :   1.4911 B( 45-C , 84-H ) :   0.9899 B( 46-C , 47-C ) :   1.1764
B( 46-C , 50-S ) :   1.0474 B( 47-C , 48-C ) :   1.5461 B( 47-C , 85-H ) :   0.9995
B( 48-C , 49-C ) :   1.2199 B( 48-C , 86-H ) :   0.9967 B( 49-C , 50-S ) :   1.0606
B( 49-C , 51-C ) :   1.4540 B( 51-C , 52-C ) :   1.2049 B( 51-C , 55-S ) :   1.0491
B( 52-C , 53-C ) :   1.5747 B( 52-C , 87-H ) :   0.9953 B( 53-C , 54-C ) :   1.1525
B( 53-C , 88-H ) :   0.9984 B( 54-C , 55-S ) :   1.0528 B( 54-C , 56-C ) :   1.5814
B( 56-C , 57-C ) :   1.1613 B( 56-C , 89-H ) :   0.9460 B( 57-C , 58-S ) :   1.1299
B( 57-C , 59-C ) :   0.1065 B( 57-C , 61-C ) :   1.4141 B( 58-S , 59-C ) :   1.1825
B( 59-C , 60-C ) :   1.4281 B( 59-C , 90-H ) :   0.9757 B( 60-C , 61-C ) :   1.2382
B( 60-C , 67-C ) :   1.0660 B( 61-C , 62-O ) :   1.0896 B( 62-O , 63-C ) :   1.1153
B( 63-C , 64-N ) :   0.9128 B( 63-C , 67-C ) :   1.5773 B( 64-N , 65-O ) :   1.5219
B( 64-N , 66-O ) :   1.4962 B( 65-O , 66-O ) :   0.2743 B( 67-C , 91-H ) :   1.0278

-----------------------------------------------------------------------------
         ABSORPTION SPECTRUM VIA TRANSITION ELECTRIC DIPOLE MOMENTS
-----------------------------------------------------------------------------
State   Energy  Wavelength   fosc         T2         TX        TY        TZ
        (cm-1)    (nm)                  (au**2)     (au)      (au)      (au)
-----------------------------------------------------------------------------
   0    8618.9   1160.2   1.110774542  42.42758  -2.17619   5.94378   1.53729
   1   12265.6    815.3   0.217551074   5.83912   1.58897  -1.76628   0.44109
   2   15182.3    658.7   0.067729212   1.46864  -0.92062  -0.42259  -0.66522
   3   16803.0    595.1   0.341018823   6.68139   2.00931  -1.35273   0.90232
   4   19833.5    504.2   0.195666519   3.24783  -1.30527   0.29228  -1.20775
   5   21641.6    462.1   0.111364808   1.69408  -0.23277  -0.66478  -1.09452
   6   22471.4    445.0   0.017185062   0.25177   0.07513  -0.13301   0.47794
   7   22797.6    438.6   0.052291540   0.75512  -0.63844   0.58849  -0.03470
   8   24083.3    415.2   0.328459723   4.48995   1.15522  -0.17087   1.76811
   9   25025.7    399.6   0.051090790   0.67210  -0.39329  -0.08433  -0.71436
  10   25510.9    392.0   0.028183641   0.36370  -0.16713  -0.03203  -0.57857
  11   26673.1    374.9   0.077906512   0.96156   0.30265  -0.91038  -0.20289
  12   27417.3    364.7   0.132467942   1.59060  -0.86358  -0.11030   0.91251
  13   28031.7    356.7   0.142149222   1.66944   0.50634  -0.55483   1.05129
  14   28388.9    352.3   0.138759040   1.60912  -0.37062   0.57701  -1.06716
  15   28805.4    347.2   0.251291857   2.87197  -0.75333   0.86174   1.24975
  16   29904.8    334.4   0.030041506   0.33072   0.36085  -0.36965   0.25270
  17   30017.9    333.1   0.003846467   0.04218   0.14744  -0.14110   0.02318
  18   30157.7    331.6   0.012145101   0.13258   0.12067   0.34325   0.01414
  19   30439.8    328.5   0.018723200   0.20249   0.36628  -0.16432  -0.20330
  20   30629.2    326.5   0.085522473   0.91922  -0.29491  -0.04124   0.91135
  21   30837.1    324.3   0.156538142   1.67118   1.12261  -0.50703   0.39223
  22   31606.9    316.4   0.007542940   0.07857  -0.08256   0.19413  -0.18456
  23   31928.3    313.2   0.016645547   0.17163  -0.17797   0.33853   0.15923
  24   32202.3    310.5   0.064862860   0.66311  -0.39368   0.02559  -0.71237
  25   32391.3    308.7   0.096732118   0.98315   0.46303  -0.83198  -0.27670
  26   32500.3    307.7   0.004471369   0.04529   0.10697   0.06766   0.17109
  27   32681.9    306.0   0.016817000   0.16940  -0.16502  -0.17172   0.33568
  28   32799.4    304.9   0.107207572   1.07606  -0.21214  -0.29488   0.97165
  29   33246.9    300.8   0.195880814   1.93962  -0.82112   0.78414   0.80654
  30   33661.9    297.1   0.032731561   0.32011   0.41474  -0.00703  -0.38478
  31   33967.9    294.4   0.286138643   2.77321  -0.57266  -0.99409   1.20709
  32   34191.1    292.5   0.099946594   0.96234   0.54928   0.25099  -0.77307
  33   34456.5    290.2   0.085931008   0.82102   0.37169  -0.79558   0.22343
  34   34776.9    287.5   0.062160475   0.58844   0.26743  -0.52821  -0.48776
  35   34998.5    285.7   0.024702045   0.23236   0.41166   0.24925   0.02776
  36   35277.8    283.5   0.035400012   0.33035   0.02063  -0.56816   0.08437
  37   35560.1    281.2   0.004253547   0.03938  -0.07977   0.17340   0.05431
  38   36238.9    275.9   0.013514741   0.12277   0.02111  -0.25614  -0.23816
  39   36277.6    275.7   0.031599031   0.28675  -0.05868  -0.30999  -0.43268
  40   36464.6    274.2   0.184861928   1.66898   0.36294  -0.98402  -0.75429
  41   36624.1    273.0   0.001264954   0.01137   0.00487   0.05772   0.08953
  42   36748.9    272.1   0.099774529   0.89382  -0.15454   0.50529   0.78398
  43   36950.6    270.6   0.004120428   0.03671  -0.08279   0.02446   0.17105
  44   37011.4    270.2   0.010874112   0.09672  -0.12387  -0.02686   0.28400
  45   37374.3    267.6   0.008663283   0.07631   0.09840   0.08124   0.24501
  46   37541.9    266.4   0.035899047   0.31481  -0.00833   0.53656   0.16382
  47   37672.3    265.4   0.033610183   0.29371  -0.13169   0.50657   0.14056
  48   37976.4    263.3   0.168995992   1.46500   0.38017  -1.08420  -0.38078
  49   38178.4    261.9   0.346966998   2.99189   0.11438  -1.23772  -1.20285
  50   38576.4    259.2   0.030881229   0.26354  -0.05696   0.45296   0.23478
  51   38633.9    258.8   0.080026347   0.68193  -0.07598  -0.56148   0.60075
  52   38892.2    257.1   0.039969620   0.33833  -0.27041   0.48550  -0.17176
  53   39270.7    254.6   0.000651441   0.00546   0.05434   0.04950  -0.00761
  54   39515.1    253.1   0.048629333   0.40515   0.45857  -0.40063  -0.18535
  55   39754.3    251.5   0.042957733   0.35574  -0.30922  -0.22695   0.45675
  56   39906.0    250.6   0.003797054   0.03132  -0.12759   0.02595   0.11988
  57   40233.9    248.5   0.029719415   0.24318  -0.02265   0.43433   0.23242

FINAL SINGLE POINT ENERGY     -7292.920149656179

DIPOLE MOMENT
-------------
                                X             Y             Z
Electronic contribution:     98.02793     -82.43779     -40.68390
Nuclear contribution   :    -99.70366      86.51110      38.56476
                        -----------------------------------------
Total Dipole Moment    :     -1.67573       4.07331      -2.11914
                        -----------------------------------------
Magnitude (a.u.)       :      4.88780
Magnitude (Debye)      :     12.42381

Rotational constants in cm-1:     0.001845     0.000251     0.000241
Rotational constants in MHz :    55.325059     7.524270     7.225059

                             ****ORCA TERMINATED NORMALLY****
TOTAL RUN TIME: 0 days 0 hours 13 minutes 56 seconds 164 msec
