                         Program Version 4.2.0 -  RELEASE  -
|  1> # ORCA input file
|  2> # SCF done       -205.164707396801          0.000852506403
|  3> ! CAM-B3LYP def2-SVP def2/J RIJCOSX Grid4 TightSCF
|  4> %maxcore 5000
|  5> %tddft
|  6>     Mode sTDDFT
|  7>     Ethresh 5.0
|  8>     maxcore 5000
|  9> end
| 10>
| 11> %pal
| 12>   nprocs 6
| 13>   end
| 14> * xyz 0 1
| 15>    C       -3.52563         4.13384         2.01053
| 16>    C       -2.38215         3.46300         1.65072
| 17>    C       -1.69348         2.56411         2.49034
| 18>    N       -1.08470         1.82187         3.12138
| 19>    C       -1.72326         3.55991         0.40828
| 20>    N       -1.12080         3.57296        -0.56991
| 21>    C       -4.19179         4.01696         3.30543
| 22>    C       -5.33557         4.85090         3.30520
| 23>    C       -6.17592         4.95772         4.38583
| 24>    C       -5.87384         4.20438         5.52528
| 25>    C       -4.72858         3.37471         5.51735
| 26>    C       -3.87839         3.26692         4.42346
| 27>    S       -4.53941         2.53155         7.02580
| 28>    C       -5.98287         3.29515         7.63670
| 29>    C       -6.57706         4.13804         6.75964
| 30>   Br       -6.56998         2.90766         9.37607
| 31>    C       -5.44098         5.53696         1.99968
| 32>    O       -6.30845         6.32370         1.67608
| 33>    C       -4.28745         5.06307         1.20543
| 34>    C       -4.00972         5.44931        -0.08309
| 35>    C       -4.77999         6.34276        -0.84394
| 36>    C       -4.44440         6.65748        -2.13102
| 37>    C       -5.18353         7.52411        -2.95238
| 38>    O       -6.31287         8.14408        -2.51721
| 39>    C       -6.81086         8.89102        -3.53061
| 40>    C       -5.98630         8.75586        -4.64930
| 41>    C       -4.94613         7.88743        -4.28395
| 42>    O       -3.91927         7.47171        -5.04326
| 43>    O       -6.09744         9.32015        -5.88122
| 44>    C       -7.99306         9.65053        -3.37000
| 45>    C       -8.69926         9.73204        -2.20910
| 46>    C       -9.88182        10.49248        -2.08147
| 47>    C      -10.55079        10.63728        -0.90391
| 48>    C      -11.73655        11.37460        -0.68648
| 49>    S      -12.09521        11.89386         0.92983
| 50>    C      -13.52892        12.74877         0.46663
| 51>    C      -13.72701        12.64031        -0.92096
| 52>    C      -12.73334        11.83341        -1.56616
| 53>    C      -12.86625        11.53773        -2.93698
| 54>    C      -13.87914        12.10975        -3.64991
| 55>    F      -14.01427        11.83036        -4.95788
| 56>    C      -14.78260        13.00584        -3.03955
| 57>    F      -15.72265        13.60080        -3.79276
| 58>    C      -14.72241        13.26284        -1.70087
| 59>    C      -14.26763        13.40143         1.48582
| 60>    C      -15.56653        13.78612         1.42677
| 61>    C      -16.25938        14.47237         2.46194
| 62>    S      -17.96557        14.80807         2.23253
| 63>    C      -15.80409        14.96551         3.65920
| 64>    C      -16.79201        15.62616         4.42487
| 65>    C      -16.65379        16.25703         5.69260
| 66>    C      -15.28211        16.23927         6.31249
| 67>    C      -14.39197        17.33501         5.72193
| 68>    C      -17.74537        16.86945         6.27153
| 69>    C      -17.69201        17.60412         7.58408
| 70>    C      -17.58401        19.11536         7.36725
| 71>    C      -18.03518        15.61662         3.76173
| 72>    C      -19.13251        16.22192         4.34702
| 73>    S      -20.74341        16.32700         3.71889
| 74>    C      -18.99872        16.85328         5.59891
| 75>    C      -20.22783        17.41582         6.01566
| 76>    C      -21.25778        17.22774         5.13073
| 77>    C      -22.61590        17.65094         5.20949
| 78>    C      -23.14417        18.39975         6.20039
| 79>    C      -24.50477        18.80953         6.25273
| 80>    S      -25.70817        18.37257         5.05594
| 81>    C      -26.97687        19.22604         5.83331
| 82>    C      -26.51939        19.83559         6.97485
| 83>    C      -25.12627        19.59185         7.19887
| 84>    O      -24.70624        20.20720         8.32711
| 85>    C      -25.80888        20.83543         8.81943
| 86>    N      -25.66018        21.57623        10.01793
| 87>    O      -26.65823        22.13091        10.43750
| 88>    O      -24.56448        21.60813        10.53392
| 89>    C      -26.93250        20.65652         8.06096
| 90>    H       -7.04049         5.60212         4.35347
| 91>    H       -3.01868         2.61995         4.46922
| 92>    H       -7.47402         4.69075         6.97188
| 93>    H       -3.13473         5.03618        -0.56820
| 94>    H       -5.66134         6.78152        -0.40167
| 95>    H       -3.56551         6.22684        -2.59153
| 96>    H       -4.00066         7.87202        -5.91944
| 97>    H       -6.88398         9.87443        -5.91984
| 98>    H       -8.33586        10.19528        -4.24090
| 99>    H       -8.34015         9.18990        -1.34607
|100>    H      -10.22561        11.00883        -2.96554
|101>    H      -10.10894        10.19967        -0.01685
|102>    H      -12.20379        10.84640        -3.42802
|103>    H      -15.42232        13.95766        -1.27090
|104>    H      -13.72624        13.54982         2.41109
|105>    H      -16.16274        13.54478         0.56029
|106>    H      -14.78094        14.85771         3.96733
|107>    H      -14.82302        15.26519         6.13376
|108>    H      -15.33956        16.37296         7.39161
|109>    H      -14.31449        17.22861         4.64233
|110>    H      -13.39363        17.28129         6.15017
|111>    H      -14.80547        18.31720         5.93578
|112>    H      -16.84670        17.27281         8.18491
|113>    H      -18.59744        17.38516         8.15311
|114>    H      -16.66261        19.36020         6.84486
|115>    H      -17.58628        19.63377         8.32321
|116>    H      -18.41700        19.48070         6.77127
|117>    H      -20.36241        17.94233         6.94190
|118>    H      -23.25691        17.34016         4.39397
|119>    H      -22.53838        18.74091         7.02780
|120>    H      -27.95999        19.22680         5.41065
|121>    H      -27.90197        21.06080         8.26588
|122> *
|123>
|124>                          ****END OF INPUT****

CARTESIAN COORDINATES (ANGSTROEM)
---------------------------------
  C     -3.525630    4.133840    2.010530
  C     -2.382150    3.463000    1.650720
  C     -1.693480    2.564110    2.490340
  N     -1.084700    1.821870    3.121380
  C     -1.723260    3.559910    0.408280
  N     -1.120800    3.572960   -0.569910
  C     -4.191790    4.016960    3.305430
  C     -5.335570    4.850900    3.305200
  C     -6.175920    4.957720    4.385830
  C     -5.873840    4.204380    5.525280
  C     -4.728580    3.374710    5.517350
  C     -3.878390    3.266920    4.423460
  S     -4.539410    2.531550    7.025800
  C     -5.982870    3.295150    7.636700
  C     -6.577060    4.138040    6.759640
  Br    -6.569980    2.907660    9.376070
  C     -5.440980    5.536960    1.999680
  O     -6.308450    6.323700    1.676080
  C     -4.287450    5.063070    1.205430
  C     -4.009720    5.449310   -0.083090
  C     -4.779990    6.342760   -0.843940
  C     -4.444400    6.657480   -2.131020
  C     -5.183530    7.524110   -2.952380
  O     -6.312870    8.144080   -2.517210
  C     -6.810860    8.891020   -3.530610
  C     -5.986300    8.755860   -4.649300
  C     -4.946130    7.887430   -4.283950
  O     -3.919270    7.471710   -5.043260
  O     -6.097440    9.320150   -5.881220
  C     -7.993060    9.650530   -3.370000
  C     -8.699260    9.732040   -2.209100
  C     -9.881820   10.492480   -2.081470
  C    -10.550790   10.637280   -0.903910
  C    -11.736550   11.374600   -0.686480
  S    -12.095210   11.893860    0.929830
  C    -13.528920   12.748770    0.466630
  C    -13.727010   12.640310   -0.920960
  C    -12.733340   11.833410   -1.566160
  C    -12.866250   11.537730   -2.936980
  C    -13.879140   12.109750   -3.649910
  F    -14.014270   11.830360   -4.957880
  C    -14.782600   13.005840   -3.039550
  F    -15.722650   13.600800   -3.792760
  C    -14.722410   13.262840   -1.700870
  C    -14.267630   13.401430    1.485820
  C    -15.566530   13.786120    1.426770
  C    -16.259380   14.472370    2.461940
  S    -17.965570   14.808070    2.232530
  C    -15.804090   14.965510    3.659200
  C    -16.792010   15.626160    4.424870
  C    -16.653790   16.257030    5.692600
  C    -15.282110   16.239270    6.312490
  C    -14.391970   17.335010    5.721930
  C    -17.745370   16.869450    6.271530
  C    -17.692010   17.604120    7.584080
  C    -17.584010   19.115360    7.367250
  C    -18.035180   15.616620    3.761730
  C    -19.132510   16.221920    4.347020
  S    -20.743410   16.327000    3.718890
  C    -18.998720   16.853280    5.598910
  C    -20.227830   17.415820    6.015660
  C    -21.257780   17.227740    5.130730
  C    -22.615900   17.650940    5.209490
  C    -23.144170   18.399750    6.200390
  C    -24.504770   18.809530    6.252730
  S    -25.708170   18.372570    5.055940
  C    -26.976870   19.226040    5.833310
  C    -26.519390   19.835590    6.974850
  C    -25.126270   19.591850    7.198870
  O    -24.706240   20.207200    8.327110
  C    -25.808880   20.835430    8.819430
  N    -25.660180   21.576230   10.017930
  O    -26.658230   22.130910   10.437500
  O    -24.564480   21.608130   10.533920
  C    -26.932500   20.656520    8.060960
  H     -7.040490    5.602120    4.353470
  H     -3.018680    2.619950    4.469220
  H     -7.474020    4.690750    6.971880
  H     -3.134730    5.036180   -0.568200
  H     -5.661340    6.781520   -0.401670
  H     -3.565510    6.226840   -2.591530
  H     -4.000660    7.872020   -5.919440
  H     -6.883980    9.874430   -5.919840
  H     -8.335860   10.195280   -4.240900
  H     -8.340150    9.189900   -1.346070
  H    -10.225610   11.008830   -2.965540
  H    -10.108940   10.199670   -0.016850
  H    -12.203790   10.846400   -3.428020
  H    -15.422320   13.957660   -1.270900
  H    -13.726240   13.549820    2.411090
  H    -16.162740   13.544780    0.560290
  H    -14.780940   14.857710    3.967330
  H    -14.823020   15.265190    6.133760
  H    -15.339560   16.372960    7.391610
  H    -14.314490   17.228610    4.642330
  H    -13.393630   17.281290    6.150170
  H    -14.805470   18.317200    5.935780
  H    -16.846700   17.272810    8.184910
  H    -18.597440   17.385160    8.153110
  H    -16.662610   19.360200    6.844860
  H    -17.586280   19.633770    8.323210
  H    -18.417000   19.480700    6.771270
  H    -20.362410   17.942330    6.941900
  H    -23.256910   17.340160    4.393970
  H    -22.538380   18.740910    7.027800
  H    -27.959990   19.226800    5.410650
  H    -27.901970   21.060800    8.265880

 Total Charge           Charge          ....    0
 Multiplicity           Mult            ....    1
 Number of Electrons    NEL             ....  584
 Basis Dimension        Dim             .... 1248

ORBITAL ENERGIES
----------------

  NO   OCC          E(Eh)            E(eV)
   0   2.0000    -482.879880    -13139.8296
   1   2.0000     -88.979771     -2421.2627
   2   2.0000     -88.975533     -2421.1473
   3   2.0000     -88.967569     -2420.9306
   4   2.0000     -88.953968     -2420.5605
   5   2.0000     -88.953542     -2420.5489
   6   2.0000     -62.557564     -1702.2779
   7   2.0000     -56.391506     -1534.4909
   8   2.0000     -56.388809     -1534.4175
   9   2.0000     -56.388772     -1534.4165
  10   2.0000     -24.792391      -674.6353
  11   2.0000     -24.791046      -674.5987
  12   2.0000     -19.311931      -525.5043
  13   2.0000     -19.298412      -525.1365
  14   2.0000     -19.278925      -524.6062
  15   2.0000     -19.274283      -524.4799
  16   2.0000     -19.247178      -523.7423
  17   2.0000     -19.245013      -523.6834
  18   2.0000     -19.203320      -522.5489
  19   2.0000     -14.658758      -398.8851
  20   2.0000     -14.403826      -391.9480
  21   2.0000     -14.402126      -391.9018
  22   2.0000     -10.391283      -282.7612
  23   2.0000     -10.373767      -282.2845
  24   2.0000     -10.372724      -282.2562
  25   2.0000     -10.356329      -281.8100
  26   2.0000     -10.354002      -281.7467
  27   2.0000     -10.351594      -281.6812
  28   2.0000     -10.351241      -281.6716
  29   2.0000     -10.350802      -281.6596
  30   2.0000     -10.350463      -281.6504
  31   2.0000     -10.338135      -281.3150
  32   2.0000     -10.328098      -281.0418
  33   2.0000     -10.326642      -281.0022
  34   2.0000     -10.320020      -280.8220
  35   2.0000     -10.319075      -280.7963
  36   2.0000     -10.318464      -280.7797
  37   2.0000     -10.316443      -280.7247
  38   2.0000     -10.316295      -280.7207
  39   2.0000     -10.315359      -280.6952
  40   2.0000     -10.307500      -280.4813
  41   2.0000     -10.306776      -280.4616
  42   2.0000     -10.306081      -280.4427
  43   2.0000     -10.306080      -280.4427
  44   2.0000     -10.302885      -280.3558
  45   2.0000     -10.302091      -280.3342
  46   2.0000     -10.301702      -280.3236
  47   2.0000     -10.301556      -280.3196
  48   2.0000     -10.301251      -280.3113
  49   2.0000     -10.300814      -280.2994
  50   2.0000     -10.300258      -280.2843
  51   2.0000     -10.298610      -280.2394
  52   2.0000     -10.298449      -280.2350
  53   2.0000     -10.298112      -280.2259
  54   2.0000     -10.297186      -280.2007
  55   2.0000     -10.295543      -280.1560
  56   2.0000     -10.295217      -280.1471
  57   2.0000     -10.295186      -280.1463
  58   2.0000     -10.295082      -280.1434
  59   2.0000     -10.295051      -280.1426
  60   2.0000     -10.293764      -280.1076
  61   2.0000     -10.292424      -280.0711
  62   2.0000     -10.291886      -280.0564
  63   2.0000     -10.291282      -280.0400
  64   2.0000     -10.289697      -279.9969
  65   2.0000     -10.287694      -279.9424
  66   2.0000     -10.281112      -279.7633
  67   2.0000     -10.279534      -279.7203
  68   2.0000     -10.279194      -279.7111
  69   2.0000     -10.278646      -279.6962
  70   2.0000     -10.276908      -279.6489
  71   2.0000     -10.275435      -279.6088
  72   2.0000     -10.274991      -279.5967
  73   2.0000     -10.274928      -279.5950
  74   2.0000     -10.270659      -279.4788
  75   2.0000     -10.268683      -279.4251
  76   2.0000     -10.267528      -279.3936
  77   2.0000     -10.259136      -279.1653
  78   2.0000     -10.257471      -279.1200
  79   2.0000      -8.786971      -239.1056
  80   2.0000      -8.074751      -219.7251
  81   2.0000      -8.070954      -219.6218
  82   2.0000      -8.063618      -219.4222
  83   2.0000      -8.049859      -219.0478
  84   2.0000      -8.049389      -219.0350
  85   2.0000      -6.623207      -180.2266
  86   2.0000      -6.608727      -179.8326
  87   2.0000      -6.608553      -179.8279
  88   2.0000      -6.044011      -164.4659
  89   2.0000      -6.039830      -164.3521
  90   2.0000      -6.039720      -164.3491
  91   2.0000      -6.037173      -164.2798
  92   2.0000      -6.035843      -164.2436
  93   2.0000      -6.033820      -164.1886
  94   2.0000      -6.033314      -164.1748
  95   2.0000      -6.029049      -164.0588
  96   2.0000      -6.024806      -163.9433
  97   2.0000      -6.019301      -163.7935
  98   2.0000      -6.018846      -163.7811
  99   2.0000      -6.015374      -163.6866
 100   2.0000      -6.014894      -163.6736
 101   2.0000      -6.011381      -163.5780
 102   2.0000      -6.010935      -163.5659
 103   2.0000      -2.739116       -74.5351
 104   2.0000      -2.735012       -74.4235
 105   2.0000      -2.734882       -74.4199
 106   2.0000      -2.723364       -74.1065
 107   2.0000      -2.723360       -74.1064
 108   2.0000      -1.330370       -36.2012
 109   2.0000      -1.313282       -35.7362
 110   2.0000      -1.298575       -35.3360
 111   2.0000      -1.231869       -33.5208
 112   2.0000      -1.220463       -33.2105
 113   2.0000      -1.175201       -31.9788
 114   2.0000      -1.159284       -31.5457
 115   2.0000      -1.146844       -31.2072
 116   2.0000      -1.117173       -30.3998
 117   2.0000      -1.012712       -27.5573
 118   2.0000      -1.010829       -27.5060
 119   2.0000      -1.003782       -27.3143
 120   2.0000      -1.002431       -27.2775
 121   2.0000      -1.001497       -27.2521
 122   2.0000      -0.982061       -26.7232
 123   2.0000      -0.977788       -26.6070
 124   2.0000      -0.974877       -26.5278
 125   2.0000      -0.950909       -25.8755
 126   2.0000      -0.940209       -25.5844
 127   2.0000      -0.937575       -25.5127
 128   2.0000      -0.933878       -25.4121
 129   2.0000      -0.931487       -25.3471
 130   2.0000      -0.920488       -25.0478
 131   2.0000      -0.909694       -24.7540
 132   2.0000      -0.908359       -24.7177
 133   2.0000      -0.902686       -24.5633
 134   2.0000      -0.898444       -24.4479
 135   2.0000      -0.890973       -24.2446
 136   2.0000      -0.886422       -24.1208
 137   2.0000      -0.878236       -23.8980
 138   2.0000      -0.876191       -23.8424
 139   2.0000      -0.869862       -23.6701
 140   2.0000      -0.865344       -23.5472
 141   2.0000      -0.857133       -23.3238
 142   2.0000      -0.846593       -23.0370
 143   2.0000      -0.841969       -22.9111
 144   2.0000      -0.840163       -22.8620
 145   2.0000      -0.831459       -22.6251
 146   2.0000      -0.822128       -22.3712
 147   2.0000      -0.820474       -22.3262
 148   2.0000      -0.817258       -22.2387
 149   2.0000      -0.799679       -21.7604
 150   2.0000      -0.792079       -21.5536
 151   2.0000      -0.784146       -21.3377
 152   2.0000      -0.775708       -21.1081
 153   2.0000      -0.761689       -20.7266
 154   2.0000      -0.749599       -20.3976
 155   2.0000      -0.744170       -20.2499
 156   2.0000      -0.741892       -20.1879
 157   2.0000      -0.735066       -20.0022
 158   2.0000      -0.731699       -19.9105
 159   2.0000      -0.721179       -19.6243
 160   2.0000      -0.713311       -19.4102
 161   2.0000      -0.711101       -19.3500
 162   2.0000      -0.704496       -19.1703
 163   2.0000      -0.702870       -19.1261
 164   2.0000      -0.702356       -19.1121
 165   2.0000      -0.682484       -18.5713
 166   2.0000      -0.680566       -18.5191
 167   2.0000      -0.674734       -18.3605
 168   2.0000      -0.673564       -18.3286
 169   2.0000      -0.669929       -18.2297
 170   2.0000      -0.662177       -18.0188
 171   2.0000      -0.657128       -17.8814
 172   2.0000      -0.653211       -17.7748
 173   2.0000      -0.647027       -17.6065
 174   2.0000      -0.646221       -17.5846
 175   2.0000      -0.643858       -17.5203
 176   2.0000      -0.641021       -17.4431
 177   2.0000      -0.638083       -17.3631
 178   2.0000      -0.635627       -17.2963
 179   2.0000      -0.625894       -17.0314
 180   2.0000      -0.623380       -16.9630
 181   2.0000      -0.619505       -16.8576
 182   2.0000      -0.614809       -16.7298
 183   2.0000      -0.613675       -16.6990
 184   2.0000      -0.609139       -16.5755
 185   2.0000      -0.607065       -16.5191
 186   2.0000      -0.600982       -16.3535
 187   2.0000      -0.598445       -16.2845
 188   2.0000      -0.595933       -16.2162
 189   2.0000      -0.588197       -16.0056
 190   2.0000      -0.586127       -15.9493
 191   2.0000      -0.581836       -15.8326
 192   2.0000      -0.580185       -15.7876
 193   2.0000      -0.578586       -15.7441
 194   2.0000      -0.569516       -15.4973
 195   2.0000      -0.566284       -15.4094
 196   2.0000      -0.563453       -15.3323
 197   2.0000      -0.558627       -15.2010
 198   2.0000      -0.557294       -15.1647
 199   2.0000      -0.551041       -14.9946
 200   2.0000      -0.547547       -14.8995
 201   2.0000      -0.547213       -14.8904
 202   2.0000      -0.542779       -14.7698
 203   2.0000      -0.540900       -14.7186
 204   2.0000      -0.539020       -14.6675
 205   2.0000      -0.538201       -14.6452
 206   2.0000      -0.532079       -14.4786
 207   2.0000      -0.528858       -14.3910
 208   2.0000      -0.528272       -14.3750
 209   2.0000      -0.524218       -14.2647
 210   2.0000      -0.517963       -14.0945
 211   2.0000      -0.516393       -14.0518
 212   2.0000      -0.515487       -14.0271
 213   2.0000      -0.512433       -13.9440
 214   2.0000      -0.511354       -13.9146
 215   2.0000      -0.509032       -13.8515
 216   2.0000      -0.507082       -13.7984
 217   2.0000      -0.505126       -13.7452
 218   2.0000      -0.502368       -13.6701
 219   2.0000      -0.500481       -13.6188
 220   2.0000      -0.499471       -13.5913
 221   2.0000      -0.498865       -13.5748
 222   2.0000      -0.498127       -13.5547
 223   2.0000      -0.495660       -13.4876
 224   2.0000      -0.494085       -13.4447
 225   2.0000      -0.491311       -13.3692
 226   2.0000      -0.488616       -13.2959
 227   2.0000      -0.483483       -13.1562
 228   2.0000      -0.482841       -13.1388
 229   2.0000      -0.482236       -13.1223
 230   2.0000      -0.481583       -13.1045
 231   2.0000      -0.478529       -13.0214
 232   2.0000      -0.473437       -12.8829
 233   2.0000      -0.470540       -12.8041
 234   2.0000      -0.468514       -12.7489
 235   2.0000      -0.466561       -12.6958
 236   2.0000      -0.465301       -12.6615
 237   2.0000      -0.463429       -12.6105
 238   2.0000      -0.460320       -12.5259
 239   2.0000      -0.457604       -12.4520
 240   2.0000      -0.456710       -12.4277
 241   2.0000      -0.451959       -12.2984
 242   2.0000      -0.451328       -12.2813
 243   2.0000      -0.448239       -12.1972
 244   2.0000      -0.443053       -12.0561
 245   2.0000      -0.441440       -12.0122
 246   2.0000      -0.439028       -11.9466
 247   2.0000      -0.437856       -11.9147
 248   2.0000      -0.437611       -11.9080
 249   2.0000      -0.437213       -11.8972
 250   2.0000      -0.434340       -11.8190
 251   2.0000      -0.432441       -11.7673
 252   2.0000      -0.432304       -11.7636
 253   2.0000      -0.429802       -11.6955
 254   2.0000      -0.429498       -11.6872
 255   2.0000      -0.428130       -11.6500
 256   2.0000      -0.424485       -11.5508
 257   2.0000      -0.422561       -11.4985
 258   2.0000      -0.419691       -11.4204
 259   2.0000      -0.417387       -11.3577
 260   2.0000      -0.415108       -11.2957
 261   2.0000      -0.414889       -11.2897
 262   2.0000      -0.411890       -11.2081
 263   2.0000      -0.410132       -11.1603
 264   2.0000      -0.406926       -11.0730
 265   2.0000      -0.397311       -10.8114
 266   2.0000      -0.395575       -10.7642
 267   2.0000      -0.393112       -10.6971
 268   2.0000      -0.391238       -10.6461
 269   2.0000      -0.387167       -10.5354
 270   2.0000      -0.383308       -10.4303
 271   2.0000      -0.378619       -10.3028
 272   2.0000      -0.374811       -10.1991
 273   2.0000      -0.369408       -10.0521
 274   2.0000      -0.369292       -10.0490
 275   2.0000      -0.365233        -9.9385
 276   2.0000      -0.360669        -9.8143
 277   2.0000      -0.346267        -9.4224
 278   2.0000      -0.337369        -9.1803
 279   2.0000      -0.328986        -8.9522
 280   2.0000      -0.326296        -8.8790
 281   2.0000      -0.324442        -8.8285
 282   2.0000      -0.323273        -8.7967
 283   2.0000      -0.320161        -8.7120
 284   2.0000      -0.307310        -8.3623
 285   2.0000      -0.306436        -8.3386
 286   2.0000      -0.292445        -7.9578
 287   2.0000      -0.284865        -7.7516
 288   2.0000      -0.274648        -7.4735
 289   2.0000      -0.264391        -7.1945
 290   2.0000      -0.245820        -6.6891
 291   2.0000      -0.222642        -6.0584
 292   0.0000      -0.095606        -2.6016
 293   0.0000      -0.074202        -2.0191
 294   0.0000      -0.069220        -1.8836
 295   0.0000      -0.051197        -1.3931
 296   0.0000      -0.041719        -1.1352

MULLIKEN ATOMIC CHARGES
-----------------------
   0 C :    0.334513
   1 C :   -0.362215
   2 C :   -0.185765
   3 N :    0.139472
   4 C :   -0.193566
   5 N :    0.138974
   6 C :    0.013320
   7 C :   -0.010240
   8 C :   -0.079765
   9 C :    0.119748
  10 C :   -0.090733
  11 C :   -0.026608
  12 S :    0.181601
  13 C :   -0.122132
  14 C :    0.036263
  15 Br:    0.016274
  16 C :    0.142284
  17 O :   -0.163551
  18 C :   -0.075016
  19 C :   -0.034793
  20 C :   -0.006375
  21 C :   -0.001354
  22 C :    0.079473
  23 O :   -0.214204
  24 C :    0.128057
  25 C :    0.075130
  26 C :    0.109875
  27 O :   -0.158143
  28 O :   -0.196969
  29 C :   -0.078548
  30 C :    0.035914
  31 C :   -0.013665
  32 C :    0.045485
  33 C :   -0.131886
  34 S :    0.169200
  35 C :   -0.125301
  36 C :    0.119370
  37 C :    0.126276
  38 C :   -0.127178
  39 C :    0.229770
  40 F :   -0.180800
  41 C :    0.227691
  42 F :   -0.179078
  43 C :   -0.123115
  44 C :    0.042944
  45 C :    0.036989
  46 C :   -0.051967
  47 S :    0.125561
  48 C :   -0.068732
  49 C :    0.094533
  50 C :   -0.099678
  51 C :    0.057496
  52 C :    0.032083
  53 C :   -0.099746
  54 C :    0.062140
  55 C :    0.029673
  56 C :   -0.124174
  57 C :   -0.124957
  58 S :    0.127671
  59 C :    0.094112
  60 C :   -0.069271
  61 C :   -0.043960
  62 C :    0.044317
  63 C :    0.022851
  64 C :   -0.193994
  65 S :    0.145367
  66 C :   -0.136569
  67 C :    0.127939
  68 C :    0.198885
  69 O :   -0.188418
  70 C :    0.236617
  71 N :    0.271902
  72 O :   -0.247828
  73 O :   -0.229186
  74 C :   -0.068479
  75 H :   -0.016367
  76 H :   -0.008149
  77 H :   -0.007212
  78 H :    0.007085
  79 H :    0.026554
  80 H :    0.024223
  81 H :    0.200335
  82 H :    0.194243
  83 H :   -0.030650
  84 H :    0.017499
  85 H :   -0.007966
  86 H :   -0.003964
  87 H :   -0.011322
  88 H :   -0.008552
  89 H :   -0.013874
  90 H :   -0.012417
  91 H :   -0.023932
  92 H :    0.003216
  93 H :   -0.002631
  94 H :    0.012777
  95 H :    0.013746
  96 H :    0.004940
  97 H :   -0.006397
  98 H :    0.006860
  99 H :    0.004109
 100 H :    0.016422
 101 H :    0.013563
 102 H :   -0.022056
 103 H :   -0.013873
 104 H :    0.004662
 105 H :    0.033872
 106 H :    0.013444
Sum of atomic charges:   -0.0000000

LOEWDIN ATOMIC CHARGES
----------------------
   0 C :    0.076078
   1 C :   -0.151461
   2 C :   -0.018086
   3 N :   -0.064632
   4 C :   -0.020512
   5 N :   -0.062106
   6 C :   -0.019275
   7 C :   -0.048798
   8 C :    0.017166
   9 C :   -0.034874
  10 C :   -0.145257
  11 C :   -0.012070
  12 S :    0.428533
  13 C :   -0.273768
  14 C :   -0.071408
  15 Br:    0.131267
  16 C :    0.082900
  17 O :   -0.156407
  18 C :   -0.110953
  19 C :    0.067049
  20 C :   -0.043712
  21 C :    0.023860
  22 C :   -0.009078
  23 O :    0.009275
  24 C :    0.012918
  25 C :   -0.025825
  26 C :    0.019550
  27 O :   -0.030327
  28 O :   -0.059588
  29 C :   -0.065275
  30 C :    0.003343
  31 C :   -0.037189
  32 C :   -0.032040
  33 C :   -0.184470
  34 S :    0.487151
  35 C :   -0.172146
  36 C :   -0.045305
  37 C :   -0.040041
  38 C :   -0.042669
  39 C :    0.062449
  40 F :   -0.058444
  41 C :    0.060357
  42 F :   -0.057222
  43 C :   -0.039118
  44 C :   -0.042698
  45 C :   -0.040103
  46 C :   -0.158568
  47 S :    0.405375
  48 C :   -0.053047
  49 C :   -0.042687
  50 C :   -0.022737
  51 C :   -0.027795
  52 C :   -0.049540
  53 C :   -0.021891
  54 C :   -0.027543
  55 C :   -0.049000
  56 C :   -0.178563
  57 C :   -0.180166
  58 S :    0.406033
  59 C :   -0.041326
  60 C :   -0.053164
  61 C :   -0.157452
  62 C :   -0.045268
  63 C :   -0.028743
  64 C :   -0.200748
  65 S :    0.476273
  66 C :   -0.181470
  67 C :   -0.083743
  68 C :    0.020619
  69 O :   -0.003048
  70 C :    0.027544
  71 N :    0.271670
  72 O :   -0.209220
  73 O :   -0.190846
  74 C :   -0.008729
  75 H :    0.038374
  76 H :    0.040450
  77 H :    0.037295
  78 H :    0.040647
  79 H :    0.033493
  80 H :    0.048570
  81 H :    0.109381
  82 H :    0.100396
  83 H :    0.025209
  84 H :    0.038837
  85 H :    0.025672
  86 H :    0.033089
  87 H :    0.039237
  88 H :    0.040512
  89 H :    0.028636
  90 H :    0.027053
  91 H :    0.025399
  92 H :    0.025326
  93 H :    0.025448
  94 H :    0.022855
  95 H :    0.023954
  96 H :    0.022856
  97 H :    0.024903
  98 H :    0.026753
  99 H :    0.022162
 100 H :    0.025006
 101 H :    0.023071
 102 H :    0.026848
 103 H :    0.022011
 104 H :    0.039790
 105 H :    0.030007
 106 H :    0.047501

  Mayer bond orders larger than 0.100000
B(  0-C ,  1-C ) :   1.6009 B(  0-C ,  6-C ) :   0.9929 B(  0-C , 18-C ) :   1.0941
B(  1-C ,  2-C ) :   1.1461 B(  1-C ,  4-C ) :   1.1511 B(  2-C ,  3-N ) :   2.9629
B(  4-C ,  5-N ) :   2.9592 B(  6-C ,  7-C ) :   1.2793 B(  6-C , 11-C ) :   1.4124
B(  7-C ,  8-C ) :   1.4265 B(  7-C , 16-C ) :   0.9374 B(  8-C ,  9-C ) :   1.2418
B(  8-C , 75-H ) :   1.0163 B(  9-C , 10-C ) :   1.3127 B(  9-C , 14-C ) :   1.1594
B( 10-C , 11-C ) :   1.3260 B( 10-C , 12-S ) :   1.0827 B( 11-C , 76-H ) :   0.9792
B( 12-S , 13-C ) :   1.0860 B( 13-C , 14-C ) :   1.6200 B( 13-C , 15-Br) :   1.0147
B( 14-C , 77-H ) :   1.0007 B( 16-C , 17-O ) :   2.1934 B( 16-C , 18-C ) :   0.9622
B( 18-C , 19-C ) :   1.4696 B( 19-C , 20-C ) :   1.2038 B( 19-C , 78-H ) :   0.9611
B( 20-C , 21-C ) :   1.4555 B( 20-C , 79-H ) :   0.9960 B( 21-C , 22-C ) :   1.2116
B( 21-C , 80-H ) :   0.9778 B( 22-C , 23-O ) :   1.1037 B( 22-C , 24-C ) :   0.1075
B( 22-C , 26-C ) :   1.3240 B( 23-O , 24-C ) :   1.1439 B( 24-C , 25-C ) :   1.2837
B( 24-C , 29-C ) :   1.1442 B( 25-C , 26-C ) :   1.2564 B( 25-C , 28-O ) :   1.2335
B( 26-C , 27-O ) :   1.2985 B( 27-O , 81-H ) :   0.9489 B( 28-O , 82-H ) :   0.9565
B( 29-C , 30-C ) :   1.6063 B( 29-C , 83-H ) :   0.9638 B( 30-C , 31-C ) :   1.1505
B( 30-C , 84-H ) :   0.9985 B( 31-C , 32-C ) :   1.6155 B( 31-C , 85-H ) :   0.9795
B( 32-C , 33-C ) :   1.1475 B( 32-C , 86-H ) :   0.9577 B( 33-C , 34-S ) :   1.1464
B( 33-C , 35-C ) :   0.1057 B( 33-C , 37-C ) :   1.3380 B( 34-S , 35-C ) :   1.1652
B( 35-C , 36-C ) :   1.3389 B( 35-C , 44-C ) :   1.1540 B( 36-C , 37-C ) :   1.2247
B( 36-C , 43-C ) :   1.1578 B( 37-C , 38-C ) :   1.1612 B( 38-C , 39-C ) :   1.4993
B( 38-C , 43-C ) :   0.1093 B( 38-C , 87-H ) :   0.9960 B( 39-C , 40-F ) :   1.1247
B( 39-C , 41-C ) :   1.1562 B( 41-C , 42-F ) :   1.1276 B( 41-C , 43-C ) :   1.5015
B( 43-C , 88-H ) :   0.9972 B( 44-C , 45-C ) :   1.6837 B( 44-C , 89-H ) :   0.9469
B( 45-C , 46-C ) :   1.1191 B( 45-C , 90-H ) :   0.9571 B( 46-C , 47-S ) :   1.0708
B( 46-C , 48-C ) :   1.5495 B( 47-S , 56-C ) :   1.0683 B( 48-C , 49-C ) :   1.2039
B( 48-C , 91-H ) :   0.9799 B( 49-C , 50-C ) :   1.2166 B( 49-C , 56-C ) :   1.3719
B( 50-C , 51-C ) :   1.0755 B( 50-C , 53-C ) :   1.5529 B( 51-C , 52-C ) :   1.1075
B( 51-C , 92-H ) :   0.9150 B( 51-C , 93-H ) :   0.9217 B( 52-C , 94-H ) :   0.9673
B( 52-C , 95-H ) :   0.9643 B( 52-C , 96-H ) :   0.9642 B( 53-C , 54-C ) :   1.0768
B( 53-C , 59-C ) :   1.2143 B( 54-C , 55-C ) :   1.1070 B( 54-C , 97-H ) :   0.9205
B( 54-C , 98-H ) :   0.9154 B( 55-C , 99-H ) :   0.9637 B( 55-C ,100-H ) :   0.9647
B( 55-C ,101-H ) :   0.9676 B( 56-C , 57-C ) :   1.3695 B( 57-C , 58-S ) :   1.0671
B( 57-C , 59-C ) :   1.3747 B( 58-S , 61-C ) :   1.0722 B( 59-C , 60-C ) :   1.1996
B( 60-C , 61-C ) :   1.5634 B( 60-C ,102-H ) :   0.9814 B( 61-C , 62-C ) :   1.1004
B( 62-C , 63-C ) :   1.6874 B( 62-C ,103-H ) :   0.9627 B( 63-C , 64-C ) :   1.1560
B( 63-C ,104-H ) :   0.9773 B( 64-C , 65-S ) :   1.1145 B( 64-C , 66-C ) :   0.1119
B( 64-C , 68-C ) :   1.4669 B( 65-S , 66-C ) :   1.1922 B( 66-C , 67-C ) :   1.4369
B( 66-C ,105-H ) :   0.9764 B( 67-C , 68-C ) :   1.2098 B( 67-C , 74-C ) :   1.0559
B( 68-C , 69-O ) :   1.1118 B( 69-O , 70-C ) :   1.1234 B( 70-C , 71-N ) :   0.9136
B( 70-C , 74-C ) :   1.5858 B( 71-N , 72-O ) :   1.5346 B( 71-N , 73-O ) :   1.5157
B( 72-O , 73-O ) :   0.2810 B( 74-C ,106-H ) :   1.0248

-----------------------------------------------------------------------------
         ABSORPTION SPECTRUM VIA TRANSITION ELECTRIC DIPOLE MOMENTS
-----------------------------------------------------------------------------
State   Energy  Wavelength   fosc         T2         TX        TY        TZ
        (cm-1)    (nm)                  (au**2)     (au)      (au)      (au)
-----------------------------------------------------------------------------
   0   14073.6    710.5   1.889945466  44.20984   5.17417  -4.17527  -0.07008
   1   19750.1    506.3   1.280333917  21.34173   2.25500  -0.44473  -4.00736
   2   21505.3    465.0   0.077666640   1.18895  -0.15164   0.48497  -0.96476
   3   22320.1    448.0   0.169677973   2.50267   1.29078  -0.47581   0.78113
   4   24139.9    414.3   0.047812726   0.65205   0.33015  -0.42289  -0.60351
   5   25326.4    394.8   0.126610942   1.64579   0.01137  -0.59895   1.13443
   6   26278.5    380.5   0.235633569   2.95197  -1.13353   1.05165   0.74908
   7   27326.6    365.9   0.033345514   0.40172  -0.37033   0.26830  -0.43886
   8   27496.8    363.7   0.152971717   1.83149  -0.56051  -0.34316   1.18303
   9   27833.2    359.3   0.134120425   1.58638  -0.18189   0.01938   1.24616
  10   28186.2    354.8   0.000006176   0.00007   0.00348  -0.00116  -0.00766
  11   28427.3    351.8   0.067805882   0.78525   0.81661  -0.20509  -0.27628
  12   28919.3    345.8   0.441308088   5.02376   2.00000  -0.70474  -0.72602
  13   30067.0    332.6   0.104672363   1.14609  -1.02866   0.29356   0.04209
  14   30128.8    331.9   0.033055590   0.36119  -0.49660  -0.03563   0.33662
  15   30847.2    324.2   0.135757003   1.44885  -0.70439  -0.19579   0.95622
  16   31481.8    317.6   0.251103796   2.62585   1.13368  -0.22516  -1.13575
  17   31608.1    316.4   0.035631102   0.37111  -0.52294  -0.25092  -0.18623
  18   31936.5    313.1   0.000027110   0.00028  -0.00997  -0.01269  -0.00437
  19   32413.5    308.5   0.004669803   0.04743  -0.14345   0.08370  -0.14087
  20   32924.7    303.7   0.069902254   0.69895  -0.65835   0.43939  -0.26917
  21   33215.9    301.1   0.678316081   6.72298   1.57794  -0.15132  -2.05187
  22   33659.3    297.1   0.191079578   1.86889   0.16523   0.41322   1.29261
  23   34424.4    290.5   0.130998157   1.25278   0.63380  -0.34901  -0.85398
  24   34787.2    287.5   0.180234844   1.70567   0.99848  -0.21848   0.81300
  25   34978.6    285.9   0.017139474   0.16131  -0.28011   0.24271   0.15474
  26   35355.1    282.8   0.034878571   0.32477   0.39446  -0.11885  -0.39376
  27   35989.9    277.9   0.087964317   0.80464  -0.39607  -0.03766   0.80396
  28   36340.2    275.2   0.079026915   0.71592   0.29362  -0.31028  -0.73036
  29   36593.0    273.3   0.002967823   0.02670   0.05231   0.12727   0.08812
  30   36771.9    271.9   0.079280593   0.70978  -0.23631  -0.50494  -0.63165
  31   37094.1    269.6   0.039169151   0.34763   0.06271   0.36582   0.45812
  32   37212.6    268.7   0.102154972   0.90374  -0.18410   0.23842   0.90167
  33   37797.5    264.6   0.180418135   1.57142   0.37825   0.32175   1.15101
  34   38568.0    259.3   0.312431101   2.66687   0.90167  -1.23973  -0.56297
  35   38602.4    259.1   0.066910035   0.57063  -0.13317   0.41446  -0.61734
  36   38787.1    257.8   0.267677120   2.27195   0.17918   0.65375   1.34628
  37   39106.0    255.7   0.042680578   0.35930  -0.56893   0.06392   0.17760
  38   39547.4    252.9   0.085568638   0.71231  -0.55214   0.34299   0.53834
  39   40036.7    249.8   0.004237193   0.03484   0.15247  -0.10621  -0.01770
  40   40322.9    248.0   0.001901330   0.01552   0.07263  -0.01102   0.10063

FINAL SINGLE POINT ENERGY     -7642.140251629187

DIPOLE MOMENT
-------------
                                X             Y             Z
Electronic contribution:     71.91616    -134.39577      45.10726
Nuclear contribution   :    -74.85274     136.69590     -46.85391
                        -----------------------------------------
Total Dipole Moment    :     -2.93658       2.30013      -1.74666
                        -----------------------------------------
Magnitude (a.u.)       :      4.11885
Magnitude (Debye)      :     10.46927

Rotational constants in cm-1:     0.000752     0.000146     0.000126
Rotational constants in MHz :    22.554748     4.388668     3.766927

                             ****ORCA TERMINATED NORMALLY****
TOTAL RUN TIME: 0 days 0 hours 11 minutes 15 seconds 150 msec
