                         Program Version 4.2.0 -  RELEASE  -
|  1> # ORCA input file
|  2> # SCF done       -205.110992155637          0.000759332640
|  3> ! CAM-B3LYP def2-SVP def2/J RIJCOSX Grid4 TightSCF
|  4> %maxcore 5000
|  5> %tddft
|  6>     Mode sTDDFT
|  7>     Ethresh 5.0
|  8>     maxcore 5000
|  9> end
| 10>
| 11> %pal
| 12>   nprocs 6
| 13>   end
| 14> * xyz 0 1
| 15>    C       -5.80117        -2.46981         1.76059
| 16>    C       -4.47623        -2.19369         1.99276
| 17>    C       -3.49544        -3.17762         2.23390
| 18>    N       -2.65022        -3.92803         2.43667
| 19>    C       -3.89314        -0.91031         2.02230
| 20>    N       -3.33897         0.09547         2.06305
| 21>    C       -6.38614        -3.80852         1.72579
| 22>    C       -7.76858        -3.69217         1.43931
| 23>    C       -8.60202        -4.77883         1.34042
| 24>    C       -8.04455        -6.04708         1.53613
| 25>    C       -6.66356        -6.15523         1.82264
| 26>    C       -5.82058        -5.05396         1.92070
| 27>    S       -6.18216        -7.81156         2.03087
| 28>    C       -7.82048        -8.32902         1.73470
| 29>    C       -8.68517        -7.31557         1.49158
| 30>   Br       -8.23627       -10.15755         1.77556
| 31>    C       -8.10805        -2.26658         1.28467
| 32>    O       -9.21277        -1.81378         1.03065
| 33>    C       -6.86558        -1.52494         1.50132
| 34>    C       -6.74370        -0.15397         1.47956
| 35>    C       -7.70547         0.82737         1.24401
| 36>    S       -9.40995         0.61383         0.86560
| 37>    C       -9.70093         2.33021         0.76126
| 38>    C       -8.52370         3.04079         1.01550
| 39>    C       -7.42358         2.19662         1.27810
| 40>    S       -6.01354         3.14211         1.57730
| 41>    C       -7.01749         4.57057         1.32592
| 42>    N       -8.24666         4.36985         1.05296
| 43>    C      -10.95331         2.89445         0.46627
| 44>    C      -12.07116         2.16276         0.19417
| 45>    C      -13.32976         2.71686        -0.10176
| 46>    S      -13.59378         4.43640        -0.10185
| 47>    C      -15.27203         4.23187        -0.52895
| 48>    C      -15.59104         2.87412        -0.64998
| 49>    C      -14.50740         2.03290        -0.41952
| 50>    C      -14.59321         0.53855        -0.48874
| 51>    C      -15.88059         0.07562        -1.17921
| 52>    C      -15.71952         0.15013        -2.69448
| 53>    F      -15.24181         1.31625        -3.14878
| 54>    F      -14.86872        -0.79355        -3.13294
| 55>    F      -16.87945        -0.05903        -3.33859
| 56>    C      -17.08675         0.87962        -0.68771
| 57>    C      -16.95265         2.36753        -1.00733
| 58>    C      -16.12055         5.33304        -0.71389
| 59>    C      -15.74287         6.63466        -0.50098
| 60>    C      -16.57987         7.73342        -0.68562
| 61>    C      -16.21686         9.03589        -0.40973
| 62>    C      -17.00676        10.19398        -0.57251
| 63>    C      -16.39102        11.34935        -0.18484
| 64>    C      -15.08331        11.15801         0.30700
| 65>    S      -14.64951         9.47077         0.24852
| 66>    C      -14.21505        12.12139         0.80267
| 67>    C      -14.44719        13.50454         0.93247
| 68>    C      -13.40037        14.18649         1.48435
| 69>    C      -12.29491        13.37425         1.81574
| 70>    S      -12.61982        11.71240         1.38972
| 71>    C      -11.10845        13.80098         2.38493
| 72>    C      -10.05921        12.95370         2.71630
| 73>    C       -8.83688        13.29318         3.25920
| 74>    C       -8.17205        14.55695         3.41181
| 75>    C       -8.32612        15.68032         2.63071
| 76>    C       -7.61156        16.87733         2.82733
| 77>    N       -7.07420        17.88515         2.95267
| 78>    C       -9.12571        15.74391         1.47320
| 79>    N       -9.72175        15.85134         0.49708
| 80>    C       -7.12368        14.37988         4.41785
| 81>    C       -7.01329        12.99911         4.71675
| 82>    C       -8.04170        12.25783         3.95449
| 83>    O       -8.22435        11.05905         3.93447
| 84>    C       -6.08909        12.50791         5.60480
| 85>    C       -5.24204        13.42396         6.23961
| 86>    C       -5.37080        14.80081         5.94558
| 87>    C       -6.29955        15.29766         5.03752
| 88>    S       -4.23784        15.75720         6.85214
| 89>    C       -3.61246        14.31206         7.60109
| 90>    C       -4.21947        13.17208         7.19567
| 91>   Br       -2.21927        14.44624         8.85066
| 92>    H       -9.65077        -4.65563         1.12008
| 93>    H       -4.77560        -5.19161         2.14165
| 94>    H       -9.73146        -7.45491         1.28924
| 95>    H       -5.76129         0.25842         1.67847
| 96>    H       -6.57934         5.54550         1.40816
| 97>    H      -10.99642         3.97608         0.45826
| 98>    H      -11.99509         1.08349         0.20232
| 99>    H      -14.57372         0.13183         0.52667
|100>    H      -13.72620         0.13595        -1.01799
|101>    H      -16.04442        -0.98679        -0.96717
|102>    H      -17.15263         0.74479         0.39352
|103>    H      -18.00203         0.48862        -1.13453
|104>    H      -17.71552         2.92185        -0.45689
|105>    H      -17.13032         2.54210        -2.07287
|106>    H      -17.13135         5.12732        -1.03933
|107>    H      -14.73388         6.82734        -0.15690
|108>    H      -17.58168         7.56754        -1.06045
|109>    H      -18.00537        10.14228        -0.96917
|110>    H      -16.84405        12.32254        -0.23839
|111>    H      -15.36976        13.96211         0.62412
|112>    H      -13.38705        15.24758         1.65754
|113>    H      -11.03657        14.85683         2.60115
|114>    H      -10.23392        11.88517         2.62836
|115>    H       -6.02102        11.45055         5.80725
|116>    H       -6.36221        16.35660         4.84952
|117>    H       -3.95971        12.19310         7.55509
|118> *
|119>
|120>                          ****END OF INPUT****

CARTESIAN COORDINATES (ANGSTROEM)
---------------------------------
  C     -5.801170   -2.469810    1.760590
  C     -4.476230   -2.193690    1.992760
  C     -3.495440   -3.177620    2.233900
  N     -2.650220   -3.928030    2.436670
  C     -3.893140   -0.910310    2.022300
  N     -3.338970    0.095470    2.063050
  C     -6.386140   -3.808520    1.725790
  C     -7.768580   -3.692170    1.439310
  C     -8.602020   -4.778830    1.340420
  C     -8.044550   -6.047080    1.536130
  C     -6.663560   -6.155230    1.822640
  C     -5.820580   -5.053960    1.920700
  S     -6.182160   -7.811560    2.030870
  C     -7.820480   -8.329020    1.734700
  C     -8.685170   -7.315570    1.491580
  Br    -8.236270  -10.157550    1.775560
  C     -8.108050   -2.266580    1.284670
  O     -9.212770   -1.813780    1.030650
  C     -6.865580   -1.524940    1.501320
  C     -6.743700   -0.153970    1.479560
  C     -7.705470    0.827370    1.244010
  S     -9.409950    0.613830    0.865600
  C     -9.700930    2.330210    0.761260
  C     -8.523700    3.040790    1.015500
  C     -7.423580    2.196620    1.278100
  S     -6.013540    3.142110    1.577300
  C     -7.017490    4.570570    1.325920
  N     -8.246660    4.369850    1.052960
  C    -10.953310    2.894450    0.466270
  C    -12.071160    2.162760    0.194170
  C    -13.329760    2.716860   -0.101760
  S    -13.593780    4.436400   -0.101850
  C    -15.272030    4.231870   -0.528950
  C    -15.591040    2.874120   -0.649980
  C    -14.507400    2.032900   -0.419520
  C    -14.593210    0.538550   -0.488740
  C    -15.880590    0.075620   -1.179210
  C    -15.719520    0.150130   -2.694480
  F    -15.241810    1.316250   -3.148780
  F    -14.868720   -0.793550   -3.132940
  F    -16.879450   -0.059030   -3.338590
  C    -17.086750    0.879620   -0.687710
  C    -16.952650    2.367530   -1.007330
  C    -16.120550    5.333040   -0.713890
  C    -15.742870    6.634660   -0.500980
  C    -16.579870    7.733420   -0.685620
  C    -16.216860    9.035890   -0.409730
  C    -17.006760   10.193980   -0.572510
  C    -16.391020   11.349350   -0.184840
  C    -15.083310   11.158010    0.307000
  S    -14.649510    9.470770    0.248520
  C    -14.215050   12.121390    0.802670
  C    -14.447190   13.504540    0.932470
  C    -13.400370   14.186490    1.484350
  C    -12.294910   13.374250    1.815740
  S    -12.619820   11.712400    1.389720
  C    -11.108450   13.800980    2.384930
  C    -10.059210   12.953700    2.716300
  C     -8.836880   13.293180    3.259200
  C     -8.172050   14.556950    3.411810
  C     -8.326120   15.680320    2.630710
  C     -7.611560   16.877330    2.827330
  N     -7.074200   17.885150    2.952670
  C     -9.125710   15.743910    1.473200
  N     -9.721750   15.851340    0.497080
  C     -7.123680   14.379880    4.417850
  C     -7.013290   12.999110    4.716750
  C     -8.041700   12.257830    3.954490
  O     -8.224350   11.059050    3.934470
  C     -6.089090   12.507910    5.604800
  C     -5.242040   13.423960    6.239610
  C     -5.370800   14.800810    5.945580
  C     -6.299550   15.297660    5.037520
  S     -4.237840   15.757200    6.852140
  C     -3.612460   14.312060    7.601090
  C     -4.219470   13.172080    7.195670
  Br    -2.219270   14.446240    8.850660
  H     -9.650770   -4.655630    1.120080
  H     -4.775600   -5.191610    2.141650
  H     -9.731460   -7.454910    1.289240
  H     -5.761290    0.258420    1.678470
  H     -6.579340    5.545500    1.408160
  H    -10.996420    3.976080    0.458260
  H    -11.995090    1.083490    0.202320
  H    -14.573720    0.131830    0.526670
  H    -13.726200    0.135950   -1.017990
  H    -16.044420   -0.986790   -0.967170
  H    -17.152630    0.744790    0.393520
  H    -18.002030    0.488620   -1.134530
  H    -17.715520    2.921850   -0.456890
  H    -17.130320    2.542100   -2.072870
  H    -17.131350    5.127320   -1.039330
  H    -14.733880    6.827340   -0.156900
  H    -17.581680    7.567540   -1.060450
  H    -18.005370   10.142280   -0.969170
  H    -16.844050   12.322540   -0.238390
  H    -15.369760   13.962110    0.624120
  H    -13.387050   15.247580    1.657540
  H    -11.036570   14.856830    2.601150
  H    -10.233920   11.885170    2.628360
  H     -6.021020   11.450550    5.807250
  H     -6.362210   16.356600    4.849520
  H     -3.959710   12.193100    7.555090

 Total Charge           Charge          ....    0
 Multiplicity           Mult            ....    1
 Number of Electrons    NEL             ....  634
 Basis Dimension        Dim             .... 1272

ORBITAL ENERGIES
----------------

  NO   OCC          E(Eh)            E(eV)
   0   2.0000    -482.885400    -13139.9798
   1   2.0000    -482.876268    -13139.7313
   2   2.0000     -88.974805     -2421.1275
   3   2.0000     -88.972757     -2421.0718
   4   2.0000     -88.970919     -2421.0218
   5   2.0000     -88.966229     -2420.8942
   6   2.0000     -88.965827     -2420.8832
   7   2.0000     -88.964229     -2420.8398
   8   2.0000     -88.960913     -2420.7495
   9   2.0000     -62.563111     -1702.4288
  10   2.0000     -62.553972     -1702.1801
  11   2.0000     -56.397060     -1534.6420
  12   2.0000     -56.394350     -1534.5683
  13   2.0000     -56.394313     -1534.5673
  14   2.0000     -56.387908     -1534.3930
  15   2.0000     -56.385219     -1534.3198
  16   2.0000     -56.385181     -1534.3188
  17   2.0000     -24.809272      -675.0946
  18   2.0000     -24.806593      -675.0217
  19   2.0000     -24.803308      -674.9323
  20   2.0000     -19.219652      -522.9933
  21   2.0000     -19.196397      -522.3605
  22   2.0000     -14.424523      -392.5112
  23   2.0000     -14.413904      -392.2223
  24   2.0000     -14.410361      -392.1259
  25   2.0000     -14.399509      -391.8306
  26   2.0000     -14.397102      -391.7651
  27   2.0000     -10.518290      -286.2172
  28   2.0000     -10.367596      -282.1166
  29   2.0000     -10.358197      -281.8609
  30   2.0000     -10.347425      -281.5678
  31   2.0000     -10.347278      -281.5637
  32   2.0000     -10.345260      -281.5088
  33   2.0000     -10.338376      -281.3215
  34   2.0000     -10.336825      -281.2793
  35   2.0000     -10.336552      -281.2719
  36   2.0000     -10.327044      -281.0132
  37   2.0000     -10.324992      -280.9573
  38   2.0000     -10.324195      -280.9356
  39   2.0000     -10.324152      -280.9344
  40   2.0000     -10.323440      -280.9151
  41   2.0000     -10.323178      -280.9079
  42   2.0000     -10.323071      -280.9050
  43   2.0000     -10.322332      -280.8849
  44   2.0000     -10.322166      -280.8804
  45   2.0000     -10.322021      -280.8765
  46   2.0000     -10.317080      -280.7420
  47   2.0000     -10.316989      -280.7395
  48   2.0000     -10.316848      -280.7357
  49   2.0000     -10.316135      -280.7163
  50   2.0000     -10.314000      -280.6582
  51   2.0000     -10.313051      -280.6324
  52   2.0000     -10.312663      -280.6218
  53   2.0000     -10.306953      -280.4664
  54   2.0000     -10.306394      -280.4513
  55   2.0000     -10.306379      -280.4508
  56   2.0000     -10.306308      -280.4489
  57   2.0000     -10.306158      -280.4448
  58   2.0000     -10.305006      -280.4135
  59   2.0000     -10.304436      -280.3980
  60   2.0000     -10.304335      -280.3952
  61   2.0000     -10.303579      -280.3746
  62   2.0000     -10.303320      -280.3676
  63   2.0000     -10.301308      -280.3128
  64   2.0000     -10.300696      -280.2962
  65   2.0000     -10.300534      -280.2918
  66   2.0000     -10.298528      -280.2372
  67   2.0000     -10.297886      -280.2197
  68   2.0000     -10.297288      -280.2035
  69   2.0000     -10.297056      -280.1971
  70   2.0000     -10.296875      -280.1922
  71   2.0000     -10.296405      -280.1794
  72   2.0000     -10.294652      -280.1317
  73   2.0000     -10.294053      -280.1154
  74   2.0000     -10.293768      -280.1077
  75   2.0000     -10.293147      -280.0908
  76   2.0000     -10.292675      -280.0779
  77   2.0000     -10.291876      -280.0562
  78   2.0000     -10.291267      -280.0396
  79   2.0000     -10.290916      -280.0301
  80   2.0000     -10.287564      -279.9389
  81   2.0000     -10.285864      -279.8926
  82   2.0000     -10.280132      -279.7366
  83   2.0000     -10.277628      -279.6685
  84   2.0000     -10.274962      -279.5959
  85   2.0000      -8.792535      -239.2571
  86   2.0000      -8.783396      -239.0084
  87   2.0000      -8.070781      -219.6171
  88   2.0000      -8.068767      -219.5623
  89   2.0000      -8.063642      -219.4228
  90   2.0000      -8.062140      -219.3820
  91   2.0000      -8.061645      -219.3685
  92   2.0000      -8.060157      -219.3280
  93   2.0000      -8.057119      -219.2453
  94   2.0000      -6.628839      -180.3799
  95   2.0000      -6.619615      -180.1289
  96   2.0000      -6.614260      -179.9832
  97   2.0000      -6.614074      -179.9781
  98   2.0000      -6.605154      -179.7354
  99   2.0000      -6.604993      -179.7310
 100   2.0000      -6.040466      -164.3694
 101   2.0000      -6.038152      -164.3065
 102   2.0000      -6.036193      -164.2532
 103   2.0000      -6.034028      -164.1943
 104   2.0000      -6.033175      -164.1710
 105   2.0000      -6.032017      -164.1395
 106   2.0000      -6.031776      -164.1330
 107   2.0000      -6.030745      -164.1049
 108   2.0000      -6.030434      -164.0965
 109   2.0000      -6.029837      -164.0802
 110   2.0000      -6.028760      -164.0509
 111   2.0000      -6.027751      -164.0235
 112   2.0000      -6.027041      -164.0041
 113   2.0000      -6.026699      -163.9948
 114   2.0000      -6.025598      -163.9649
 115   2.0000      -6.025596      -163.9648
 116   2.0000      -6.023678      -163.9126
 117   2.0000      -6.023200      -163.8996
 118   2.0000      -6.022690      -163.8857
 119   2.0000      -6.021407      -163.8508
 120   2.0000      -6.018313      -163.7666
 121   2.0000      -2.744698       -74.6870
 122   2.0000      -2.740645       -74.5768
 123   2.0000      -2.740462       -74.5718
 124   2.0000      -2.735543       -74.4379
 125   2.0000      -2.731414       -74.3256
 126   2.0000      -2.731303       -74.3225
 127   2.0000      -2.728893       -74.2570
 128   2.0000      -2.728889       -74.2568
 129   2.0000      -2.719803       -74.0096
 130   2.0000      -2.719792       -74.0093
 131   2.0000      -1.396801       -38.0089
 132   2.0000      -1.300045       -35.3760
 133   2.0000      -1.296405       -35.2770
 134   2.0000      -1.134249       -30.8645
 135   2.0000      -1.110639       -30.2220
 136   2.0000      -1.079882       -29.3851
 137   2.0000      -1.021307       -27.7912
 138   2.0000      -1.013986       -27.5920
 139   2.0000      -1.011319       -27.5194
 140   2.0000      -1.008850       -27.4522
 141   2.0000      -1.008565       -27.4444
 142   2.0000      -0.998024       -27.1576
 143   2.0000      -0.991291       -26.9744
 144   2.0000      -0.991002       -26.9665
 145   2.0000      -0.990568       -26.9547
 146   2.0000      -0.985976       -26.8298
 147   2.0000      -0.977286       -26.5933
 148   2.0000      -0.973884       -26.5007
 149   2.0000      -0.953107       -25.9354
 150   2.0000      -0.942796       -25.6548
 151   2.0000      -0.936650       -25.4875
 152   2.0000      -0.930196       -25.3119
 153   2.0000      -0.925150       -25.1746
 154   2.0000      -0.909678       -24.7536
 155   2.0000      -0.906955       -24.6795
 156   2.0000      -0.900789       -24.5117
 157   2.0000      -0.896351       -24.3910
 158   2.0000      -0.894265       -24.3342
 159   2.0000      -0.884568       -24.0703
 160   2.0000      -0.881191       -23.9784
 161   2.0000      -0.875219       -23.8159
 162   2.0000      -0.872383       -23.7388
 163   2.0000      -0.866593       -23.5812
 164   2.0000      -0.863037       -23.4844
 165   2.0000      -0.862849       -23.4793
 166   2.0000      -0.851292       -23.1648
 167   2.0000      -0.838966       -22.8294
 168   2.0000      -0.834545       -22.7091
 169   2.0000      -0.831477       -22.6256
 170   2.0000      -0.828404       -22.5420
 171   2.0000      -0.821016       -22.3410
 172   2.0000      -0.815969       -22.2036
 173   2.0000      -0.803689       -21.8695
 174   2.0000      -0.793328       -21.5875
 175   2.0000      -0.784389       -21.3443
 176   2.0000      -0.772015       -21.0076
 177   2.0000      -0.759784       -20.6748
 178   2.0000      -0.754219       -20.5233
 179   2.0000      -0.745622       -20.2894
 180   2.0000      -0.742361       -20.2007
 181   2.0000      -0.737290       -20.0627
 182   2.0000      -0.727115       -19.7858
 183   2.0000      -0.711963       -19.3735
 184   2.0000      -0.709880       -19.3168
 185   2.0000      -0.706511       -19.2251
 186   2.0000      -0.696952       -18.9650
 187   2.0000      -0.690388       -18.7864
 188   2.0000      -0.687090       -18.6967
 189   2.0000      -0.683614       -18.6021
 190   2.0000      -0.681637       -18.5483
 191   2.0000      -0.678428       -18.4610
 192   2.0000      -0.674385       -18.3509
 193   2.0000      -0.667465       -18.1626
 194   2.0000      -0.663254       -18.0481
 195   2.0000      -0.658192       -17.9103
 196   2.0000      -0.655816       -17.8457
 197   2.0000      -0.649560       -17.6754
 198   2.0000      -0.648568       -17.6484
 199   2.0000      -0.642377       -17.4800
 200   2.0000      -0.635239       -17.2857
 201   2.0000      -0.632799       -17.2193
 202   2.0000      -0.626414       -17.0456
 203   2.0000      -0.625708       -17.0264
 204   2.0000      -0.619938       -16.8694
 205   2.0000      -0.619003       -16.8439
 206   2.0000      -0.608793       -16.5661
 207   2.0000      -0.602032       -16.3821
 208   2.0000      -0.597019       -16.2457
 209   2.0000      -0.593270       -16.1437
 210   2.0000      -0.587273       -15.9805
 211   2.0000      -0.584012       -15.8918
 212   2.0000      -0.581658       -15.8277
 213   2.0000      -0.579485       -15.7686
 214   2.0000      -0.570932       -15.5358
 215   2.0000      -0.562779       -15.3140
 216   2.0000      -0.561710       -15.2849
 217   2.0000      -0.558468       -15.1967
 218   2.0000      -0.556868       -15.1531
 219   2.0000      -0.554589       -15.0911
 220   2.0000      -0.550053       -14.9677
 221   2.0000      -0.547117       -14.8878
 222   2.0000      -0.544429       -14.8147
 223   2.0000      -0.543530       -14.7902
 224   2.0000      -0.542509       -14.7624
 225   2.0000      -0.540569       -14.7096
 226   2.0000      -0.535694       -14.5770
 227   2.0000      -0.533496       -14.5172
 228   2.0000      -0.532363       -14.4863
 229   2.0000      -0.529159       -14.3991
 230   2.0000      -0.527615       -14.3571
 231   2.0000      -0.524269       -14.2661
 232   2.0000      -0.523038       -14.2326
 233   2.0000      -0.521094       -14.1797
 234   2.0000      -0.518444       -14.1076
 235   2.0000      -0.515371       -14.0240
 236   2.0000      -0.514556       -14.0018
 237   2.0000      -0.512873       -13.9560
 238   2.0000      -0.510764       -13.8986
 239   2.0000      -0.508924       -13.8485
 240   2.0000      -0.507868       -13.8198
 241   2.0000      -0.507424       -13.8077
 242   2.0000      -0.502669       -13.6783
 243   2.0000      -0.500896       -13.6301
 244   2.0000      -0.498923       -13.5764
 245   2.0000      -0.494751       -13.4629
 246   2.0000      -0.493854       -13.4385
 247   2.0000      -0.493695       -13.4341
 248   2.0000      -0.493391       -13.4259
 249   2.0000      -0.492190       -13.3932
 250   2.0000      -0.489032       -13.3072
 251   2.0000      -0.486442       -13.2368
 252   2.0000      -0.483841       -13.1660
 253   2.0000      -0.482243       -13.1225
 254   2.0000      -0.480174       -13.0662
 255   2.0000      -0.478212       -13.0128
 256   2.0000      -0.477233       -12.9862
 257   2.0000      -0.473228       -12.8772
 258   2.0000      -0.469602       -12.7785
 259   2.0000      -0.464796       -12.6477
 260   2.0000      -0.462861       -12.5951
 261   2.0000      -0.457963       -12.4618
 262   2.0000      -0.457685       -12.4543
 263   2.0000      -0.456893       -12.4327
 264   2.0000      -0.450193       -12.2504
 265   2.0000      -0.448187       -12.1958
 266   2.0000      -0.447640       -12.1809
 267   2.0000      -0.446367       -12.1463
 268   2.0000      -0.444559       -12.0971
 269   2.0000      -0.442853       -12.0506
 270   2.0000      -0.440240       -11.9795
 271   2.0000      -0.437836       -11.9141
 272   2.0000      -0.437685       -11.9100
 273   2.0000      -0.433914       -11.8074
 274   2.0000      -0.433400       -11.7934
 275   2.0000      -0.432558       -11.7705
 276   2.0000      -0.428917       -11.6714
 277   2.0000      -0.428614       -11.6632
 278   2.0000      -0.426814       -11.6142
 279   2.0000      -0.425431       -11.5766
 280   2.0000      -0.425280       -11.5725
 281   2.0000      -0.424167       -11.5422
 282   2.0000      -0.423731       -11.5303
 283   2.0000      -0.417065       -11.3489
 284   2.0000      -0.415543       -11.3075
 285   2.0000      -0.412950       -11.2369
 286   2.0000      -0.409308       -11.1378
 287   2.0000      -0.407685       -11.0937
 288   2.0000      -0.406782       -11.0691
 289   2.0000      -0.404741       -11.0136
 290   2.0000      -0.402535       -10.9535
 291   2.0000      -0.394079       -10.7234
 292   2.0000      -0.391181       -10.6446
 293   2.0000      -0.386975       -10.5301
 294   2.0000      -0.378556       -10.3010
 295   2.0000      -0.374825       -10.1995
 296   2.0000      -0.372925       -10.1478
 297   2.0000      -0.371907       -10.1201
 298   2.0000      -0.365787        -9.9536
 299   2.0000      -0.361229        -9.8295
 300   2.0000      -0.358951        -9.7676
 301   2.0000      -0.352373        -9.5886
 302   2.0000      -0.345722        -9.4076
 303   2.0000      -0.339016        -9.2251
 304   2.0000      -0.334877        -9.1125
 305   2.0000      -0.334245        -9.0953
 306   2.0000      -0.326681        -8.8894
 307   2.0000      -0.322675        -8.7804
 308   2.0000      -0.320849        -8.7308
 309   2.0000      -0.313860        -8.5406
 310   2.0000      -0.310287        -8.4433
 311   2.0000      -0.302431        -8.2296
 312   2.0000      -0.293230        -7.9792
 313   2.0000      -0.284893        -7.7523
 314   2.0000      -0.280489        -7.6325
 315   2.0000      -0.252043        -6.8584
 316   2.0000      -0.219207        -5.9649
 317   0.0000      -0.119633        -3.2554
 318   0.0000      -0.095072        -2.5871
 319   0.0000      -0.068143        -1.8543
 320   0.0000      -0.058581        -1.5941
 321   0.0000      -0.047127        -1.2824

MULLIKEN ATOMIC CHARGES
-----------------------
   0 C :    0.329643
   1 C :   -0.358610
   2 C :   -0.185984
   3 N :    0.147153
   4 C :   -0.186724
   5 N :    0.138588
   6 C :    0.010963
   7 C :   -0.012678
   8 C :   -0.072789
   9 C :    0.117581
  10 C :   -0.093791
  11 C :   -0.019377
  12 S :    0.186728
  13 C :   -0.123104
  14 C :    0.037332
  15 Br:    0.021480
  16 C :    0.163655
  17 O :   -0.190311
  18 C :   -0.106922
  19 C :   -0.029016
  20 C :   -0.136906
  21 S :    0.182585
  22 C :   -0.106468
  23 C :    0.090711
  24 C :   -0.018891
  25 S :    0.134561
  26 C :    0.016411
  27 N :   -0.039747
  28 C :   -0.021410
  29 C :   -0.015342
  30 C :   -0.069211
  31 S :    0.111319
  32 C :   -0.074092
  33 C :   -0.049325
  34 C :   -0.075769
  35 C :    0.140726
  36 C :   -0.165976
  37 C :    0.477892
  38 F :   -0.158938
  39 F :   -0.166659
  40 F :   -0.164604
  41 C :    0.055051
  42 C :    0.095971
  43 C :   -0.015373
  44 C :   -0.003052
  45 C :    0.010470
  46 C :   -0.034245
  47 C :    0.052396
  48 C :    0.016104
  49 C :   -0.026745
  50 S :    0.102992
  51 C :   -0.058996
  52 C :    0.036455
  53 C :    0.036871
  54 C :   -0.017633
  55 S :    0.112706
  56 C :   -0.002389
  57 C :    0.020079
  58 C :   -0.129852
  59 C :    0.287764
  60 C :   -0.350061
  61 C :   -0.178795
  62 N :    0.135189
  63 C :   -0.218590
  64 N :    0.157800
  65 C :    0.006481
  66 C :   -0.004356
  67 C :    0.135416
  68 O :   -0.159321
  69 C :   -0.076154
  70 C :    0.111485
  71 C :   -0.091496
  72 C :   -0.024436
  73 S :    0.178245
  74 C :   -0.126287
  75 C :    0.041424
  76 Br:    0.014550
  77 H :   -0.014848
  78 H :   -0.007190
  79 H :   -0.005316
  80 H :    0.002558
  81 H :    0.054761
  82 H :    0.016016
  83 H :    0.009335
  84 H :    0.032885
  85 H :    0.041683
  86 H :    0.034424
  87 H :    0.018778
  88 H :    0.022581
  89 H :    0.020703
  90 H :    0.038498
  91 H :   -0.006145
  92 H :    0.016333
  93 H :   -0.008612
  94 H :   -0.005160
  95 H :   -0.005745
  96 H :   -0.006121
  97 H :    0.002343
  98 H :    0.008049
  99 H :    0.013830
 100 H :   -0.014523
 101 H :   -0.006928
 102 H :   -0.006539
Sum of atomic charges:   -0.0000000

LOEWDIN ATOMIC CHARGES
----------------------
   0 C :    0.076331
   1 C :   -0.148692
   2 C :   -0.018557
   3 N :   -0.058811
   4 C :   -0.021492
   5 N :   -0.057879
   6 C :   -0.018947
   7 C :   -0.050164
   8 C :    0.019453
   9 C :   -0.034491
  10 C :   -0.144763
  11 C :   -0.009956
  12 S :    0.433283
  13 C :   -0.272737
  14 C :   -0.071160
  15 Br:    0.135079
  16 C :    0.084232
  17 O :   -0.176647
  18 C :   -0.116237
  19 C :    0.048021
  20 C :   -0.205077
  21 S :    0.505938
  22 C :   -0.147048
  23 C :   -0.079004
  24 C :   -0.175203
  25 S :    0.412463
  26 C :   -0.090432
  27 N :   -0.081196
  28 C :   -0.040148
  29 C :   -0.019513
  30 C :   -0.163940
  31 S :    0.444162
  32 C :   -0.164227
  33 C :   -0.046235
  34 C :   -0.048573
  35 C :   -0.017615
  36 C :   -0.064763
  37 C :    0.162099
  38 F :   -0.053425
  39 F :   -0.064867
  40 F :   -0.063233
  41 C :   -0.018349
  42 C :   -0.031348
  43 C :   -0.020314
  44 C :   -0.039369
  45 C :   -0.027416
  46 C :   -0.154627
  47 C :   -0.016016
  48 C :   -0.037116
  49 C :   -0.150698
  50 S :    0.397553
  51 C :   -0.191703
  52 C :   -0.009619
  53 C :   -0.036688
  54 C :   -0.102593
  55 S :    0.405422
  56 C :   -0.068179
  57 C :    0.049322
  58 C :   -0.107582
  59 C :    0.068260
  60 C :   -0.155350
  61 C :   -0.020038
  62 N :   -0.066288
  63 C :   -0.024642
  64 N :   -0.063571
  65 C :   -0.015575
  66 C :   -0.050740
  67 C :    0.077871
  68 O :   -0.159163
  69 C :    0.017394
  70 C :   -0.037268
  71 C :   -0.145339
  72 C :   -0.016583
  73 S :    0.426820
  74 C :   -0.275510
  75 C :   -0.070766
  76 Br:    0.129537
  77 H :    0.039113
  78 H :    0.041059
  79 H :    0.037902
  80 H :    0.046136
  81 H :    0.025199
  82 H :    0.035867
  83 H :    0.031181
  84 H :    0.042948
  85 H :    0.038791
  86 H :    0.046236
  87 H :    0.031549
  88 H :    0.031270
  89 H :    0.034873
  90 H :    0.035349
  91 H :    0.034885
  92 H :    0.018952
  93 H :    0.036731
  94 H :    0.037191
  95 H :    0.034872
  96 H :    0.035220
  97 H :    0.040203
  98 H :    0.038054
  99 H :    0.034552
 100 H :    0.038982
 101 H :    0.039752
 102 H :    0.037374

  Mayer bond orders larger than 0.100000
B(  0-C ,  1-C ) :   1.6055 B(  0-C ,  6-C ) :   0.9953 B(  0-C , 18-C ) :   1.0963
B(  1-C ,  2-C ) :   1.1472 B(  1-C ,  4-C ) :   1.1485 B(  2-C ,  3-N ) :   2.9647
B(  4-C ,  5-N ) :   2.9503 B(  6-C ,  7-C ) :   1.2740 B(  6-C , 11-C ) :   1.4195
B(  7-C ,  8-C ) :   1.4261 B(  7-C , 16-C ) :   0.9577 B(  8-C ,  9-C ) :   1.2414
B(  8-C , 77-H ) :   1.0162 B(  9-C , 10-C ) :   1.3099 B(  9-C , 14-C ) :   1.1639
B( 10-C , 11-C ) :   1.3233 B( 10-C , 12-S ) :   1.0870 B( 11-C , 78-H ) :   0.9788
B( 12-S , 13-C ) :   1.0870 B( 13-C , 14-C ) :   1.6190 B( 13-C , 15-Br) :   1.0168
B( 14-C , 79-H ) :   0.9994 B( 16-C , 17-O ) :   2.1188 B( 16-C , 18-C ) :   0.9882
B( 18-C , 19-C ) :   1.4718 B( 19-C , 20-C ) :   1.3280 B( 19-C , 80-H ) :   0.9359
B( 20-C , 21-S ) :   1.0708 B( 20-C , 24-C ) :   1.3672 B( 21-S , 22-C ) :   1.1136
B( 22-C , 23-C ) :   1.3180 B( 22-C , 28-C ) :   1.2358 B( 23-C , 24-C ) :   1.3006
B( 23-C , 27-N ) :   1.3231 B( 24-C , 25-S ) :   1.1060 B( 25-S , 26-C ) :   1.0844
B( 26-C , 27-N ) :   1.7839 B( 26-C , 81-H ) :   0.9631 B( 28-C , 29-C ) :   1.5398
B( 28-C , 82-H ) :   0.9825 B( 29-C , 30-C ) :   1.2102 B( 29-C , 83-H ) :   0.9707
B( 30-C , 31-S ) :   1.1073 B( 30-C , 34-C ) :   1.4273 B( 31-S , 32-C ) :   1.1011
B( 32-C , 33-C ) :   1.4188 B( 32-C , 43-C ) :   1.2089 B( 33-C , 34-C ) :   1.3684
B( 33-C , 42-C ) :   1.0473 B( 34-C , 35-C ) :   1.0419 B( 35-C , 36-C ) :   1.0377
B( 35-C , 84-H ) :   0.9053 B( 35-C , 85-H ) :   0.9107 B( 36-C , 37-C ) :   0.9835
B( 36-C , 41-C ) :   1.0416 B( 36-C , 86-H ) :   0.9012 B( 37-C , 38-F ) :   1.1363
B( 37-C , 39-F ) :   1.1435 B( 37-C , 40-F ) :   1.1475 B( 41-C , 42-C ) :   1.0885
B( 41-C , 87-H ) :   0.9435 B( 41-C , 88-H ) :   0.9321 B( 42-C , 89-H ) :   0.9109
B( 42-C , 90-H ) :   0.9044 B( 43-C , 44-C ) :   1.5484 B( 43-C , 91-H ) :   0.9780
B( 44-C , 45-C ) :   1.2063 B( 44-C , 92-H ) :   0.9692 B( 45-C , 46-C ) :   1.5090
B( 45-C , 93-H ) :   0.9853 B( 46-C , 47-C ) :   1.1710 B( 46-C , 50-S ) :   1.0353
B( 47-C , 48-C ) :   1.5554 B( 47-C , 94-H ) :   0.9995 B( 48-C , 49-C ) :   1.2140
B( 48-C , 95-H ) :   0.9957 B( 49-C , 50-S ) :   1.0808 B( 49-C , 51-C ) :   1.4462
B( 51-C , 52-C ) :   1.2289 B( 51-C , 55-S ) :   1.0475 B( 52-C , 53-C ) :   1.5349
B( 52-C , 96-H ) :   0.9941 B( 53-C , 54-C ) :   1.1885 B( 53-C , 97-H ) :   1.0013
B( 54-C , 55-S ) :   1.0857 B( 54-C , 56-C ) :   1.4887 B( 56-C , 57-C ) :   1.2309
B( 56-C , 98-H ) :   0.9616 B( 57-C , 58-C ) :   1.5181 B( 57-C , 99-H ) :   0.9421
B( 58-C , 59-C ) :   1.0922 B( 58-C , 67-C ) :   0.9673 B( 59-C , 60-C ) :   1.5940
B( 59-C , 65-C ) :   1.0038 B( 60-C , 61-C ) :   1.1345 B( 60-C , 63-C ) :   1.1666
B( 61-C , 62-N ) :   2.9748 B( 63-C , 64-N ) :   3.0121 B( 65-C , 66-C ) :   1.2760
B( 65-C , 72-C ) :   1.4245 B( 66-C , 67-C ) :   0.9183 B( 66-C , 69-C ) :   1.4373
B( 67-C , 68-O ) :   2.2431 B( 69-C , 70-C ) :   1.2433 B( 69-C ,100-H ) :   1.0155
B( 70-C , 71-C ) :   1.3189 B( 70-C , 75-C ) :   1.1621 B( 71-C , 72-C ) :   1.3187
B( 71-C , 73-S ) :   1.0815 B( 72-C ,101-H ) :   0.9813 B( 73-S , 74-C ) :   1.0861
B( 74-C , 75-C ) :   1.6197 B( 74-C , 76-Br) :   1.0142 B( 75-C ,102-H ) :   1.0000

-----------------------------------------------------------------------------
         ABSORPTION SPECTRUM VIA TRANSITION ELECTRIC DIPOLE MOMENTS
-----------------------------------------------------------------------------
State   Energy  Wavelength   fosc         T2         TX        TY        TZ
        (cm-1)    (nm)                  (au**2)     (au)      (au)      (au)
-----------------------------------------------------------------------------
   0    9022.6   1108.3   1.160586051  42.34667   0.73083   6.33572   1.29276
   1   15254.8    655.5   0.704999255  15.21448  -3.65274   0.54087  -1.25674
   2   16547.0    604.3   1.281936999  25.50480  -4.58002   1.53683  -1.47186
   3   20577.1    486.0   0.026782278   0.42849  -0.64884  -0.06333  -0.05904
   4   22102.3    452.4   0.046294858   0.68956  -0.47976  -0.67330  -0.07782
   5   22665.5    441.2   0.025013871   0.36332  -0.46714   0.28642  -0.25113
   6   23281.2    429.5   0.005320054   0.07523  -0.03782  -0.24069  -0.12597
   7   23654.4    422.8   0.039127023   0.54455  -0.24099  -0.12812  -0.68561
   8   24995.0    400.1   0.318479451   4.19473   1.71763  -0.65629   0.90209
   9   26479.4    377.7   0.107749553   1.33963  -0.72798  -0.88509  -0.16211
  10   26741.9    373.9   0.042603314   0.52448   0.59507   0.40226   0.09249
  11   27089.9    369.1   0.031271537   0.38003  -0.40376  -0.45497  -0.10003
  12   28000.7    357.1   0.008216481   0.09660   0.08951   0.29764   0.00211
  13   28039.7    356.6   0.017497635   0.20544   0.33135   0.08995   0.29589
  14   28108.2    355.8   0.003483995   0.04081  -0.19005  -0.06799  -0.00791
  15   28905.2    346.0   0.242471596   2.76160  -0.59320  -1.54801  -0.11561
  16   29067.8    344.0   0.043212332   0.48941  -0.29086  -0.61790  -0.15169
  17   29639.7    337.4   0.016191433   0.17984  -0.40577  -0.11587  -0.04197
  18   29957.9    333.8   0.011183200   0.12289   0.03271  -0.33649  -0.09274
  19   30223.0    330.9   0.084187914   0.91704   0.75659   0.43758   0.39133
  20   30382.3    329.1   0.024344141   0.26378  -0.32770   0.32798  -0.22097
  21   30556.2    327.3   0.053340866   0.57469   0.00040   0.75776   0.02216
  22   31416.3    318.3   0.280039728   2.93454   1.13725  -0.45714   1.19675
  23   31778.4    314.7   0.117197299   1.21412   0.48712   0.98270  -0.10546
  24   32302.3    309.6   0.411423404   4.19306  -0.78486  -1.86114   0.33646
  25   32673.5    306.1   0.142839527   1.43922   0.62454  -0.66057   0.78283
  26   32973.7    303.3   0.492275954   4.91492  -1.49364  -1.51999  -0.61123
  27   33168.0    301.5   0.090289503   0.89618   0.52077  -0.41137   0.67509
  28   33379.1    299.6   0.016476237   0.16250   0.37396   0.08416   0.12480
  29   33460.4    298.9   0.004233716   0.04165   0.17818   0.02171   0.09713
  30   33638.7    297.3   0.040980320   0.40106  -0.43298  -0.46173  -0.01992
  31   34302.0    291.5   0.028679144   0.27525  -0.38443  -0.24312  -0.26144
  32   34794.4    287.4   0.019391387   0.18347  -0.16223  -0.39211  -0.05832
  33   34944.2    286.2   0.049679698   0.46804   0.31577   0.60087   0.08529
  34   35062.2    285.2   0.032281699   0.30310   0.38326   0.06029   0.39062
  35   35239.8    283.8   0.096090058   0.89768  -0.41945  -0.84899   0.03085
  36   35806.0    279.3   0.246060751   2.26236  -0.84923   0.83976  -0.91432
  37   35870.7    278.8   0.000910000   0.00835   0.01081  -0.04253   0.08016
  38   36030.5    277.5   0.008512173   0.07778  -0.21910  -0.17244   0.00573
  39   36267.4    275.7   0.043960650   0.39905  -0.29783  -0.29895  -0.47008
  40   36352.8    275.1   0.003840106   0.03478   0.00724   0.18013  -0.04771
  41   36779.7    271.9   0.068275388   0.61113  -0.75657  -0.18482  -0.06760
  42   37014.4    270.2   0.024756420   0.22019   0.24907  -0.38470   0.10079
  43   37136.9    269.3   0.111869604   0.99170  -0.95903   0.15562  -0.21851
  44   37263.6    268.4   0.071923218   0.63542  -0.60654  -0.48823  -0.17079
  45   37486.0    266.8   0.080754130   0.70920  -0.02966   0.82031  -0.18819
  46   37704.9    265.2   0.050116835   0.43758  -0.48045  -0.43598  -0.12913
  47   38445.6    260.1   0.026555392   0.22740  -0.03171  -0.47444   0.03602
  48   38630.4    258.9   0.000543936   0.00464  -0.06640   0.00310   0.01473
  49   38817.8    257.6   0.099698002   0.84553  -0.32233   0.85327  -0.11646
  50   39250.1    254.8   0.171522814   1.43865  -0.35760  -1.13524   0.14835
  51   39647.4    252.2   0.037027988   0.30746  -0.14727   0.52111  -0.11925
  52   39692.7    251.9   0.015844750   0.13142  -0.35093   0.03731   0.08289
  53   39742.1    251.6   0.123330098   1.02163  -0.66199   0.49829  -0.57888
  54   40261.7    248.4   0.090644753   0.74118   0.54537  -0.66612  -0.00567

FINAL SINGLE POINT ENERGY    -10880.224995602137

DIPOLE MOMENT
-------------
                                X             Y             Z
Electronic contribution:    128.67393     -76.64562      71.42229
Nuclear contribution   :   -135.00205      73.97228     -71.39291
                        -----------------------------------------
Total Dipole Moment    :     -6.32812      -2.67334       0.02938
                        -----------------------------------------
Magnitude (a.u.)       :      6.86969
Magnitude (Debye)      :     17.46138

Rotational constants in cm-1:     0.000530     0.000190     0.000143
Rotational constants in MHz :    15.878595     5.700344     4.283468

                             ****ORCA TERMINATED NORMALLY****
TOTAL RUN TIME: 0 days 0 hours 12 minutes 4 seconds 525 msec
