                         Program Version 4.2.0 -  RELEASE  -
|  1> # ORCA input file
|  2> # SCF done       -187.538802246762          0.000867914877
|  3> ! CAM-B3LYP def2-SVP def2/J RIJCOSX Grid4 TightSCF
|  4> %maxcore 5000
|  5> %tddft
|  6>     Mode sTDDFT
|  7>     Ethresh 5.0
|  8>     maxcore 5000
|  9> end
| 10>
| 11> %pal
| 12>   nprocs 6
| 13>   end
| 14> * xyz 0 1
| 15>    C       -8.80754         0.26401         3.44164
| 16>    C       -7.90209        -0.67239         3.87626
| 17>    C       -8.13617        -1.56266         4.94462
| 18>    N       -8.26163        -2.31557         5.80267
| 19>    C       -6.60870        -0.87993         3.35346
| 20>    N       -5.54033        -1.11512         3.00244
| 21>    C      -10.11359         0.50888         4.04231
| 22>    C      -10.71953         1.60412         3.38256
| 23>    C      -11.96062         2.08200         3.72444
| 24>    C      -12.63728         1.45092         4.77370
| 25>    C      -12.02503         0.35503         5.42673
| 26>    C      -10.77109        -0.13022         5.07812
| 27>    S      -13.03425        -0.28099         6.69085
| 28>    C      -14.24670         0.91921         6.33065
| 29>    C      -13.91622         1.75324         5.31652
| 30>   Br      -15.83529         0.95673         7.32690
| 31>    C       -9.82586         2.09892         2.31040
| 32>    O      -10.08247         2.98397         1.53032
| 33>    C       -8.62533         1.22010         2.36656
| 34>    C       -7.57821         1.22027         1.48795
| 35>    C       -7.27247         2.18004         0.50616
| 36>    N       -7.76295         3.37460         0.35691
| 37>    C       -7.20837         4.00523        -0.66006
| 38>    C       -6.21034         3.30148        -1.37843
| 39>    S       -5.98625         1.75572        -0.68773
| 40>    N       -5.65252         3.94538        -2.39842
| 41>    C       -6.15284         5.13957        -2.53480
| 42>    S       -7.41563         5.56521        -1.34609
| 43>    C       -5.73935         6.06713        -3.54336
| 44>    C       -6.31894         7.34240        -3.63220
| 45>    C       -5.88960         8.20264        -4.60884
| 46>    C       -4.87924         7.81700        -5.51235
| 47>    C       -4.30350         6.55365        -5.42897
| 48>    C       -4.73548         5.68809        -4.44884
| 49>    C       -4.63228         8.91128        -6.41800
| 50>    C       -5.49151         9.97587        -6.08501
| 51>    C       -6.35505         9.60968        -4.90042
| 52>    C       -7.85187         9.64184        -5.26014
| 53>    C       -8.19458         8.74319        -6.44219
| 54>    C       -6.09039        10.54366        -3.70435
| 55>    C       -4.62608        10.56500        -3.28273
| 56>    C       -5.46725        11.14209        -6.80416
| 57>    C       -4.56866        11.28900        -7.87918
| 58>    C       -3.71492        10.21530        -8.19208
| 59>    C       -3.74227         9.03840        -7.47852
| 60>    C       -4.56867        12.51968        -8.61235
| 61>    C       -3.69457        12.87782        -9.59251
| 62>    C       -3.75043        14.09487       -10.29006
| 63>    C       -2.84303        14.46339       -11.25422
| 64>    C       -2.82926        15.65418       -12.01773
| 65>    C       -1.79141        15.74577       -12.89811
| 66>    C       -0.92280        14.63544       -12.87636
| 67>    S       -1.47500        13.45772       -11.70558
| 68>    C        0.22533        14.42520       -13.61936
| 69>    C        0.80433        15.26270       -14.59646
| 70>    C        1.95329        14.76581       -15.13450
| 71>    C        2.35449        13.50937       -14.61567
| 72>    S        1.18917        12.98252       -13.41138
| 73>    C        3.47812        12.81348       -14.98379
| 74>    C        3.93797        11.57287       -14.49629
| 75>    C        3.38526        10.72645       -13.53284
| 76>    C        4.22787         9.59615       -13.38577
| 77>    C        4.13305         8.48823       -12.57524
| 78>    C        5.15200         7.52455       -12.66354
| 79>    C        5.34301         6.32524       -11.99737
| 80>    C        6.55521         5.71898       -12.46317
| 81>    C        7.10956         6.54902       -13.41781
| 82>    C        6.26731         7.69495       -13.58053
| 83>    C        6.36585         8.79309       -14.38855
| 84>    C        5.34263         9.76526       -14.30294
| 85>    C        5.15461        10.95895       -14.96534
| 86>    C        7.11530         4.46342       -12.02530
| 87>    C        6.58519         3.65696       -11.10951
| 88>    H      -12.39456         2.91865         3.19973
| 89>    H      -10.35149        -0.97122         5.60391
| 90>    H      -14.54678         2.54892         4.96399
| 91>    H       -6.88037         0.39359         1.51936
| 92>    H       -7.09141         7.62534        -2.93180
| 93>    H       -3.53060         6.25520        -6.12074
| 94>    H       -4.31275         4.70073        -4.35296
| 95>    H       -8.13244        10.67097        -5.49392
| 96>    H       -8.42784         9.32852        -4.38711
| 97>    H       -7.64436         9.04832        -7.32965
| 98>    H       -9.25851         8.80132        -6.65966
| 99>    H       -7.94447         7.70754        -6.22298
|100>    H       -6.70518        10.21673        -2.86335
|101>    H       -6.40375        11.55407        -3.97521
|102>    H       -4.29600         9.57138        -2.98779
|103>    H       -4.49036        11.23687        -2.43844
|104>    H       -3.99509        10.90740        -4.10005
|105>    H       -6.12765        11.96055        -6.55426
|106>    H       -3.02854        10.30929        -9.01882
|107>    H       -3.08219         8.22503        -7.74088
|108>    H       -5.34043        13.22988        -8.33981
|109>    H       -2.89010        12.21022        -9.87091
|110>    H       -4.55006        14.78831       -10.06485
|111>    H       -3.58822        16.40639       -11.89259
|112>    H       -1.62791        16.58119       -13.55535
|113>    H        0.36224        16.20251       -14.87482
|114>    H        2.53310        15.26522       -15.89110
|115>    H        4.09263        13.28311       -15.74284
|116>    H        2.47793        10.88253       -12.98267
|117>    H        3.30681         8.35703       -11.89114
|118>    H        4.68968         5.91257       -11.25078
|119>    H        8.02273         6.37432       -13.95708
|120>    H        7.19163         8.92748       -15.07342
|121>    H        5.79965        11.38390       -15.71414
|122>    H        8.04640         4.18827       -12.50542
|123>    H        5.66279         3.88748       -10.60468
|124>    H        7.06038         2.73249       -10.83080
|125> *
|126>
|127>                          ****END OF INPUT****

CARTESIAN COORDINATES (ANGSTROEM)
---------------------------------
  C     -8.807540    0.264010    3.441640
  C     -7.902090   -0.672390    3.876260
  C     -8.136170   -1.562660    4.944620
  N     -8.261630   -2.315570    5.802670
  C     -6.608700   -0.879930    3.353460
  N     -5.540330   -1.115120    3.002440
  C    -10.113590    0.508880    4.042310
  C    -10.719530    1.604120    3.382560
  C    -11.960620    2.082000    3.724440
  C    -12.637280    1.450920    4.773700
  C    -12.025030    0.355030    5.426730
  C    -10.771090   -0.130220    5.078120
  S    -13.034250   -0.280990    6.690850
  C    -14.246700    0.919210    6.330650
  C    -13.916220    1.753240    5.316520
  Br   -15.835290    0.956730    7.326900
  C     -9.825860    2.098920    2.310400
  O    -10.082470    2.983970    1.530320
  C     -8.625330    1.220100    2.366560
  C     -7.578210    1.220270    1.487950
  C     -7.272470    2.180040    0.506160
  N     -7.762950    3.374600    0.356910
  C     -7.208370    4.005230   -0.660060
  C     -6.210340    3.301480   -1.378430
  S     -5.986250    1.755720   -0.687730
  N     -5.652520    3.945380   -2.398420
  C     -6.152840    5.139570   -2.534800
  S     -7.415630    5.565210   -1.346090
  C     -5.739350    6.067130   -3.543360
  C     -6.318940    7.342400   -3.632200
  C     -5.889600    8.202640   -4.608840
  C     -4.879240    7.817000   -5.512350
  C     -4.303500    6.553650   -5.428970
  C     -4.735480    5.688090   -4.448840
  C     -4.632280    8.911280   -6.418000
  C     -5.491510    9.975870   -6.085010
  C     -6.355050    9.609680   -4.900420
  C     -7.851870    9.641840   -5.260140
  C     -8.194580    8.743190   -6.442190
  C     -6.090390   10.543660   -3.704350
  C     -4.626080   10.565000   -3.282730
  C     -5.467250   11.142090   -6.804160
  C     -4.568660   11.289000   -7.879180
  C     -3.714920   10.215300   -8.192080
  C     -3.742270    9.038400   -7.478520
  C     -4.568670   12.519680   -8.612350
  C     -3.694570   12.877820   -9.592510
  C     -3.750430   14.094870  -10.290060
  C     -2.843030   14.463390  -11.254220
  C     -2.829260   15.654180  -12.017730
  C     -1.791410   15.745770  -12.898110
  C     -0.922800   14.635440  -12.876360
  S     -1.475000   13.457720  -11.705580
  C      0.225330   14.425200  -13.619360
  C      0.804330   15.262700  -14.596460
  C      1.953290   14.765810  -15.134500
  C      2.354490   13.509370  -14.615670
  S      1.189170   12.982520  -13.411380
  C      3.478120   12.813480  -14.983790
  C      3.937970   11.572870  -14.496290
  C      3.385260   10.726450  -13.532840
  C      4.227870    9.596150  -13.385770
  C      4.133050    8.488230  -12.575240
  C      5.152000    7.524550  -12.663540
  C      5.343010    6.325240  -11.997370
  C      6.555210    5.718980  -12.463170
  C      7.109560    6.549020  -13.417810
  C      6.267310    7.694950  -13.580530
  C      6.365850    8.793090  -14.388550
  C      5.342630    9.765260  -14.302940
  C      5.154610   10.958950  -14.965340
  C      7.115300    4.463420  -12.025300
  C      6.585190    3.656960  -11.109510
  H    -12.394560    2.918650    3.199730
  H    -10.351490   -0.971220    5.603910
  H    -14.546780    2.548920    4.963990
  H     -6.880370    0.393590    1.519360
  H     -7.091410    7.625340   -2.931800
  H     -3.530600    6.255200   -6.120740
  H     -4.312750    4.700730   -4.352960
  H     -8.132440   10.670970   -5.493920
  H     -8.427840    9.328520   -4.387110
  H     -7.644360    9.048320   -7.329650
  H     -9.258510    8.801320   -6.659660
  H     -7.944470    7.707540   -6.222980
  H     -6.705180   10.216730   -2.863350
  H     -6.403750   11.554070   -3.975210
  H     -4.296000    9.571380   -2.987790
  H     -4.490360   11.236870   -2.438440
  H     -3.995090   10.907400   -4.100050
  H     -6.127650   11.960550   -6.554260
  H     -3.028540   10.309290   -9.018820
  H     -3.082190    8.225030   -7.740880
  H     -5.340430   13.229880   -8.339810
  H     -2.890100   12.210220   -9.870910
  H     -4.550060   14.788310  -10.064850
  H     -3.588220   16.406390  -11.892590
  H     -1.627910   16.581190  -13.555350
  H      0.362240   16.202510  -14.874820
  H      2.533100   15.265220  -15.891100
  H      4.092630   13.283110  -15.742840
  H      2.477930   10.882530  -12.982670
  H      3.306810    8.357030  -11.891140
  H      4.689680    5.912570  -11.250780
  H      8.022730    6.374320  -13.957080
  H      7.191630    8.927480  -15.073420
  H      5.799650   11.383900  -15.714140
  H      8.046400    4.188270  -12.505420
  H      5.662790    3.887480  -10.604680
  H      7.060380    2.732490  -10.830800

 Total Charge           Charge          ....    0
 Multiplicity           Mult            ....    1
 Number of Electrons    NEL             ....  560
 Basis Dimension        Dim             .... 1245

ORBITAL ENERGIES
----------------

  NO   OCC          E(Eh)            E(eV)
   0   2.0000    -482.883814    -13139.9366
   1   2.0000     -88.973998     -2421.1056
   2   2.0000     -88.972750     -2421.0716
   3   2.0000     -88.970524     -2421.0110
   4   2.0000     -88.940903     -2420.2050
   5   2.0000     -88.938797     -2420.1477
   6   2.0000     -62.561529     -1702.3857
   7   2.0000     -56.395477     -1534.5990
   8   2.0000     -56.392763     -1534.5251
   9   2.0000     -56.392733     -1534.5243
  10   2.0000     -19.206861      -522.6453
  11   2.0000     -14.428595      -392.6220
  12   2.0000     -14.423856      -392.4931
  13   2.0000     -14.414976      -392.2514
  14   2.0000     -14.413104      -392.2005
  15   2.0000     -10.360733      -281.9299
  16   2.0000     -10.356903      -281.8257
  17   2.0000     -10.354709      -281.7660
  18   2.0000     -10.347576      -281.5719
  19   2.0000     -10.341029      -281.3937
  20   2.0000     -10.340882      -281.3897
  21   2.0000     -10.340036      -281.3667
  22   2.0000     -10.333860      -281.1986
  23   2.0000     -10.322572      -280.8915
  24   2.0000     -10.320198      -280.8269
  25   2.0000     -10.317707      -280.7591
  26   2.0000     -10.316134      -280.7163
  27   2.0000     -10.305586      -280.4292
  28   2.0000     -10.305116      -280.4165
  29   2.0000     -10.305039      -280.4144
  30   2.0000     -10.304380      -280.3964
  31   2.0000     -10.302701      -280.3507
  32   2.0000     -10.302461      -280.3442
  33   2.0000     -10.301529      -280.3188
  34   2.0000     -10.298403      -280.2338
  35   2.0000     -10.296783      -280.1897
  36   2.0000     -10.295453      -280.1535
  37   2.0000     -10.294336      -280.1231
  38   2.0000     -10.294035      -280.1149
  39   2.0000     -10.289638      -279.9953
  40   2.0000     -10.288031      -279.9515
  41   2.0000     -10.284478      -279.8549
  42   2.0000     -10.282960      -279.8136
  43   2.0000     -10.280838      -279.7558
  44   2.0000     -10.280702      -279.7521
  45   2.0000     -10.280477      -279.7460
  46   2.0000     -10.280454      -279.7454
  47   2.0000     -10.279951      -279.7317
  48   2.0000     -10.279908      -279.7305
  49   2.0000     -10.279884      -279.7299
  50   2.0000     -10.279120      -279.7091
  51   2.0000     -10.277485      -279.6646
  52   2.0000     -10.276304      -279.6324
  53   2.0000     -10.275982      -279.6237
  54   2.0000     -10.274681      -279.5883
  55   2.0000     -10.273318      -279.5512
  56   2.0000     -10.272934      -279.5408
  57   2.0000     -10.272474      -279.5282
  58   2.0000     -10.270812      -279.4830
  59   2.0000     -10.270493      -279.4743
  60   2.0000     -10.269766      -279.4546
  61   2.0000     -10.269239      -279.4402
  62   2.0000     -10.269141      -279.4375
  63   2.0000     -10.268854      -279.4297
  64   2.0000     -10.267435      -279.3911
  65   2.0000     -10.266593      -279.3682
  66   2.0000     -10.265632      -279.3421
  67   2.0000     -10.265306      -279.3332
  68   2.0000     -10.265183      -279.3298
  69   2.0000     -10.265090      -279.3273
  70   2.0000     -10.262653      -279.2610
  71   2.0000     -10.262343      -279.2526
  72   2.0000     -10.261746      -279.2363
  73   2.0000     -10.261591      -279.2321
  74   2.0000     -10.255519      -279.0668
  75   2.0000     -10.247551      -278.8500
  76   2.0000     -10.247374      -278.8452
  77   2.0000      -8.790952      -239.2140
  78   2.0000      -8.069735      -219.5887
  79   2.0000      -8.068814      -219.5636
  80   2.0000      -8.066325      -219.4959
  81   2.0000      -8.036683      -218.6892
  82   2.0000      -8.035151      -218.6476
  83   2.0000      -6.627253      -180.3367
  84   2.0000      -6.612693      -179.9405
  85   2.0000      -6.612481      -179.9348
  86   2.0000      -6.038551      -164.3173
  87   2.0000      -6.038519      -164.3165
  88   2.0000      -6.035402      -164.2316
  89   2.0000      -6.035112      -164.2237
  90   2.0000      -6.034234      -164.1999
  91   2.0000      -6.031938      -164.1374
  92   2.0000      -6.031858      -164.1352
  93   2.0000      -6.029991      -164.0844
  94   2.0000      -6.028087      -164.0326
  95   2.0000      -6.006419      -163.4430
  96   2.0000      -6.004869      -163.4008
  97   2.0000      -6.002339      -163.3319
  98   2.0000      -6.000936      -163.2938
  99   2.0000      -5.997728      -163.2065
 100   2.0000      -5.996000      -163.1595
 101   2.0000      -2.743119       -74.6441
 102   2.0000      -2.739032       -74.5328
 103   2.0000      -2.738897       -74.5292
 104   2.0000      -2.727325       -74.2143
 105   2.0000      -2.727299       -74.2136
 106   2.0000      -1.124095       -30.5882
 107   2.0000      -1.099567       -29.9207
 108   2.0000      -1.058407       -28.8007
 109   2.0000      -1.020560       -27.7709
 110   2.0000      -1.011673       -27.5290
 111   2.0000      -0.992519       -27.0078
 112   2.0000      -0.991438       -26.9784
 113   2.0000      -0.990240       -26.9458
 114   2.0000      -0.987124       -26.8610
 115   2.0000      -0.982858       -26.7449
 116   2.0000      -0.968321       -26.3493
 117   2.0000      -0.956040       -26.0152
 118   2.0000      -0.950223       -25.8569
 119   2.0000      -0.941750       -25.6263
 120   2.0000      -0.926638       -25.2151
 121   2.0000      -0.920338       -25.0437
 122   2.0000      -0.905929       -24.6516
 123   2.0000      -0.901692       -24.5363
 124   2.0000      -0.901373       -24.5276
 125   2.0000      -0.894995       -24.3541
 126   2.0000      -0.883969       -24.0540
 127   2.0000      -0.882903       -24.0250
 128   2.0000      -0.882027       -24.0012
 129   2.0000      -0.870039       -23.6750
 130   2.0000      -0.863101       -23.4862
 131   2.0000      -0.859668       -23.3927
 132   2.0000      -0.851253       -23.1638
 133   2.0000      -0.843385       -22.9497
 134   2.0000      -0.838747       -22.8235
 135   2.0000      -0.837810       -22.7980
 136   2.0000      -0.836222       -22.7548
 137   2.0000      -0.832578       -22.6556
 138   2.0000      -0.826505       -22.4904
 139   2.0000      -0.819993       -22.3131
 140   2.0000      -0.815213       -22.1831
 141   2.0000      -0.801790       -21.8178
 142   2.0000      -0.793950       -21.6045
 143   2.0000      -0.786106       -21.3910
 144   2.0000      -0.769354       -20.9352
 145   2.0000      -0.763437       -20.7742
 146   2.0000      -0.757879       -20.6229
 147   2.0000      -0.754027       -20.5181
 148   2.0000      -0.744864       -20.2688
 149   2.0000      -0.736407       -20.0386
 150   2.0000      -0.723979       -19.7005
 151   2.0000      -0.720422       -19.6037
 152   2.0000      -0.706802       -19.2331
 153   2.0000      -0.699118       -19.0240
 154   2.0000      -0.694069       -18.8866
 155   2.0000      -0.687132       -18.6978
 156   2.0000      -0.683325       -18.5942
 157   2.0000      -0.680207       -18.5094
 158   2.0000      -0.675800       -18.3894
 159   2.0000      -0.673029       -18.3140
 160   2.0000      -0.666560       -18.1380
 161   2.0000      -0.665081       -18.0978
 162   2.0000      -0.660968       -17.9859
 163   2.0000      -0.658205       -17.9107
 164   2.0000      -0.653795       -17.7907
 165   2.0000      -0.646996       -17.6056
 166   2.0000      -0.636083       -17.3087
 167   2.0000      -0.632911       -17.2224
 168   2.0000      -0.625984       -17.0339
 169   2.0000      -0.620584       -16.8869
 170   2.0000      -0.618167       -16.8212
 171   2.0000      -0.615631       -16.7522
 172   2.0000      -0.609557       -16.5869
 173   2.0000      -0.606308       -16.4985
 174   2.0000      -0.597790       -16.2667
 175   2.0000      -0.596454       -16.2303
 176   2.0000      -0.595341       -16.2001
 177   2.0000      -0.588697       -16.0193
 178   2.0000      -0.581954       -15.8358
 179   2.0000      -0.574249       -15.6261
 180   2.0000      -0.572703       -15.5840
 181   2.0000      -0.569058       -15.4848
 182   2.0000      -0.557844       -15.1797
 183   2.0000      -0.551018       -14.9940
 184   2.0000      -0.549416       -14.9504
 185   2.0000      -0.548228       -14.9180
 186   2.0000      -0.546673       -14.8757
 187   2.0000      -0.544810       -14.8250
 188   2.0000      -0.542639       -14.7660
 189   2.0000      -0.538843       -14.6627
 190   2.0000      -0.535868       -14.5817
 191   2.0000      -0.532667       -14.4946
 192   2.0000      -0.530795       -14.4437
 193   2.0000      -0.530337       -14.4312
 194   2.0000      -0.527899       -14.3649
 195   2.0000      -0.522403       -14.2153
 196   2.0000      -0.521268       -14.1844
 197   2.0000      -0.519250       -14.1295
 198   2.0000      -0.513502       -13.9731
 199   2.0000      -0.511282       -13.9127
 200   2.0000      -0.507934       -13.8216
 201   2.0000      -0.506976       -13.7955
 202   2.0000      -0.504654       -13.7323
 203   2.0000      -0.504013       -13.7149
 204   2.0000      -0.500970       -13.6321
 205   2.0000      -0.496159       -13.5012
 206   2.0000      -0.494008       -13.4426
 207   2.0000      -0.492904       -13.4126
 208   2.0000      -0.491476       -13.3737
 209   2.0000      -0.489826       -13.3288
 210   2.0000      -0.489012       -13.3067
 211   2.0000      -0.487747       -13.2723
 212   2.0000      -0.485266       -13.2048
 213   2.0000      -0.485176       -13.2023
 214   2.0000      -0.482460       -13.1284
 215   2.0000      -0.477534       -12.9944
 216   2.0000      -0.472051       -12.8452
 217   2.0000      -0.471181       -12.8215
 218   2.0000      -0.470801       -12.8111
 219   2.0000      -0.467593       -12.7238
 220   2.0000      -0.466317       -12.6891
 221   2.0000      -0.462777       -12.5928
 222   2.0000      -0.458181       -12.4677
 223   2.0000      -0.455792       -12.4027
 224   2.0000      -0.454895       -12.3783
 225   2.0000      -0.453291       -12.3347
 226   2.0000      -0.448949       -12.2165
 227   2.0000      -0.447442       -12.1755
 228   2.0000      -0.446430       -12.1480
 229   2.0000      -0.445969       -12.1354
 230   2.0000      -0.444954       -12.1078
 231   2.0000      -0.442673       -12.0458
 232   2.0000      -0.441966       -12.0265
 233   2.0000      -0.441037       -12.0012
 234   2.0000      -0.436840       -11.8870
 235   2.0000      -0.433703       -11.8017
 236   2.0000      -0.432154       -11.7595
 237   2.0000      -0.426254       -11.5990
 238   2.0000      -0.425391       -11.5755
 239   2.0000      -0.424304       -11.5459
 240   2.0000      -0.422803       -11.5050
 241   2.0000      -0.422286       -11.4910
 242   2.0000      -0.420224       -11.4349
 243   2.0000      -0.417714       -11.3666
 244   2.0000      -0.415343       -11.3021
 245   2.0000      -0.413692       -11.2571
 246   2.0000      -0.410667       -11.1748
 247   2.0000      -0.407927       -11.1003
 248   2.0000      -0.406067       -11.0496
 249   2.0000      -0.401351       -10.9213
 250   2.0000      -0.400305       -10.8929
 251   2.0000      -0.396828       -10.7983
 252   2.0000      -0.391017       -10.6401
 253   2.0000      -0.390057       -10.6140
 254   2.0000      -0.388786       -10.5794
 255   2.0000      -0.385920       -10.5014
 256   2.0000      -0.384702       -10.4683
 257   2.0000      -0.380352       -10.3499
 258   2.0000      -0.378585       -10.3018
 259   2.0000      -0.373178       -10.1547
 260   2.0000      -0.370353       -10.0778
 261   2.0000      -0.363054        -9.8792
 262   2.0000      -0.356531        -9.7017
 263   2.0000      -0.352654        -9.5962
 264   2.0000      -0.342859        -9.3297
 265   2.0000      -0.334177        -9.0934
 266   2.0000      -0.332816        -9.0564
 267   2.0000      -0.327397        -8.9089
 268   2.0000      -0.322268        -8.7694
 269   2.0000      -0.318327        -8.6621
 270   2.0000      -0.317350        -8.6355
 271   2.0000      -0.316654        -8.6166
 272   2.0000      -0.311365        -8.4727
 273   2.0000      -0.302065        -8.2196
 274   2.0000      -0.291591        -7.9346
 275   2.0000      -0.280507        -7.6330
 276   2.0000      -0.265839        -7.2339
 277   2.0000      -0.259893        -7.0721
 278   2.0000      -0.241901        -6.5825
 279   2.0000      -0.198582        -5.4037
 280   0.0000      -0.100014        -2.7215
 281   0.0000      -0.094324        -2.5667
 282   0.0000      -0.071185        -1.9370
 283   0.0000      -0.058175        -1.5830
 284   0.0000      -0.035408        -0.9635

MULLIKEN ATOMIC CHARGES
-----------------------
   0 C :    0.310034
   1 C :   -0.350396
   2 C :   -0.186438
   3 N :    0.147651
   4 C :   -0.190859
   5 N :    0.156651
   6 C :    0.015017
   7 C :   -0.020325
   8 C :   -0.071568
   9 C :    0.118896
  10 C :   -0.089337
  11 C :   -0.019899
  12 S :    0.184584
  13 C :   -0.122004
  14 C :    0.037786
  15 Br:    0.022171
  16 C :    0.137980
  17 O :   -0.107941
  18 C :   -0.068659
  19 C :    0.049421
  20 C :   -0.168010
  21 N :    0.050169
  22 C :   -0.063376
  23 C :   -0.041580
  24 S :    0.138163
  25 N :   -0.027921
  26 C :   -0.100719
  27 S :    0.111373
  28 C :    0.109262
  29 C :   -0.103961
  30 C :    0.009548
  31 C :    0.117713
  32 C :   -0.045903
  33 C :    0.001847
  34 C :    0.101706
  35 C :    0.020042
  36 C :   -0.138313
  37 C :    0.069361
  38 C :    0.024032
  39 C :    0.069737
  40 C :    0.023718
  41 C :   -0.110424
  42 C :    0.135024
  43 C :   -0.014576
  44 C :   -0.037903
  45 C :   -0.020438
  46 C :    0.022387
  47 C :   -0.015966
  48 C :   -0.016736
  49 C :    0.032139
  50 C :    0.026745
  51 C :   -0.044651
  52 S :    0.056575
  53 C :   -0.033002
  54 C :    0.024969
  55 C :    0.032906
  56 C :   -0.019396
  57 S :    0.051943
  58 C :   -0.014076
  59 C :    0.058881
  60 C :   -0.045007
  61 C :    0.051535
  62 C :   -0.002930
  63 C :    0.052288
  64 C :   -0.026698
  65 C :    0.063543
  66 C :   -0.030024
  67 C :    0.059703
  68 C :   -0.005884
  69 C :    0.063438
  70 C :   -0.038434
  71 C :    0.012079
  72 C :   -0.024304
  73 H :   -0.011484
  74 H :   -0.007697
  75 H :   -0.004102
  76 H :    0.015011
  77 H :   -0.020799
  78 H :   -0.030461
  79 H :   -0.005539
  80 H :   -0.002316
  81 H :   -0.002549
  82 H :    0.022830
  83 H :    0.010919
  84 H :    0.020575
  85 H :   -0.002964
  86 H :   -0.001258
  87 H :    0.020476
  88 H :    0.010776
  89 H :    0.023927
  90 H :   -0.042774
  91 H :   -0.029664
  92 H :   -0.036088
  93 H :   -0.028826
  94 H :    0.000894
  95 H :   -0.020808
  96 H :   -0.014422
  97 H :   -0.014389
  98 H :   -0.018111
  99 H :   -0.014797
 100 H :   -0.026965
 101 H :   -0.014495
 102 H :   -0.025783
 103 H :   -0.024938
 104 H :   -0.030625
 105 H :   -0.026956
 106 H :   -0.025550
 107 H :   -0.020853
 108 H :    0.007136
 109 H :    0.019311
Sum of atomic charges:   -0.0000000

LOEWDIN ATOMIC CHARGES
----------------------
   0 C :    0.074718
   1 C :   -0.139949
   2 C :   -0.017526
   3 N :   -0.053706
   4 C :   -0.023573
   5 N :   -0.050423
   6 C :   -0.023303
   7 C :   -0.048214
   8 C :    0.020331
   9 C :   -0.031358
  10 C :   -0.144412
  11 C :   -0.010053
  12 S :    0.430660
  13 C :   -0.271086
  14 C :   -0.070572
  15 Br:    0.135989
  16 C :    0.074312
  17 O :   -0.113952
  18 C :   -0.074382
  19 C :    0.030223
  20 C :   -0.135614
  21 N :   -0.040939
  22 C :   -0.212940
  23 C :   -0.193912
  24 S :    0.428589
  25 N :   -0.104697
  26 C :   -0.081732
  27 S :    0.412859
  28 C :   -0.063818
  29 C :   -0.017359
  30 C :    0.003012
  31 C :    0.000001
  32 C :   -0.019482
  33 C :    0.012557
  34 C :   -0.026735
  35 C :    0.005643
  36 C :   -0.035661
  37 C :   -0.011363
  38 C :   -0.057633
  39 C :   -0.011119
  40 C :   -0.057575
  41 C :   -0.023980
  42 C :   -0.017291
  43 C :   -0.014812
  44 C :   -0.012966
  45 C :   -0.024946
  46 C :   -0.025394
  47 C :   -0.060819
  48 C :   -0.141797
  49 C :   -0.039323
  50 C :   -0.030319
  51 C :   -0.183031
  52 S :    0.363040
  53 C :   -0.176118
  54 C :   -0.044997
  55 C :   -0.028452
  56 C :   -0.152673
  57 S :    0.384027
  58 C :   -0.047089
  59 C :   -0.065744
  60 C :   -0.009556
  61 C :   -0.052509
  62 C :    0.064514
  63 C :   -0.059587
  64 C :    0.041760
  65 C :   -0.057073
  66 C :    0.008795
  67 C :   -0.056010
  68 C :    0.065416
  69 C :   -0.063693
  70 C :    0.039270
  71 C :   -0.020621
  72 C :   -0.054953
  73 H :    0.040505
  74 H :    0.040605
  75 H :    0.038703
  76 H :    0.044312
  77 H :    0.018996
  78 H :    0.029151
  79 H :    0.034353
  80 H :    0.020269
  81 H :    0.019687
  82 H :    0.026149
  83 H :    0.024735
  84 H :    0.024958
  85 H :    0.019539
  86 H :    0.020528
  87 H :    0.024832
  88 H :    0.024821
  89 H :    0.026539
  90 H :    0.023283
  91 H :    0.026566
  92 H :    0.027328
  93 H :    0.025483
  94 H :    0.019305
  95 H :    0.030879
  96 H :    0.032427
  97 H :    0.031546
  98 H :    0.030043
  99 H :    0.032255
 100 H :    0.032341
 101 H :    0.011001
 102 H :    0.034243
 103 H :    0.024403
 104 H :    0.023003
 105 H :    0.033821
 106 H :    0.024126
 107 H :    0.028842
 108 H :    0.017515
 109 H :    0.024032

  Mayer bond orders larger than 0.100000
B(  0-C ,  1-C ) :   1.6212 B(  0-C ,  6-C ) :   1.0014 B(  0-C , 18-C ) :   1.0813
B(  1-C ,  2-C ) :   1.1451 B(  1-C ,  4-C ) :   1.1430 B(  2-C ,  3-N ) :   2.9668
B(  4-C ,  5-N ) :   2.9721 B(  6-C ,  7-C ) :   1.2800 B(  6-C , 11-C ) :   1.4017
B(  7-C ,  8-C ) :   1.4255 B(  7-C , 16-C ) :   0.9330 B(  8-C ,  9-C ) :   1.2455
B(  8-C , 73-H ) :   1.0172 B(  9-C , 10-C ) :   1.3067 B(  9-C , 14-C ) :   1.1601
B( 10-C , 11-C ) :   1.3354 B( 10-C , 12-S ) :   1.0829 B( 11-C , 74-H ) :   0.9800
B( 12-S , 13-C ) :   1.0865 B( 13-C , 14-C ) :   1.6182 B( 13-C , 15-Br) :   1.0179
B( 14-C , 75-H ) :   1.0011 B( 16-C , 17-O ) :   2.2858 B( 16-C , 18-C ) :   0.9177
B( 18-C , 19-C ) :   1.6192 B( 19-C , 20-C ) :   1.1866 B( 19-C , 76-H ) :   0.9125
B( 20-C , 21-N ) :   1.6455 B( 20-C , 24-S ) :   1.0482 B( 21-N , 22-C ) :   1.4630
B( 21-N , 24-S ) :   0.1181 B( 22-C , 23-C ) :   1.2314 B( 22-C , 27-S ) :   1.0822
B( 23-C , 24-S ) :   1.1469 B( 23-C , 25-N ) :   1.3948 B( 25-N , 26-C ) :   1.7127
B( 26-C , 27-S ) :   1.0865 B( 26-C , 28-C ) :   1.0596 B( 28-C , 29-C ) :   1.2676
B( 28-C , 33-C ) :   1.3663 B( 29-C , 30-C ) :   1.4308 B( 29-C , 77-H ) :   0.9899
B( 30-C , 31-C ) :   1.3528 B( 30-C , 36-C ) :   0.9123 B( 31-C , 32-C ) :   1.3242
B( 31-C , 34-C ) :   1.0071 B( 32-C , 33-C ) :   1.3730 B( 32-C , 78-H ) :   0.9959
B( 33-C , 79-H ) :   0.9885 B( 34-C , 35-C ) :   1.3602 B( 34-C , 44-C ) :   1.3169
B( 35-C , 36-C ) :   0.9154 B( 35-C , 41-C ) :   1.3847 B( 36-C , 37-C ) :   1.0380
B( 36-C , 39-C ) :   1.0371 B( 37-C , 38-C ) :   1.1010 B( 37-C , 80-H ) :   0.9389
B( 37-C , 81-H ) :   0.9392 B( 38-C , 82-H ) :   0.9644 B( 38-C , 83-H ) :   0.9640
B( 38-C , 84-H ) :   0.9646 B( 39-C , 40-C ) :   1.1009 B( 39-C , 85-H ) :   0.9392
B( 39-C , 86-H ) :   0.9392 B( 40-C , 87-H ) :   0.9643 B( 40-C , 88-H ) :   0.9638
B( 40-C , 89-H ) :   0.9647 B( 41-C , 42-C ) :   1.2747 B( 41-C , 90-H ) :   1.0139
B( 42-C , 43-C ) :   1.3267 B( 42-C , 45-C ) :   1.0797 B( 43-C , 44-C ) :   1.4152
B( 43-C , 91-H ) :   0.9849 B( 44-C , 92-H ) :   0.9893 B( 45-C , 46-C ) :   1.6333
B( 45-C , 93-H ) :   0.9902 B( 46-C , 47-C ) :   1.1586 B( 46-C , 94-H ) :   0.9624
B( 47-C , 48-C ) :   1.5501 B( 47-C , 95-H ) :   0.9863 B( 48-C , 49-C ) :   1.1478
B( 48-C , 52-S ) :   1.0339 B( 49-C , 50-C ) :   1.5784 B( 49-C , 96-H ) :   0.9990
B( 50-C , 51-C ) :   1.1997 B( 50-C , 97-H ) :   0.9935 B( 51-C , 52-S ) :   1.0407
B( 51-C , 53-C ) :   1.4965 B( 53-C , 54-C ) :   1.1922 B( 53-C , 57-S ) :   1.0453
B( 54-C , 55-C ) :   1.5822 B( 54-C , 98-H ) :   0.9930 B( 55-C , 56-C ) :   1.1477
B( 55-C , 99-H ) :   0.9990 B( 56-C , 57-S ) :   1.0293 B( 56-C , 58-C ) :   1.5678
B( 58-C , 59-C ) :   1.1409 B( 58-C ,100-H ) :   0.9688 B( 59-C , 60-C ) :   1.4467
B( 59-C , 70-C ) :   1.1149 B( 60-C , 61-C ) :   1.1334 B( 60-C ,101-H ) :   0.9946
B( 61-C , 62-C ) :   1.4428 B( 61-C , 69-C ) :   1.1262 B( 62-C , 63-C ) :   1.1326
B( 62-C ,102-H ) :   1.0034 B( 63-C , 64-C ) :   1.4417 B( 63-C , 67-C ) :   1.1222
B( 64-C , 65-C ) :   1.1396 B( 64-C ,103-H ) :   1.0083 B( 65-C , 66-C ) :   1.5130
B( 65-C , 71-C ) :   1.0851 B( 66-C , 67-C ) :   1.0803 B( 66-C ,104-H ) :   1.0169
B( 67-C , 68-C ) :   1.4818 B( 68-C , 69-C ) :   1.1121 B( 68-C ,105-H ) :   1.0046
B( 69-C , 70-C ) :   1.4499 B( 70-C ,106-H ) :   1.0157 B( 71-C , 72-C ) :   1.9320
B( 71-C ,107-H ) :   0.9665 B( 72-C ,108-H ) :   0.9527 B( 72-C ,109-H ) :   0.9497

-----------------------------------------------------------------------------
         ABSORPTION SPECTRUM VIA TRANSITION ELECTRIC DIPOLE MOMENTS
-----------------------------------------------------------------------------
State   Energy  Wavelength   fosc         T2         TX        TY        TZ
        (cm-1)    (nm)                  (au**2)     (au)      (au)      (au)
-----------------------------------------------------------------------------
   0    6919.7   1445.2   0.059504828   2.83101   1.40784  -0.70311  -0.59550
   1   13240.5    755.3   1.369891208  34.06099  -4.31398  -0.75812   3.85692
   2   14856.8    673.1   0.043884561   0.97244   0.36335  -0.85667   0.32639
   3   15968.5    626.2   0.322375410   6.64618   1.80601  -1.83921  -0.04267
   4   20119.2    497.0   1.550927950  25.37795   1.24524   3.33152  -3.56768
   5   22484.6    444.7   0.064309866   0.94160  -0.59854   0.75462  -0.11789
   6   22665.5    441.2   0.055005430   0.79894   0.63656  -0.62741  -0.00949
   7   23291.8    429.3   0.187618472   2.65184   0.14258   1.35571  -0.89082
   8   24151.7    414.0   0.464201346   6.32752  -0.64924   2.25889  -0.89635
   9   24983.1    400.3   0.026192101   0.34514  -0.36522   0.46004   0.01103
  10   25814.0    387.4   0.032883869   0.41937  -0.22482  -0.53279   0.29148
  11   26102.7    383.1   0.950615170  11.98931   0.00179  -2.88216   1.91897
  12   26193.9    381.8   0.378504585   4.75715  -1.57332   1.50917  -0.06480
  13   27869.3    358.8   0.031992346   0.37792   0.08903   0.52302  -0.31056
  14   27974.1    357.5   0.038440651   0.45239  -0.01890   0.61188  -0.27864
  15   28649.9    349.0   0.019623946   0.22550   0.36498   0.00766  -0.30369
  16   28854.5    346.6   0.112618468   1.28491  -1.01580   0.48704   0.12585
  17   29489.9    339.1   0.171737736   1.91720  -0.96023  -0.38858   0.91878
  18   30029.0    333.0   0.152948626   1.67680  -0.67320   1.08192  -0.23032
  19   30415.4    328.8   0.092373389   0.99984  -0.78468  -0.09495   0.61246
  20   30644.6    326.3   0.095984195   1.03115  -0.20458   0.87869  -0.46606
  21   31172.9    320.8   0.066872479   0.70623  -0.12913  -0.62898   0.54216
  22   31312.3    319.4   0.006705255   0.07050   0.16093  -0.20897   0.03050
  23   32279.6    309.8   0.010079477   0.10280   0.19704   0.24611  -0.05834
  24   32528.9    307.4   0.063515883   0.64282   0.03574  -0.65696   0.45819
  25   32893.8    304.0   0.103803909   1.03890  -0.40046  -0.66024   0.66530
  26   33093.9    302.2   0.000424189   0.00422  -0.05519   0.02807   0.01965
  27   33249.1    300.8   0.107147276   1.06091   0.93052  -0.42652  -0.11453
  28   33265.2    300.6   0.422907008   4.18534   1.84626  -0.70393  -0.53022
  29   33621.3    297.4   0.005023532   0.04919  -0.00134  -0.19954   0.09681
  30   33642.7    297.2   0.034211352   0.33478  -0.25863   0.48276  -0.18663
  31   34541.7    289.5   0.003623093   0.03453   0.06992  -0.10665   0.13516
  32   34810.4    287.3   0.049117480   0.46452  -0.41296   0.53669   0.07711
  33   34935.7    286.2   0.048169537   0.45392  -0.02404   0.51217  -0.43706
  34   35554.9    281.3   0.050531745   0.46789  -0.42868  -0.07721   0.52741
  35   35768.9    279.6   0.083566098   0.76913   0.14016   0.69639  -0.51433
  36   36118.2    276.9   0.103131869   0.94003   0.62041  -0.74035   0.08369
  37   36197.2    276.3   0.209467867   1.90510  -0.08078   1.11791  -0.80552
  38   36776.6    271.9   0.012768962   0.11430   0.11938   0.17473  -0.26367
  39   37003.0    270.2   0.035896152   0.31936   0.08393   0.39482  -0.39552
  40   37313.5    268.0   0.020336788   0.17943   0.23822   0.10931  -0.33276
  41   37977.3    263.3   0.030967152   0.26844   0.06203  -0.43012   0.28213
  42   38035.1    262.9   0.034757945   0.30085   0.27474  -0.43760   0.18403
  43   38269.9    261.3   0.110816337   0.95328  -0.05281  -0.71488   0.66290
  44   38518.1    259.6   0.046565463   0.39799   0.00004   0.45350  -0.43855
  45   38860.3    257.3   0.003349474   0.02838  -0.11237  -0.05192   0.11425
  46   39124.4    255.6   0.006969036   0.05864  -0.14717   0.18326  -0.05830
  47   39431.2    253.6   0.186117805   1.55390  -0.41628   1.09882  -0.41619
  48   39651.8    252.2   0.012679261   0.10527  -0.02180   0.15156  -0.28605
  49   39824.4    251.1   0.005669806   0.04687   0.03649  -0.00006  -0.21340
  50   39903.8    250.6   0.034426882   0.28403   0.16629  -0.34150   0.37384
  51   40039.8    249.8   0.016262515   0.13371   0.03662   0.31391  -0.18393
  52   40191.3    248.8   0.003063032   0.02509   0.12191   0.07440  -0.06850

FINAL SINGLE POINT ENERGY     -7239.850509498685

DIPOLE MOMENT
-------------
                                X             Y             Z
Electronic contribution:   -178.33181    -135.68220     221.02120
Nuclear contribution   :    177.93206     138.93962    -223.61501
                        -----------------------------------------
Total Dipole Moment    :     -0.39976       3.25742      -2.59381
                        -----------------------------------------
Magnitude (a.u.)       :      4.18311
Magnitude (Debye)      :     10.63263

Rotational constants in cm-1:     0.001220     0.000138     0.000124
Rotational constants in MHz :    36.565158     4.131624     3.730803

                             ****ORCA TERMINATED NORMALLY****
TOTAL RUN TIME: 0 days 0 hours 15 minutes 6 seconds 444 msec
