                         Program Version 4.2.0 -  RELEASE  -
|  1> # ORCA input file
|  2> # SCF done       -198.314070477489          0.000826996631
|  3> ! CAM-B3LYP def2-SVP def2/J RIJCOSX Grid4 TightSCF
|  4> %maxcore 5000
|  5> %tddft
|  6>     Mode sTDDFT
|  7>     Ethresh 5.0
|  8>     maxcore 5000
|  9> end
| 10>
| 11> %pal
| 12>   nprocs 6
| 13>   end
| 14> * xyz 0 1
| 15>    C       -7.46538        -3.97224         8.53347
| 16>    C       -6.65106        -4.63359         9.42046
| 17>    C       -5.24712        -4.52524         9.42630
| 18>    N       -4.09841        -4.52557         9.45682
| 19>    C       -7.06404        -5.54830        10.41075
| 20>    N       -7.28404        -6.30251        11.24901
| 21>    C       -7.00033        -3.00660         7.53795
| 22>    C       -8.11966        -2.54007         6.80841
| 23>    C       -8.01545        -1.66443         5.75802
| 24>    C       -6.73375        -1.23449         5.39754
| 25>    C       -5.62339        -1.68044         6.14880
| 26>    C       -5.73348        -2.55427         7.22478
| 27>    S       -4.13193        -1.04344         5.52131
| 28>    C       -5.01072        -0.20717         4.26811
| 29>    C       -6.35165        -0.38754         4.32185
| 30>   Br       -4.07359         0.80600         2.99562
| 31>    C       -9.33589        -3.17244         7.34877
| 32>    O      -10.48702        -2.89359         7.04671
| 33>    C       -8.88887        -4.14033         8.34902
| 34>    C       -9.70029        -5.02863         9.03481
| 35>    C      -10.98469        -5.48822         8.74150
| 36>    C      -11.69535        -5.53056         7.55402
| 37>    C      -12.94382        -6.20220         7.41531
| 38>    C      -13.41756        -6.26653         6.14184
| 39>    C      -12.55332        -5.65581         5.20295
| 40>    S      -11.16465        -4.96826         6.00294
| 41>    C      -12.72460        -5.48114         3.84200
| 42>    C      -13.83014        -5.85381         3.04274
| 43>    C      -13.73580        -5.43421         1.75103
| 44>    C      -12.54209        -4.72537         1.45915
| 45>    S      -11.52847        -4.64180         2.88265
| 46>    C      -12.21393        -4.13204         0.26222
| 47>    C      -11.00843        -3.46456         0.01805
| 48>    O      -10.00823        -3.46255         0.94407
| 49>    C      -10.57012        -2.74043        -1.08855
| 50>    C      -10.94942        -2.27794        -2.42676
| 51>    O      -11.95934        -2.43252        -3.06197
| 52>    N       -9.82593        -1.57261        -2.85667
| 53>    C       -8.76629        -1.53039        -1.95253
| 54>    O       -7.71465        -0.97753        -2.13749
| 55>    C       -9.26692        -2.29500        -0.80335
| 56>    C       -8.93193        -2.77141         0.46055
| 57>    C       -7.72910        -2.71889         1.18381
| 58>    C       -7.56735        -3.41444         2.35447
| 59>    C       -6.37896        -3.54604         3.07306
| 60>    C       -6.28482        -4.37330         4.17470
| 61>    C       -5.16263        -4.65415         4.98386
| 62>    C       -5.40703        -5.54411         5.99326
| 63>    C       -6.73448        -6.01604         6.01732
| 64>    S       -7.66890        -5.28879         4.73954
| 65>    C       -7.34245        -6.92349         6.87421
| 66>    C       -6.84043        -7.56120         8.02454
| 67>    C       -7.76436        -8.33910         8.66612
| 68>    C       -9.02796        -8.37179         8.03696
| 69>    S       -9.00293        -7.38467         6.59902
| 70>    C      -10.16737        -9.04261         8.44505
| 71>    C      -11.34154        -9.04171         7.69921
| 72>    C      -12.54964        -9.63695         7.99346
| 73>    C      -13.06039       -10.21354         9.20550
| 74>    C      -12.73607        -9.83567        10.48897
| 75>    C      -13.29093       -10.41663        11.64426
| 76>    N      -13.70303       -10.87708        12.61232
| 77>    C      -11.93159        -8.71461        10.76193
| 78>    N      -11.34872        -7.75332        10.99948
| 79>    C      -14.16937       -11.09168         8.83789
| 80>    C      -14.47719       -10.87553         7.47038
| 81>    C      -13.52272        -9.89413         6.91177
| 82>    O      -13.52553        -9.40742         5.79893
| 83>    C      -15.50732       -11.52620         6.83799
| 84>    C      -16.25866       -12.44181         7.58445
| 85>    C      -15.93461       -12.65725         8.94429
| 86>    C      -14.89868       -11.99005         9.58941
| 87>    S      -16.98329       -13.83434         9.67319
| 88>    C      -17.83487       -14.01662         8.16281
| 89>    C      -17.35851       -13.23804         7.16248
| 90>   Br      -19.27087       -15.21810         8.04847
| 91>    H       -8.89009        -1.33806         5.21838
| 92>    H       -4.85272        -2.86000         7.76349
| 93>    H       -7.04436         0.05275         3.62833
| 94>    H       -9.28762        -5.45611         9.94089
| 95>    H      -11.46207        -6.01808         9.55916
| 96>    H      -13.44588        -6.61406         8.27342
| 97>    H      -14.33943        -6.73828         5.85606
| 98>    H      -14.66012        -6.40403         3.44693
| 99>    H      -14.48261        -5.60201         0.99566
|100>    H      -12.92033        -4.15745        -0.55356
|101>    H       -9.78192        -1.12586        -3.76148
|102>    H       -6.92175        -2.15762         0.73779
|103>    H       -8.42972        -3.95106         2.73249
|104>    H       -5.49202        -3.02304         2.74293
|105>    H       -4.20558        -4.19865         4.80026
|106>    H       -4.66980        -5.86942         6.70538
|107>    H       -5.82710        -7.42576         8.35937
|108>    H       -7.57422        -8.87483         9.57852
|109>    H      -10.10262        -9.60367         9.36559
|110>    H      -11.29076        -8.60170         6.70700
|111>    H      -15.72841       -11.33994         5.79868
|112>    H      -14.68507       -12.18734        10.62700
|113>    H      -17.76421       -13.22549         6.16740
|114> *
|115>
|116>                          ****END OF INPUT****

CARTESIAN COORDINATES (ANGSTROEM)
---------------------------------
  C     -7.465380   -3.972240    8.533470
  C     -6.651060   -4.633590    9.420460
  C     -5.247120   -4.525240    9.426300
  N     -4.098410   -4.525570    9.456820
  C     -7.064040   -5.548300   10.410750
  N     -7.284040   -6.302510   11.249010
  C     -7.000330   -3.006600    7.537950
  C     -8.119660   -2.540070    6.808410
  C     -8.015450   -1.664430    5.758020
  C     -6.733750   -1.234490    5.397540
  C     -5.623390   -1.680440    6.148800
  C     -5.733480   -2.554270    7.224780
  S     -4.131930   -1.043440    5.521310
  C     -5.010720   -0.207170    4.268110
  C     -6.351650   -0.387540    4.321850
  Br    -4.073590    0.806000    2.995620
  C     -9.335890   -3.172440    7.348770
  O    -10.487020   -2.893590    7.046710
  C     -8.888870   -4.140330    8.349020
  C     -9.700290   -5.028630    9.034810
  C    -10.984690   -5.488220    8.741500
  C    -11.695350   -5.530560    7.554020
  C    -12.943820   -6.202200    7.415310
  C    -13.417560   -6.266530    6.141840
  C    -12.553320   -5.655810    5.202950
  S    -11.164650   -4.968260    6.002940
  C    -12.724600   -5.481140    3.842000
  C    -13.830140   -5.853810    3.042740
  C    -13.735800   -5.434210    1.751030
  C    -12.542090   -4.725370    1.459150
  S    -11.528470   -4.641800    2.882650
  C    -12.213930   -4.132040    0.262220
  C    -11.008430   -3.464560    0.018050
  O    -10.008230   -3.462550    0.944070
  C    -10.570120   -2.740430   -1.088550
  C    -10.949420   -2.277940   -2.426760
  O    -11.959340   -2.432520   -3.061970
  N     -9.825930   -1.572610   -2.856670
  C     -8.766290   -1.530390   -1.952530
  O     -7.714650   -0.977530   -2.137490
  C     -9.266920   -2.295000   -0.803350
  C     -8.931930   -2.771410    0.460550
  C     -7.729100   -2.718890    1.183810
  C     -7.567350   -3.414440    2.354470
  C     -6.378960   -3.546040    3.073060
  C     -6.284820   -4.373300    4.174700
  C     -5.162630   -4.654150    4.983860
  C     -5.407030   -5.544110    5.993260
  C     -6.734480   -6.016040    6.017320
  S     -7.668900   -5.288790    4.739540
  C     -7.342450   -6.923490    6.874210
  C     -6.840430   -7.561200    8.024540
  C     -7.764360   -8.339100    8.666120
  C     -9.027960   -8.371790    8.036960
  S     -9.002930   -7.384670    6.599020
  C    -10.167370   -9.042610    8.445050
  C    -11.341540   -9.041710    7.699210
  C    -12.549640   -9.636950    7.993460
  C    -13.060390  -10.213540    9.205500
  C    -12.736070   -9.835670   10.488970
  C    -13.290930  -10.416630   11.644260
  N    -13.703030  -10.877080   12.612320
  C    -11.931590   -8.714610   10.761930
  N    -11.348720   -7.753320   10.999480
  C    -14.169370  -11.091680    8.837890
  C    -14.477190  -10.875530    7.470380
  C    -13.522720   -9.894130    6.911770
  O    -13.525530   -9.407420    5.798930
  C    -15.507320  -11.526200    6.837990
  C    -16.258660  -12.441810    7.584450
  C    -15.934610  -12.657250    8.944290
  C    -14.898680  -11.990050    9.589410
  S    -16.983290  -13.834340    9.673190
  C    -17.834870  -14.016620    8.162810
  C    -17.358510  -13.238040    7.162480
  Br   -19.270870  -15.218100    8.048470
  H     -8.890090   -1.338060    5.218380
  H     -4.852720   -2.860000    7.763490
  H     -7.044360    0.052750    3.628330
  H     -9.287620   -5.456110    9.940890
  H    -11.462070   -6.018080    9.559160
  H    -13.445880   -6.614060    8.273420
  H    -14.339430   -6.738280    5.856060
  H    -14.660120   -6.404030    3.446930
  H    -14.482610   -5.602010    0.995660
  H    -12.920330   -4.157450   -0.553560
  H     -9.781920   -1.125860   -3.761480
  H     -6.921750   -2.157620    0.737790
  H     -8.429720   -3.951060    2.732490
  H     -5.492020   -3.023040    2.742930
  H     -4.205580   -4.198650    4.800260
  H     -4.669800   -5.869420    6.705380
  H     -5.827100   -7.425760    8.359370
  H     -7.574220   -8.874830    9.578520
  H    -10.102620   -9.603670    9.365590
  H    -11.290760   -8.601700    6.707000
  H    -15.728410  -11.339940    5.798680
  H    -14.685070  -12.187340   10.627000
  H    -17.764210  -13.225490    6.167400

 Total Charge           Charge          ....    0
 Multiplicity           Mult            ....    1
 Number of Electrons    NEL             ....  612
 Basis Dimension        Dim             .... 1239

ORBITAL ENERGIES
----------------

  NO   OCC          E(Eh)            E(eV)
   0   2.0000    -482.888848    -13140.0736
   1   2.0000    -482.883581    -13139.9303
   2   2.0000     -88.978075     -2421.2165
   3   2.0000     -88.972478     -2421.0642
   4   2.0000     -88.970359     -2421.0066
   5   2.0000     -88.969577     -2420.9853
   6   2.0000     -88.965725     -2420.8804
   7   2.0000     -88.963452     -2420.8186
   8   2.0000     -62.566511     -1702.5213
   9   2.0000     -62.561264     -1702.3785
  10   2.0000     -56.400461     -1534.7346
  11   2.0000     -56.397748     -1534.6607
  12   2.0000     -56.397721     -1534.6600
  13   2.0000     -56.395208     -1534.5916
  14   2.0000     -56.392507     -1534.5181
  15   2.0000     -56.392469     -1534.5171
  16   2.0000     -19.322151      -525.7825
  17   2.0000     -19.219404      -522.9866
  18   2.0000     -19.218921      -522.9734
  19   2.0000     -19.210109      -522.7336
  20   2.0000     -19.206510      -522.6357
  21   2.0000     -14.461675      -393.5222
  22   2.0000     -14.412145      -392.1744
  23   2.0000     -14.411549      -392.1582
  24   2.0000     -14.408046      -392.0629
  25   2.0000     -14.406496      -392.0207
  26   2.0000     -10.408695      -283.2350
  27   2.0000     -10.408239      -283.2226
  28   2.0000     -10.375193      -282.3234
  29   2.0000     -10.373353      -282.2733
  30   2.0000     -10.360776      -281.9311
  31   2.0000     -10.360263      -281.9171
  32   2.0000     -10.355624      -281.7909
  33   2.0000     -10.350023      -281.6384
  34   2.0000     -10.340553      -281.3808
  35   2.0000     -10.337275      -281.2916
  36   2.0000     -10.336030      -281.2577
  37   2.0000     -10.334144      -281.2063
  38   2.0000     -10.334130      -281.2060
  39   2.0000     -10.333849      -281.1983
  40   2.0000     -10.333095      -281.1778
  41   2.0000     -10.331319      -281.1295
  42   2.0000     -10.330110      -281.0966
  43   2.0000     -10.330045      -281.0948
  44   2.0000     -10.323495      -280.9166
  45   2.0000     -10.323389      -280.9137
  46   2.0000     -10.322268      -280.8832
  47   2.0000     -10.321813      -280.8708
  48   2.0000     -10.316948      -280.7384
  49   2.0000     -10.315676      -280.7038
  50   2.0000     -10.312060      -280.6054
  51   2.0000     -10.311610      -280.5932
  52   2.0000     -10.310700      -280.5684
  53   2.0000     -10.309497      -280.5357
  54   2.0000     -10.309391      -280.5328
  55   2.0000     -10.309069      -280.5240
  56   2.0000     -10.308935      -280.5204
  57   2.0000     -10.308348      -280.5044
  58   2.0000     -10.307996      -280.4948
  59   2.0000     -10.307723      -280.4874
  60   2.0000     -10.307488      -280.4810
  61   2.0000     -10.305363      -280.4232
  62   2.0000     -10.305026      -280.4140
  63   2.0000     -10.304655      -280.4039
  64   2.0000     -10.303685      -280.3775
  65   2.0000     -10.303619      -280.3757
  66   2.0000     -10.303402      -280.3698
  67   2.0000     -10.302589      -280.3477
  68   2.0000     -10.301635      -280.3217
  69   2.0000     -10.301046      -280.3057
  70   2.0000     -10.298557      -280.2380
  71   2.0000     -10.298100      -280.2256
  72   2.0000     -10.298078      -280.2249
  73   2.0000     -10.297394      -280.2063
  74   2.0000     -10.295922      -280.1663
  75   2.0000     -10.294157      -280.1182
  76   2.0000     -10.293983      -280.1135
  77   2.0000     -10.292064      -280.0613
  78   2.0000     -10.289873      -280.0017
  79   2.0000     -10.288481      -279.9638
  80   2.0000     -10.286293      -279.9043
  81   2.0000     -10.284184      -279.8469
  82   2.0000     -10.282822      -279.8098
  83   2.0000     -10.279794      -279.7274
  84   2.0000      -8.795905      -239.3487
  85   2.0000      -8.790672      -239.2064
  86   2.0000      -8.073686      -219.6962
  87   2.0000      -8.068550      -219.5564
  88   2.0000      -8.065881      -219.4838
  89   2.0000      -8.065390      -219.4704
  90   2.0000      -8.061244      -219.3576
  91   2.0000      -8.057930      -219.2674
  92   2.0000      -6.632154      -180.4701
  93   2.0000      -6.626926      -180.3278
  94   2.0000      -6.617680      -180.0762
  95   2.0000      -6.617443      -180.0698
  96   2.0000      -6.612418      -179.9330
  97   2.0000      -6.612242      -179.9283
  98   2.0000      -6.043349      -164.4479
  99   2.0000      -6.039145      -164.3335
 100   2.0000      -6.038220      -164.3083
 101   2.0000      -6.035661      -164.2387
 102   2.0000      -6.035007      -164.2209
 103   2.0000      -6.034997      -164.2206
 104   2.0000      -6.033965      -164.1925
 105   2.0000      -6.031334      -164.1210
 106   2.0000      -6.030989      -164.1115
 107   2.0000      -6.030829      -164.1072
 108   2.0000      -6.029775      -164.0785
 109   2.0000      -6.027387      -164.0135
 110   2.0000      -6.026983      -164.0025
 111   2.0000      -6.026776      -163.9969
 112   2.0000      -6.026517      -163.9899
 113   2.0000      -6.022961      -163.8931
 114   2.0000      -6.022491      -163.8803
 115   2.0000      -6.019816      -163.8075
 116   2.0000      -2.748054       -74.7784
 117   2.0000      -2.743980       -74.6675
 118   2.0000      -2.743786       -74.6622
 119   2.0000      -2.742844       -74.6366
 120   2.0000      -2.738714       -74.5242
 121   2.0000      -2.738586       -74.5207
 122   2.0000      -2.732293       -74.3495
 123   2.0000      -2.732272       -74.3489
 124   2.0000      -2.727053       -74.2069
 125   2.0000      -2.727038       -74.2065
 126   2.0000      -1.237621       -33.6774
 127   2.0000      -1.163615       -31.6636
 128   2.0000      -1.143193       -31.1079
 129   2.0000      -1.123459       -30.5709
 130   2.0000      -1.120829       -30.4993
 131   2.0000      -1.051235       -28.6055
 132   2.0000      -1.022762       -27.8308
 133   2.0000      -1.018621       -27.7181
 134   2.0000      -1.017608       -27.6905
 135   2.0000      -1.016010       -27.6470
 136   2.0000      -1.009931       -27.4816
 137   2.0000      -1.008638       -27.4464
 138   2.0000      -0.996800       -27.1243
 139   2.0000      -0.991036       -26.9675
 140   2.0000      -0.989280       -26.9197
 141   2.0000      -0.988782       -26.9061
 142   2.0000      -0.984063       -26.7777
 143   2.0000      -0.983891       -26.7730
 144   2.0000      -0.948419       -25.8078
 145   2.0000      -0.939682       -25.5700
 146   2.0000      -0.939156       -25.5557
 147   2.0000      -0.934816       -25.4376
 148   2.0000      -0.925698       -25.1895
 149   2.0000      -0.913127       -24.8475
 150   2.0000      -0.906501       -24.6672
 151   2.0000      -0.903930       -24.5972
 152   2.0000      -0.903599       -24.5882
 153   2.0000      -0.891564       -24.2607
 154   2.0000      -0.884492       -24.0683
 155   2.0000      -0.882100       -24.0032
 156   2.0000      -0.880154       -23.9502
 157   2.0000      -0.873071       -23.7575
 158   2.0000      -0.869003       -23.6468
 159   2.0000      -0.865676       -23.5562
 160   2.0000      -0.851766       -23.1777
 161   2.0000      -0.843977       -22.9658
 162   2.0000      -0.839372       -22.8405
 163   2.0000      -0.837675       -22.7943
 164   2.0000      -0.827572       -22.5194
 165   2.0000      -0.826379       -22.4869
 166   2.0000      -0.824081       -22.4244
 167   2.0000      -0.807926       -21.9848
 168   2.0000      -0.794112       -21.6089
 169   2.0000      -0.782346       -21.2887
 170   2.0000      -0.776030       -21.1168
 171   2.0000      -0.769507       -20.9394
 172   2.0000      -0.760475       -20.6936
 173   2.0000      -0.754613       -20.5341
 174   2.0000      -0.751898       -20.4602
 175   2.0000      -0.740418       -20.1478
 176   2.0000      -0.728665       -19.8280
 177   2.0000      -0.716879       -19.5073
 178   2.0000      -0.709876       -19.3167
 179   2.0000      -0.706055       -19.2127
 180   2.0000      -0.697087       -18.9687
 181   2.0000      -0.688486       -18.7347
 182   2.0000      -0.688130       -18.7250
 183   2.0000      -0.684281       -18.6202
 184   2.0000      -0.682627       -18.5752
 185   2.0000      -0.673855       -18.3365
 186   2.0000      -0.667399       -18.1609
 187   2.0000      -0.660179       -17.9644
 188   2.0000      -0.656477       -17.8636
 189   2.0000      -0.654650       -17.8139
 190   2.0000      -0.644746       -17.5444
 191   2.0000      -0.643252       -17.5038
 192   2.0000      -0.637200       -17.3391
 193   2.0000      -0.633188       -17.2299
 194   2.0000      -0.631715       -17.1898
 195   2.0000      -0.625949       -17.0329
 196   2.0000      -0.624625       -16.9969
 197   2.0000      -0.619065       -16.8456
 198   2.0000      -0.615741       -16.7552
 199   2.0000      -0.604927       -16.4609
 200   2.0000      -0.601584       -16.3699
 201   2.0000      -0.595919       -16.2158
 202   2.0000      -0.595825       -16.2132
 203   2.0000      -0.594717       -16.1831
 204   2.0000      -0.593159       -16.1407
 205   2.0000      -0.590269       -16.0620
 206   2.0000      -0.581618       -15.8266
 207   2.0000      -0.577277       -15.7085
 208   2.0000      -0.572308       -15.5733
 209   2.0000      -0.568868       -15.4797
 210   2.0000      -0.560525       -15.2527
 211   2.0000      -0.557395       -15.1675
 212   2.0000      -0.553491       -15.0612
 213   2.0000      -0.549370       -14.9491
 214   2.0000      -0.548386       -14.9223
 215   2.0000      -0.547723       -14.9043
 216   2.0000      -0.542536       -14.7632
 217   2.0000      -0.540473       -14.7070
 218   2.0000      -0.537721       -14.6321
 219   2.0000      -0.536053       -14.5868
 220   2.0000      -0.533474       -14.5166
 221   2.0000      -0.532067       -14.4783
 222   2.0000      -0.528447       -14.3798
 223   2.0000      -0.524674       -14.2771
 224   2.0000      -0.523337       -14.2407
 225   2.0000      -0.521223       -14.1832
 226   2.0000      -0.519454       -14.1351
 227   2.0000      -0.517802       -14.0901
 228   2.0000      -0.514935       -14.0121
 229   2.0000      -0.512740       -13.9524
 230   2.0000      -0.510550       -13.8928
 231   2.0000      -0.507194       -13.8014
 232   2.0000      -0.506232       -13.7753
 233   2.0000      -0.505228       -13.7480
 234   2.0000      -0.503595       -13.7035
 235   2.0000      -0.500051       -13.6071
 236   2.0000      -0.498910       -13.5760
 237   2.0000      -0.494383       -13.4529
 238   2.0000      -0.493618       -13.4320
 239   2.0000      -0.492325       -13.3968
 240   2.0000      -0.491577       -13.3765
 241   2.0000      -0.491136       -13.3645
 242   2.0000      -0.490242       -13.3402
 243   2.0000      -0.486786       -13.2461
 244   2.0000      -0.484616       -13.1871
 245   2.0000      -0.480853       -13.0847
 246   2.0000      -0.477694       -12.9987
 247   2.0000      -0.475528       -12.9398
 248   2.0000      -0.474421       -12.9097
 249   2.0000      -0.471602       -12.8330
 250   2.0000      -0.467121       -12.7110
 251   2.0000      -0.462763       -12.5924
 252   2.0000      -0.456482       -12.4215
 253   2.0000      -0.455850       -12.4043
 254   2.0000      -0.453251       -12.3336
 255   2.0000      -0.452787       -12.3210
 256   2.0000      -0.451698       -12.2913
 257   2.0000      -0.448629       -12.2078
 258   2.0000      -0.445881       -12.1330
 259   2.0000      -0.443804       -12.0765
 260   2.0000      -0.442605       -12.0439
 261   2.0000      -0.441562       -12.0155
 262   2.0000      -0.439960       -11.9719
 263   2.0000      -0.437184       -11.8964
 264   2.0000      -0.436527       -11.8785
 265   2.0000      -0.434157       -11.8140
 266   2.0000      -0.432398       -11.7661
 267   2.0000      -0.427245       -11.6259
 268   2.0000      -0.425767       -11.5857
 269   2.0000      -0.422388       -11.4938
 270   2.0000      -0.419024       -11.4022
 271   2.0000      -0.416899       -11.3444
 272   2.0000      -0.413819       -11.2606
 273   2.0000      -0.412863       -11.2346
 274   2.0000      -0.409270       -11.1368
 275   2.0000      -0.404690       -11.0122
 276   2.0000      -0.401549       -10.9267
 277   2.0000      -0.399665       -10.8754
 278   2.0000      -0.396199       -10.7811
 279   2.0000      -0.390680       -10.6309
 280   2.0000      -0.389310       -10.5937
 281   2.0000      -0.386859       -10.5270
 282   2.0000      -0.383132       -10.4256
 283   2.0000      -0.378282       -10.2936
 284   2.0000      -0.377927       -10.2839
 285   2.0000      -0.373034       -10.1508
 286   2.0000      -0.370586       -10.0841
 287   2.0000      -0.369189       -10.0461
 288   2.0000      -0.357476        -9.7274
 289   2.0000      -0.353626        -9.6227
 290   2.0000      -0.353349        -9.6151
 291   2.0000      -0.352996        -9.6055
 292   2.0000      -0.349378        -9.5071
 293   2.0000      -0.340379        -9.2622
 294   2.0000      -0.336111        -9.1460
 295   2.0000      -0.334386        -9.0991
 296   2.0000      -0.330555        -8.9949
 297   2.0000      -0.316648        -8.6164
 298   2.0000      -0.312122        -8.4933
 299   2.0000      -0.309183        -8.4133
 300   2.0000      -0.301990        -8.2176
 301   2.0000      -0.291048        -7.9198
 302   2.0000      -0.289547        -7.8790
 303   2.0000      -0.281235        -7.6528
 304   2.0000      -0.247401        -6.7321
 305   2.0000      -0.225414        -6.1338
 306   0.0000      -0.127004        -3.4559
 307   0.0000      -0.111190        -3.0256
 308   0.0000      -0.078008        -2.1227
 309   0.0000      -0.068090        -1.8528
 310   0.0000      -0.054245        -1.4761

MULLIKEN ATOMIC CHARGES
-----------------------
   0 C :    0.345722
   1 C :   -0.402056
   2 C :   -0.201201
   3 N :    0.136984
   4 C :   -0.196265
   5 N :    0.156700
   6 C :   -0.001645
   7 C :    0.026702
   8 C :   -0.108768
   9 C :    0.150877
  10 C :   -0.121111
  11 C :   -0.012698
  12 S :    0.167940
  13 C :   -0.130809
  14 C :    0.029154
  15 Br:    0.021935
  16 C :    0.109369
  17 O :   -0.174848
  18 C :   -0.081960
  19 C :   -0.030929
  20 C :    0.008957
  21 C :   -0.021460
  22 C :    0.032781
  23 C :    0.072974
  24 C :   -0.061989
  25 S :    0.147948
  26 C :   -0.028212
  27 C :    0.041836
  28 C :    0.036706
  29 C :   -0.007677
  30 S :    0.119387
  31 C :   -0.042534
  32 C :    0.093195
  33 O :   -0.239865
  34 C :   -0.025903
  35 C :    0.161718
  36 O :   -0.138549
  37 N :   -0.166457
  38 C :    0.160709
  39 O :   -0.136848
  40 C :   -0.027548
  41 C :    0.103268
  42 C :   -0.032864
  43 C :   -0.003699
  44 C :    0.046695
  45 C :   -0.047457
  46 C :    0.083263
  47 C :    0.012941
  48 C :   -0.021850
  49 S :    0.083449
  50 C :   -0.061125
  51 C :    0.061007
  52 C :    0.044124
  53 C :   -0.019952
  54 S :    0.097095
  55 C :    0.003008
  56 C :    0.026729
  57 C :   -0.135089
  58 C :    0.263308
  59 C :   -0.341954
  60 C :   -0.175855
  61 N :    0.146077
  62 C :   -0.186029
  63 N :    0.141467
  64 C :    0.009338
  65 C :    0.001622
  66 C :    0.138624
  67 O :   -0.173370
  68 C :   -0.077872
  69 C :    0.111740
  70 C :   -0.089924
  71 C :   -0.024159
  72 S :    0.183489
  73 C :   -0.124487
  74 C :    0.038200
  75 Br:    0.019201
  76 H :   -0.019074
  77 H :   -0.014891
  78 H :   -0.005076
  79 H :    0.030655
  80 H :    0.007313
  81 H :    0.001773
  82 H :   -0.004981
  83 H :    0.005288
  84 H :    0.003765
  85 H :    0.017728
  86 H :    0.140608
  87 H :    0.016848
  88 H :    0.027935
  89 H :    0.002520
  90 H :   -0.001178
  91 H :    0.007735
  92 H :    0.011240
  93 H :    0.011388
  94 H :    0.010048
  95 H :    0.016825
  96 H :   -0.016874
  97 H :   -0.003893
  98 H :   -0.006921
Sum of atomic charges:   -0.0000000

LOEWDIN ATOMIC CHARGES
----------------------
   0 C :    0.080879
   1 C :   -0.164538
   2 C :   -0.019724
   3 N :   -0.078549
   4 C :   -0.025724
   5 N :   -0.058506
   6 C :   -0.023805
   7 C :   -0.041545
   8 C :    0.008068
   9 C :   -0.034038
  10 C :   -0.153423
  11 C :   -0.010703
  12 S :    0.420147
  13 C :   -0.278872
  14 C :   -0.068974
  15 Br:    0.133664
  16 C :    0.047197
  17 O :   -0.174753
  18 C :   -0.115565
  19 C :    0.041418
  20 C :   -0.058804
  21 C :   -0.121804
  22 C :   -0.022653
  23 C :   -0.018219
  24 C :   -0.178298
  25 S :    0.490901
  26 C :   -0.152444
  27 C :   -0.016247
  28 C :   -0.018958
  29 C :   -0.132065
  30 S :    0.411544
  31 C :   -0.062705
  32 C :    0.064049
  33 O :   -0.001893
  34 C :   -0.089348
  35 C :    0.083804
  36 O :   -0.156179
  37 N :   -0.006809
  38 C :    0.083973
  39 O :   -0.154815
  40 C :   -0.086477
  41 C :    0.067303
  42 C :   -0.030924
  43 C :   -0.017648
  44 C :   -0.026597
  45 C :   -0.137944
  46 C :   -0.009646
  47 C :   -0.027763
  48 C :   -0.152006
  49 S :    0.410908
  50 C :   -0.183162
  51 C :   -0.003850
  52 C :   -0.019836
  53 C :   -0.101318
  54 S :    0.425149
  55 C :   -0.065494
  56 C :    0.047001
  57 C :   -0.115228
  58 C :    0.069210
  59 C :   -0.159130
  60 C :   -0.022787
  61 N :   -0.060128
  62 C :   -0.008845
  63 N :   -0.061951
  64 C :   -0.016006
  65 C :   -0.052228
  66 C :    0.080334
  67 O :   -0.167219
  68 C :    0.016577
  69 C :   -0.036954
  70 C :   -0.145135
  71 C :   -0.014648
  72 S :    0.431394
  73 C :   -0.274356
  74 C :   -0.071283
  75 Br:    0.133210
  76 H :    0.037597
  77 H :    0.036752
  78 H :    0.037972
  79 H :    0.049427
  80 H :    0.040277
  81 H :    0.037321
  82 H :    0.034500
  83 H :    0.040459
  84 H :    0.039862
  85 H :    0.053962
  86 H :    0.095936
  87 H :    0.048039
  88 H :    0.022127
  89 H :    0.039287
  90 H :    0.035062
  91 H :    0.039877
  92 H :    0.041170
  93 H :    0.044203
  94 H :    0.039275
  95 H :    0.032394
  96 H :    0.038070
  97 H :    0.040848
  98 H :    0.037376

  Mayer bond orders larger than 0.100000
B(  0-C ,  1-C ) :   1.5822 B(  0-C ,  6-C ) :   0.9864 B(  0-C , 18-C ) :   1.1229
B(  1-C ,  2-C ) :   1.1696 B(  1-C ,  4-C ) :   1.1397 B(  2-C ,  3-N ) :   2.9279
B(  4-C ,  5-N ) :   2.9483 B(  6-C ,  7-C ) :   1.2800 B(  6-C , 11-C ) :   1.4208
B(  7-C ,  8-C ) :   1.4218 B(  7-C , 16-C ) :   0.9182 B(  8-C ,  9-C ) :   1.2204
B(  8-C , 76-H ) :   1.0210 B(  9-C , 10-C ) :   1.3258 B(  9-C , 14-C ) :   1.1558
B( 10-C , 11-C ) :   1.3144 B( 10-C , 12-S ) :   1.0727 B( 11-C , 77-H ) :   0.9835
B( 12-S , 13-C ) :   1.0799 B( 13-C , 14-C ) :   1.6109 B( 13-C , 15-Br) :   1.0162
B( 14-C , 78-H ) :   1.0033 B( 16-C , 17-O ) :   2.1463 B( 16-C , 18-C ) :   1.0096
B( 18-C , 19-C ) :   1.3920 B( 19-C , 20-C ) :   1.3647 B( 19-C , 79-H ) :   0.9382
B( 20-C , 21-C ) :   1.4417 B( 20-C , 80-H ) :   0.9339 B( 21-C , 22-C ) :   1.1573
B( 21-C , 25-S ) :   1.1199 B( 22-C , 23-C ) :   1.5743 B( 22-C , 81-H ) :   0.9962
B( 23-C , 24-C ) :   1.1847 B( 23-C , 82-H ) :   0.9859 B( 24-C , 25-S ) :   1.0702
B( 24-C , 26-C ) :   1.4749 B( 26-C , 27-C ) :   1.2025 B( 26-C , 30-S ) :   1.0540
B( 27-C , 28-C ) :   1.5695 B( 27-C , 83-H ) :   0.9969 B( 28-C , 29-C ) :   1.1530
B( 28-C , 84-H ) :   1.0018 B( 29-C , 30-S ) :   1.0631 B( 29-C , 31-C ) :   1.5001
B( 31-C , 32-C ) :   1.2525 B( 31-C , 85-H ) :   0.9627 B( 32-C , 33-O ) :   1.1247
B( 32-C , 34-C ) :   1.3370 B( 33-O , 41-C ) :   1.1196 B( 34-C , 35-C ) :   0.8835
B( 34-C , 40-C ) :   1.3287 B( 35-C , 36-O ) :   2.2690 B( 35-C , 37-N ) :   1.0754
B( 37-N , 38-C ) :   1.0810 B( 37-N , 86-H ) :   0.9131 B( 38-C , 39-O ) :   2.2719
B( 38-C , 40-C ) :   0.8770 B( 40-C , 41-C ) :   1.3370 B( 41-C , 42-C ) :   1.2321
B( 42-C , 43-C ) :   1.5226 B( 42-C , 87-H ) :   0.9718 B( 43-C , 44-C ) :   1.1903
B( 43-C , 88-H ) :   0.9729 B( 44-C , 45-C ) :   1.5008 B( 44-C , 89-H ) :   0.9883
B( 45-C , 46-C ) :   1.1765 B( 45-C , 49-S ) :   1.0454 B( 46-C , 47-C ) :   1.5328
B( 46-C , 90-H ) :   0.9982 B( 47-C , 48-C ) :   1.2182 B( 47-C , 91-H ) :   0.9974
B( 48-C , 49-S ) :   1.0848 B( 48-C , 50-C ) :   1.4304 B( 50-C , 51-C ) :   1.2293
B( 50-C , 54-S ) :   1.0590 B( 51-C , 52-C ) :   1.5311 B( 51-C , 92-H ) :   0.9901
B( 52-C , 53-C ) :   1.1830 B( 52-C , 93-H ) :   1.0017 B( 53-C , 54-S ) :   1.0885
B( 53-C , 55-C ) :   1.4707 B( 55-C , 56-C ) :   1.2422 B( 55-C , 94-H ) :   0.9681
B( 56-C , 57-C ) :   1.5015 B( 56-C , 95-H ) :   0.9313 B( 57-C , 58-C ) :   1.0930
B( 57-C , 66-C ) :   0.9733 B( 58-C , 59-C ) :   1.5909 B( 58-C , 64-C ) :   1.0079
B( 59-C , 60-C ) :   1.1272 B( 59-C , 62-C ) :   1.1864 B( 60-C , 61-N ) :   2.9835
B( 62-C , 63-N ) :   2.9153 B( 64-C , 65-C ) :   1.2699 B( 64-C , 71-C ) :   1.4286
B( 65-C , 66-C ) :   0.9264 B( 65-C , 68-C ) :   1.4344 B( 66-C , 67-O ) :   2.1960
B( 68-C , 69-C ) :   1.2446 B( 68-C , 96-H ) :   1.0152 B( 69-C , 70-C ) :   1.3150
B( 69-C , 74-C ) :   1.1635 B( 70-C , 71-C ) :   1.3138 B( 70-C , 72-S ) :   1.0848
B( 71-C , 97-H ) :   0.9826 B( 72-S , 73-C ) :   1.0870 B( 73-C , 74-C ) :   1.6200
B( 73-C , 75-Br) :   1.0162 B( 74-C , 98-H ) :   0.9999

-----------------------------------------------------------------------------
         ABSORPTION SPECTRUM VIA TRANSITION ELECTRIC DIPOLE MOMENTS
-----------------------------------------------------------------------------
State   Energy  Wavelength   fosc         T2         TX        TY        TZ
        (cm-1)    (nm)                  (au**2)     (au)      (au)      (au)
-----------------------------------------------------------------------------
   0    5956.0   1679.0   0.098646558   5.45258  -0.79418  -2.14731   0.45924
   1    9043.2   1105.8   0.023581158   0.85845   0.17408   0.26359  -0.87102
   2   12552.6    796.6   1.126616906  29.54734  -1.44992  -2.43391   4.63909
   3   14449.5    692.1   0.098762587   2.25017   0.87221   0.25468   1.19355
   4   16662.1    600.2   0.165221929   3.26447  -1.36104  -0.20678  -1.17016
   5   19073.2    524.3   0.189137986   3.26461   1.58956   0.55259   0.65770
   6   19197.7    520.9   0.196807967   3.37497   1.75185   0.03399   0.55213
   7   19572.1    510.9   0.500800325   8.42369   2.70095   1.05226   0.14591
   8   20284.4    493.0   0.078601429   1.27569  -0.78240  -0.10687  -0.80754
   9   20875.3    479.0   0.012868991   0.20295   0.02875  -0.33490   0.29994
  10   22079.8    452.9   0.182572458   2.72217  -1.41081  -0.54326   0.66080
  11   22289.0    448.7   0.240484691   3.55200   1.28434   0.32233   1.34111
  12   23051.4    433.8   0.040368637   0.57653  -0.49450  -0.55611   0.15081
  13   23333.9    428.6   0.158151707   2.23132  -1.05769  -0.81603   0.66836
  14   23864.9    419.0   0.025807456   0.35601   0.17876  -0.32706  -0.46592
  15   24203.6    413.2   0.075400801   1.02559  -0.61445  -0.79766  -0.10854
  16   24258.9    412.2   0.168783421   2.29052   1.23733   0.84913  -0.19627
  17   25318.0    395.0   0.030952996   0.40248   0.21924   0.36802  -0.46795
  18   25617.7    390.4   0.276838277   3.55764  -0.63729   0.89604  -1.53252
  19   26612.6    375.8   0.001701574   0.02105   0.04552  -0.13383  -0.03267
  20   26842.4    372.5   0.064813215   0.79491  -0.62430  -0.50627   0.38581
  21   26988.0    370.5   0.012349635   0.15065   0.29453  -0.23598   0.09062
  22   27040.9    369.8   0.016293673   0.19837   0.29433   0.33312   0.02774
  23   27529.3    363.2   0.075032458   0.89728  -0.41864   0.26352  -0.80783
  24   27896.0    358.5   0.029126268   0.34373   0.17505   0.34277  -0.44227
  25   28036.2    356.7   0.002384759   0.02800   0.13812  -0.08265  -0.04575
  26   28139.1    355.4   0.056264460   0.65826   0.24954   0.40166  -0.65929
  27   28359.6    352.6   0.491568235   5.70637   2.14259   1.01820   0.28099
  28   28530.1    350.5   0.021614504   0.24941   0.46424  -0.05828   0.17463
  29   28944.6    345.5   0.305643885   3.47635  -0.50408  -1.22226   1.31466
  30   29460.9    339.4   0.004457297   0.04981   0.14909   0.03232   0.16290
  31   30189.3    331.2   0.106095306   1.15696   0.32856  -0.62296   0.81298
  32   30367.2    329.3   0.020997986   0.22764   0.38119   0.12286  -0.25930
  33   30412.9    328.8   0.137402887   1.48735   0.64089  -0.28547   0.99755
  34   30820.6    324.5   0.468204968   5.00116  -1.03172  -1.60628   1.16472
  35   31278.6    319.7   0.026604598   0.28002   0.33021   0.32943   0.24992
  36   31415.1    318.3   0.046214089   0.48430  -0.19071  -0.26267  -0.61557
  37   31742.4    315.0   0.069479843   0.72060  -0.59956  -0.59912   0.04664
  38   31771.3    314.7   0.138271734   1.43276   0.33494  -0.25546   1.12041
  39   31987.7    312.6   0.012833543   0.13208  -0.11758  -0.28065   0.19872
  40   32021.5    312.3   0.008121269   0.08349  -0.20531  -0.08615   0.18418
  41   32212.7    310.4   0.041901980   0.42824  -0.28729  -0.02946  -0.58722
  42   32612.7    306.6   0.216523958   2.18572  -0.92727  -0.89610  -0.72311
  43   32699.7    305.8   0.031681344   0.31896  -0.17886   0.01777  -0.53540
  44   32947.0    303.5   0.039543652   0.39513   0.43129   0.44771   0.09314
  45   33117.5    302.0   0.058261724   0.57916  -0.01987   0.35965  -0.67039
  46   33316.2    300.2   0.074752167   0.73866  -0.74023  -0.33968   0.27447
  47   33703.5    296.7   0.144224330   1.40877  -0.20357   0.28029  -1.13524
  48   33745.1    296.3   0.008994133   0.08775  -0.11282   0.15113  -0.22843
  49   33902.8    295.0   0.110950429   1.07738   0.33367  -0.62867   0.75552
  50   34282.1    291.7   0.015450425   0.14837   0.14471  -0.06351   0.35128
  51   34456.8    290.2   0.124539011   1.18989  -0.65398  -0.86868   0.08712
  52   34786.9    287.5   0.028604346   0.27070   0.07239   0.40321  -0.32075
  53   34827.2    287.1   0.007249671   0.06853   0.22972  -0.12552   0.00126
  54   35049.5    285.3   0.012450501   0.11694  -0.13426   0.14179  -0.28074
  55   35107.1    284.8   0.010990163   0.10306  -0.14389  -0.28431   0.03898
  56   35445.2    282.1   0.056828124   0.52782   0.07144   0.27946   0.66679
  57   35528.4    281.5   0.000600800   0.00557  -0.00312  -0.02460   0.07037
  58   35607.2    280.8   0.006012274   0.05559  -0.08301  -0.18608  -0.11862
  59   36295.7    275.5   0.053855061   0.48848  -0.21381   0.07350  -0.66133
  60   36352.1    275.1   0.008528193   0.07723  -0.15468  -0.08798   0.21346
  61   36573.6    273.4   0.082580072   0.74333  -0.46784  -0.13135  -0.71218
  62   36833.3    271.5   0.060123310   0.53738   0.42001   0.12785   0.58704
  63   36961.0    270.6   0.092899245   0.82745   0.48255   0.49708  -0.58950
  64   37141.9    269.2   0.139363000   1.23526  -0.96576  -0.53134  -0.14227
  65   37318.2    268.0   0.100406500   0.88576  -0.59647  -0.41546   0.59781
  66   37656.1    265.6   0.009899320   0.08655   0.16401   0.15927   0.18515
  67   37741.7    265.0   0.004665323   0.04069  -0.09979  -0.05209   0.16740
  68   38138.7    262.2   0.040746850   0.35173   0.11862  -0.07991   0.57556
  69   38359.6    260.7   0.028376796   0.24354   0.25149  -0.06937   0.41890
  70   38484.9    259.8   0.003928182   0.03360   0.14827   0.06934   0.08253
  71   38705.5    258.4   0.059229449   0.50378  -0.18869  -0.03307   0.68343
  72   38915.5    257.0   0.038826138   0.32846  -0.16473   0.38741  -0.38888
  73   39021.2    256.3   0.051164047   0.43166   0.28244  -0.07938   0.58787
  74   39126.7    255.6   0.005319839   0.04476  -0.10342  -0.17092   0.06967
  75   39339.8    254.2   0.025548164   0.21380   0.19058  -0.09647   0.41009
  76   39431.8    253.6   0.015272687   0.12751  -0.31233  -0.14186   0.09916
  77   39661.5    252.1   0.004723359   0.03921   0.15536   0.06214   0.10587
  78   39700.9    251.9   0.091612483   0.75968   0.64957  -0.22041   0.53773
  79   40146.5    249.1   0.065002416   0.53304  -0.63307  -0.17300  -0.31990
  80   40194.4    248.8   0.021467472   0.17583  -0.35668  -0.06345  -0.21115

FINAL SINGLE POINT ENERGY    -10406.490507650380

DIPOLE MOMENT
-------------
                                X             Y             Z
Electronic contribution:    -29.15319     -24.21395      -0.68869
Nuclear contribution   :     28.53200      24.01815      -3.11412
                        -----------------------------------------
Total Dipole Moment    :     -0.62119      -0.19580      -3.80281
                        -----------------------------------------
Magnitude (a.u.)       :      3.85818
Magnitude (Debye)      :      9.80672

Rotational constants in cm-1:     0.001157     0.000344     0.000278
Rotational constants in MHz :    34.673444    10.312914     8.346096

                             ****ORCA TERMINATED NORMALLY****
TOTAL RUN TIME: 0 days 0 hours 16 minutes 29 seconds 923 msec
