                         Program Version 4.2.0 -  RELEASE  -
|  1> # ORCA input file
|  2> # SCF done       -190.558098789262          0.000919905249
|  3> ! CAM-B3LYP def2-SVP def2/J RIJCOSX Grid4 TightSCF
|  4> %maxcore 5000
|  5> %tddft
|  6>     Mode sTDDFT
|  7>     Ethresh 5.0
|  8>     maxcore 5000
|  9> end
| 10>
| 11> %pal
| 12>   nprocs 6
| 13>   end
| 14> * xyz 0 1
| 15>    C       -6.38248         2.40849         4.27427
| 16>    C       -6.76234         1.58477         5.30203
| 17>    C       -6.02780         1.41065         6.49259
| 18>    N       -5.47023         1.23161         7.47979
| 19>    C       -7.93916         0.80857         5.29541
| 20>    N       -8.88808         0.16361         5.33029
| 21>    C       -5.17402         3.22894         4.23635
| 22>    C       -5.13452         3.93514         3.00546
| 23>    C       -4.11455         4.79595         2.67824
| 24>    C       -3.08496         4.97185         3.60860
| 25>    C       -3.13287         4.26421         4.83332
| 26>    C       -4.16381         3.39141         5.16367
| 27>    S       -1.76499         4.63128         5.83747
| 28>    C       -1.15439         5.71644         4.61703
| 29>    C       -1.93403         5.80030         3.51232
| 30>   Br        0.45076         6.63869         4.91598
| 31>    C       -6.32480         3.58603         2.22282
| 32>    O       -6.63536         4.00281         1.10716
| 33>    C       -7.08787         2.63803         3.03503
| 34>    C       -8.28788         2.12330         2.60112
| 35>    N       -8.77517         2.48891         1.41278
| 36>    C       -9.95405         2.12179         0.84841
| 37>    S      -11.05059         1.03174         1.63864
| 38>    C      -12.14974         1.22264         0.31446
| 39>    N      -13.36086         0.51725         0.35362
| 40>    O      -14.13053         0.67199        -0.57609
| 41>    O      -13.55215        -0.19382         1.32293
| 42>    C      -11.69684         2.06645        -0.66468
| 43>    C      -10.42448         2.59863        -0.38105
| 44>    C       -9.68879         3.50913        -1.21853
| 45>    C      -10.24164         4.21966        -2.21818
| 46>    N       -9.52912         5.03187        -3.04962
| 47>    C      -10.07913         6.03923        -3.82542
| 48>    C      -11.33809         6.55397        -3.71446
| 49>    S      -11.62260         7.82968        -4.82921
| 50>    C      -10.03765         7.68436        -5.46691
| 51>    C       -9.32372         6.69242        -4.85763
| 52>    N       -8.02800         6.31259        -5.17553
| 53>    C       -7.13247         7.09915        -5.82264
| 54>    C       -5.99773         6.63823        -6.40994
| 55>    C       -5.04910         7.48959        -7.00447
| 56>    C       -3.95109         7.07444        -7.71117
| 57>    C       -2.95743         7.89585        -8.29612
| 58>    C       -1.99606         7.21367        -8.97690
| 59>    C       -2.18332         5.81241        -8.98468
| 60>    S       -3.60012         5.38338        -8.06293
| 61>    C       -1.41376         4.86813        -9.64322
| 62>    C       -0.24761         5.08991       -10.40279
| 63>    C        0.26202         3.95805       -10.97036
| 64>    C       -0.48176         2.78988       -10.69777
| 65>    S       -1.83348         3.16670        -9.65980
| 66>    C       -0.21245         1.52068       -11.17831
| 67>    C       -1.02227         0.41796       -10.94920
| 68>    C       -0.84358        -0.87423       -11.40399
| 69>    C        0.28915        -1.53694       -11.98391
| 70>    C        1.62034        -1.24145       -11.78830
| 71>    C        2.67934        -1.95911       -12.37454
| 72>    N        3.58419        -2.49124       -12.84221
| 73>    C        2.09469        -0.26245       -10.89475
| 74>    N        2.54329         0.48413       -10.14539
| 75>    C       -0.20598        -2.73638       -12.66202
| 76>    C       -1.57311        -2.90825       -12.33268
| 77>    C       -2.00771        -1.77881       -11.48020
| 78>    O       -3.10282        -1.60995       -10.98447
| 79>    C       -2.31610        -3.96540       -12.79488
| 80>    C       -1.68378        -4.89119       -13.63349
| 81>    C       -0.32305        -4.70348       -13.96564
| 82>    C        0.43316        -3.63812       -13.48871
| 83>    S        0.25545        -5.95496       -15.02450
| 84>    C       -1.31914        -6.70366       -15.00432
| 85>    C       -2.23129        -6.05298       -14.24520
| 86>   Br       -1.60980        -8.27458       -15.98896
| 87>    H       -4.11018         5.32009         1.73540
| 88>    H       -4.15503         2.87590         6.10932
| 89>    H       -1.70735         6.42073         2.66463
| 90>    H       -8.87275         1.42911         3.19025
| 91>    H       -8.16825         3.16022         0.90791
| 92>    H      -12.26736         2.26347        -1.55306
| 93>    H       -8.63323         3.62937        -1.01655
| 94>    H      -11.29717         4.16874        -2.43384
| 95>    H       -8.52963         5.07280        -2.90016
| 96>    H      -12.11165         6.27812        -3.02819
| 97>    H       -9.73165         8.31638        -6.27498
| 98>    H       -7.81011         5.32714        -5.10331
| 99>    H       -7.36701         8.15381        -5.82365
|100>    H       -5.80431         5.57393        -6.44027
|101>    H       -5.19678         8.55722        -6.90624
|102>    H       -2.98653         8.96640        -8.19382
|103>    H       -1.16968         7.67775        -9.48369
|104>    H        0.18603         6.06741       -10.51352
|105>    H        1.14777         3.92676       -11.57918
|106>    H        0.66182         1.42597       -11.80556
|107>    H       -1.96702         0.59122       -10.44174
|108>    H       -3.35402        -4.07602       -12.52254
|109>    H        1.46707        -3.53529       -13.77361
|110>    H       -3.24891        -6.37561       -14.12079
|111> *
|112>
|113>                          ****END OF INPUT****

CARTESIAN COORDINATES (ANGSTROEM)
---------------------------------
  C     -6.382480    2.408490    4.274270
  C     -6.762340    1.584770    5.302030
  C     -6.027800    1.410650    6.492590
  N     -5.470230    1.231610    7.479790
  C     -7.939160    0.808570    5.295410
  N     -8.888080    0.163610    5.330290
  C     -5.174020    3.228940    4.236350
  C     -5.134520    3.935140    3.005460
  C     -4.114550    4.795950    2.678240
  C     -3.084960    4.971850    3.608600
  C     -3.132870    4.264210    4.833320
  C     -4.163810    3.391410    5.163670
  S     -1.764990    4.631280    5.837470
  C     -1.154390    5.716440    4.617030
  C     -1.934030    5.800300    3.512320
  Br     0.450760    6.638690    4.915980
  C     -6.324800    3.586030    2.222820
  O     -6.635360    4.002810    1.107160
  C     -7.087870    2.638030    3.035030
  C     -8.287880    2.123300    2.601120
  N     -8.775170    2.488910    1.412780
  C     -9.954050    2.121790    0.848410
  S    -11.050590    1.031740    1.638640
  C    -12.149740    1.222640    0.314460
  N    -13.360860    0.517250    0.353620
  O    -14.130530    0.671990   -0.576090
  O    -13.552150   -0.193820    1.322930
  C    -11.696840    2.066450   -0.664680
  C    -10.424480    2.598630   -0.381050
  C     -9.688790    3.509130   -1.218530
  C    -10.241640    4.219660   -2.218180
  N     -9.529120    5.031870   -3.049620
  C    -10.079130    6.039230   -3.825420
  C    -11.338090    6.553970   -3.714460
  S    -11.622600    7.829680   -4.829210
  C    -10.037650    7.684360   -5.466910
  C     -9.323720    6.692420   -4.857630
  N     -8.028000    6.312590   -5.175530
  C     -7.132470    7.099150   -5.822640
  C     -5.997730    6.638230   -6.409940
  C     -5.049100    7.489590   -7.004470
  C     -3.951090    7.074440   -7.711170
  C     -2.957430    7.895850   -8.296120
  C     -1.996060    7.213670   -8.976900
  C     -2.183320    5.812410   -8.984680
  S     -3.600120    5.383380   -8.062930
  C     -1.413760    4.868130   -9.643220
  C     -0.247610    5.089910  -10.402790
  C      0.262020    3.958050  -10.970360
  C     -0.481760    2.789880  -10.697770
  S     -1.833480    3.166700   -9.659800
  C     -0.212450    1.520680  -11.178310
  C     -1.022270    0.417960  -10.949200
  C     -0.843580   -0.874230  -11.403990
  C      0.289150   -1.536940  -11.983910
  C      1.620340   -1.241450  -11.788300
  C      2.679340   -1.959110  -12.374540
  N      3.584190   -2.491240  -12.842210
  C      2.094690   -0.262450  -10.894750
  N      2.543290    0.484130  -10.145390
  C     -0.205980   -2.736380  -12.662020
  C     -1.573110   -2.908250  -12.332680
  C     -2.007710   -1.778810  -11.480200
  O     -3.102820   -1.609950  -10.984470
  C     -2.316100   -3.965400  -12.794880
  C     -1.683780   -4.891190  -13.633490
  C     -0.323050   -4.703480  -13.965640
  C      0.433160   -3.638120  -13.488710
  S      0.255450   -5.954960  -15.024500
  C     -1.319140   -6.703660  -15.004320
  C     -2.231290   -6.052980  -14.245200
  Br    -1.609800   -8.274580  -15.988960
  H     -4.110180    5.320090    1.735400
  H     -4.155030    2.875900    6.109320
  H     -1.707350    6.420730    2.664630
  H     -8.872750    1.429110    3.190250
  H     -8.168250    3.160220    0.907910
  H    -12.267360    2.263470   -1.553060
  H     -8.633230    3.629370   -1.016550
  H    -11.297170    4.168740   -2.433840
  H     -8.529630    5.072800   -2.900160
  H    -12.111650    6.278120   -3.028190
  H     -9.731650    8.316380   -6.274980
  H     -7.810110    5.327140   -5.103310
  H     -7.367010    8.153810   -5.823650
  H     -5.804310    5.573930   -6.440270
  H     -5.196780    8.557220   -6.906240
  H     -2.986530    8.966400   -8.193820
  H     -1.169680    7.677750   -9.483690
  H      0.186030    6.067410  -10.513520
  H      1.147770    3.926760  -11.579180
  H      0.661820    1.425970  -11.805560
  H     -1.967020    0.591220  -10.441740
  H     -3.354020   -4.076020  -12.522540
  H      1.467070   -3.535290  -13.773610
  H     -3.248910   -6.375610  -14.120790

 Total Charge           Charge          ....    0
 Multiplicity           Mult            ....    1
 Number of Electrons    NEL             ....  590
 Basis Dimension        Dim             .... 1188

ORBITAL ENERGIES
----------------

  NO   OCC          E(Eh)            E(eV)
   0   2.0000    -482.892516    -13140.1734
   1   2.0000    -482.873762    -13139.6631
   2   2.0000     -88.993823     -2421.6450
   3   2.0000     -88.984111     -2421.3808
   4   2.0000     -88.975366     -2421.1428
   5   2.0000     -88.964093     -2420.8360
   6   2.0000     -88.960612     -2420.7413
   7   2.0000     -88.956658     -2420.6337
   8   2.0000     -62.570218     -1702.6222
   9   2.0000     -62.551457     -1702.1117
  10   2.0000     -56.404181     -1534.8358
  11   2.0000     -56.401444     -1534.7613
  12   2.0000     -56.401415     -1534.7605
  13   2.0000     -56.385393     -1534.3246
  14   2.0000     -56.382708     -1534.2515
  15   2.0000     -56.382667     -1534.2504
  16   2.0000     -19.243592      -523.6447
  17   2.0000     -19.242669      -523.6196
  18   2.0000     -19.240293      -523.5550
  19   2.0000     -19.190825      -522.2089
  20   2.0000     -14.654958      -398.7817
  21   2.0000     -14.501318      -394.6009
  22   2.0000     -14.487009      -394.2116
  23   2.0000     -14.475149      -393.8888
  24   2.0000     -14.424415      -392.5083
  25   2.0000     -14.419997      -392.3881
  26   2.0000     -14.394534      -391.6952
  27   2.0000     -14.391841      -391.6219
  28   2.0000     -10.386721      -282.6370
  29   2.0000     -10.375533      -282.3326
  30   2.0000     -10.372209      -282.2422
  31   2.0000     -10.366806      -282.0951
  32   2.0000     -10.354014      -281.7470
  33   2.0000     -10.352464      -281.7049
  34   2.0000     -10.351943      -281.6907
  35   2.0000     -10.347709      -281.5755
  36   2.0000     -10.344120      -281.4778
  37   2.0000     -10.343876      -281.4712
  38   2.0000     -10.343259      -281.4544
  39   2.0000     -10.342310      -281.4286
  40   2.0000     -10.341914      -281.4178
  41   2.0000     -10.336028      -281.2576
  42   2.0000     -10.334554      -281.2175
  43   2.0000     -10.326766      -281.0056
  44   2.0000     -10.323153      -280.9073
  45   2.0000     -10.323141      -280.9069
  46   2.0000     -10.319434      -280.8061
  47   2.0000     -10.318585      -280.7830
  48   2.0000     -10.318067      -280.7689
  49   2.0000     -10.317220      -280.7458
  50   2.0000     -10.316642      -280.7301
  51   2.0000     -10.316277      -280.7202
  52   2.0000     -10.315967      -280.7117
  53   2.0000     -10.314677      -280.6766
  54   2.0000     -10.314587      -280.6742
  55   2.0000     -10.314057      -280.6598
  56   2.0000     -10.313149      -280.6351
  57   2.0000     -10.313143      -280.6349
  58   2.0000     -10.309986      -280.5490
  59   2.0000     -10.308789      -280.5164
  60   2.0000     -10.306973      -280.4670
  61   2.0000     -10.305044      -280.4145
  62   2.0000     -10.304922      -280.4112
  63   2.0000     -10.304320      -280.3948
  64   2.0000     -10.300836      -280.3000
  65   2.0000     -10.299913      -280.2749
  66   2.0000     -10.298690      -280.2416
  67   2.0000     -10.295676      -280.1596
  68   2.0000     -10.294402      -280.1249
  69   2.0000     -10.292885      -280.0836
  70   2.0000     -10.292678      -280.0780
  71   2.0000     -10.290255      -280.0121
  72   2.0000     -10.289263      -279.9851
  73   2.0000     -10.287051      -279.9249
  74   2.0000     -10.285976      -279.8956
  75   2.0000     -10.283447      -279.8268
  76   2.0000     -10.282843      -279.8104
  77   2.0000     -10.273056      -279.5441
  78   2.0000     -10.272801      -279.5371
  79   2.0000     -10.267705      -279.3985
  80   2.0000      -8.799644      -239.4505
  81   2.0000      -8.780863      -238.9394
  82   2.0000      -8.088907      -220.1103
  83   2.0000      -8.080102      -219.8708
  84   2.0000      -8.071237      -219.6295
  85   2.0000      -8.060331      -219.3328
  86   2.0000      -8.056690      -219.2337
  87   2.0000      -8.052878      -219.1299
  88   2.0000      -6.636000      -180.5747
  89   2.0000      -6.621360      -180.1764
  90   2.0000      -6.621134      -180.1702
  91   2.0000      -6.617100      -180.0604
  92   2.0000      -6.602612      -179.6662
  93   2.0000      -6.602456      -179.6620
  94   2.0000      -6.058540      -164.8613
  95   2.0000      -6.054223      -164.7438
  96   2.0000      -6.050407      -164.6399
  97   2.0000      -6.049762      -164.6224
  98   2.0000      -6.045491      -164.5062
  99   2.0000      -6.041360      -164.3938
 100   2.0000      -6.040732      -164.3767
 101   2.0000      -6.036330      -164.2569
 102   2.0000      -6.033197      -164.1716
 103   2.0000      -6.029985      -164.0842
 104   2.0000      -6.026382      -163.9862
 105   2.0000      -6.026013      -163.9762
 106   2.0000      -6.022458      -163.8794
 107   2.0000      -6.022125      -163.8704
 108   2.0000      -6.021348      -163.8492
 109   2.0000      -6.018487      -163.7714
 110   2.0000      -6.017885      -163.7550
 111   2.0000      -6.014028      -163.6500
 112   2.0000      -2.751841       -74.8814
 113   2.0000      -2.747744       -74.7699
 114   2.0000      -2.747613       -74.7664
 115   2.0000      -2.735960       -74.4493
 116   2.0000      -2.735945       -74.4488
 117   2.0000      -2.732961       -74.3677
 118   2.0000      -2.728911       -74.2574
 119   2.0000      -2.728809       -74.2547
 120   2.0000      -2.717281       -73.9410
 121   2.0000      -2.717270       -73.9407
 122   2.0000      -1.324881       -36.0519
 123   2.0000      -1.153929       -31.4000
 124   2.0000      -1.144050       -31.1312
 125   2.0000      -1.108405       -30.1612
 126   2.0000      -1.104762       -30.0621
 127   2.0000      -1.096216       -29.8296
 128   2.0000      -1.069078       -29.0911
 129   2.0000      -1.032069       -28.0840
 130   2.0000      -1.021348       -27.7923
 131   2.0000      -1.015140       -27.6234
 132   2.0000      -1.010049       -27.4848
 133   2.0000      -1.004815       -27.3424
 134   2.0000      -1.001801       -27.2604
 135   2.0000      -0.998123       -27.1603
 136   2.0000      -0.993300       -27.0291
 137   2.0000      -0.992668       -27.0119
 138   2.0000      -0.986490       -26.8438
 139   2.0000      -0.972287       -26.4573
 140   2.0000      -0.969135       -26.3715
 141   2.0000      -0.950695       -25.8697
 142   2.0000      -0.928175       -25.2569
 143   2.0000      -0.926548       -25.2127
 144   2.0000      -0.924271       -25.1507
 145   2.0000      -0.917493       -24.9662
 146   2.0000      -0.905789       -24.6478
 147   2.0000      -0.900976       -24.5168
 148   2.0000      -0.895230       -24.3604
 149   2.0000      -0.890211       -24.2239
 150   2.0000      -0.887384       -24.1470
 151   2.0000      -0.877895       -23.8887
 152   2.0000      -0.868478       -23.6325
 153   2.0000      -0.865228       -23.5440
 154   2.0000      -0.859323       -23.3834
 155   2.0000      -0.857467       -23.3329
 156   2.0000      -0.855546       -23.2806
 157   2.0000      -0.838820       -22.8255
 158   2.0000      -0.836355       -22.7584
 159   2.0000      -0.835055       -22.7230
 160   2.0000      -0.821757       -22.3611
 161   2.0000      -0.816331       -22.2135
 162   2.0000      -0.811866       -22.0920
 163   2.0000      -0.801687       -21.8150
 164   2.0000      -0.788408       -21.4537
 165   2.0000      -0.772158       -21.0115
 166   2.0000      -0.765908       -20.8414
 167   2.0000      -0.761774       -20.7289
 168   2.0000      -0.746438       -20.3116
 169   2.0000      -0.741550       -20.1786
 170   2.0000      -0.735395       -20.0111
 171   2.0000      -0.728338       -19.8191
 172   2.0000      -0.714538       -19.4436
 173   2.0000      -0.708585       -19.2816
 174   2.0000      -0.700642       -19.0654
 175   2.0000      -0.698939       -19.0191
 176   2.0000      -0.693678       -18.8759
 177   2.0000      -0.683446       -18.5975
 178   2.0000      -0.682388       -18.5687
 179   2.0000      -0.680804       -18.5256
 180   2.0000      -0.669608       -18.2210
 181   2.0000      -0.667083       -18.1523
 182   2.0000      -0.663189       -18.0463
 183   2.0000      -0.655232       -17.8298
 184   2.0000      -0.653451       -17.7813
 185   2.0000      -0.643880       -17.5209
 186   2.0000      -0.640907       -17.4400
 187   2.0000      -0.640407       -17.4264
 188   2.0000      -0.636435       -17.3183
 189   2.0000      -0.635655       -17.2971
 190   2.0000      -0.632395       -17.2083
 191   2.0000      -0.627859       -17.0849
 192   2.0000      -0.623908       -16.9774
 193   2.0000      -0.614945       -16.7335
 194   2.0000      -0.612122       -16.6567
 195   2.0000      -0.607481       -16.5304
 196   2.0000      -0.604454       -16.4480
 197   2.0000      -0.601477       -16.3670
 198   2.0000      -0.597944       -16.2709
 199   2.0000      -0.588409       -16.0114
 200   2.0000      -0.582751       -15.8575
 201   2.0000      -0.581632       -15.8270
 202   2.0000      -0.577217       -15.7069
 203   2.0000      -0.573456       -15.6045
 204   2.0000      -0.566006       -15.4018
 205   2.0000      -0.565159       -15.3788
 206   2.0000      -0.564571       -15.3628
 207   2.0000      -0.556033       -15.1304
 208   2.0000      -0.551929       -15.0187
 209   2.0000      -0.546356       -14.8671
 210   2.0000      -0.543935       -14.8012
 211   2.0000      -0.541947       -14.7471
 212   2.0000      -0.539393       -14.6776
 213   2.0000      -0.535253       -14.5650
 214   2.0000      -0.532115       -14.4796
 215   2.0000      -0.530284       -14.4298
 216   2.0000      -0.527965       -14.3667
 217   2.0000      -0.526967       -14.3395
 218   2.0000      -0.524444       -14.2708
 219   2.0000      -0.518930       -14.1208
 220   2.0000      -0.517083       -14.0705
 221   2.0000      -0.515573       -14.0295
 222   2.0000      -0.511528       -13.9194
 223   2.0000      -0.510417       -13.8891
 224   2.0000      -0.507068       -13.7980
 225   2.0000      -0.505734       -13.7617
 226   2.0000      -0.505296       -13.7498
 227   2.0000      -0.502652       -13.6779
 228   2.0000      -0.498973       -13.5777
 229   2.0000      -0.497012       -13.5244
 230   2.0000      -0.493063       -13.4169
 231   2.0000      -0.490523       -13.3478
 232   2.0000      -0.486160       -13.2291
 233   2.0000      -0.484873       -13.1941
 234   2.0000      -0.484381       -13.1807
 235   2.0000      -0.482274       -13.1234
 236   2.0000      -0.478681       -13.0256
 237   2.0000      -0.477845       -13.0028
 238   2.0000      -0.476577       -12.9683
 239   2.0000      -0.473838       -12.8938
 240   2.0000      -0.471808       -12.8385
 241   2.0000      -0.468088       -12.7373
 242   2.0000      -0.465853       -12.6765
 243   2.0000      -0.460261       -12.5243
 244   2.0000      -0.458130       -12.4664
 245   2.0000      -0.456881       -12.4324
 246   2.0000      -0.455294       -12.3892
 247   2.0000      -0.452808       -12.3215
 248   2.0000      -0.450060       -12.2468
 249   2.0000      -0.448670       -12.2089
 250   2.0000      -0.447734       -12.1835
 251   2.0000      -0.446099       -12.1390
 252   2.0000      -0.442631       -12.0446
 253   2.0000      -0.434574       -11.8254
 254   2.0000      -0.434323       -11.8185
 255   2.0000      -0.434180       -11.8146
 256   2.0000      -0.429760       -11.6944
 257   2.0000      -0.428884       -11.6705
 258   2.0000      -0.424689       -11.5564
 259   2.0000      -0.424123       -11.5410
 260   2.0000      -0.420532       -11.4432
 261   2.0000      -0.420352       -11.4384
 262   2.0000      -0.417059       -11.3487
 263   2.0000      -0.411501       -11.1975
 264   2.0000      -0.406108       -11.0508
 265   2.0000      -0.402029       -10.9398
 266   2.0000      -0.398531       -10.8446
 267   2.0000      -0.397363       -10.8128
 268   2.0000      -0.394525       -10.7356
 269   2.0000      -0.390564       -10.6278
 270   2.0000      -0.389343       -10.5946
 271   2.0000      -0.382203       -10.4003
 272   2.0000      -0.381931       -10.3929
 273   2.0000      -0.379288       -10.3209
 274   2.0000      -0.378610       -10.3025
 275   2.0000      -0.372227       -10.1288
 276   2.0000      -0.370735       -10.0882
 277   2.0000      -0.363467        -9.8904
 278   2.0000      -0.363454        -9.8901
 279   2.0000      -0.356602        -9.7036
 280   2.0000      -0.350089        -9.5264
 281   2.0000      -0.347483        -9.4555
 282   2.0000      -0.340164        -9.2563
 283   2.0000      -0.337110        -9.1732
 284   2.0000      -0.332413        -9.0454
 285   2.0000      -0.326721        -8.8905
 286   2.0000      -0.318064        -8.6550
 287   2.0000      -0.310065        -8.4373
 288   2.0000      -0.304527        -8.2866
 289   2.0000      -0.298861        -8.1324
 290   2.0000      -0.298418        -8.1204
 291   2.0000      -0.280295        -7.6272
 292   2.0000      -0.275625        -7.5001
 293   2.0000      -0.261259        -7.1092
 294   2.0000      -0.220480        -5.9996
 295   0.0000      -0.101854        -2.7716
 296   0.0000      -0.093188        -2.5358
 297   0.0000      -0.076153        -2.0722
 298   0.0000      -0.052821        -1.4373
 299   0.0000      -0.045924        -1.2497

MULLIKEN ATOMIC CHARGES
-----------------------
   0 C :    0.329178
   1 C :   -0.343264
   2 C :   -0.185498
   3 N :    0.151775
   4 C :   -0.196224
   5 N :    0.146137
   6 C :    0.006212
   7 C :   -0.001594
   8 C :   -0.068212
   9 C :    0.116133
  10 C :   -0.094106
  11 C :   -0.015790
  12 S :    0.194355
  13 C :   -0.124354
  14 C :    0.038881
  15 Br:    0.028719
  16 C :    0.167638
  17 O :   -0.234988
  18 C :   -0.133852
  19 C :    0.026735
  20 N :   -0.005353
  21 C :   -0.128382
  22 S :    0.179407
  23 C :    0.003642
  24 N :    0.273371
  25 O :   -0.249011
  26 O :   -0.254417
  27 C :   -0.004071
  28 C :    0.125315
  29 C :   -0.066946
  30 C :    0.062388
  31 N :   -0.073720
  32 C :    0.141296
  33 C :   -0.211676
  34 S :    0.136794
  35 C :   -0.191519
  36 C :    0.114967
  37 N :   -0.062169
  38 C :    0.065419
  39 C :   -0.023256
  40 C :    0.001078
  41 C :   -0.045193
  42 C :    0.054756
  43 C :    0.011844
  44 C :   -0.026793
  45 S :    0.091976
  46 C :   -0.066402
  47 C :    0.038979
  48 C :    0.029083
  49 C :   -0.013490
  50 S :    0.106471
  51 C :   -0.007702
  52 C :    0.025589
  53 C :   -0.134614
  54 C :    0.288914
  55 C :   -0.352000
  56 C :   -0.180416
  57 N :    0.134325
  58 C :   -0.222411
  59 N :    0.153308
  60 C :    0.006219
  61 C :   -0.002894
  62 C :    0.134636
  63 O :   -0.163533
  64 C :   -0.078633
  65 C :    0.113511
  66 C :   -0.090305
  67 C :   -0.025973
  68 S :    0.174945
  69 C :   -0.124856
  70 C :    0.038475
  71 Br:    0.010512
  72 H :   -0.014364
  73 H :   -0.005005
  74 H :   -0.003598
  75 H :    0.047533
  76 H :    0.177621
  77 H :    0.007316
  78 H :   -0.010098
  79 H :    0.014839
  80 H :    0.122902
  81 H :    0.020898
  82 H :    0.018527
  83 H :    0.131670
  84 H :    0.021574
  85 H :   -0.000171
  86 H :   -0.007307
  87 H :   -0.005857
  88 H :   -0.008628
  89 H :   -0.007541
  90 H :   -0.000650
  91 H :    0.005951
  92 H :    0.008332
  93 H :   -0.016481
  94 H :   -0.008723
  95 H :   -0.008109
Sum of atomic charges:   -0.0000000

LOEWDIN ATOMIC CHARGES
----------------------
   0 C :    0.078543
   1 C :   -0.148156
   2 C :   -0.020121
   3 N :   -0.052730
   4 C :   -0.020716
   5 N :   -0.052252
   6 C :   -0.017701
   7 C :   -0.051816
   8 C :    0.022677
   9 C :   -0.034209
  10 C :   -0.143645
  11 C :   -0.006550
  12 S :    0.439752
  13 C :   -0.270960
  14 C :   -0.070808
  15 Br:    0.140589
  16 C :    0.096741
  17 O :   -0.187802
  18 C :   -0.149636
  19 C :    0.111810
  20 N :    0.081867
  21 C :   -0.127708
  22 S :    0.471831
  23 C :   -0.199259
  24 N :    0.273002
  25 O :   -0.215515
  26 O :   -0.220512
  27 C :   -0.007994
  28 C :   -0.073996
  29 C :   -0.106452
  30 C :    0.048234
  31 N :    0.015976
  32 C :   -0.029051
  33 C :   -0.228870
  34 S :    0.454324
  35 C :   -0.219448
  36 C :   -0.039257
  37 N :    0.033399
  38 C :    0.062000
  39 C :   -0.106415
  40 C :   -0.013258
  41 C :   -0.175368
  42 C :   -0.009898
  43 C :   -0.048485
  44 C :   -0.142573
  45 S :    0.382489
  46 C :   -0.203470
  47 C :   -0.007351
  48 C :   -0.044746
  49 C :   -0.098961
  50 S :    0.399242
  51 C :   -0.076871
  52 C :    0.051432
  53 C :   -0.115193
  54 C :    0.068648
  55 C :   -0.159810
  56 C :   -0.020427
  57 N :   -0.070588
  58 C :   -0.024557
  59 N :   -0.067033
  60 C :   -0.014937
  61 C :   -0.050108
  62 C :    0.077378
  63 O :   -0.163948
  64 C :    0.016261
  65 C :   -0.038247
  66 C :   -0.145738
  67 C :   -0.017572
  68 S :    0.424461
  69 C :   -0.276492
  70 C :   -0.070932
  71 Br:    0.126744
  72 H :    0.039866
  73 H :    0.042393
  74 H :    0.038653
  75 H :    0.036698
  76 H :    0.083497
  77 H :    0.042112
  78 H :    0.026007
  79 H :    0.030511
  80 H :    0.082975
  81 H :    0.023999
  82 H :    0.023952
  83 H :    0.087780
  84 H :    0.034497
  85 H :    0.023497
  86 H :    0.036213
  87 H :    0.036338
  88 H :    0.033621
  89 H :    0.034392
  90 H :    0.038865
  91 H :    0.037312
  92 H :    0.032891
  93 H :    0.038388
  94 H :    0.039387
  95 H :    0.036894

  Mayer bond orders larger than 0.100000
B(  0-C ,  1-C ) :   1.6276 B(  0-C ,  6-C ) :   1.0014 B(  0-C , 18-C ) :   1.1006
B(  1-C ,  2-C ) :   1.1419 B(  1-C ,  4-C ) :   1.1484 B(  2-C ,  3-N ) :   2.9682
B(  4-C ,  5-N ) :   2.9542 B(  6-C ,  7-C ) :   1.2737 B(  6-C , 11-C ) :   1.4276
B(  7-C ,  8-C ) :   1.4217 B(  7-C , 16-C ) :   0.9836 B(  8-C ,  9-C ) :   1.2430
B(  8-C , 72-H ) :   1.0171 B(  9-C , 10-C ) :   1.3107 B(  9-C , 14-C ) :   1.1631
B( 10-C , 11-C ) :   1.3186 B( 10-C , 12-S ) :   1.0915 B( 11-C , 73-H ) :   0.9793
B( 12-S , 13-C ) :   1.0892 B( 13-C , 14-C ) :   1.6163 B( 13-C , 15-Br) :   1.0212
B( 14-C , 74-H ) :   1.0002 B( 16-C , 17-O ) :   2.0170 B( 16-C , 18-C ) :   1.0141
B( 17-O , 76-H ) :   0.1461 B( 18-C , 19-C ) :   1.4381 B( 19-C , 20-N ) :   1.3554
B( 19-C , 75-H ) :   0.9306 B( 20-N , 21-C ) :   1.1778 B( 20-N , 76-H ) :   0.8242
B( 21-C , 22-S ) :   1.1242 B( 21-C , 28-C ) :   1.3979 B( 22-S , 23-C ) :   1.0941
B( 23-C , 24-N ) :   0.9635 B( 23-C , 27-C ) :   1.4968 B( 24-N , 25-O ) :   1.5346
B( 24-N , 26-O ) :   1.5178 B( 25-O , 26-O ) :   0.2622 B( 27-C , 28-C ) :   1.2237
B( 27-C , 77-H ) :   0.9970 B( 28-C , 29-C ) :   1.0897 B( 29-C , 30-C ) :   1.7065
B( 29-C , 78-H ) :   0.9546 B( 30-C , 31-N ) :   1.1586 B( 30-C , 79-H ) :   0.9659
B( 31-N , 32-C ) :   1.1004 B( 31-N , 80-H ) :   0.9193 B( 32-C , 33-C ) :   1.5156
B( 32-C , 36-C ) :   1.2572 B( 33-C , 34-S ) :   1.1497 B( 33-C , 81-H ) :   0.9787
B( 34-S , 35-C ) :   1.1656 B( 35-C , 36-C ) :   1.5196 B( 35-C , 82-H ) :   0.9783
B( 36-C , 37-N ) :   1.0745 B( 37-N , 38-C ) :   1.2014 B( 37-N , 83-H ) :   0.9180
B( 38-C , 39-C ) :   1.5923 B( 38-C , 84-H ) :   0.9699 B( 39-C , 40-C ) :   1.1824
B( 39-C , 85-H ) :   0.9661 B( 40-C , 41-C ) :   1.5725 B( 40-C , 86-H ) :   0.9784
B( 41-C , 42-C ) :   1.1546 B( 41-C , 45-S ) :   1.0126 B( 42-C , 43-C ) :   1.5745
B( 42-C , 87-H ) :   0.9988 B( 43-C , 44-C ) :   1.2037 B( 43-C , 88-H ) :   0.9944
B( 44-C , 45-S ) :   1.0855 B( 44-C , 46-C ) :   1.4583 B( 46-C , 47-C ) :   1.2296
B( 46-C , 50-S ) :   1.0364 B( 47-C , 48-C ) :   1.5298 B( 47-C , 89-H ) :   0.9942
B( 48-C , 49-C ) :   1.1952 B( 48-C , 90-H ) :   1.0012 B( 49-C , 50-S ) :   1.0908
B( 49-C , 51-C ) :   1.4735 B( 51-C , 52-C ) :   1.2512 B( 51-C , 91-H ) :   0.9620
B( 52-C , 53-C ) :   1.4992 B( 52-C , 92-H ) :   0.9412 B( 53-C , 54-C ) :   1.1007
B( 53-C , 62-C ) :   0.9751 B( 54-C , 55-C ) :   1.5872 B( 54-C , 60-C ) :   1.0011
B( 55-C , 56-C ) :   1.1352 B( 55-C , 58-C ) :   1.1697 B( 56-C , 57-N ) :   2.9742
B( 58-C , 59-N ) :   3.0098 B( 60-C , 61-C ) :   1.2767 B( 60-C , 67-C ) :   1.4264
B( 61-C , 62-C ) :   0.9170 B( 61-C , 64-C ) :   1.4361 B( 62-C , 63-O ) :   2.2389
B( 64-C , 65-C ) :   1.2423 B( 64-C , 93-H ) :   1.0156 B( 65-C , 66-C ) :   1.3205
B( 65-C , 70-C ) :   1.1602 B( 66-C , 67-C ) :   1.3165 B( 66-C , 68-S ) :   1.0804
B( 67-C , 94-H ) :   0.9811 B( 68-S , 69-C ) :   1.0854 B( 69-C , 70-C ) :   1.6215
B( 69-C , 71-Br) :   1.0106 B( 70-C , 95-H ) :   1.0004

-----------------------------------------------------------------------------
         ABSORPTION SPECTRUM VIA TRANSITION ELECTRIC DIPOLE MOMENTS
-----------------------------------------------------------------------------
State   Energy  Wavelength   fosc         T2         TX        TY        TZ
        (cm-1)    (nm)                  (au**2)     (au)      (au)      (au)
-----------------------------------------------------------------------------
   0   12199.7    819.7   1.575979607  42.52824   3.34193  -4.60307  -3.18927
   1   19754.5    506.2   0.166572648   2.77596  -1.10324   0.22761  -1.22761
   2   21022.2    475.7   0.572265220   8.96181  -2.10827   0.11397  -2.12226
   3   21746.3    459.8   0.038568741   0.58388   0.66923  -0.02000  -0.36826
   4   22991.6    434.9   0.006384080   0.09141  -0.24695  -0.15761   0.07474
   5   23290.8    429.4   0.103711259   1.46595  -0.78401  -0.78118   0.49095
   6   24068.9    415.5   0.055319703   0.75666  -0.76789  -0.40712  -0.03546
   7   24809.6    403.1   0.102688482   1.36263  -0.96237  -0.51556   0.41313
   8   25109.9    398.2   0.077823280   1.02033   0.02035  -0.63271  -0.78714
   9   26873.8    372.1   0.576427265   7.06141  -2.03869  -1.66800   0.35062
  10   27939.5    357.9   0.020002944   0.23570   0.36530   0.07165  -0.31163
  11   28598.3    349.7   0.186426822   2.14607  -0.88378   0.22306  -1.14684
  12   29256.7    341.8   0.001216670   0.01369  -0.11662  -0.00182   0.00929
  13   29359.2    340.6   0.048835666   0.54761  -0.23087  -0.61757   0.33604
  14   29780.5    335.8   0.746826146   8.25588   2.44251   1.50496   0.15843
  15   30452.9    328.4   0.012415121   0.13421  -0.21405   0.12096  -0.27160
  16   30520.4    327.6   0.033672378   0.36321   0.11632  -0.31789   0.49862
  17   31149.0    321.0   0.002676188   0.02828   0.04253   0.14192  -0.07958
  18   31934.2    313.1   0.002425250   0.02500   0.13624   0.05784   0.05564
  19   32145.2    311.1   0.020180510   0.20668  -0.11710   0.42159   0.12340
  20   32265.8    309.9   0.515398988   5.25868   1.60537   1.51926   0.61097
  21   32273.5    309.9   0.341380928   3.48232   1.48611   1.11271  -0.18887
  22   32982.7    303.2   0.039942911   0.39868  -0.41332  -0.38542  -0.28161
  23   33608.1    297.5   0.240864094   2.35941   0.33175   1.35568   0.64148
  24   33863.3    295.3   0.051113680   0.49692  -0.32271  -0.59041  -0.21021
  25   33945.6    294.6   0.000217336   0.00211  -0.00374  -0.03626   0.02791
  26   34200.2    292.4   0.057604272   0.55450  -0.19996  -0.71664   0.03076
  27   34264.0    291.9   0.346199614   3.32632  -1.23537  -1.17237   0.65248
  28   34339.2    291.2   0.005823829   0.05583   0.01410   0.09971  -0.21376
  29   34364.9    291.0   0.127290936   1.21943   0.27055  -0.44890   0.97197
  30   34715.5    288.1   0.001950706   0.01850   0.05595  -0.11415   0.04836
  31   34886.3    286.6   0.134013769   1.26465   0.93154   0.16044  -0.60922
  32   35244.7    283.7   0.032173923   0.30053   0.41419   0.33341  -0.13347
  33   36047.7    277.4   0.030660955   0.28002  -0.30434   0.38177   0.20407
  34   36277.3    275.7   0.001767350   0.01604  -0.12363  -0.01713  -0.02144
  35   36552.3    273.6   0.000071152   0.00064   0.00642   0.02433  -0.00277
  36   36630.9    273.0   0.032958400   0.29621   0.44731   0.27978   0.13356
  37   36870.3    271.2   0.096735106   0.86374  -0.12014   0.73912  -0.55046
  38   37302.9    268.1   0.222259000   1.96152   0.79224   1.00038  -0.57716
  39   37564.7    266.2   0.426667240   3.73925   0.52795  -1.13220   1.47602
  40   38181.3    261.9   0.024321560   0.20971  -0.20108  -0.14821   0.38381
  41   38283.9    261.2   0.002397074   0.02061   0.09569   0.05988   0.08872
  42   38483.0    259.9   0.176585572   1.51064  -0.91887  -0.19205  -0.79337
  43   38593.1    259.1   0.022203675   0.18940   0.36814   0.20206  -0.11423
  44   38776.9    257.9   0.010261186   0.08712   0.18094  -0.01121   0.23292
  45   38841.8    257.5   0.085126020   0.72150  -0.35074   0.35081  -0.68951
  46   38980.8    256.5   0.081552254   0.68875   0.44025   0.69639  -0.09989
  47   39337.3    254.2   0.000522735   0.00437  -0.05672  -0.00676   0.03334
  48   39813.8    251.2   0.057152993   0.47259  -0.46515   0.49069   0.12428
  49   39829.1    251.1   0.280767415   2.32071   1.39351  -0.09385  -0.60830

FINAL SINGLE POINT ENERGY    -10267.596126689059

DIPOLE MOMENT
-------------
                                X             Y             Z
Electronic contribution:     88.17575     -86.66467      -0.36454
Nuclear contribution   :    -89.78802      93.39560       0.01495
                        -----------------------------------------
Total Dipole Moment    :     -1.61227       6.73093      -0.34959
                        -----------------------------------------
Magnitude (a.u.)       :      6.93016
Magnitude (Debye)      :     17.61506

Rotational constants in cm-1:     0.000530     0.000176     0.000168
Rotational constants in MHz :    15.882527     5.270405     5.025129

                             ****ORCA TERMINATED NORMALLY****
TOTAL RUN TIME: 0 days 0 hours 8 minutes 57 seconds 453 msec
