                         Program Version 4.2.0 -  RELEASE  -
|  1> # ORCA input file
|  2> # SCF done       -179.450656774672          0.000684299773
|  3> ! CAM-B3LYP def2-SVP def2/J RIJCOSX Grid4 TightSCF
|  4> %maxcore 5000
|  5> %tddft
|  6>     Mode sTDDFT
|  7>     Ethresh 5.0
|  8>     maxcore 5000
|  9> end
| 10>
| 11> %pal
| 12>   nprocs 6
| 13>   end
| 14> * xyz 0 1
| 15>    C      -15.03662         1.06609        -3.81043
| 16>    C      -15.56512        -0.09179        -3.30199
| 17>    C      -16.91840        -0.46724        -3.42500
| 18>    N      -18.00786        -0.82158        -3.49542
| 19>    C      -14.81628        -1.05346        -2.59349
| 20>    N      -14.23973        -1.85877        -2.01336
| 21>    C      -15.76969         2.08783        -4.55442
| 22>    C      -14.87262         3.12595        -4.91850
| 23>    C      -15.26918         4.23421        -5.62766
| 24>    C      -16.61524         4.32535        -5.99617
| 25>    C      -17.50307         3.28554        -5.62982
| 26>    C      -17.10136         2.16393        -4.91262
| 27>    S      -19.11791         3.59968        -6.18458
| 28>    C      -18.58807         5.10314        -6.89122
| 29>    C      -17.26845         5.35835        -6.72160
| 30>   Br      -19.82419         6.19340        -7.78540
| 31>    C      -13.53684         2.79463        -4.41341
| 32>    O      -12.50674         3.45468        -4.53610
| 33>    C      -13.66447         1.51004        -3.72131
| 34>    C      -12.58651         0.91565        -3.10855
| 35>    N      -11.39117         1.51227        -3.14898
| 36>    C      -10.22919         1.09436        -2.58870
| 37>    S      -10.13039        -0.36487        -1.65468
| 38>    C       -8.45051        -0.04014        -1.37743
| 39>    N       -7.72132        -0.95746        -0.60615
| 40>    O       -6.54406        -0.71938        -0.41507
| 41>    O       -8.32875        -1.92378        -0.18345
| 42>    C       -8.00438         1.11281        -1.96440
| 43>    C       -9.01465         1.78919        -2.67605
| 44>    C       -8.85518         3.01639        -3.40863
| 45>    C       -7.76698         3.81017        -3.37380
| 46>    C       -7.69461         5.01938        -4.13726
| 47>    C       -6.71260         5.93710        -4.12537
| 48>    C       -5.49136         5.90468        -3.26914
| 49>    C       -6.87983         7.19732        -4.94156
| 50>    N       -7.52807         8.22036        -4.14239
| 51>    C       -6.81700         9.04173        -3.31763
| 52>    C       -7.30099         9.56668        -2.17420
| 53>    C       -6.65697        10.53784        -1.34425
| 54>    C       -6.83264        10.55634         0.10711
| 55>    C       -7.57810         9.75119         0.94728
| 56>    C       -7.50998         9.97832         2.31551
| 57>    C       -6.70756        10.98288         2.83267
| 58>    C       -5.95272        11.79578         1.99664
| 59>    C       -6.01672        11.57595         0.63526
| 60>    C       -5.38907        12.26390        -0.48824
| 61>    C       -5.80422        11.56528        -1.67767
| 62>    C       -5.31450        11.89455        -3.04725
| 63>    C       -4.61456        13.37624        -0.37884
| 64>    C       -4.18586        14.21221        -1.44561
| 65>    C       -3.37857        15.41281        -1.27692
| 66>    C       -2.72037        15.81812        -0.14791
| 67>    C       -1.96643        17.00885        -0.06506
| 68>    N       -1.34313        17.96367         0.06678
| 69>    C       -2.66758        15.12181         1.07931
| 70>    N       -2.55215        14.62427         2.10768
| 71>    C       -3.36975        16.11645        -2.55892
| 72>    C       -4.13153        15.33949        -3.47357
| 73>    C       -4.60489        14.16140        -2.76887
| 74>    O       -5.34213        13.27082        -3.42614
| 75>    C       -4.32429        15.71769        -4.78000
| 76>    C       -3.74176        16.92167        -5.20026
| 77>    C       -2.98470        17.68309        -4.28425
| 78>    C       -2.78378        17.29551        -2.96010
| 79>    S       -2.35891        19.12971        -5.01583
| 80>    C       -3.11373        18.69705        -6.52423
| 81>    C       -3.79936        17.52913        -6.48395
| 82>   Br       -2.92770        19.82321        -8.01362
| 83>    H      -14.56448         5.00773        -5.88976
| 84>    H      -17.81616         1.39971        -4.65737
| 85>    H      -16.77572         6.23856        -7.09222
| 86>    H      -12.65885        -0.02726        -2.58234
| 87>    H      -11.39838         2.41174        -3.66570
| 88>    H       -6.98222         1.43306        -1.88414
| 89>    H       -9.68629         3.32344        -4.03009
| 90>    H       -6.92680         3.54796        -2.75014
| 91>    H       -8.54116         5.19464        -4.79180
| 92>    H       -5.45970         5.03693        -2.61960
| 93>    H       -5.45559         6.80217        -2.64893
| 94>    H       -4.59903         5.90316        -3.89574
| 95>    H       -7.50184         7.00881        -5.82133
| 96>    H       -5.91206         7.58309        -5.26852
| 97>    H       -8.43568         7.94533        -3.78861
| 98>    H       -5.81855         9.26714        -3.66536
| 99>    H       -8.25776         9.20765        -1.81483
|100>    H       -8.20480         8.96181         0.55834
|101>    H       -8.08882         9.36058         2.98666
|102>    H       -6.66575        11.13404         3.90109
|103>    H       -5.32374        12.56913         2.41172
|104>    H       -4.27989        11.53677        -3.16978
|105>    H       -5.95121        11.41292        -3.79417
|106>    H       -4.36941        13.70829         0.61790
|107>    H       -4.90522        15.11514        -5.45959
|108>    H       -2.19498        17.91051        -2.30040
|109>    H       -4.32483        17.11391        -7.32456
|110> *
|111>
|112>                          ****END OF INPUT****

CARTESIAN COORDINATES (ANGSTROEM)
---------------------------------
  C    -15.036620    1.066090   -3.810430
  C    -15.565120   -0.091790   -3.301990
  C    -16.918400   -0.467240   -3.425000
  N    -18.007860   -0.821580   -3.495420
  C    -14.816280   -1.053460   -2.593490
  N    -14.239730   -1.858770   -2.013360
  C    -15.769690    2.087830   -4.554420
  C    -14.872620    3.125950   -4.918500
  C    -15.269180    4.234210   -5.627660
  C    -16.615240    4.325350   -5.996170
  C    -17.503070    3.285540   -5.629820
  C    -17.101360    2.163930   -4.912620
  S    -19.117910    3.599680   -6.184580
  C    -18.588070    5.103140   -6.891220
  C    -17.268450    5.358350   -6.721600
  Br   -19.824190    6.193400   -7.785400
  C    -13.536840    2.794630   -4.413410
  O    -12.506740    3.454680   -4.536100
  C    -13.664470    1.510040   -3.721310
  C    -12.586510    0.915650   -3.108550
  N    -11.391170    1.512270   -3.148980
  C    -10.229190    1.094360   -2.588700
  S    -10.130390   -0.364870   -1.654680
  C     -8.450510   -0.040140   -1.377430
  N     -7.721320   -0.957460   -0.606150
  O     -6.544060   -0.719380   -0.415070
  O     -8.328750   -1.923780   -0.183450
  C     -8.004380    1.112810   -1.964400
  C     -9.014650    1.789190   -2.676050
  C     -8.855180    3.016390   -3.408630
  C     -7.766980    3.810170   -3.373800
  C     -7.694610    5.019380   -4.137260
  C     -6.712600    5.937100   -4.125370
  C     -5.491360    5.904680   -3.269140
  C     -6.879830    7.197320   -4.941560
  N     -7.528070    8.220360   -4.142390
  C     -6.817000    9.041730   -3.317630
  C     -7.300990    9.566680   -2.174200
  C     -6.656970   10.537840   -1.344250
  C     -6.832640   10.556340    0.107110
  C     -7.578100    9.751190    0.947280
  C     -7.509980    9.978320    2.315510
  C     -6.707560   10.982880    2.832670
  C     -5.952720   11.795780    1.996640
  C     -6.016720   11.575950    0.635260
  C     -5.389070   12.263900   -0.488240
  C     -5.804220   11.565280   -1.677670
  C     -5.314500   11.894550   -3.047250
  C     -4.614560   13.376240   -0.378840
  C     -4.185860   14.212210   -1.445610
  C     -3.378570   15.412810   -1.276920
  C     -2.720370   15.818120   -0.147910
  C     -1.966430   17.008850   -0.065060
  N     -1.343130   17.963670    0.066780
  C     -2.667580   15.121810    1.079310
  N     -2.552150   14.624270    2.107680
  C     -3.369750   16.116450   -2.558920
  C     -4.131530   15.339490   -3.473570
  C     -4.604890   14.161400   -2.768870
  O     -5.342130   13.270820   -3.426140
  C     -4.324290   15.717690   -4.780000
  C     -3.741760   16.921670   -5.200260
  C     -2.984700   17.683090   -4.284250
  C     -2.783780   17.295510   -2.960100
  S     -2.358910   19.129710   -5.015830
  C     -3.113730   18.697050   -6.524230
  C     -3.799360   17.529130   -6.483950
  Br    -2.927700   19.823210   -8.013620
  H    -14.564480    5.007730   -5.889760
  H    -17.816160    1.399710   -4.657370
  H    -16.775720    6.238560   -7.092220
  H    -12.658850   -0.027260   -2.582340
  H    -11.398380    2.411740   -3.665700
  H     -6.982220    1.433060   -1.884140
  H     -9.686290    3.323440   -4.030090
  H     -6.926800    3.547960   -2.750140
  H     -8.541160    5.194640   -4.791800
  H     -5.459700    5.036930   -2.619600
  H     -5.455590    6.802170   -2.648930
  H     -4.599030    5.903160   -3.895740
  H     -7.501840    7.008810   -5.821330
  H     -5.912060    7.583090   -5.268520
  H     -8.435680    7.945330   -3.788610
  H     -5.818550    9.267140   -3.665360
  H     -8.257760    9.207650   -1.814830
  H     -8.204800    8.961810    0.558340
  H     -8.088820    9.360580    2.986660
  H     -6.665750   11.134040    3.901090
  H     -5.323740   12.569130    2.411720
  H     -4.279890   11.536770   -3.169780
  H     -5.951210   11.412920   -3.794170
  H     -4.369410   13.708290    0.617900
  H     -4.905220   15.115140   -5.459590
  H     -2.194980   17.910510   -2.300400
  H     -4.324830   17.113910   -7.324560

 Total Charge           Charge          ....    0
 Multiplicity           Mult            ....    1
 Number of Electrons    NEL             ....  538
 Basis Dimension        Dim             .... 1135

ORBITAL ENERGIES
----------------

  NO   OCC          E(Eh)            E(eV)
   0   2.0000    -482.894012    -13140.2141
   1   2.0000    -482.883241    -13139.9210
   2   2.0000     -88.996297     -2421.7124
   3   2.0000     -88.985912     -2421.4298
   4   2.0000     -88.972715     -2421.0707
   5   2.0000     -62.571701     -1702.6625
   6   2.0000     -62.560939     -1702.3697
   7   2.0000     -56.405663     -1534.8761
   8   2.0000     -56.402928     -1534.8017
   9   2.0000     -56.402898     -1534.8009
  10   2.0000     -56.394884     -1534.5828
  11   2.0000     -56.392184     -1534.5093
  12   2.0000     -56.392141     -1534.5082
  13   2.0000     -19.280941      -524.6611
  14   2.0000     -19.244940      -523.6814
  15   2.0000     -19.244043      -523.6570
  16   2.0000     -19.242579      -523.6172
  17   2.0000     -14.656392      -398.8207
  18   2.0000     -14.503164      -394.6512
  19   2.0000     -14.440166      -392.9369
  20   2.0000     -14.426629      -392.5685
  21   2.0000     -14.422253      -392.4495
  22   2.0000     -14.415265      -392.2593
  23   2.0000     -14.413899      -392.2221
  24   2.0000     -10.388944      -282.6975
  25   2.0000     -10.378146      -282.4037
  26   2.0000     -10.377698      -282.3915
  27   2.0000     -10.368490      -282.1410
  28   2.0000     -10.367937      -282.1259
  29   2.0000     -10.354968      -281.7730
  30   2.0000     -10.354327      -281.7556
  31   2.0000     -10.353993      -281.7465
  32   2.0000     -10.350173      -281.6425
  33   2.0000     -10.344161      -281.4789
  34   2.0000     -10.342941      -281.4457
  35   2.0000     -10.337741      -281.3042
  36   2.0000     -10.336438      -281.2688
  37   2.0000     -10.328853      -281.0624
  38   2.0000     -10.325248      -280.9643
  39   2.0000     -10.322461      -280.8884
  40   2.0000     -10.322030      -280.8767
  41   2.0000     -10.320138      -280.8252
  42   2.0000     -10.318488      -280.7803
  43   2.0000     -10.318410      -280.7782
  44   2.0000     -10.317827      -280.7623
  45   2.0000     -10.317770      -280.7608
  46   2.0000     -10.316779      -280.7338
  47   2.0000     -10.316683      -280.7312
  48   2.0000     -10.314896      -280.6826
  49   2.0000     -10.313661      -280.6490
  50   2.0000     -10.307357      -280.4774
  51   2.0000     -10.306747      -280.4608
  52   2.0000     -10.306596      -280.4567
  53   2.0000     -10.303152      -280.3630
  54   2.0000     -10.302450      -280.3439
  55   2.0000     -10.301031      -280.3053
  56   2.0000     -10.299037      -280.2510
  57   2.0000     -10.298005      -280.2230
  58   2.0000     -10.296376      -280.1786
  59   2.0000     -10.296135      -280.1721
  60   2.0000     -10.295348      -280.1507
  61   2.0000     -10.294017      -280.1144
  62   2.0000     -10.292410      -280.0707
  63   2.0000     -10.284478      -279.8549
  64   2.0000     -10.282375      -279.7976
  65   2.0000     -10.281597      -279.7765
  66   2.0000     -10.280154      -279.7372
  67   2.0000     -10.273054      -279.5440
  68   2.0000     -10.266823      -279.3745
  69   2.0000     -10.263959      -279.2965
  70   2.0000     -10.262950      -279.2691
  71   2.0000     -10.261019      -279.2165
  72   2.0000     -10.260706      -279.2080
  73   2.0000     -10.260213      -279.1946
  74   2.0000     -10.259523      -279.1758
  75   2.0000     -10.258299      -279.1425
  76   2.0000      -8.801122      -239.4907
  77   2.0000      -8.790355      -239.1977
  78   2.0000      -8.091534      -220.1818
  79   2.0000      -8.081811      -219.9173
  80   2.0000      -8.068602      -219.5578
  81   2.0000      -6.637456      -180.6144
  82   2.0000      -6.626622      -180.3196
  83   2.0000      -6.622842      -180.2167
  84   2.0000      -6.622630      -180.2109
  85   2.0000      -6.612075      -179.9237
  86   2.0000      -6.611944      -179.9202
  87   2.0000      -6.061164      -164.9327
  88   2.0000      -6.056828      -164.8147
  89   2.0000      -6.053000      -164.7105
  90   2.0000      -6.051493      -164.6695
  91   2.0000      -6.047183      -164.5522
  92   2.0000      -6.043102      -164.4412
  93   2.0000      -6.038248      -164.3091
  94   2.0000      -6.033996      -164.1934
  95   2.0000      -6.029934      -164.0828
  96   2.0000      -2.753334       -74.9220
  97   2.0000      -2.749203       -74.8096
  98   2.0000      -2.749070       -74.8060
  99   2.0000      -2.742510       -74.6275
 100   2.0000      -2.738417       -74.5161
 101   2.0000      -2.738285       -74.5125
 102   2.0000      -2.737436       -74.4894
 103   2.0000      -2.737425       -74.4891
 104   2.0000      -2.726738       -74.1983
 105   2.0000      -2.726728       -74.1980
 106   2.0000      -1.326450       -36.0945
 107   2.0000      -1.184237       -32.2247
 108   2.0000      -1.156902       -31.4809
 109   2.0000      -1.145659       -31.1750
 110   2.0000      -1.111041       -30.2330
 111   2.0000      -1.043568       -28.3969
 112   2.0000      -1.034036       -28.1376
 113   2.0000      -1.023362       -27.8471
 114   2.0000      -1.022337       -27.8192
 115   2.0000      -1.017085       -27.6763
 116   2.0000      -1.011077       -27.5128
 117   2.0000      -1.003947       -27.3188
 118   2.0000      -1.000179       -27.2163
 119   2.0000      -0.993147       -27.0249
 120   2.0000      -0.992496       -27.0072
 121   2.0000      -0.977205       -26.5911
 122   2.0000      -0.952652       -25.9230
 123   2.0000      -0.939154       -25.5557
 124   2.0000      -0.938739       -25.5444
 125   2.0000      -0.922070       -25.0908
 126   2.0000      -0.919282       -25.0149
 127   2.0000      -0.916539       -24.9403
 128   2.0000      -0.911878       -24.8135
 129   2.0000      -0.904916       -24.6240
 130   2.0000      -0.897076       -24.4107
 131   2.0000      -0.895919       -24.3792
 132   2.0000      -0.888503       -24.1774
 133   2.0000      -0.882878       -24.0243
 134   2.0000      -0.876047       -23.8385
 135   2.0000      -0.860121       -23.4051
 136   2.0000      -0.858757       -23.3680
 137   2.0000      -0.851118       -23.1601
 138   2.0000      -0.840642       -22.8750
 139   2.0000      -0.840267       -22.8648
 140   2.0000      -0.826833       -22.4993
 141   2.0000      -0.823585       -22.4109
 142   2.0000      -0.807286       -21.9674
 143   2.0000      -0.796973       -21.6867
 144   2.0000      -0.790683       -21.5156
 145   2.0000      -0.786823       -21.4105
 146   2.0000      -0.775782       -21.1101
 147   2.0000      -0.773245       -21.0411
 148   2.0000      -0.757558       -20.6142
 149   2.0000      -0.754504       -20.5311
 150   2.0000      -0.740475       -20.1493
 151   2.0000      -0.734812       -19.9953
 152   2.0000      -0.721497       -19.6329
 153   2.0000      -0.713020       -19.4023
 154   2.0000      -0.701435       -19.0870
 155   2.0000      -0.699203       -19.0263
 156   2.0000      -0.697385       -18.9768
 157   2.0000      -0.690699       -18.7949
 158   2.0000      -0.683490       -18.5987
 159   2.0000      -0.676330       -18.4039
 160   2.0000      -0.668534       -18.1917
 161   2.0000      -0.667076       -18.1521
 162   2.0000      -0.661834       -18.0094
 163   2.0000      -0.656505       -17.8644
 164   2.0000      -0.647911       -17.6305
 165   2.0000      -0.645058       -17.5529
 166   2.0000      -0.642466       -17.4824
 167   2.0000      -0.640358       -17.4250
 168   2.0000      -0.637731       -17.3535
 169   2.0000      -0.630274       -17.1506
 170   2.0000      -0.626570       -17.0498
 171   2.0000      -0.620146       -16.8750
 172   2.0000      -0.613538       -16.6952
 173   2.0000      -0.607195       -16.5226
 174   2.0000      -0.603638       -16.4258
 175   2.0000      -0.598684       -16.2910
 176   2.0000      -0.595633       -16.2080
 177   2.0000      -0.592079       -16.1113
 178   2.0000      -0.588599       -16.0166
 179   2.0000      -0.582914       -15.8619
 180   2.0000      -0.580773       -15.8036
 181   2.0000      -0.573692       -15.6110
 182   2.0000      -0.568930       -15.4814
 183   2.0000      -0.568299       -15.4642
 184   2.0000      -0.567002       -15.4289
 185   2.0000      -0.565208       -15.3801
 186   2.0000      -0.557778       -15.1779
 187   2.0000      -0.552058       -15.0223
 188   2.0000      -0.548961       -14.9380
 189   2.0000      -0.547802       -14.9064
 190   2.0000      -0.543317       -14.7844
 191   2.0000      -0.540246       -14.7008
 192   2.0000      -0.536796       -14.6070
 193   2.0000      -0.535015       -14.5585
 194   2.0000      -0.533598       -14.5199
 195   2.0000      -0.530635       -14.4393
 196   2.0000      -0.529446       -14.4070
 197   2.0000      -0.527620       -14.3573
 198   2.0000      -0.518876       -14.1193
 199   2.0000      -0.518093       -14.0980
 200   2.0000      -0.512277       -13.9398
 201   2.0000      -0.509704       -13.8697
 202   2.0000      -0.508370       -13.8334
 203   2.0000      -0.507809       -13.8182
 204   2.0000      -0.504925       -13.7397
 205   2.0000      -0.503170       -13.6920
 206   2.0000      -0.500983       -13.6324
 207   2.0000      -0.496833       -13.5195
 208   2.0000      -0.491284       -13.3685
 209   2.0000      -0.487560       -13.2672
 210   2.0000      -0.486790       -13.2462
 211   2.0000      -0.486542       -13.2395
 212   2.0000      -0.482690       -13.1347
 213   2.0000      -0.476854       -12.9759
 214   2.0000      -0.474516       -12.9122
 215   2.0000      -0.473806       -12.8929
 216   2.0000      -0.469817       -12.7844
 217   2.0000      -0.469458       -12.7746
 218   2.0000      -0.466858       -12.7038
 219   2.0000      -0.459610       -12.5066
 220   2.0000      -0.458948       -12.4886
 221   2.0000      -0.458202       -12.4683
 222   2.0000      -0.457313       -12.4441
 223   2.0000      -0.455252       -12.3880
 224   2.0000      -0.452137       -12.3033
 225   2.0000      -0.449620       -12.2348
 226   2.0000      -0.448703       -12.2098
 227   2.0000      -0.447588       -12.1795
 228   2.0000      -0.446171       -12.1409
 229   2.0000      -0.442348       -12.0369
 230   2.0000      -0.440019       -11.9735
 231   2.0000      -0.436429       -11.8758
 232   2.0000      -0.436229       -11.8704
 233   2.0000      -0.436199       -11.8696
 234   2.0000      -0.429040       -11.6748
 235   2.0000      -0.428227       -11.6526
 236   2.0000      -0.424602       -11.5540
 237   2.0000      -0.422246       -11.4899
 238   2.0000      -0.419325       -11.4104
 239   2.0000      -0.419183       -11.4065
 240   2.0000      -0.415518       -11.3068
 241   2.0000      -0.413855       -11.2616
 242   2.0000      -0.406732       -11.0677
 243   2.0000      -0.400885       -10.9086
 244   2.0000      -0.399037       -10.8583
 245   2.0000      -0.397335       -10.8120
 246   2.0000      -0.395790       -10.7700
 247   2.0000      -0.391693       -10.6585
 248   2.0000      -0.384987       -10.4760
 249   2.0000      -0.384738       -10.4692
 250   2.0000      -0.383337       -10.4311
 251   2.0000      -0.381519       -10.3817
 252   2.0000      -0.373553       -10.1649
 253   2.0000      -0.372763       -10.1434
 254   2.0000      -0.371259       -10.1025
 255   2.0000      -0.367423        -9.9981
 256   2.0000      -0.365372        -9.9423
 257   2.0000      -0.350935        -9.5494
 258   2.0000      -0.348762        -9.4903
 259   2.0000      -0.328521        -8.9395
 260   2.0000      -0.326781        -8.8922
 261   2.0000      -0.313772        -8.5382
 262   2.0000      -0.312919        -8.5149
 263   2.0000      -0.303751        -8.2655
 264   2.0000      -0.294638        -8.0175
 265   2.0000      -0.291175        -7.9233
 266   2.0000      -0.274292        -7.4639
 267   2.0000      -0.268503        -7.3063
 268   2.0000      -0.237633        -6.4663
 269   0.0000      -0.095867        -2.6087
 270   0.0000      -0.086222        -2.3462
 271   0.0000      -0.078039        -2.1235
 272   0.0000      -0.053087        -1.4446
 273   0.0000      -0.049017        -1.3338

MULLIKEN ATOMIC CHARGES
-----------------------
   0 C :    0.328677
   1 C :   -0.344302
   2 C :   -0.184094
   3 N :    0.153092
   4 C :   -0.197188
   5 N :    0.148595
   6 C :    0.010198
   7 C :   -0.003852
   8 C :   -0.069007
   9 C :    0.117479
  10 C :   -0.093677
  11 C :   -0.018703
  12 S :    0.194528
  13 C :   -0.123322
  14 C :    0.038049
  15 Br:    0.029767
  16 C :    0.168846
  17 O :   -0.231185
  18 C :   -0.135795
  19 C :    0.032388
  20 N :   -0.005586
  21 C :   -0.123372
  22 S :    0.181461
  23 C :    0.003412
  24 N :    0.275164
  25 O :   -0.245975
  26 O :   -0.253025
  27 C :    0.002549
  28 C :    0.144032
  29 C :   -0.059061
  30 C :    0.019107
  31 C :    0.003339
  32 C :   -0.181203
  33 C :    0.092484
  34 C :    0.185051
  35 N :   -0.153684
  36 C :    0.039937
  37 C :   -0.077470
  38 C :    0.079192
  39 C :    0.052570
  40 C :   -0.059712
  41 C :    0.033119
  42 C :    0.027874
  43 C :   -0.048559
  44 C :    0.057854
  45 C :    0.118288
  46 C :   -0.214463
  47 C :    0.314024
  48 C :   -0.076032
  49 C :   -0.045838
  50 C :    0.298102
  51 C :   -0.347548
  52 C :   -0.187135
  53 N :    0.153527
  54 C :   -0.192670
  55 N :    0.167978
  56 C :   -0.003301
  57 C :    0.056818
  58 C :    0.126409
  59 O :   -0.260787
  60 C :   -0.094716
  61 C :    0.118038
  62 C :   -0.102054
  63 C :   -0.021367
  64 S :    0.185059
  65 C :   -0.124980
  66 C :    0.035437
  67 Br:    0.016718
  68 H :   -0.011871
  69 H :   -0.003803
  70 H :   -0.002447
  71 H :    0.046292
  72 H :    0.184886
  73 H :    0.013014
  74 H :   -0.007945
  75 H :   -0.012798
  76 H :   -0.024488
  77 H :    0.011553
  78 H :    0.041474
  79 H :    0.027478
  80 H :    0.017587
  81 H :    0.008235
  82 H :    0.112788
  83 H :    0.003187
  84 H :   -0.021236
  85 H :   -0.044121
  86 H :   -0.022039
  87 H :   -0.016990
  88 H :   -0.018708
  89 H :    0.031664
  90 H :    0.016233
  91 H :   -0.020218
  92 H :   -0.021417
  93 H :   -0.007451
  94 H :   -0.008356
Sum of atomic charges:   -0.0000000

LOEWDIN ATOMIC CHARGES
----------------------
   0 C :    0.078402
   1 C :   -0.146899
   2 C :   -0.020034
   3 N :   -0.051483
   4 C :   -0.020559
   5 N :   -0.051180
   6 C :   -0.017864
   7 C :   -0.052062
   8 C :    0.023510
   9 C :   -0.033836
  10 C :   -0.143381
  11 C :   -0.006601
  12 S :    0.440018
  13 C :   -0.270554
  14 C :   -0.070591
  15 Br:    0.141364
  16 C :    0.097427
  17 O :   -0.182498
  18 C :   -0.147341
  19 C :    0.112896
  20 N :    0.080382
  21 C :   -0.116673
  22 S :    0.473286
  23 C :   -0.199188
  24 N :    0.273090
  25 O :   -0.212284
  26 O :   -0.219976
  27 C :    0.002259
  28 C :   -0.083181
  29 C :   -0.036616
  30 C :   -0.009629
  31 C :   -0.055157
  32 C :   -0.030967
  33 C :   -0.048605
  34 C :    0.045025
  35 N :   -0.012902
  36 C :    0.033420
  37 C :   -0.116037
  38 C :    0.000852
  39 C :   -0.019846
  40 C :   -0.028832
  41 C :   -0.028027
  42 C :   -0.026276
  43 C :   -0.014407
  44 C :   -0.010723
  45 C :   -0.018903
  46 C :   -0.086558
  47 C :    0.094336
  48 C :   -0.006797
  49 C :   -0.102339
  50 C :    0.085084
  51 C :   -0.128993
  52 C :   -0.015753
  53 N :   -0.050341
  54 C :   -0.022466
  55 N :   -0.046840
  56 C :   -0.024971
  57 C :   -0.031091
  58 C :    0.104058
  59 O :   -0.056472
  60 C :    0.001913
  61 C :   -0.036502
  62 C :   -0.156132
  63 C :   -0.005190
  64 S :    0.433821
  65 C :   -0.276317
  66 C :   -0.071444
  67 Br:    0.131015
  68 H :    0.040714
  69 H :    0.042537
  70 H :    0.039037
  71 H :    0.036995
  72 H :    0.084114
  73 H :    0.044999
  74 H :    0.029313
  75 H :    0.025505
  76 H :    0.025481
  77 H :    0.029278
  78 H :    0.041507
  79 H :    0.038201
  80 H :    0.027651
  81 H :    0.027336
  82 H :    0.074952
  83 H :    0.022105
  84 H :    0.024216
  85 H :    0.021351
  86 H :    0.025432
  87 H :    0.027465
  88 H :    0.030686
  89 H :    0.026617
  90 H :    0.032730
  91 H :    0.037878
  92 H :    0.035728
  93 H :    0.040776
  94 H :    0.036562

  Mayer bond orders larger than 0.100000
B(  0-C ,  1-C ) :   1.6294 B(  0-C ,  6-C ) :   1.0023 B(  0-C , 18-C ) :   1.0965
B(  1-C ,  2-C ) :   1.1436 B(  1-C ,  4-C ) :   1.1481 B(  2-C ,  3-N ) :   2.9687
B(  4-C ,  5-N ) :   2.9558 B(  6-C ,  7-C ) :   1.2720 B(  6-C , 11-C ) :   1.4261
B(  7-C ,  8-C ) :   1.4226 B(  7-C , 16-C ) :   0.9840 B(  8-C ,  9-C ) :   1.2423
B(  8-C , 68-H ) :   1.0172 B(  9-C , 10-C ) :   1.3081 B(  9-C , 14-C ) :   1.1639
B( 10-C , 11-C ) :   1.3201 B( 10-C , 12-S ) :   1.0922 B( 11-C , 69-H ) :   0.9793
B( 12-S , 13-C ) :   1.0888 B( 13-C , 14-C ) :   1.6167 B( 13-C , 15-Br) :   1.0223
B( 14-C , 70-H ) :   0.9998 B( 16-C , 17-O ) :   2.0196 B( 16-C , 18-C ) :   1.0107
B( 17-O , 72-H ) :   0.1436 B( 18-C , 19-C ) :   1.4488 B( 19-C , 20-N ) :   1.3462
B( 19-C , 71-H ) :   0.9307 B( 20-N , 21-C ) :   1.1918 B( 20-N , 72-H ) :   0.8208
B( 21-C , 22-S ) :   1.1332 B( 21-C , 28-C ) :   1.3811 B( 22-S , 23-C ) :   1.0858
B( 23-C , 24-N ) :   0.9623 B( 23-C , 27-C ) :   1.5054 B( 24-N , 25-O ) :   1.5353
B( 24-N , 26-O ) :   1.5186 B( 25-O , 26-O ) :   0.2634 B( 27-C , 28-C ) :   1.2188
B( 27-C , 73-H ) :   1.0001 B( 28-C , 29-C ) :   1.0402 B( 29-C , 30-C ) :   1.7465
B( 29-C , 74-H ) :   0.9772 B( 30-C , 31-C ) :   1.0957 B( 30-C , 75-H ) :   0.9731
B( 31-C , 32-C ) :   1.7598 B( 31-C , 76-H ) :   0.9756 B( 32-C , 33-C ) :   1.0806
B( 32-C , 34-C ) :   1.0250 B( 33-C , 77-H ) :   0.9526 B( 33-C , 78-H ) :   0.9423
B( 33-C , 79-H ) :   0.9434 B( 34-C , 35-N ) :   1.0301 B( 34-C , 80-H ) :   0.9442
B( 34-C , 81-H ) :   0.9338 B( 35-N , 36-C ) :   1.1989 B( 35-N , 82-H ) :   0.9397
B( 36-C , 37-C ) :   1.6443 B( 36-C , 83-H ) :   0.9641 B( 37-C , 38-C ) :   1.1126
B( 37-C , 84-H ) :   0.9415 B( 38-C , 39-C ) :   1.0333 B( 38-C , 46-C ) :   1.6119
B( 39-C , 40-C ) :   1.3783 B( 39-C , 44-C ) :   1.3246 B( 40-C , 41-C ) :   1.3638
B( 40-C , 85-H ) :   0.9907 B( 41-C , 42-C ) :   1.3978 B( 41-C , 86-H ) :   0.9843
B( 42-C , 43-C ) :   1.3594 B( 42-C , 87-H ) :   0.9841 B( 43-C , 44-C ) :   1.3996
B( 43-C , 88-H ) :   0.9925 B( 44-C , 45-C ) :   1.0061 B( 45-C , 46-C ) :   1.1168
B( 45-C , 48-C ) :   1.6309 B( 46-C , 47-C ) :   1.0430 B( 47-C , 59-O ) :   0.9008
B( 47-C , 89-H ) :   0.9293 B( 47-C , 90-H ) :   0.9222 B( 48-C , 49-C ) :   1.0990
B( 48-C , 91-H ) :   0.9448 B( 49-C , 50-C ) :   1.0675 B( 49-C , 58-C ) :   1.4018
B( 50-C , 51-C ) :   1.6469 B( 50-C , 56-C ) :   0.9837 B( 51-C , 52-C ) :   1.1445
B( 51-C , 54-C ) :   1.1339 B( 52-C , 53-N ) :   2.9721 B( 54-C , 55-N ) :   3.0002
B( 56-C , 57-C ) :   1.2545 B( 56-C , 63-C ) :   1.4607 B( 57-C , 58-C ) :   1.0385
B( 57-C , 60-C ) :   1.4230 B( 58-C , 59-O ) :   1.3220 B( 60-C , 61-C ) :   1.2186
B( 60-C , 92-H ) :   1.0158 B( 61-C , 62-C ) :   1.3381 B( 61-C , 66-C ) :   1.1692
B( 62-C , 63-C ) :   1.2817 B( 62-C , 64-S ) :   1.0848 B( 63-C , 93-H ) :   0.9817
B( 64-S , 65-C ) :   1.0954 B( 65-C , 66-C ) :   1.6113 B( 65-C , 67-Br) :   1.0143
B( 66-C , 94-H ) :   0.9995

-----------------------------------------------------------------------------
         ABSORPTION SPECTRUM VIA TRANSITION ELECTRIC DIPOLE MOMENTS
-----------------------------------------------------------------------------
State   Energy  Wavelength   fosc         T2         TX        TY        TZ
        (cm-1)    (nm)                  (au**2)     (au)      (au)      (au)
-----------------------------------------------------------------------------
   0   15355.3    651.2   0.037210581   0.79778  -0.15424  -0.58843   0.65402
   1   20979.0    476.7   0.674872206  10.59039   2.98289   1.09878   0.69675
   2   22217.1    450.1   0.167101838   2.47611  -0.36368  -1.52676  -0.11339
   3   23205.9    430.9   0.410308950   5.82087  -2.28169   0.37978  -0.68596
   4   24305.9    411.4   0.465132007   6.30000  -1.65017  -1.87920   0.21340
   5   24440.3    409.2   0.381611420   5.14033   0.24872   2.08884  -0.84571
   6   26523.8    377.0   0.048699824   0.60446  -0.53705   0.41682  -0.37723
   7   26984.4    370.6   0.465799664   5.68280  -0.08877  -1.32830   1.97751
   8   28740.3    347.9   0.197703973   2.26464   0.70988   1.31360  -0.18751
   9   28905.2    346.0   0.030817219   0.35099   0.05601  -0.39356  -0.43928
  10   29255.0    341.8   0.203805084   2.29345   0.56360  -0.81247   1.14704
  11   29651.9    337.2   0.186279229   2.06818  -1.10242   0.87435  -0.29726
  12   29835.4    335.2   0.278710097   3.07536  -0.68498   1.13164  -1.15133
  13   30370.9    329.3   0.005619720   0.06092  -0.10203   0.22450  -0.01032
  14   30925.1    323.4   0.172726307   1.83875   1.14856  -0.65484   0.30124
  15   31338.4    319.1   0.048213260   0.50648  -0.25606  -0.52244  -0.40985
  16   31776.8    314.7   0.142228316   1.47350  -0.05922  -0.87780   0.83634
  17   33166.2    301.5   0.037301777   0.37026   0.07290  -0.57877  -0.17312
  18   33230.8    300.9   0.106021111   1.05033   0.55402  -0.44633   0.73769
  19   33613.2    297.5   0.058181416   0.56984  -0.25083  -0.56745  -0.43002
  20   33820.8    295.7   0.000369109   0.00359   0.00300  -0.00543   0.05962
  21   33976.0    294.3   0.310299361   3.00666  -0.16312  -1.57630   0.70379
  22   34061.0    293.6   0.001295303   0.01252   0.02022  -0.07488   0.08065
  23   34347.9    291.1   0.068117475   0.65288   0.30319  -0.61787   0.42331
  24   34484.9    290.0   0.262952018   2.51029  -0.11275   1.51625  -0.44558
  25   34665.4    288.5   0.007127036   0.06768   0.15068  -0.15428  -0.14553
  26   35297.5    283.3   0.413570423   3.85728   1.13535   1.05336   1.20776
  27   35673.7    280.3   0.457626667   4.22317  -0.54639   0.01780  -1.98099
  28   36143.0    276.7   0.156418868   1.42476  -0.36356  -0.89674   0.69889
  29   36433.2    274.5   0.000096368   0.00087  -0.02863   0.00653   0.00294
  30   37010.7    270.2   0.009352544   0.08319  -0.09333  -0.21610   0.16668
  31   37901.1    263.8   0.112507315   0.97725   0.75719   0.52115  -0.36375
  32   37935.5    263.6   0.102273243   0.88755   0.09160  -0.67330   0.65256
  33   38351.9    260.7   0.096494017   0.82830  -0.68138   0.37685  -0.47117
  34   38388.4    260.5   0.154722904   1.32687  -0.97416  -0.58182   0.19844
  35   38890.6    257.1   0.447357437   3.78691   0.78289   1.57081  -0.84057
  36   39396.6    253.8   0.129949823   1.08591   0.33417  -0.00882   0.98700
  37   39792.7    251.3   0.001022794   0.00846  -0.06744  -0.04693  -0.04136
  38   40033.0    249.8   0.138578229   1.13960  -0.66345  -0.71893   0.42729

FINAL SINGLE POINT ENERGY     -9020.511952267127

DIPOLE MOMENT
-------------
                                X             Y             Z
Electronic contribution:    -76.75976      97.37904    -101.92186
Nuclear contribution   :     75.22844     -96.35954      97.34770
                        -----------------------------------------
Total Dipole Moment    :     -1.53132       1.01951      -4.57416
                        -----------------------------------------
Magnitude (a.u.)       :      4.93024
Magnitude (Debye)      :     12.53168

Rotational constants in cm-1:     0.000819     0.000213     0.000181
Rotational constants in MHz :    24.557116     6.382652     5.440026

                             ****ORCA TERMINATED NORMALLY****
TOTAL RUN TIME: 0 days 0 hours 8 minutes 49 seconds 990 msec
