                         Program Version 4.2.0 -  RELEASE  -
|  1> # ORCA input file
|  2> # SCF done       -192.492661966331          0.000741417964
|  3> ! CAM-B3LYP def2-SVP def2/J RIJCOSX Grid4 TightSCF
|  4> %maxcore 5000
|  5> %tddft
|  6>     Mode sTDDFT
|  7>     Ethresh 5.0
|  8>     maxcore 5000
|  9> end
| 10>
| 11> %pal
| 12>   nprocs 6
| 13>   end
| 14> * xyz 0 1
| 15>    C       -5.13265         6.30595         3.72667
| 16>    C       -6.36754         6.08299         3.16782
| 17>    C       -7.37641         7.06267         3.05845
| 18>    N       -8.25308         7.79781         2.96898
| 19>    C       -6.80391         4.85201         2.64096
| 20>    N       -7.20634         3.86780         2.20274
| 21>    C       -4.62999         7.58936         4.19068
| 22>    C       -3.27818         7.43382         4.58634
| 23>    C       -2.52444         8.47538         5.06813
| 24>    C       -3.13135         9.73245         5.16051
| 25>    C       -4.48392         9.87761         4.76554
| 26>    C       -5.24695         8.82381         4.28091
| 27>    S       -5.03552        11.51203         4.96350
| 28>    C       -3.46434        11.97490         5.55965
| 29>    C       -2.57106        10.95701         5.61232
| 30>   Br       -3.14991        13.75493         6.05394
| 31>    C       -2.86367         6.02850         4.40490
| 32>    O       -1.78500         5.55315         4.67351
| 33>    C       -4.07137         5.32946         3.88891
| 34>    C       -4.21994         3.98847         3.68450
| 35>    C       -3.25724         2.96268         3.65767
| 36>    O       -1.91809         3.17045         3.72628
| 37>    C       -1.30213         2.02374         3.58764
| 38>    C       -2.20595         0.99393         3.39869
| 39>    N       -1.84228        -0.33371         3.06935
| 40>    O       -0.70672        -0.67887         3.33593
| 41>    O       -2.67614        -1.03093         2.52535
| 42>    C       -3.50440         1.58853         3.45534
| 43>    N       -4.72774         1.00690         3.37014
| 44>    C       -5.00608        -0.32513         3.58944
| 45>    S       -6.16862        -1.12770         2.58137
| 46>    C       -5.98834        -2.59191         3.50755
| 47>    C       -5.01478        -2.46510         4.47777
| 48>    C       -4.49296        -1.15541         4.56047
| 49>    C       -3.59260        -0.73060         5.67885
| 50>    C       -3.69294        -1.72421         6.83564
| 51>    C       -3.42194        -3.13277         6.29451
| 52>    C       -3.27545        -4.12498         7.44636
| 53>    O       -4.08923        -4.95197         7.72773
| 54>    O       -2.13841        -4.00081         8.15011
| 55>    C       -4.57008        -3.56618         5.38299
| 56>    C       -6.76244        -3.76313         3.21282
| 57>    O       -6.20921        -4.96605         3.54117
| 58>    C       -6.99120        -5.94054         3.11809
| 59>    C       -8.09090        -5.41938         2.48609
| 60>    N       -9.12232        -6.15452         1.86363
| 61>    O       -9.93839        -5.52249         1.20832
| 62>    O       -9.11996        -7.35393         1.99193
| 63>    C       -7.97826        -3.98701         2.57298
| 64>    N       -8.96742        -3.17453         2.07190
| 65>    C       -9.43468        -1.96641         2.42163
| 66>    C       -9.14368        -1.10357         3.43601
| 67>    C       -8.38487        -1.18232         4.65914
| 68>    C       -8.25522        -2.26950         5.48459
| 69>    C       -7.55434        -2.20575         6.70352
| 70>    N       -6.95695        -2.16391         7.68316
| 71>    C       -8.88729        -3.50464         5.24671
| 72>    N       -9.42859        -4.50724         5.10618
| 73>    C       -8.00662         0.18639         5.01220
| 74>    C       -8.79463         1.08047         4.24702
| 75>    C       -9.59519         0.30561         3.27416
| 76>    O      -10.40678         0.71852         2.48159
| 77>    C       -8.72845         2.44276         4.40746
| 78>    C       -7.78371         2.94391         5.31051
| 79>    C       -6.93374         2.04509         5.99439
| 80>    C       -7.05490         0.66403         5.88975
| 81>    S       -5.75765         2.88712         6.96226
| 82>    C       -6.45263         4.41431         6.48424
| 83>    C       -7.50037         4.30078         5.63497
| 84>   Br       -5.71836         6.01256         7.14562
| 85>    H       -1.49760         8.32590         5.36246
| 86>    H       -6.27423         8.98313         3.99927
| 87>    H       -1.55841        11.06563         5.95515
| 88>    H       -5.21936         3.62640         3.48874
| 89>    H       -0.22895         2.00009         3.60350
| 90>    H       -5.49191         1.58174         3.03707
| 91>    H       -3.85925         0.27814         6.00754
| 92>    H       -2.54950        -0.69707         5.34912
| 93>    H       -4.69012        -1.70470         7.27956
| 94>    H       -2.97395        -1.44896         7.61010
| 95>    H       -2.48346        -3.12107         5.72531
| 96>    H       -1.55162        -3.31491         7.80485
| 97>    H       -5.40208        -3.90536         6.00777
| 98>    H       -4.25443        -4.42367         4.78703
| 99>    H       -6.69919        -6.95709         3.29625
|100>    H       -9.55130        -3.69489         1.40816
|101>    H      -10.15342        -1.57290         1.70773
|102>    H       -9.36559         3.10115         3.83977
|103>    H       -6.41953         0.01414         6.46600
|104>    H       -8.06705         5.13513         5.26299
|105> *
|106>
|107>                          ****END OF INPUT****

CARTESIAN COORDINATES (ANGSTROEM)
---------------------------------
  C     -5.132650    6.305950    3.726670
  C     -6.367540    6.082990    3.167820
  C     -7.376410    7.062670    3.058450
  N     -8.253080    7.797810    2.968980
  C     -6.803910    4.852010    2.640960
  N     -7.206340    3.867800    2.202740
  C     -4.629990    7.589360    4.190680
  C     -3.278180    7.433820    4.586340
  C     -2.524440    8.475380    5.068130
  C     -3.131350    9.732450    5.160510
  C     -4.483920    9.877610    4.765540
  C     -5.246950    8.823810    4.280910
  S     -5.035520   11.512030    4.963500
  C     -3.464340   11.974900    5.559650
  C     -2.571060   10.957010    5.612320
  Br    -3.149910   13.754930    6.053940
  C     -2.863670    6.028500    4.404900
  O     -1.785000    5.553150    4.673510
  C     -4.071370    5.329460    3.888910
  C     -4.219940    3.988470    3.684500
  C     -3.257240    2.962680    3.657670
  O     -1.918090    3.170450    3.726280
  C     -1.302130    2.023740    3.587640
  C     -2.205950    0.993930    3.398690
  N     -1.842280   -0.333710    3.069350
  O     -0.706720   -0.678870    3.335930
  O     -2.676140   -1.030930    2.525350
  C     -3.504400    1.588530    3.455340
  N     -4.727740    1.006900    3.370140
  C     -5.006080   -0.325130    3.589440
  S     -6.168620   -1.127700    2.581370
  C     -5.988340   -2.591910    3.507550
  C     -5.014780   -2.465100    4.477770
  C     -4.492960   -1.155410    4.560470
  C     -3.592600   -0.730600    5.678850
  C     -3.692940   -1.724210    6.835640
  C     -3.421940   -3.132770    6.294510
  C     -3.275450   -4.124980    7.446360
  O     -4.089230   -4.951970    7.727730
  O     -2.138410   -4.000810    8.150110
  C     -4.570080   -3.566180    5.382990
  C     -6.762440   -3.763130    3.212820
  O     -6.209210   -4.966050    3.541170
  C     -6.991200   -5.940540    3.118090
  C     -8.090900   -5.419380    2.486090
  N     -9.122320   -6.154520    1.863630
  O     -9.938390   -5.522490    1.208320
  O     -9.119960   -7.353930    1.991930
  C     -7.978260   -3.987010    2.572980
  N     -8.967420   -3.174530    2.071900
  C     -9.434680   -1.966410    2.421630
  C     -9.143680   -1.103570    3.436010
  C     -8.384870   -1.182320    4.659140
  C     -8.255220   -2.269500    5.484590
  C     -7.554340   -2.205750    6.703520
  N     -6.956950   -2.163910    7.683160
  C     -8.887290   -3.504640    5.246710
  N     -9.428590   -4.507240    5.106180
  C     -8.006620    0.186390    5.012200
  C     -8.794630    1.080470    4.247020
  C     -9.595190    0.305610    3.274160
  O    -10.406780    0.718520    2.481590
  C     -8.728450    2.442760    4.407460
  C     -7.783710    2.943910    5.310510
  C     -6.933740    2.045090    5.994390
  C     -7.054900    0.664030    5.889750
  S     -5.757650    2.887120    6.962260
  C     -6.452630    4.414310    6.484240
  C     -7.500370    4.300780    5.634970
  Br    -5.718360    6.012560    7.145620
  H     -1.497600    8.325900    5.362460
  H     -6.274230    8.983130    3.999270
  H     -1.558410   11.065630    5.955150
  H     -5.219360    3.626400    3.488740
  H     -0.228950    2.000090    3.603500
  H     -5.491910    1.581740    3.037070
  H     -3.859250    0.278140    6.007540
  H     -2.549500   -0.697070    5.349120
  H     -4.690120   -1.704700    7.279560
  H     -2.973950   -1.448960    7.610100
  H     -2.483460   -3.121070    5.725310
  H     -1.551620   -3.314910    7.804850
  H     -5.402080   -3.905360    6.007770
  H     -4.254430   -4.423670    4.787030
  H     -6.699190   -6.957090    3.296250
  H     -9.551300   -3.694890    1.408160
  H    -10.153420   -1.572900    1.707730
  H     -9.365590    3.101150    3.839770
  H     -6.419530    0.014140    6.466000
  H     -8.067050    5.135130    5.262990

 Total Charge           Charge          ....    0
 Multiplicity           Mult            ....    1
 Number of Electrons    NEL             ....  556
 Basis Dimension        Dim             .... 1128

ORBITAL ENERGIES
----------------

  NO   OCC          E(Eh)            E(eV)
   0   2.0000    -482.897110    -13140.2984
   1   2.0000    -482.892056    -13140.1609
   2   2.0000     -88.985983     -2421.4317
   3   2.0000     -88.982930     -2421.3486
   4   2.0000     -88.979417     -2421.2530
   5   2.0000     -62.574290     -1702.7330
   6   2.0000     -62.569745     -1702.6093
   7   2.0000     -56.408264     -1534.9469
   8   2.0000     -56.405541     -1534.8728
   9   2.0000     -56.405520     -1534.8722
  10   2.0000     -56.403703     -1534.8228
  11   2.0000     -56.400978     -1534.7486
  12   2.0000     -56.400944     -1534.7477
  13   2.0000     -19.340349      -526.2777
  14   2.0000     -19.332504      -526.0642
  15   2.0000     -19.267265      -524.2889
  16   2.0000     -19.262267      -524.1529
  17   2.0000     -19.261813      -524.1406
  18   2.0000     -19.260904      -524.1158
  19   2.0000     -19.259312      -524.0725
  20   2.0000     -19.221154      -523.0342
  21   2.0000     -19.212032      -522.7860
  22   2.0000     -19.196692      -522.3686
  23   2.0000     -14.675129      -399.3306
  24   2.0000     -14.671842      -399.2411
  25   2.0000     -14.496713      -394.4756
  26   2.0000     -14.491903      -394.3447
  27   2.0000     -14.435851      -392.8195
  28   2.0000     -14.426244      -392.5580
  29   2.0000     -14.420388      -392.3987
  30   2.0000     -14.413583      -392.2135
  31   2.0000     -10.395560      -282.8776
  32   2.0000     -10.394559      -282.8503
  33   2.0000     -10.383106      -282.5387
  34   2.0000     -10.375073      -282.3201
  35   2.0000     -10.374728      -282.3107
  36   2.0000     -10.370653      -282.1998
  37   2.0000     -10.368841      -282.1505
  38   2.0000     -10.367611      -282.1170
  39   2.0000     -10.366167      -282.0777
  40   2.0000     -10.365668      -282.0642
  41   2.0000     -10.358742      -281.8757
  42   2.0000     -10.358016      -281.8560
  43   2.0000     -10.356823      -281.8235
  44   2.0000     -10.355014      -281.7743
  45   2.0000     -10.353104      -281.7223
  46   2.0000     -10.351504      -281.6787
  47   2.0000     -10.345580      -281.5175
  48   2.0000     -10.342236      -281.4266
  49   2.0000     -10.340614      -281.3824
  50   2.0000     -10.340501      -281.3793
  51   2.0000     -10.339230      -281.3447
  52   2.0000     -10.333012      -281.1756
  53   2.0000     -10.332249      -281.1548
  54   2.0000     -10.329373      -281.0765
  55   2.0000     -10.324119      -280.9336
  56   2.0000     -10.320724      -280.8412
  57   2.0000     -10.318482      -280.7802
  58   2.0000     -10.315782      -280.7067
  59   2.0000     -10.315370      -280.6955
  60   2.0000     -10.313737      -280.6510
  61   2.0000     -10.312627      -280.6209
  62   2.0000     -10.311763      -280.5973
  63   2.0000     -10.310163      -280.5538
  64   2.0000     -10.309817      -280.5444
  65   2.0000     -10.308261      -280.5021
  66   2.0000     -10.305329      -280.4223
  67   2.0000     -10.303542      -280.3736
  68   2.0000     -10.303531      -280.3733
  69   2.0000     -10.299506      -280.2638
  70   2.0000     -10.296139      -280.1722
  71   2.0000     -10.296053      -280.1698
  72   2.0000     -10.294470      -280.1268
  73   2.0000     -10.294134      -280.1176
  74   2.0000     -10.293905      -280.1114
  75   2.0000     -10.291367      -280.0423
  76   2.0000     -10.284893      -279.8662
  77   2.0000     -10.276063      -279.6259
  78   2.0000      -8.803503      -239.5555
  79   2.0000      -8.799160      -239.4373
  80   2.0000      -8.081272      -219.9026
  81   2.0000      -8.078893      -219.8378
  82   2.0000      -8.073781      -219.6987
  83   2.0000      -6.639708      -180.6756
  84   2.0000      -6.635476      -180.5605
  85   2.0000      -6.625320      -180.2841
  86   2.0000      -6.625039      -180.2765
  87   2.0000      -6.620904      -180.1640
  88   2.0000      -6.620660      -180.1573
  89   2.0000      -6.051010      -164.6564
  90   2.0000      -6.048584      -164.5903
  91   2.0000      -6.046716      -164.5395
  92   2.0000      -6.044289      -164.4735
  93   2.0000      -6.043331      -164.4474
  94   2.0000      -6.042579      -164.4269
  95   2.0000      -6.040145      -164.3607
  96   2.0000      -6.039286      -164.3373
  97   2.0000      -6.035423      -164.2322
  98   2.0000      -2.755624       -74.9843
  99   2.0000      -2.751551       -74.8735
 100   2.0000      -2.751379       -74.8688
 101   2.0000      -2.751366       -74.8685
 102   2.0000      -2.747239       -74.7562
 103   2.0000      -2.747097       -74.7523
 104   2.0000      -2.739933       -74.5574
 105   2.0000      -2.739916       -74.5569
 106   2.0000      -2.735490       -74.4365
 107   2.0000      -2.735484       -74.4363
 108   2.0000      -1.345609       -36.6159
 109   2.0000      -1.343107       -36.5478
 110   2.0000      -1.269032       -34.5321
 111   2.0000      -1.255233       -34.1566
 112   2.0000      -1.181331       -32.1457
 113   2.0000      -1.164399       -31.6849
 114   2.0000      -1.162982       -31.6464
 115   2.0000      -1.137875       -30.9632
 116   2.0000      -1.129886       -30.7458
 117   2.0000      -1.098794       -29.8997
 118   2.0000      -1.096806       -29.8456
 119   2.0000      -1.088767       -29.6268
 120   2.0000      -1.035364       -28.1737
 121   2.0000      -1.028204       -27.9788
 122   2.0000      -1.025484       -27.9048
 123   2.0000      -1.017463       -27.6866
 124   2.0000      -1.010219       -27.4894
 125   2.0000      -1.004559       -27.3354
 126   2.0000      -0.999699       -27.2032
 127   2.0000      -0.997315       -27.1383
 128   2.0000      -0.992519       -27.0078
 129   2.0000      -0.969011       -26.3681
 130   2.0000      -0.962158       -26.1816
 131   2.0000      -0.955321       -25.9956
 132   2.0000      -0.945732       -25.7347
 133   2.0000      -0.939128       -25.5550
 134   2.0000      -0.935108       -25.4456
 135   2.0000      -0.917697       -24.9718
 136   2.0000      -0.913724       -24.8637
 137   2.0000      -0.909934       -24.7606
 138   2.0000      -0.894824       -24.3494
 139   2.0000      -0.894099       -24.3297
 140   2.0000      -0.890840       -24.2410
 141   2.0000      -0.888412       -24.1749
 142   2.0000      -0.870709       -23.6932
 143   2.0000      -0.860374       -23.4120
 144   2.0000      -0.852118       -23.1873
 145   2.0000      -0.849430       -23.1142
 146   2.0000      -0.837954       -22.8019
 147   2.0000      -0.835437       -22.7334
 148   2.0000      -0.834476       -22.7073
 149   2.0000      -0.830841       -22.6083
 150   2.0000      -0.805147       -21.9092
 151   2.0000      -0.789595       -21.4860
 152   2.0000      -0.786088       -21.3905
 153   2.0000      -0.769815       -20.9477
 154   2.0000      -0.760622       -20.6976
 155   2.0000      -0.753261       -20.4973
 156   2.0000      -0.743414       -20.2293
 157   2.0000      -0.739560       -20.1244
 158   2.0000      -0.735016       -20.0008
 159   2.0000      -0.727926       -19.8079
 160   2.0000      -0.710360       -19.3299
 161   2.0000      -0.708894       -19.2900
 162   2.0000      -0.703277       -19.1372
 163   2.0000      -0.701923       -19.1003
 164   2.0000      -0.697474       -18.9792
 165   2.0000      -0.690273       -18.7833
 166   2.0000      -0.688254       -18.7283
 167   2.0000      -0.678540       -18.4640
 168   2.0000      -0.672587       -18.3020
 169   2.0000      -0.668144       -18.1811
 170   2.0000      -0.664742       -18.0885
 171   2.0000      -0.657655       -17.8957
 172   2.0000      -0.655647       -17.8411
 173   2.0000      -0.651882       -17.7386
 174   2.0000      -0.648129       -17.6365
 175   2.0000      -0.647219       -17.6117
 176   2.0000      -0.642735       -17.4897
 177   2.0000      -0.633054       -17.2263
 178   2.0000      -0.629483       -17.1291
 179   2.0000      -0.628533       -17.1033
 180   2.0000      -0.626526       -17.0486
 181   2.0000      -0.614632       -16.7250
 182   2.0000      -0.609758       -16.5924
 183   2.0000      -0.608870       -16.5682
 184   2.0000      -0.606187       -16.4952
 185   2.0000      -0.603933       -16.4338
 186   2.0000      -0.598818       -16.2947
 187   2.0000      -0.597323       -16.2540
 188   2.0000      -0.594382       -16.1740
 189   2.0000      -0.592852       -16.1323
 190   2.0000      -0.586705       -15.9650
 191   2.0000      -0.579682       -15.7740
 192   2.0000      -0.577159       -15.7053
 193   2.0000      -0.570431       -15.5222
 194   2.0000      -0.559179       -15.2160
 195   2.0000      -0.558035       -15.1849
 196   2.0000      -0.555888       -15.1265
 197   2.0000      -0.551379       -15.0038
 198   2.0000      -0.549577       -14.9548
 199   2.0000      -0.548903       -14.9364
 200   2.0000      -0.545827       -14.8527
 201   2.0000      -0.544777       -14.8241
 202   2.0000      -0.541256       -14.7283
 203   2.0000      -0.539082       -14.6692
 204   2.0000      -0.534359       -14.5406
 205   2.0000      -0.532662       -14.4945
 206   2.0000      -0.530934       -14.4475
 207   2.0000      -0.525034       -14.2869
 208   2.0000      -0.522447       -14.2165
 209   2.0000      -0.520337       -14.1591
 210   2.0000      -0.517432       -14.0800
 211   2.0000      -0.514325       -13.9955
 212   2.0000      -0.511617       -13.9218
 213   2.0000      -0.508704       -13.8425
 214   2.0000      -0.505059       -13.7433
 215   2.0000      -0.503594       -13.7035
 216   2.0000      -0.502478       -13.6731
 217   2.0000      -0.501404       -13.6439
 218   2.0000      -0.496103       -13.4996
 219   2.0000      -0.495154       -13.4738
 220   2.0000      -0.492913       -13.4128
 221   2.0000      -0.488348       -13.2886
 222   2.0000      -0.483358       -13.1529
 223   2.0000      -0.481550       -13.1036
 224   2.0000      -0.477441       -12.9918
 225   2.0000      -0.472583       -12.8596
 226   2.0000      -0.472343       -12.8531
 227   2.0000      -0.470784       -12.8107
 228   2.0000      -0.466306       -12.6888
 229   2.0000      -0.463034       -12.5998
 230   2.0000      -0.458690       -12.4816
 231   2.0000      -0.457495       -12.4491
 232   2.0000      -0.456787       -12.4298
 233   2.0000      -0.454275       -12.3614
 234   2.0000      -0.450796       -12.2668
 235   2.0000      -0.448721       -12.2103
 236   2.0000      -0.447807       -12.1854
 237   2.0000      -0.444785       -12.1032
 238   2.0000      -0.443158       -12.0590
 239   2.0000      -0.440577       -11.9887
 240   2.0000      -0.439020       -11.9463
 241   2.0000      -0.435018       -11.8374
 242   2.0000      -0.432155       -11.7595
 243   2.0000      -0.428190       -11.6516
 244   2.0000      -0.426520       -11.6062
 245   2.0000      -0.422829       -11.5058
 246   2.0000      -0.418282       -11.3820
 247   2.0000      -0.415570       -11.3082
 248   2.0000      -0.413363       -11.2482
 249   2.0000      -0.411718       -11.2034
 250   2.0000      -0.408885       -11.1263
 251   2.0000      -0.407620       -11.0919
 252   2.0000      -0.406609       -11.0644
 253   2.0000      -0.400543       -10.8993
 254   2.0000      -0.399391       -10.8680
 255   2.0000      -0.395466       -10.7612
 256   2.0000      -0.392965       -10.6931
 257   2.0000      -0.392435       -10.6787
 258   2.0000      -0.390474       -10.6253
 259   2.0000      -0.389543       -10.6000
 260   2.0000      -0.386890       -10.5278
 261   2.0000      -0.383911       -10.4467
 262   2.0000      -0.383393       -10.4327
 263   2.0000      -0.381218       -10.3735
 264   2.0000      -0.369249       -10.0478
 265   2.0000      -0.361005        -9.8234
 266   2.0000      -0.351704        -9.5703
 267   2.0000      -0.344894        -9.3851
 268   2.0000      -0.342627        -9.3233
 269   2.0000      -0.337275        -9.1777
 270   2.0000      -0.327310        -8.9065
 271   2.0000      -0.323211        -8.7950
 272   2.0000      -0.319715        -8.6999
 273   2.0000      -0.311815        -8.4849
 274   2.0000      -0.306463        -8.3393
 275   2.0000      -0.297123        -8.0851
 276   2.0000      -0.293966        -7.9992
 277   2.0000      -0.257395        -7.0041
 278   0.0000      -0.104277        -2.8375
 279   0.0000      -0.077585        -2.1112
 280   0.0000      -0.068567        -1.8658
 281   0.0000      -0.063590        -1.7304
 282   0.0000      -0.058478        -1.5913

MULLIKEN ATOMIC CHARGES
-----------------------
   0 C :    0.327128
   1 C :   -0.399721
   2 C :   -0.189405
   3 N :    0.160691
   4 C :   -0.176259
   5 N :    0.135757
   6 C :    0.020047
   7 C :   -0.018671
   8 C :   -0.074791
   9 C :    0.117594
  10 C :   -0.091857
  11 C :   -0.022907
  12 S :    0.188847
  13 C :   -0.124282
  14 C :    0.040857
  15 Br:    0.028510
  16 C :    0.132509
  17 O :   -0.130401
  18 C :   -0.066235
  19 C :   -0.072447
  20 C :    0.079864
  21 O :   -0.109630
  22 C :    0.122148
  23 C :    0.054836
  24 N :    0.254134
  25 O :   -0.249942
  26 O :   -0.209389
  27 C :    0.064972
  28 N :   -0.005474
  29 C :   -0.089612
  30 S :    0.150530
  31 C :   -0.144972
  32 C :   -0.080956
  33 C :   -0.117219
  34 C :    0.161502
  35 C :    0.023874
  36 C :   -0.218226
  37 C :    0.168929
  38 O :   -0.168876
  39 O :   -0.153016
  40 C :    0.237748
  41 C :    0.011616
  42 O :   -0.164295
  43 C :    0.087797
  44 C :    0.157990
  45 N :    0.292353
  46 O :   -0.272234
  47 O :   -0.217134
  48 C :   -0.013491
  49 N :    0.052743
  50 C :    0.044115
  51 C :   -0.166511
  52 C :    0.255750
  53 C :   -0.328422
  54 C :   -0.161319
  55 N :    0.140134
  56 C :   -0.191747
  57 N :    0.156520
  58 C :    0.002157
  59 C :   -0.002528
  60 C :    0.139631
  61 O :   -0.145091
  62 C :   -0.049176
  63 C :    0.086809
  64 C :   -0.107205
  65 C :    0.006225
  66 S :    0.172388
  67 C :   -0.149558
  68 C :    0.065703
  69 Br:    0.029276
  70 H :   -0.010524
  71 H :   -0.007072
  72 H :   -0.002257
  73 H :   -0.018611
  74 H :    0.042958
  75 H :    0.161490
  76 H :    0.009020
  77 H :    0.014361
  78 H :    0.044140
  79 H :   -0.005928
  80 H :    0.015527
  81 H :    0.181516
  82 H :    0.037351
  83 H :    0.024708
  84 H :    0.038114
  85 H :    0.165509
  86 H :    0.042461
  87 H :   -0.000457
  88 H :   -0.027097
  89 H :    0.006104
Sum of atomic charges:   -0.0000000

LOEWDIN ATOMIC CHARGES
----------------------
   0 C :    0.080028
   1 C :   -0.157688
   2 C :   -0.024642
   3 N :   -0.052859
   4 C :   -0.009157
   5 N :   -0.070983
   6 C :   -0.026310
   7 C :   -0.051020
   8 C :    0.020997
   9 C :   -0.031915
  10 C :   -0.145566
  11 C :   -0.010094
  12 S :    0.435197
  13 C :   -0.270811
  14 C :   -0.070626
  15 Br:    0.141127
  16 C :    0.074850
  17 O :   -0.137126
  18 C :   -0.098333
  19 C :    0.042812
  20 C :   -0.025551
  21 O :    0.083122
  22 C :    0.118396
  23 C :   -0.111045
  24 N :    0.282715
  25 O :   -0.217829
  26 O :   -0.177884
  27 C :    0.035753
  28 N :    0.038094
  29 C :   -0.139324
  30 S :    0.465113
  31 C :   -0.205991
  32 C :   -0.031857
  33 C :   -0.087199
  34 C :   -0.030341
  35 C :   -0.018728
  36 C :   -0.069634
  37 C :    0.083560
  38 O :   -0.143442
  39 O :   -0.031116
  40 C :   -0.019430
  41 C :    0.004833
  42 O :    0.062537
  43 C :    0.102658
  44 C :   -0.085245
  45 N :    0.298836
  46 O :   -0.213588
  47 O :   -0.176816
  48 C :   -0.021954
  49 N :    0.074205
  50 C :    0.096521
  51 C :   -0.160114
  52 C :    0.067306
  53 C :   -0.151150
  54 C :   -0.005110
  55 N :   -0.058928
  56 C :   -0.024506
  57 N :   -0.065893
  58 C :   -0.017419
  59 C :   -0.054180
  60 C :    0.085876
  61 O :   -0.145754
  62 C :    0.033077
  63 C :   -0.044094
  64 C :   -0.152603
  65 C :   -0.019040
  66 S :    0.421087
  67 C :   -0.278324
  68 C :   -0.068087
  69 Br:    0.149629
  70 H :    0.040954
  71 H :    0.040749
  72 H :    0.039351
  73 H :    0.043006
  74 H :    0.046588
  75 H :    0.095807
  76 H :    0.025994
  77 H :    0.023916
  78 H :    0.030517
  79 H :    0.019122
  80 H :    0.028162
  81 H :    0.093633
  82 H :    0.041759
  83 H :    0.037644
  84 H :    0.044682
  85 H :    0.089324
  86 H :    0.048908
  87 H :    0.043587
  88 H :    0.036204
  89 H :    0.041070

  Mayer bond orders larger than 0.100000
B(  0-C ,  1-C ) :   1.6057 B(  0-C ,  6-C ) :   1.0075 B(  0-C , 18-C ) :   1.0894
B(  1-C ,  2-C ) :   1.1427 B(  1-C ,  4-C ) :   1.1579 B(  2-C ,  3-N ) :   2.9706
B(  4-C ,  5-N ) :   2.9204 B(  6-C ,  7-C ) :   1.2697 B(  6-C , 11-C ) :   1.4059
B(  7-C ,  8-C ) :   1.4291 B(  7-C , 16-C ) :   0.9348 B(  8-C ,  9-C ) :   1.2426
B(  8-C , 70-H ) :   1.0158 B(  9-C , 10-C ) :   1.3026 B(  9-C , 14-C ) :   1.1660
B( 10-C , 11-C ) :   1.3345 B( 10-C , 12-S ) :   1.0859 B( 11-C , 71-H ) :   0.9796
B( 12-S , 13-C ) :   1.0890 B( 13-C , 14-C ) :   1.6130 B( 13-C , 15-Br) :   1.0219
B( 14-C , 72-H ) :   1.0000 B( 16-C , 17-O ) :   2.2810 B( 16-C , 18-C ) :   0.9224
B( 18-C , 19-C ) :   1.5419 B( 19-C , 20-C ) :   1.2518 B( 19-C , 73-H ) :   0.9232
B( 20-C , 21-O ) :   1.1075 B( 20-C , 27-C ) :   1.2896 B( 21-O , 22-C ) :   1.2744
B( 22-C , 23-C ) :   1.3990 B( 22-C , 74-H ) :   1.0140 B( 23-C , 24-N ) :   0.9271
B( 23-C , 27-C ) :   1.2640 B( 24-N , 25-O ) :   1.5026 B( 24-N , 26-O ) :   1.5445
B( 25-O , 26-O ) :   0.2622 B( 27-C , 28-N ) :   1.2463 B( 28-N , 29-C ) :   1.0875
B( 28-N , 75-H ) :   0.8784 B( 29-C , 30-S ) :   1.1299 B( 29-C , 31-C ) :   0.1017
B( 29-C , 33-C ) :   1.4933 B( 30-S , 31-C ) :   1.0957 B( 31-C , 32-C ) :   1.5241
B( 31-C , 41-C ) :   1.1083 B( 32-C , 33-C ) :   1.3221 B( 32-C , 40-C ) :   1.0512
B( 33-C , 34-C ) :   1.0361 B( 34-C , 35-C ) :   1.0919 B( 34-C , 76-H ) :   0.9168
B( 34-C , 77-H ) :   0.8822 B( 35-C , 36-C ) :   1.0276 B( 35-C , 78-H ) :   0.9276
B( 35-C , 79-H ) :   0.9280 B( 36-C , 37-C ) :   0.9058 B( 36-C , 40-C ) :   1.0333
B( 36-C , 80-H ) :   0.9106 B( 37-C , 38-O ) :   2.1799 B( 37-C , 39-O ) :   1.2278
B( 39-O , 81-H ) :   0.9543 B( 40-C , 82-H ) :   0.8801 B( 40-C , 83-H ) :   0.9005
B( 41-C , 42-O ) :   1.1288 B( 41-C , 48-C ) :   1.4518 B( 42-O , 43-C ) :   1.1995
B( 43-C , 44-C ) :   1.4552 B( 43-C , 84-H ) :   1.0155 B( 44-C , 45-N ) :   0.9389
B( 44-C , 48-C ) :   1.2477 B( 45-N , 46-O ) :   1.4566 B( 45-N , 47-O ) :   1.5791
B( 46-O , 47-O ) :   0.2583 B( 46-O , 85-H ) :   0.1138 B( 48-C , 49-N ) :   1.1496
B( 49-N , 50-C ) :   1.3192 B( 49-N , 85-H ) :   0.8361 B( 50-C , 51-C ) :   1.6031
B( 50-C , 86-H ) :   0.9117 B( 51-C , 52-C ) :   1.0361 B( 51-C , 60-C ) :   0.9689
B( 52-C , 53-C ) :   1.6355 B( 52-C , 58-C ) :   0.9999 B( 53-C , 54-C ) :   1.1600
B( 53-C , 56-C ) :   1.1637 B( 54-C , 55-N ) :   2.8971 B( 56-C , 57-N ) :   2.9891
B( 58-C , 59-C ) :   1.2889 B( 58-C , 65-C ) :   1.4296 B( 59-C , 60-C ) :   0.9188
B( 59-C , 62-C ) :   1.4333 B( 60-C , 61-O ) :   2.2583 B( 62-C , 63-C ) :   1.2449
B( 62-C , 87-H ) :   1.0095 B( 63-C , 64-C ) :   1.3270 B( 63-C , 68-C ) :   1.1609
B( 64-C , 65-C ) :   1.3199 B( 64-C , 66-S ) :   1.0752 B( 65-C , 88-H ) :   0.9829
B( 66-S , 67-C ) :   1.0795 B( 67-C , 68-C ) :   1.6229 B( 67-C , 69-Br) :   1.0217
B( 68-C , 89-H ) :   0.9833

-----------------------------------------------------------------------------
         ABSORPTION SPECTRUM VIA TRANSITION ELECTRIC DIPOLE MOMENTS
-----------------------------------------------------------------------------
State   Energy  Wavelength   fosc         T2         TX        TY        TZ
        (cm-1)    (nm)                  (au**2)     (au)      (au)      (au)
-----------------------------------------------------------------------------
   0   17778.2    562.5   0.374397089   6.93297   0.15694   2.62662  -0.09596
   1   19826.0    504.4   0.063072517   1.04732  -0.54992   0.44453   0.73981
   2   22676.4    441.0   0.063199378   0.91752   0.94238   0.10246  -0.13762
   3   24394.5    409.9   0.168756239   2.27742  -0.59964  -1.38075  -0.10668
   4   24949.8    400.8   0.088230005   1.16419  -0.27309   1.03258   0.15296
   5   25915.3    385.9   0.258834956   3.28808  -1.40084   1.14594   0.11201
   6   26539.3    376.8   0.138352661   1.71622   0.00395  -1.30893   0.05393
   7   27532.4    363.2   0.061592181   0.73647  -0.58510   0.61712   0.11527
   8   27734.5    360.6   0.293180802   3.48010   0.66067   1.65701   0.54584
   9   28105.6    355.8   0.071700024   0.83985   0.01471   0.90560   0.13971
  10   28391.9    352.2   0.178713335   2.07223  -0.57307  -0.82162  -1.03381
  11   29492.4    339.1   0.020998487   0.23440  -0.12785  -0.46574   0.03376
  12   29605.0    337.8   0.055820958   0.62074   0.70990   0.10019   0.32671
  13   30275.9    330.3   0.102808266   1.11791   0.02763  -0.98672  -0.37886
  14   31178.8    320.7   0.069794491   0.73695  -0.13808  -0.82799  -0.17974
  15   31203.5    320.5   0.334002348   3.52389   0.17372   1.86826   0.05751
  16   32175.7    310.8   0.207484546   2.12292   1.23327   0.69308   0.34874
  17   32250.4    310.1   0.138385291   1.41264   0.76390   0.89844   0.14796
  18   32335.3    309.3   0.054321520   0.55306  -0.51346   0.48588   0.23095
  19   32469.7    308.0   0.001062055   0.01077   0.07192   0.06105   0.04323
  20   32810.7    304.8   0.118139529   1.18537  -0.78803   0.74360  -0.10701
  21   33340.1    299.9   0.098498940   0.97261  -0.41657  -0.85084  -0.27414
  22   33655.3    297.1   0.202630033   1.98210  -0.14884  -1.39296  -0.14006
  23   33888.2    295.1   0.341501471   3.31757  -0.43988  -1.48121  -0.96441
  24   34237.2    292.1   0.017864196   0.17178   0.32078   0.26035   0.03314
  25   34422.6    290.5   0.048832246   0.46702   0.46764   0.48317  -0.12201
  26   34758.7    287.7   0.071163960   0.67402  -0.20686  -0.57778  -0.54535
  27   34852.5    286.9   0.194801393   1.84007   0.62341   1.17402   0.27041
  28   34955.5    286.1   0.079124124   0.74519  -0.22188  -0.67510   0.49010
  29   36011.9    277.7   0.060107399   0.54949  -0.32763  -0.57957   0.32596
  30   36557.3    273.5   0.048135473   0.43348  -0.17637  -0.62524   0.10697
  31   36629.2    273.0   0.029957664   0.26925  -0.01158  -0.51448   0.06651
  32   37021.4    270.1   0.059107974   0.52562   0.22702   0.31681   0.61132
  33   37524.1    266.5   0.089524597   0.78543  -0.07110   0.87863  -0.09158
  34   37739.7    265.0   0.288963316   2.52069  -0.25309  -1.56735  -0.00590
  35   38040.3    262.9   0.012752748   0.11037  -0.30516   0.04686  -0.12268
  36   38552.9    259.4   0.063824170   0.54501  -0.48193   0.53332  -0.16829
  37   38621.4    258.9   0.005327002   0.04541  -0.13383  -0.12742  -0.10612
  38   38692.7    258.4   0.017689170   0.15051  -0.00357   0.30031   0.24557
  39   38974.5    256.6   0.027449696   0.23186   0.17587  -0.37523   0.24522
  40   39182.1    255.2   0.033067030   0.27783  -0.06122   0.46753   0.23558
  41   39693.7    251.9   0.067668849   0.56123  -0.17096  -0.59923  -0.41585
  42   39878.6    250.8   0.219490762   1.81197   1.24721  -0.42149   0.28068
  43   40050.9    249.7   0.160043520   1.31553  -0.46141   1.03275   0.18992
  44   40290.3    248.2   0.007856995   0.06420  -0.19812  -0.15673   0.01954

FINAL SINGLE POINT ENERGY     -9331.490573437068

DIPOLE MOMENT
-------------
                                X             Y             Z
Electronic contribution:     12.00324     175.75687      31.21391
Nuclear contribution   :     -8.76820    -172.51105     -31.69090
                        -----------------------------------------
Total Dipole Moment    :      3.23504       3.24581      -0.47699
                        -----------------------------------------
Magnitude (a.u.)       :      4.60742
Magnitude (Debye)      :     11.71112

Rotational constants in cm-1:     0.002048     0.000419     0.000391
Rotational constants in MHz :    61.408150    12.555306    11.727251

                             ****ORCA TERMINATED NORMALLY****
TOTAL RUN TIME: 0 days 0 hours 12 minutes 16 seconds 557 msec
