                         Program Version 4.2.0 -  RELEASE  -
|  1> # ORCA input file
|  2> # SCF done       -186.454357472762          0.000683447709
|  3> ! CAM-B3LYP def2-SVP def2/J RIJCOSX Grid4 TightSCF
|  4> %maxcore 5000
|  5> %tddft
|  6>     Mode sTDDFT
|  7>     Ethresh 5.0
|  8>     maxcore 5000
|  9> end
| 10>
| 11> %pal
| 12>   nprocs 6
| 13>   end
| 14> * xyz 0 1
| 15>    C       -3.96369         2.77166        -4.99358
| 16>    C       -4.41920         1.55777        -5.44117
| 17>    C       -3.60077         0.58035        -6.04492
| 18>    N       -2.99025        -0.24909        -6.55209
| 19>    C       -5.75314         1.10579        -5.36628
| 20>    N       -6.81194         0.66178        -5.34506
| 21>    C       -2.58193         3.22828        -5.04025
| 22>    C       -2.50102         4.51087        -4.44287
| 23>    C       -1.32194         5.20833        -4.33619
| 24>    C       -0.16177         4.60966        -4.83769
| 25>    C       -0.25008         3.32705        -5.43095
| 26>    C       -1.44326         2.62382        -5.54234
| 27>    S        1.29932         2.77282        -5.98622
| 28>    C        2.03509         4.25013        -5.42217
| 29>    C        1.16653         5.11540        -4.84649
| 30>   Br        3.87788         4.51110        -5.64712
| 31>    C       -3.83519         4.92648        -3.98378
| 32>    O       -4.12504         5.99393        -3.48853
| 33>    C       -4.75079         3.80490        -4.34038
| 34>    C       -6.09797         3.81949        -4.18409
| 35>    C       -6.82926         4.76419        -3.39818
| 36>    C       -6.55007         5.41809        -2.20873
| 37>    C       -5.35338         5.30111        -1.36455
| 38>    O       -4.68205         4.30467        -1.26551
| 39>    O       -5.11921         6.41220        -0.66472
| 40>    C       -7.73118         6.16892        -1.94652
| 41>    N       -8.61447         5.95193        -2.88976
| 42>    O       -8.07542         5.09089        -3.78035
| 43>    C       -7.98004         6.97380        -0.75448
| 44>    C       -8.02804         6.32907         0.44141
| 45>    S       -8.32224         7.35618         1.78280
| 46>    C       -8.36440         8.72521         0.72502
| 47>    C       -8.15794         8.39480        -0.62320
| 48>    C       -8.09156         9.43529        -1.58106
| 49>    C       -7.81271         9.04950        -3.01146
| 50>    C       -6.31154         8.89860        -3.26703
| 51>    C       -8.26801        10.76028        -1.19734
| 52>    C       -7.97521        11.87179        -2.17613
| 53>    C       -6.91529        12.83644        -1.64062
| 54>    C       -8.64765        11.06411         0.13802
| 55>    C       -9.08291        12.30463         0.75934
| 56>    C       -9.24240        12.16145         2.11651
| 57>    S       -8.97510        10.58042         2.70232
| 58>    C       -8.62177        10.03581         1.08893
| 59>    C       -9.51362        13.46869         0.05795
| 60>    C       -9.83944        14.69175         0.56468
| 61>    C      -10.43787        15.73363        -0.17717
| 62>    C      -11.01924        15.65672        -1.42404
| 63>    C      -11.63829        16.71375        -2.14016
| 64>    C      -12.18403        16.35408        -3.34034
| 65>    C      -12.02944        14.98634        -3.64093
| 66>    S      -11.17123        14.18106        -2.35478
| 67>    C      -12.40500        14.20717        -4.72364
| 68>    C      -13.07762        14.50635        -5.92426
| 69>    C      -13.24979        13.42312        -6.73747
| 70>    C      -12.72924        12.20873        -6.21716
| 71>    S      -12.00548        12.50609        -4.65514
| 72>    C      -12.73849        10.97798        -6.82624
| 73>    C      -12.25767         9.76752        -6.28455
| 74>    S      -12.08067         8.35947        -7.32899
| 75>    C      -11.49293         7.33636        -6.08145
| 76>    C      -11.43535         8.02088        -4.89136
| 77>    C      -11.86285         9.38145        -5.01253
| 78>    O      -11.82902         9.98861        -3.80686
| 79>    C      -11.38249         9.04761        -2.93036
| 80>    N      -11.27076         9.43673        -1.57868
| 81>    O      -10.99258         8.56451        -0.77465
| 82>    O      -11.46125        10.60444        -1.30228
| 83>    C      -11.12340         7.83722        -3.51486
| 84>    H       -1.29582         6.18407        -3.87696
| 85>    H       -1.45696         1.65144        -6.00519
| 86>    H        1.44944         6.07129        -4.44496
| 87>    H       -6.71511         3.08012        -4.67682
| 88>    H       -4.32192         6.30370        -0.12310
| 89>    H       -7.92225         5.27346         0.60532
| 90>    H       -8.23525         9.77986        -3.70300
| 91>    H       -8.31522         8.10744        -3.22098
| 92>    H       -5.79734         9.84458        -3.11223
| 93>    H       -6.13222         8.57049        -4.28864
| 94>    H       -5.87686         8.16551        -2.59275
| 95>    H       -8.88877        12.40573        -2.44308
| 96>    H       -7.57960        11.45605        -3.09877
| 97>    H       -7.24837        13.35928        -0.74902
| 98>    H       -6.67539        13.57694        -2.40071
| 99>    H       -6.00805        12.28771        -1.39561
|100>    H       -9.57646        12.91442         2.80296
|101>    H       -9.63763        13.31829        -0.99652
|102>    H       -9.61981        14.91674         1.60012
|103>    H      -10.49332        16.70236         0.30407
|104>    H      -11.66638        17.71391        -1.74324
|105>    H      -12.69590        17.03096        -4.00134
|106>    H      -13.41603        15.50058        -6.15722
|107>    H      -13.74000        13.45448        -7.69468
|108>    H      -13.13173        10.92255        -7.83204
|109>    H      -11.24003         6.31816        -6.29003
|110>    H      -10.73775         6.96189        -3.03192
|111> *
|112>
|113>                          ****END OF INPUT****

CARTESIAN COORDINATES (ANGSTROEM)
---------------------------------
  C     -3.963690    2.771660   -4.993580
  C     -4.419200    1.557770   -5.441170
  C     -3.600770    0.580350   -6.044920
  N     -2.990250   -0.249090   -6.552090
  C     -5.753140    1.105790   -5.366280
  N     -6.811940    0.661780   -5.345060
  C     -2.581930    3.228280   -5.040250
  C     -2.501020    4.510870   -4.442870
  C     -1.321940    5.208330   -4.336190
  C     -0.161770    4.609660   -4.837690
  C     -0.250080    3.327050   -5.430950
  C     -1.443260    2.623820   -5.542340
  S      1.299320    2.772820   -5.986220
  C      2.035090    4.250130   -5.422170
  C      1.166530    5.115400   -4.846490
  Br     3.877880    4.511100   -5.647120
  C     -3.835190    4.926480   -3.983780
  O     -4.125040    5.993930   -3.488530
  C     -4.750790    3.804900   -4.340380
  C     -6.097970    3.819490   -4.184090
  C     -6.829260    4.764190   -3.398180
  C     -6.550070    5.418090   -2.208730
  C     -5.353380    5.301110   -1.364550
  O     -4.682050    4.304670   -1.265510
  O     -5.119210    6.412200   -0.664720
  C     -7.731180    6.168920   -1.946520
  N     -8.614470    5.951930   -2.889760
  O     -8.075420    5.090890   -3.780350
  C     -7.980040    6.973800   -0.754480
  C     -8.028040    6.329070    0.441410
  S     -8.322240    7.356180    1.782800
  C     -8.364400    8.725210    0.725020
  C     -8.157940    8.394800   -0.623200
  C     -8.091560    9.435290   -1.581060
  C     -7.812710    9.049500   -3.011460
  C     -6.311540    8.898600   -3.267030
  C     -8.268010   10.760280   -1.197340
  C     -7.975210   11.871790   -2.176130
  C     -6.915290   12.836440   -1.640620
  C     -8.647650   11.064110    0.138020
  C     -9.082910   12.304630    0.759340
  C     -9.242400   12.161450    2.116510
  S     -8.975100   10.580420    2.702320
  C     -8.621770   10.035810    1.088930
  C     -9.513620   13.468690    0.057950
  C     -9.839440   14.691750    0.564680
  C    -10.437870   15.733630   -0.177170
  C    -11.019240   15.656720   -1.424040
  C    -11.638290   16.713750   -2.140160
  C    -12.184030   16.354080   -3.340340
  C    -12.029440   14.986340   -3.640930
  S    -11.171230   14.181060   -2.354780
  C    -12.405000   14.207170   -4.723640
  C    -13.077620   14.506350   -5.924260
  C    -13.249790   13.423120   -6.737470
  C    -12.729240   12.208730   -6.217160
  S    -12.005480   12.506090   -4.655140
  C    -12.738490   10.977980   -6.826240
  C    -12.257670    9.767520   -6.284550
  S    -12.080670    8.359470   -7.328990
  C    -11.492930    7.336360   -6.081450
  C    -11.435350    8.020880   -4.891360
  C    -11.862850    9.381450   -5.012530
  O    -11.829020    9.988610   -3.806860
  C    -11.382490    9.047610   -2.930360
  N    -11.270760    9.436730   -1.578680
  O    -10.992580    8.564510   -0.774650
  O    -11.461250   10.604440   -1.302280
  C    -11.123400    7.837220   -3.514860
  H     -1.295820    6.184070   -3.876960
  H     -1.456960    1.651440   -6.005190
  H      1.449440    6.071290   -4.444960
  H     -6.715110    3.080120   -4.676820
  H     -4.321920    6.303700   -0.123100
  H     -7.922250    5.273460    0.605320
  H     -8.235250    9.779860   -3.703000
  H     -8.315220    8.107440   -3.220980
  H     -5.797340    9.844580   -3.112230
  H     -6.132220    8.570490   -4.288640
  H     -5.876860    8.165510   -2.592750
  H     -8.888770   12.405730   -2.443080
  H     -7.579600   11.456050   -3.098770
  H     -7.248370   13.359280   -0.749020
  H     -6.675390   13.576940   -2.400710
  H     -6.008050   12.287710   -1.395610
  H     -9.576460   12.914420    2.802960
  H     -9.637630   13.318290   -0.996520
  H     -9.619810   14.916740    1.600120
  H    -10.493320   16.702360    0.304070
  H    -11.666380   17.713910   -1.743240
  H    -12.695900   17.030960   -4.001340
  H    -13.416030   15.500580   -6.157220
  H    -13.740000   13.454480   -7.694680
  H    -13.131730   10.922550   -7.832040
  H    -11.240030    6.318160   -6.290030
  H    -10.737750    6.961890   -3.031920

 Total Charge           Charge          ....    0
 Multiplicity           Mult            ....    1
 Number of Electrons    NEL             ....  548
 Basis Dimension        Dim             .... 1143

ORBITAL ENERGIES
----------------

  NO   OCC          E(Eh)            E(eV)
   0   2.0000    -482.893952    -13140.2125
   1   2.0000     -88.985984     -2421.4317
   2   2.0000     -88.963722     -2420.8260
   3   2.0000     -88.946910     -2420.3685
   4   2.0000     -88.942035     -2420.2358
   5   2.0000     -88.931178     -2419.9404
   6   2.0000     -88.927152     -2419.8308
   7   2.0000     -62.571647     -1702.6611
   8   2.0000     -56.405614     -1534.8748
   9   2.0000     -56.402870     -1534.8001
  10   2.0000     -56.402843     -1534.7994
  11   2.0000     -19.334562      -526.1202
  12   2.0000     -19.292761      -524.9827
  13   2.0000     -19.272137      -524.4215
  14   2.0000     -19.233885      -523.3806
  15   2.0000     -19.230837      -523.2977
  16   2.0000     -19.230248      -523.2816
  17   2.0000     -19.213232      -522.8186
  18   2.0000     -14.641307      -398.4102
  19   2.0000     -14.476016      -393.9124
  20   2.0000     -14.429493      -392.6465
  21   2.0000     -14.428892      -392.6301
  22   2.0000     -10.421479      -283.5829
  23   2.0000     -10.385403      -282.6012
  24   2.0000     -10.372304      -282.2447
  25   2.0000     -10.371523      -282.2235
  26   2.0000     -10.369183      -282.1598
  27   2.0000     -10.359737      -281.9028
  28   2.0000     -10.356552      -281.8161
  29   2.0000     -10.337787      -281.3055
  30   2.0000     -10.337353      -281.2937
  31   2.0000     -10.335576      -281.2453
  32   2.0000     -10.334467      -281.2151
  33   2.0000     -10.330906      -281.1182
  34   2.0000     -10.330641      -281.1110
  35   2.0000     -10.325145      -280.9615
  36   2.0000     -10.321865      -280.8722
  37   2.0000     -10.319624      -280.8112
  38   2.0000     -10.317711      -280.7592
  39   2.0000     -10.313627      -280.6481
  40   2.0000     -10.308870      -280.5186
  41   2.0000     -10.308802      -280.5168
  42   2.0000     -10.306469      -280.4533
  43   2.0000     -10.305677      -280.4317
  44   2.0000     -10.301034      -280.3054
  45   2.0000     -10.299451      -280.2623
  46   2.0000     -10.296821      -280.1907
  47   2.0000     -10.294954      -280.1399
  48   2.0000     -10.293892      -280.1111
  49   2.0000     -10.293448      -280.0990
  50   2.0000     -10.291338      -280.0415
  51   2.0000     -10.287136      -279.9272
  52   2.0000     -10.285923      -279.8942
  53   2.0000     -10.285411      -279.8803
  54   2.0000     -10.283950      -279.8405
  55   2.0000     -10.283041      -279.8158
  56   2.0000     -10.280087      -279.7354
  57   2.0000     -10.279144      -279.7097
  58   2.0000     -10.275588      -279.6130
  59   2.0000     -10.275441      -279.6090
  60   2.0000     -10.274934      -279.5952
  61   2.0000     -10.269983      -279.4604
  62   2.0000     -10.268775      -279.4276
  63   2.0000     -10.268373      -279.4166
  64   2.0000     -10.265525      -279.3391
  65   2.0000     -10.263084      -279.2727
  66   2.0000     -10.261501      -279.2296
  67   2.0000     -10.261479      -279.2290
  68   2.0000     -10.260424      -279.2003
  69   2.0000     -10.248177      -278.8671
  70   2.0000     -10.247231      -278.8413
  71   2.0000     -10.240884      -278.6686
  72   2.0000     -10.238554      -278.6052
  73   2.0000      -8.801067      -239.4892
  74   2.0000      -8.081902      -219.9197
  75   2.0000      -8.058840      -219.2922
  76   2.0000      -8.043097      -218.8638
  77   2.0000      -8.038152      -218.7292
  78   2.0000      -8.026892      -218.4228
  79   2.0000      -8.023684      -218.3355
  80   2.0000      -6.637430      -180.6136
  81   2.0000      -6.622777      -180.2149
  82   2.0000      -6.622550      -180.2088
  83   2.0000      -6.051586      -164.6720
  84   2.0000      -6.047297      -164.5553
  85   2.0000      -6.043165      -164.4429
  86   2.0000      -6.028172      -164.0349
  87   2.0000      -6.023903      -163.9187
  88   2.0000      -6.021095      -163.8423
  89   2.0000      -6.012514      -163.6088
  90   2.0000      -6.008382      -163.4964
  91   2.0000      -6.007622      -163.4757
  92   2.0000      -6.004836      -163.3999
  93   2.0000      -6.003358      -163.3597
  94   2.0000      -5.999981      -163.2678
  95   2.0000      -5.996660      -163.1774
  96   2.0000      -5.993469      -163.0906
  97   2.0000      -5.992345      -163.0600
  98   2.0000      -5.989202      -162.9745
  99   2.0000      -5.987996      -162.9417
 100   2.0000      -5.984417      -162.8443
 101   2.0000      -2.753294       -74.9209
 102   2.0000      -2.749200       -74.8095
 103   2.0000      -2.748991       -74.8039
 104   2.0000      -2.737366       -74.4875
 105   2.0000      -2.737356       -74.4872
 106   2.0000      -1.312134       -35.7050
 107   2.0000      -1.271799       -34.6074
 108   2.0000      -1.214912       -33.0594
 109   2.0000      -1.200973       -32.6801
 110   2.0000      -1.149775       -31.2870
 111   2.0000      -1.127754       -30.6877
 112   2.0000      -1.104096       -30.0440
 113   2.0000      -1.036076       -28.1931
 114   2.0000      -1.025783       -27.9130
 115   2.0000      -1.006991       -27.4016
 116   2.0000      -1.004318       -27.3289
 117   2.0000      -0.999675       -27.2025
 118   2.0000      -0.987060       -26.8593
 119   2.0000      -0.983918       -26.7738
 120   2.0000      -0.981621       -26.7113
 121   2.0000      -0.962227       -26.1835
 122   2.0000      -0.960534       -26.1375
 123   2.0000      -0.955381       -25.9972
 124   2.0000      -0.938782       -25.5456
 125   2.0000      -0.921225       -25.0678
 126   2.0000      -0.920757       -25.0551
 127   2.0000      -0.913308       -24.8524
 128   2.0000      -0.899650       -24.4807
 129   2.0000      -0.897783       -24.4299
 130   2.0000      -0.896768       -24.4023
 131   2.0000      -0.885232       -24.0884
 132   2.0000      -0.869392       -23.6574
 133   2.0000      -0.861887       -23.4531
 134   2.0000      -0.858269       -23.3547
 135   2.0000      -0.855373       -23.2759
 136   2.0000      -0.843501       -22.9528
 137   2.0000      -0.841053       -22.8862
 138   2.0000      -0.834428       -22.7059
 139   2.0000      -0.827743       -22.5240
 140   2.0000      -0.814544       -22.1649
 141   2.0000      -0.807728       -21.9794
 142   2.0000      -0.800906       -21.7938
 143   2.0000      -0.798662       -21.7327
 144   2.0000      -0.785716       -21.3804
 145   2.0000      -0.779461       -21.2102
 146   2.0000      -0.775730       -21.1087
 147   2.0000      -0.772484       -21.0204
 148   2.0000      -0.771654       -20.9978
 149   2.0000      -0.751163       -20.4402
 150   2.0000      -0.727506       -19.7964
 151   2.0000      -0.725612       -19.7449
 152   2.0000      -0.718942       -19.5634
 153   2.0000      -0.705155       -19.1882
 154   2.0000      -0.704009       -19.1570
 155   2.0000      -0.695308       -18.9203
 156   2.0000      -0.694550       -18.8997
 157   2.0000      -0.689106       -18.7515
 158   2.0000      -0.685030       -18.6406
 159   2.0000      -0.681295       -18.5390
 160   2.0000      -0.672375       -18.2963
 161   2.0000      -0.666348       -18.1323
 162   2.0000      -0.660953       -17.9855
 163   2.0000      -0.655388       -17.8340
 164   2.0000      -0.649593       -17.6763
 165   2.0000      -0.639974       -17.4146
 166   2.0000      -0.637072       -17.3356
 167   2.0000      -0.634919       -17.2770
 168   2.0000      -0.627815       -17.0837
 169   2.0000      -0.621443       -16.9103
 170   2.0000      -0.619254       -16.8507
 171   2.0000      -0.618564       -16.8320
 172   2.0000      -0.611272       -16.6336
 173   2.0000      -0.608340       -16.5538
 174   2.0000      -0.607343       -16.5266
 175   2.0000      -0.604722       -16.4553
 176   2.0000      -0.604095       -16.4383
 177   2.0000      -0.600157       -16.3311
 178   2.0000      -0.589069       -16.0294
 179   2.0000      -0.586703       -15.9650
 180   2.0000      -0.575388       -15.6571
 181   2.0000      -0.569433       -15.4951
 182   2.0000      -0.567901       -15.4534
 183   2.0000      -0.566021       -15.4022
 184   2.0000      -0.558556       -15.1991
 185   2.0000      -0.558023       -15.1846
 186   2.0000      -0.555516       -15.1164
 187   2.0000      -0.552782       -15.0420
 188   2.0000      -0.549998       -14.9662
 189   2.0000      -0.548368       -14.9219
 190   2.0000      -0.539818       -14.6892
 191   2.0000      -0.539581       -14.6828
 192   2.0000      -0.539234       -14.6733
 193   2.0000      -0.530833       -14.4447
 194   2.0000      -0.529211       -14.4006
 195   2.0000      -0.522244       -14.2110
 196   2.0000      -0.520524       -14.1642
 197   2.0000      -0.519423       -14.1342
 198   2.0000      -0.518622       -14.1124
 199   2.0000      -0.517627       -14.0853
 200   2.0000      -0.512781       -13.9535
 201   2.0000      -0.506271       -13.7763
 202   2.0000      -0.505359       -13.7515
 203   2.0000      -0.502863       -13.6836
 204   2.0000      -0.500738       -13.6258
 205   2.0000      -0.498053       -13.5527
 206   2.0000      -0.491820       -13.3831
 207   2.0000      -0.489814       -13.3285
 208   2.0000      -0.487783       -13.2733
 209   2.0000      -0.485597       -13.2138
 210   2.0000      -0.484090       -13.1728
 211   2.0000      -0.482625       -13.1329
 212   2.0000      -0.477244       -12.9865
 213   2.0000      -0.476076       -12.9547
 214   2.0000      -0.472677       -12.8622
 215   2.0000      -0.469586       -12.7781
 216   2.0000      -0.469314       -12.7707
 217   2.0000      -0.463662       -12.6169
 218   2.0000      -0.460765       -12.5380
 219   2.0000      -0.460208       -12.5229
 220   2.0000      -0.458882       -12.4868
 221   2.0000      -0.455969       -12.4076
 222   2.0000      -0.453984       -12.3535
 223   2.0000      -0.450713       -12.2645
 224   2.0000      -0.450323       -12.2539
 225   2.0000      -0.446610       -12.1529
 226   2.0000      -0.442985       -12.0542
 227   2.0000      -0.440902       -11.9975
 228   2.0000      -0.439961       -11.9719
 229   2.0000      -0.439281       -11.9534
 230   2.0000      -0.437138       -11.8951
 231   2.0000      -0.434525       -11.8240
 232   2.0000      -0.432504       -11.7690
 233   2.0000      -0.431870       -11.7518
 234   2.0000      -0.424012       -11.5379
 235   2.0000      -0.421575       -11.4716
 236   2.0000      -0.421112       -11.4591
 237   2.0000      -0.418925       -11.3995
 238   2.0000      -0.417665       -11.3653
 239   2.0000      -0.413072       -11.2403
 240   2.0000      -0.409356       -11.1391
 241   2.0000      -0.407457       -11.0875
 242   2.0000      -0.406845       -11.0708
 243   2.0000      -0.402972       -10.9654
 244   2.0000      -0.401231       -10.9181
 245   2.0000      -0.397331       -10.8119
 246   2.0000      -0.391665       -10.6578
 247   2.0000      -0.388719       -10.5776
 248   2.0000      -0.383866       -10.4455
 249   2.0000      -0.383131       -10.4255
 250   2.0000      -0.381209       -10.3732
 251   2.0000      -0.378900       -10.3104
 252   2.0000      -0.374467       -10.1898
 253   2.0000      -0.371067       -10.0972
 254   2.0000      -0.369368       -10.0510
 255   2.0000      -0.368546       -10.0287
 256   2.0000      -0.362171        -9.8552
 257   2.0000      -0.361191        -9.8285
 258   2.0000      -0.358478        -9.7547
 259   2.0000      -0.354952        -9.6587
 260   2.0000      -0.354376        -9.6431
 261   2.0000      -0.336380        -9.1534
 262   2.0000      -0.327047        -8.8994
 263   2.0000      -0.326676        -8.8893
 264   2.0000      -0.321263        -8.7420
 265   2.0000      -0.317034        -8.6269
 266   2.0000      -0.310402        -8.4465
 267   2.0000      -0.306907        -8.3514
 268   2.0000      -0.303934        -8.2705
 269   2.0000      -0.299445        -8.1483
 270   2.0000      -0.271584        -7.3902
 271   2.0000      -0.261001        -7.1022
 272   2.0000      -0.246481        -6.7071
 273   2.0000      -0.196676        -5.3518
 274   0.0000      -0.109621        -2.9829
 275   0.0000      -0.076641        -2.0855
 276   0.0000      -0.071708        -1.9513
 277   0.0000      -0.049519        -1.3475
 278   0.0000      -0.023679        -0.6443

MULLIKEN ATOMIC CHARGES
-----------------------
   0 C :    0.299533
   1 C :   -0.336480
   2 C :   -0.183840
   3 N :    0.162009
   4 C :   -0.189244
   5 N :    0.167921
   6 C :    0.022453
   7 C :   -0.021009
   8 C :   -0.059732
   9 C :    0.117228
  10 C :   -0.093645
  11 C :   -0.013019
  12 S :    0.195177
  13 C :   -0.122252
  14 C :    0.041679
  15 Br:    0.033093
  16 C :    0.161690
  17 O :   -0.148209
  18 C :   -0.028023
  19 C :   -0.039181
  20 C :    0.177099
  21 C :   -0.020366
  22 C :    0.119898
  23 O :   -0.195131
  24 O :   -0.141977
  25 C :   -0.049510
  26 N :    0.012553
  27 O :   -0.162180
  28 C :    0.024672
  29 C :   -0.096561
  30 S :    0.129672
  31 C :   -0.132949
  32 C :    0.208209
  33 C :   -0.200504
  34 C :    0.014543
  35 C :    0.048554
  36 C :   -0.116934
  37 C :    0.039518
  38 C :    0.014973
  39 C :    0.122964
  40 C :    0.088563
  41 C :   -0.121460
  42 S :    0.127656
  43 C :   -0.152574
  44 C :   -0.023935
  45 C :    0.010430
  46 C :    0.003127
  47 C :   -0.022862
  48 C :    0.034943
  49 C :    0.025961
  50 C :   -0.029799
  51 S :    0.040542
  52 C :   -0.037277
  53 C :    0.035572
  54 C :    0.031638
  55 C :   -0.031840
  56 S :    0.077007
  57 C :    0.050372
  58 C :   -0.239454
  59 S :    0.136868
  60 C :   -0.139297
  61 C :    0.112128
  62 C :    0.199949
  63 O :   -0.198215
  64 C :    0.234635
  65 N :    0.277438
  66 O :   -0.238896
  67 O :   -0.227450
  68 C :   -0.044327
  69 H :   -0.007386
  70 H :   -0.004777
  71 H :   -0.000091
  72 H :    0.043794
  73 H :    0.195096
  74 H :    0.018894
  75 H :    0.004383
  76 H :    0.017633
  77 H :   -0.000912
  78 H :    0.005435
  79 H :    0.015689
  80 H :    0.020000
  81 H :   -0.007560
  82 H :    0.026188
  83 H :    0.008723
  84 H :    0.006438
  85 H :    0.015002
  86 H :    0.010380
  87 H :   -0.027092
  88 H :   -0.022507
  89 H :   -0.017216
  90 H :   -0.019021
  91 H :   -0.017501
  92 H :   -0.018352
  93 H :   -0.026428
  94 H :    0.030813
  95 H :    0.008240
Sum of atomic charges:   -0.0000000

LOEWDIN ATOMIC CHARGES
----------------------
   0 C :    0.073765
   1 C :   -0.122895
   2 C :   -0.016927
   3 N :   -0.040812
   4 C :   -0.022132
   5 N :   -0.036267
   6 C :   -0.018608
   7 C :   -0.048922
   8 C :    0.028197
   9 C :   -0.029448
  10 C :   -0.140225
  11 C :   -0.006737
  12 S :    0.439166
  13 C :   -0.267902
  14 C :   -0.069454
  15 Br:    0.144261
  16 C :    0.095372
  17 O :   -0.127689
  18 C :   -0.047903
  19 C :    0.050801
  20 C :    0.056544
  21 C :   -0.092092
  22 C :    0.077460
  23 O :   -0.183140
  24 O :   -0.007036
  25 C :   -0.001926
  26 N :   -0.014667
  27 O :    0.039447
  28 C :   -0.071250
  29 C :   -0.160223
  30 S :    0.426534
  31 C :   -0.173996
  32 C :   -0.036149
  33 C :   -0.030097
  34 C :   -0.041833
  35 C :   -0.051415
  36 C :   -0.019200
  37 C :   -0.033106
  38 C :   -0.050752
  39 C :   -0.032645
  40 C :   -0.062043
  41 C :   -0.163393
  42 S :    0.421501
  43 C :   -0.173580
  44 C :   -0.013813
  45 C :   -0.046650
  46 C :   -0.052318
  47 C :   -0.153545
  48 C :   -0.028801
  49 C :   -0.046660
  50 C :   -0.178253
  51 S :    0.414584
  52 C :   -0.185869
  53 C :   -0.032321
  54 C :   -0.039425
  55 C :   -0.145782
  56 S :    0.399701
  57 C :   -0.091369
  58 C :   -0.201577
  59 S :    0.463290
  60 C :   -0.188961
  61 C :   -0.080052
  62 C :    0.006898
  63 O :   -0.006288
  64 C :    0.020604
  65 N :    0.278237
  66 O :   -0.196660
  67 O :   -0.192263
  68 C :    0.000404
  69 H :    0.042631
  70 H :    0.042007
  71 H :    0.040280
  72 H :    0.055538
  73 H :    0.106117
  74 H :    0.024004
  75 H :    0.023568
  76 H :    0.020197
  77 H :    0.020464
  78 H :    0.021346
  79 H :    0.020591
  80 H :    0.020177
  81 H :    0.026569
  82 H :    0.024537
  83 H :    0.024144
  84 H :    0.021844
  85 H :    0.021060
  86 H :    0.007804
  87 H :    0.023869
  88 H :    0.030967
  89 H :    0.031012
  90 H :    0.029945
  91 H :    0.030950
  92 H :    0.030259
  93 H :    0.031272
  94 H :    0.028678
  95 H :    0.038477

  Mayer bond orders larger than 0.100000
B(  0-C ,  1-C ) :   1.6556 B(  0-C ,  6-C ) :   1.0154 B(  0-C , 18-C ) :   1.0542
B(  1-C ,  2-C ) :   1.1429 B(  1-C ,  4-C ) :   1.1413 B(  2-C ,  3-N ) :   2.9692
B(  4-C ,  5-N ) :   2.9755 B(  6-C ,  7-C ) :   1.2646 B(  6-C , 11-C ) :   1.4018
B(  7-C ,  8-C ) :   1.4197 B(  7-C , 16-C ) :   0.9528 B(  8-C ,  9-C ) :   1.2508
B(  8-C , 69-H ) :   1.0153 B(  9-C , 10-C ) :   1.2962 B(  9-C , 14-C ) :   1.1655
B( 10-C , 11-C ) :   1.3386 B( 10-C , 12-S ) :   1.0917 B( 11-C , 70-H ) :   0.9780
B( 12-S , 13-C ) :   1.0863 B( 13-C , 14-C ) :   1.6167 B( 13-C , 15-Br) :   1.0243
B( 14-C , 71-H ) :   0.9996 B( 16-C , 17-O ) :   2.1886 B( 16-C , 18-C ) :   0.9177
B( 18-C , 19-C ) :   1.6985 B( 19-C , 20-C ) :   1.0815 B( 19-C , 72-H ) :   0.9291
B( 20-C , 21-C ) :   1.4938 B( 20-C , 27-O ) :   1.1663 B( 21-C , 22-C ) :   0.8946
B( 21-C , 25-C ) :   1.2524 B( 22-C , 23-O ) :   2.1564 B( 22-C , 24-O ) :   1.2864
B( 24-O , 73-H ) :   0.9387 B( 25-C , 26-N ) :   1.6492 B( 25-C , 28-C ) :   0.9279
B( 26-N , 27-O ) :   1.0060 B( 28-C , 29-C ) :   1.6256 B( 28-C , 32-C ) :   1.2112
B( 29-C , 30-S ) :   1.1256 B( 29-C , 74-H ) :   0.9676 B( 30-S , 31-C ) :   1.0815
B( 31-C , 32-C ) :   1.3615 B( 31-C , 43-C ) :   1.3676 B( 32-C , 33-C ) :   1.2504
B( 33-C , 34-C ) :   1.0759 B( 33-C , 36-C ) :   1.5213 B( 34-C , 35-C ) :   1.1003
B( 34-C , 75-H ) :   0.9134 B( 34-C , 76-H ) :   0.9041 B( 35-C , 77-H ) :   0.9588
B( 35-C , 78-H ) :   0.9645 B( 35-C , 79-H ) :   0.9605 B( 36-C , 37-C ) :   1.0704
B( 36-C , 39-C ) :   1.2236 B( 37-C , 38-C ) :   1.1056 B( 37-C , 80-H ) :   0.9107
B( 37-C , 81-H ) :   0.9105 B( 38-C , 82-H ) :   0.9630 B( 38-C , 83-H ) :   0.9651
B( 38-C , 84-H ) :   0.9615 B( 39-C , 40-C ) :   1.1206 B( 39-C , 43-C ) :   1.3988
B( 40-C , 41-C ) :   1.5709 B( 40-C , 44-C ) :   1.1159 B( 41-C , 42-S ) :   1.1311
B( 41-C , 85-H ) :   0.9555 B( 42-S , 43-C ) :   1.0723 B( 44-C , 45-C ) :   1.6334
B( 44-C , 86-H ) :   0.9397 B( 45-C , 46-C ) :   1.1934 B( 45-C , 87-H ) :   0.9664
B( 46-C , 47-C ) :   1.5682 B( 46-C , 88-H ) :   0.9616 B( 47-C , 48-C ) :   1.1543
B( 47-C , 51-S ) :   1.0372 B( 48-C , 49-C ) :   1.5808 B( 48-C , 89-H ) :   0.9968
B( 49-C , 50-C ) :   1.1923 B( 49-C , 90-H ) :   0.9945 B( 50-C , 51-S ) :   1.0557
B( 50-C , 52-C ) :   1.4828 B( 52-C , 53-C ) :   1.1949 B( 52-C , 56-S ) :   1.0426
B( 53-C , 54-C ) :   1.5874 B( 53-C , 91-H ) :   0.9949 B( 54-C , 55-C ) :   1.1435
B( 54-C , 92-H ) :   0.9974 B( 55-C , 56-S ) :   1.0535 B( 55-C , 57-C ) :   1.5969
B( 57-C , 58-C ) :   1.1479 B( 57-C , 93-H ) :   0.9462 B( 58-C , 59-S ) :   1.1266
B( 58-C , 60-C ) :   0.1065 B( 58-C , 62-C ) :   1.4248 B( 59-S , 60-C ) :   1.1770
B( 60-C , 61-C ) :   1.4366 B( 60-C , 94-H ) :   0.9749 B( 61-C , 62-C ) :   1.2289
B( 61-C , 68-C ) :   1.0683 B( 62-C , 63-O ) :   1.0905 B( 63-O , 64-C ) :   1.1084
B( 64-C , 65-N ) :   0.9182 B( 64-C , 68-C ) :   1.5712 B( 65-N , 66-O ) :   1.5229
B( 65-N , 67-O ) :   1.5002 B( 66-O , 67-O ) :   0.2690 B( 68-C , 95-H ) :   1.0065

-----------------------------------------------------------------------------
         ABSORPTION SPECTRUM VIA TRANSITION ELECTRIC DIPOLE MOMENTS
-----------------------------------------------------------------------------
State   Energy  Wavelength   fosc         T2         TX        TY        TZ
        (cm-1)    (nm)                  (au**2)     (au)      (au)      (au)
-----------------------------------------------------------------------------
   0    9532.2   1049.1   0.000450681   0.01557   0.06353  -0.10346  -0.02874
   1   12739.0    785.0   0.421501197  10.89277   0.97386   1.77021   2.60974
   2   15101.1    662.2   0.196571343   4.28535   0.93622   0.41270   1.79959
   3   17270.6    579.0   0.000272973   0.00520   0.00134  -0.04316  -0.05778
   4   18829.0    531.1   0.002914171   0.05095   0.11720  -0.17286  -0.08566
   5   19136.8    522.6   0.002105773   0.03623  -0.04824  -0.06822  -0.17101
   6   21943.4    455.7   0.110043492   1.65096  -0.42784   1.20257  -0.14739
   7   23800.3    420.2   0.043747584   0.60513   0.40333  -0.43484   0.50335
   8   23869.1    419.0   0.009886526   0.13636  -0.21365   0.28331   0.10220
   9   24978.6    400.3   0.178762754   2.35605   0.37839  -1.34079  -0.64433
  10   25142.0    397.7   0.008063006   0.10558  -0.14317   0.10534  -0.27200
  11   25711.5    388.9   0.280933753   3.59710  -1.86021   0.30070   0.21514
  12   26075.6    383.5   0.579322121   7.31410  -0.44561   2.58723  -0.64944
  13   26864.5    372.2   0.001022278   0.01253   0.00737  -0.11168   0.00035
  14   27636.8    361.8   0.064115089   0.76375   0.35272  -0.75127   0.27374
  15   27648.9    361.7   0.022579260   0.26885   0.18653  -0.38294   0.29565
  16   28001.6    357.1   0.193078468   2.27000  -0.59528   1.11807  -0.81583
  17   28343.8    352.8   0.008799663   0.10221   0.29179   0.10515  -0.07753
  18   28718.3    348.2   0.070611341   0.80945   0.37042  -0.80956  -0.12983
  19   29345.2    340.8   0.064600111   0.72472   0.28804  -0.08439   0.79664
  20   29658.2    337.2   0.294938556   3.27388  -1.20088   1.03467   0.87248
  21   29999.7    333.3   0.008285080   0.09092   0.20609  -0.21459  -0.04893
  22   30269.0    330.4   0.059312725   0.64510  -0.42780   0.60990  -0.30018
  23   31331.7    319.2   0.006446749   0.06774   0.10382   0.07609   0.22621
  24   31437.6    318.1   0.148276502   1.55274   0.95957  -0.79485  -0.01352
  25   31654.3    315.9   0.608874132   6.33242  -2.26525  -1.02238   0.39473
  26   32008.7    312.4   0.026500541   0.27256  -0.37323  -0.35662  -0.07801
  27   32164.5    310.9   0.245015960   2.50780  -1.27433  -0.68086  -0.64832
  28   32178.0    310.8   0.115570464   1.18240   0.07699   0.89925  -0.60649
  29   32533.9    307.4   0.014481242   0.14654   0.16623  -0.31494  -0.14040
  30   32586.5    306.9   0.033570862   0.33916  -0.30793   0.35376   0.34524
  31   32969.6    303.3   0.096163931   0.96023  -0.62135   0.59616   0.46771
  32   33142.2    301.7   0.011401162   0.11325  -0.08224   0.20758  -0.25179
  33   33845.7    295.5   0.018439635   0.17936   0.19916  -0.10675   0.35819
  34   34282.8    291.7   0.001824349   0.01752   0.07944  -0.06655  -0.08234
  35   34659.0    288.5   0.101083329   0.96015   0.05777  -0.06649   0.97591
  36   35223.2    283.9   0.030921110   0.28900  -0.37244   0.05947  -0.38309
  37   35328.0    283.1   0.051713773   0.48191  -0.54644   0.06101   0.42378
  38   35526.6    281.5   0.070891839   0.65693   0.08612  -0.80445  -0.04875
  39   35749.1    279.7   0.005242753   0.04828  -0.16708   0.07791  -0.11956
  40   35953.0    278.1   0.104501410   0.95689   0.09321  -0.04423  -0.97275
  41   36626.5    273.0   0.146301807   1.31501   0.21175   0.24688   1.09965
  42   37018.4    270.1   0.028941520   0.25738  -0.17986  -0.12789  -0.45681
  43   37119.8    269.4   0.181147060   1.60657  -0.51365   1.00231   0.58147
  44   37285.9    268.2   0.103862370   0.91704   0.12200   0.60028   0.73608
  45   37656.1    265.6   0.011925851   0.10426  -0.05279   0.17620   0.26538
  46   38036.8    262.9   0.317647153   2.74927  -0.16013  -0.70154  -1.49381
  47   38169.3    262.0   0.036518479   0.31497  -0.01453   0.55859  -0.05230
  48   38183.6    261.9   0.050097581   0.43193   0.24708  -0.44425  -0.41657
  49   38262.5    261.4   0.046820701   0.40285   0.11168  -0.62349   0.04046
  50   38516.2    259.6   0.006467927   0.05528   0.03950   0.22634   0.04992
  51   38615.9    259.0   0.067837510   0.57833  -0.30673   0.50204   0.48188
  52   38778.2    257.9   0.005809527   0.04932  -0.16716   0.02183  -0.14458
  53   38876.9    257.2   0.024018430   0.20339   0.02179   0.25982   0.36798
  54   39429.6    253.6   0.218460079   1.82400   0.82120  -1.02617  -0.31081
  55   39506.3    253.1   0.272529397   2.27103  -0.04350   1.38576   0.59059
  56   39927.8    250.5   0.005068043   0.04179  -0.07852   0.17263   0.07629
  57   40110.7    249.3   0.051764477   0.42486  -0.14717   0.48613   0.40852
  58   40240.1    248.5   0.030257249   0.24754   0.03107   0.33021   0.37086

FINAL SINGLE POINT ENERGY     -7664.027184266724

DIPOLE MOMENT
-------------
                                X             Y             Z
Electronic contribution:    129.67158     -91.20417     -30.66758
Nuclear contribution   :   -127.58996      92.79716      29.93080
                        -----------------------------------------
Total Dipole Moment    :      2.08162       1.59299      -0.73678
                        -----------------------------------------
Magnitude (a.u.)       :      2.72279
Magnitude (Debye)      :      6.92078

Rotational constants in cm-1:     0.001329     0.000371     0.000355
Rotational constants in MHz :    39.828518    11.119229    10.642386

                             ****ORCA TERMINATED NORMALLY****
TOTAL RUN TIME: 0 days 0 hours 11 minutes 4 seconds 955 msec
