                         Program Version 4.2.0 -  RELEASE  -
|  1> # ORCA input file
|  2> # SCF done       -197.354726575568          0.000520015556
|  3> ! CAM-B3LYP def2-SVP def2/J RIJCOSX Grid4 TightSCF
|  4> %maxcore 5000
|  5> %tddft
|  6>     Mode sTDDFT
|  7>     Ethresh 5.0
|  8>     maxcore 5000
|  9> end
| 10>
| 11> %pal
| 12>   nprocs 6
| 13>   end
| 14> * xyz 0 1
| 15>    C       -7.88368        -1.41375        -5.10342
| 16>    C       -7.28955        -2.61074        -4.79752
| 17>    C       -7.35301        -3.75282        -5.62222
| 18>    N       -7.36422        -4.70942        -6.25703
| 19>    C       -6.59421        -2.89566        -3.60232
| 20>    N       -6.05688        -3.22498        -2.64285
| 21>    C       -8.73703        -1.16553        -6.26194
| 22>    C       -9.30733         0.12465        -6.13418
| 23>    C      -10.17672         0.64925        -7.05896
| 24>    C      -10.49388        -0.13633        -8.17184
| 25>    C       -9.91454        -1.42130        -8.29641
| 26>    C       -9.03954        -1.95332        -7.35630
| 27>    S      -10.43690        -2.21890        -9.74870
| 28>    C      -11.41423        -0.83512       -10.16194
| 29>    C      -11.35382         0.17366        -9.26090
| 30>   Br      -12.42157        -0.85218       -11.74361
| 31>    C       -8.80855         0.75367        -4.89881
| 32>    O       -9.12656         1.84964        -4.47330
| 33>    C       -7.85617        -0.19820        -4.31316
| 34>    C       -6.99374         0.06235        -3.27716
| 35>    C       -6.87945         1.20969        -2.47836
| 36>    S       -7.92344         2.60382        -2.47190
| 37>    C       -7.00546         3.36191        -1.20496
| 38>    C       -5.92304         2.56147        -0.81857
| 39>    C       -5.85103         1.35954        -1.52356
| 40>    C       -4.84556         0.38394        -1.36942
| 41>    N       -4.02900        -0.41597        -1.28928
| 42>    C       -4.96735         2.99314         0.24763
| 43>    F       -5.59437         3.25763         1.41152
| 44>    F       -4.02644         2.08839         0.52737
| 45>    F       -4.31680         4.12593        -0.08708
| 46>    C       -7.32260         4.63573        -0.69227
| 47>    C       -8.41454         5.34293        -1.10252
| 48>    C       -8.81174         6.63302        -0.67948
| 49>    C       -8.10574         7.47676         0.21203
| 50>    C       -8.58978         8.79381         0.56948
| 51>    N       -7.88943         9.55149         1.39921
| 52>    C       -6.74594         9.11218         1.90705
| 53>    C       -6.27108         7.81972         1.55410
| 54>    N       -6.94392         7.04953         0.73361
| 55>    C       -5.04189         7.37162         2.10349
| 56>    N       -4.04356         7.08461         2.58637
| 57>    C       -5.99705         9.91864         2.78289
| 58>    N       -5.32707        10.51684         3.49874
| 59>    C       -9.81511         9.32960         0.05775
| 60>    C      -10.51965         8.46457        -0.83639
| 61>    C      -10.02794         7.16482        -1.19435
| 62>    N      -10.84218         6.54418        -2.04163
| 63>    S      -12.10256         7.49828        -2.35894
| 64>    N      -11.67088         8.74830        -1.43133
| 65>    C      -10.36329        10.57309         0.33947
| 66>    C       -9.93655        11.64192         1.12519
| 67>    C      -10.68677        12.82779         1.24367
| 68>    C      -10.11602        13.78930         2.03944
| 69>    C       -8.88934        13.38552         2.57359
| 70>    S       -8.47488        11.76370         2.05966
| 71>    C       -8.02085        14.09594         3.40803
| 72>    C       -8.15828        15.39330         3.92851
| 73>    C       -7.10120        15.78276         4.70742
| 74>    C       -6.08603        14.81183         4.83477
| 75>    S       -6.53002        13.37831         3.92794
| 76>    C       -4.91404        14.96529         5.55205
| 77>    C       -3.86598        14.05296         5.71430
| 78>    C       -2.68440        14.32378         6.44981
| 79>    C       -1.84977        13.20152         6.39734
| 80>    C       -0.59203        12.94700         6.93748
| 81>    C       -0.02522        11.70280         6.69065
| 82>    C        1.20129        11.14598         7.08159
| 83>    C        1.29848         9.83425         6.56340
| 84>    C        0.13009         9.56381         5.84390
| 85>    C       -0.71786        10.69659         5.89772
| 86>    C       -1.96164        10.93628         5.36013
| 87>    C       -2.53752        12.19387         5.60510
| 88>    C       -3.75249        12.72032         5.20008
| 89>    C        2.39161         8.90506         6.72395
| 90>    C        3.51064         9.13952         7.40410
| 91>    H      -10.59704         1.63410        -6.92885
| 92>    H       -8.62336        -2.93647        -7.49854
| 93>    H      -11.89184         1.09892        -9.35812
| 94>    H       -6.26168        -0.70277        -3.04090
| 95>    H       -6.66688         5.06145         0.05071
| 96>    H       -9.07854         4.89443        -1.83271
| 97>    H      -11.30990        10.74427        -0.16218
| 98>    H      -11.62916        12.94691         0.73823
| 99>    H      -10.55678        14.75122         2.23337
|100>    H       -9.01719        16.00607         3.72260
|101>    H       -7.02823        16.74201         5.18939
|102>    H       -4.79287        15.92292         6.04569
|103>    H       -2.47047        15.24605         6.95882
|104>    H       -0.07425        13.69053         7.52716
|105>    H        1.94406        11.64134         7.67923
|106>    H       -0.09413         8.64672         5.33053
|107>    H       -2.48808        10.19992         4.77084
|108>    H       -4.47367        12.19456         4.60528
|109>    H        2.25166         7.94923         6.23580
|110>    H        3.69421        10.07400         7.90607
|111>    H        4.28583         8.39755         7.48241
|112> *
|113>
|114>                          ****END OF INPUT****

CARTESIAN COORDINATES (ANGSTROEM)
---------------------------------
  C     -7.883680   -1.413750   -5.103420
  C     -7.289550   -2.610740   -4.797520
  C     -7.353010   -3.752820   -5.622220
  N     -7.364220   -4.709420   -6.257030
  C     -6.594210   -2.895660   -3.602320
  N     -6.056880   -3.224980   -2.642850
  C     -8.737030   -1.165530   -6.261940
  C     -9.307330    0.124650   -6.134180
  C    -10.176720    0.649250   -7.058960
  C    -10.493880   -0.136330   -8.171840
  C     -9.914540   -1.421300   -8.296410
  C     -9.039540   -1.953320   -7.356300
  S    -10.436900   -2.218900   -9.748700
  C    -11.414230   -0.835120  -10.161940
  C    -11.353820    0.173660   -9.260900
  Br   -12.421570   -0.852180  -11.743610
  C     -8.808550    0.753670   -4.898810
  O     -9.126560    1.849640   -4.473300
  C     -7.856170   -0.198200   -4.313160
  C     -6.993740    0.062350   -3.277160
  C     -6.879450    1.209690   -2.478360
  S     -7.923440    2.603820   -2.471900
  C     -7.005460    3.361910   -1.204960
  C     -5.923040    2.561470   -0.818570
  C     -5.851030    1.359540   -1.523560
  C     -4.845560    0.383940   -1.369420
  N     -4.029000   -0.415970   -1.289280
  C     -4.967350    2.993140    0.247630
  F     -5.594370    3.257630    1.411520
  F     -4.026440    2.088390    0.527370
  F     -4.316800    4.125930   -0.087080
  C     -7.322600    4.635730   -0.692270
  C     -8.414540    5.342930   -1.102520
  C     -8.811740    6.633020   -0.679480
  C     -8.105740    7.476760    0.212030
  C     -8.589780    8.793810    0.569480
  N     -7.889430    9.551490    1.399210
  C     -6.745940    9.112180    1.907050
  C     -6.271080    7.819720    1.554100
  N     -6.943920    7.049530    0.733610
  C     -5.041890    7.371620    2.103490
  N     -4.043560    7.084610    2.586370
  C     -5.997050    9.918640    2.782890
  N     -5.327070   10.516840    3.498740
  C     -9.815110    9.329600    0.057750
  C    -10.519650    8.464570   -0.836390
  C    -10.027940    7.164820   -1.194350
  N    -10.842180    6.544180   -2.041630
  S    -12.102560    7.498280   -2.358940
  N    -11.670880    8.748300   -1.431330
  C    -10.363290   10.573090    0.339470
  C     -9.936550   11.641920    1.125190
  C    -10.686770   12.827790    1.243670
  C    -10.116020   13.789300    2.039440
  C     -8.889340   13.385520    2.573590
  S     -8.474880   11.763700    2.059660
  C     -8.020850   14.095940    3.408030
  C     -8.158280   15.393300    3.928510
  C     -7.101200   15.782760    4.707420
  C     -6.086030   14.811830    4.834770
  S     -6.530020   13.378310    3.927940
  C     -4.914040   14.965290    5.552050
  C     -3.865980   14.052960    5.714300
  C     -2.684400   14.323780    6.449810
  C     -1.849770   13.201520    6.397340
  C     -0.592030   12.947000    6.937480
  C     -0.025220   11.702800    6.690650
  C      1.201290   11.145980    7.081590
  C      1.298480    9.834250    6.563400
  C      0.130090    9.563810    5.843900
  C     -0.717860   10.696590    5.897720
  C     -1.961640   10.936280    5.360130
  C     -2.537520   12.193870    5.605100
  C     -3.752490   12.720320    5.200080
  C      2.391610    8.905060    6.723950
  C      3.510640    9.139520    7.404100
  H    -10.597040    1.634100   -6.928850
  H     -8.623360   -2.936470   -7.498540
  H    -11.891840    1.098920   -9.358120
  H     -6.261680   -0.702770   -3.040900
  H     -6.666880    5.061450    0.050710
  H     -9.078540    4.894430   -1.832710
  H    -11.309900   10.744270   -0.162180
  H    -11.629160   12.946910    0.738230
  H    -10.556780   14.751220    2.233370
  H     -9.017190   16.006070    3.722600
  H     -7.028230   16.742010    5.189390
  H     -4.792870   15.922920    6.045690
  H     -2.470470   15.246050    6.958820
  H     -0.074250   13.690530    7.527160
  H      1.944060   11.641340    7.679230
  H     -0.094130    8.646720    5.330530
  H     -2.488080   10.199920    4.770840
  H     -4.473670   12.194560    4.605280
  H      2.251660    7.949230    6.235800
  H      3.694210   10.074000    7.906070
  H      4.285830    8.397550    7.482410

 Total Charge           Charge          ....    0
 Multiplicity           Mult            ....    1
 Number of Electrons    NEL             ....  576
 Basis Dimension        Dim             .... 1207

ORBITAL ENERGIES
----------------

  NO   OCC          E(Eh)            E(eV)
   0   2.0000    -482.878750    -13139.7988
   1   2.0000     -89.009936     -2422.0835
   2   2.0000     -88.975911     -2421.1576
   3   2.0000     -88.969814     -2420.9917
   4   2.0000     -88.967253     -2420.9220
   5   2.0000     -88.958538     -2420.6849
   6   2.0000     -62.556480     -1702.2484
   7   2.0000     -56.390421     -1534.4614
   8   2.0000     -56.387722     -1534.3879
   9   2.0000     -56.387684     -1534.3869
  10   2.0000     -24.785393      -674.4448
  11   2.0000     -24.778327      -674.2526
  12   2.0000     -24.777905      -674.2411
  13   2.0000     -19.210532      -522.7451
  14   2.0000     -14.452157      -393.2632
  15   2.0000     -14.433487      -392.7552
  16   2.0000     -14.432212      -392.7205
  17   2.0000     -14.426348      -392.5609
  18   2.0000     -14.422900      -392.4671
  19   2.0000     -14.420684      -392.4068
  20   2.0000     -14.402245      -391.9050
  21   2.0000     -14.399069      -391.8186
  22   2.0000     -14.396617      -391.7519
  23   2.0000     -10.504097      -285.8310
  24   2.0000     -10.368048      -282.1289
  25   2.0000     -10.359131      -281.8863
  26   2.0000     -10.353019      -281.7200
  27   2.0000     -10.350724      -281.6575
  28   2.0000     -10.346126      -281.5324
  29   2.0000     -10.338515      -281.3253
  30   2.0000     -10.333098      -281.1779
  31   2.0000     -10.332132      -281.1516
  32   2.0000     -10.330495      -281.1071
  33   2.0000     -10.328690      -281.0579
  34   2.0000     -10.328047      -281.0404
  35   2.0000     -10.326776      -281.0059
  36   2.0000     -10.326773      -281.0058
  37   2.0000     -10.326668      -281.0029
  38   2.0000     -10.323232      -280.9094
  39   2.0000     -10.321711      -280.8680
  40   2.0000     -10.319376      -280.8045
  41   2.0000     -10.317980      -280.7665
  42   2.0000     -10.317105      -280.7427
  43   2.0000     -10.316658      -280.7305
  44   2.0000     -10.314302      -280.6664
  45   2.0000     -10.314286      -280.6660
  46   2.0000     -10.314119      -280.6615
  47   2.0000     -10.311736      -280.5966
  48   2.0000     -10.311616      -280.5933
  49   2.0000     -10.310550      -280.5643
  50   2.0000     -10.308951      -280.5208
  51   2.0000     -10.306847      -280.4636
  52   2.0000     -10.305368      -280.4233
  53   2.0000     -10.304597      -280.4024
  54   2.0000     -10.304560      -280.4013
  55   2.0000     -10.300827      -280.2997
  56   2.0000     -10.300674      -280.2956
  57   2.0000     -10.300313      -280.2858
  58   2.0000     -10.298449      -280.2350
  59   2.0000     -10.298303      -280.2311
  60   2.0000     -10.298100      -280.2255
  61   2.0000     -10.295735      -280.1612
  62   2.0000     -10.295379      -280.1515
  63   2.0000     -10.293519      -280.1009
  64   2.0000     -10.292466      -280.0722
  65   2.0000     -10.292324      -280.0684
  66   2.0000     -10.292156      -280.0638
  67   2.0000     -10.292057      -280.0611
  68   2.0000     -10.290965      -280.0314
  69   2.0000     -10.290088      -280.0075
  70   2.0000     -10.288951      -279.9766
  71   2.0000     -10.288186      -279.9558
  72   2.0000     -10.286030      -279.8971
  73   2.0000     -10.285913      -279.8939
  74   2.0000     -10.284245      -279.8485
  75   2.0000     -10.282639      -279.8048
  76   2.0000     -10.274871      -279.5934
  77   2.0000     -10.274387      -279.5803
  78   2.0000     -10.272033      -279.5162
  79   2.0000     -10.256099      -279.0826
  80   2.0000      -8.785917      -239.0770
  81   2.0000      -8.102069      -220.4685
  82   2.0000      -8.071144      -219.6270
  83   2.0000      -8.063281      -219.4130
  84   2.0000      -8.062095      -219.3808
  85   2.0000      -8.051838      -219.1017
  86   2.0000      -6.622193      -180.1990
  87   2.0000      -6.607651      -179.8033
  88   2.0000      -6.607484      -179.7988
  89   2.0000      -6.073497      -165.2683
  90   2.0000      -6.065804      -165.0589
  91   2.0000      -6.063886      -165.0067
  92   2.0000      -6.040648      -164.3744
  93   2.0000      -6.036334      -164.2570
  94   2.0000      -6.032989      -164.1660
  95   2.0000      -6.032810      -164.1611
  96   2.0000      -6.031856      -164.1351
  97   2.0000      -6.028688      -164.0489
  98   2.0000      -6.027149      -164.0071
  99   2.0000      -6.024483      -163.9345
 100   2.0000      -6.024102      -163.9241
 101   2.0000      -6.021140      -163.8435
 102   2.0000      -6.016758      -163.7243
 103   2.0000      -6.014070      -163.6512
 104   2.0000      -2.738068       -74.5066
 105   2.0000      -2.733984       -74.3955
 106   2.0000      -2.733858       -74.3921
 107   2.0000      -2.722314       -74.0779
 108   2.0000      -2.722286       -74.0772
 109   2.0000      -1.371237       -37.3133
 110   2.0000      -1.275674       -34.7129
 111   2.0000      -1.268498       -34.5176
 112   2.0000      -1.126234       -30.6464
 113   2.0000      -1.114699       -30.3325
 114   2.0000      -1.103999       -30.0413
 115   2.0000      -1.031174       -28.0597
 116   2.0000      -1.018777       -27.7223
 117   2.0000      -1.013065       -27.5669
 118   2.0000      -1.011886       -27.5348
 119   2.0000      -1.010355       -27.4932
 120   2.0000      -1.004263       -27.3274
 121   2.0000      -1.000282       -27.2191
 122   2.0000      -0.996883       -27.1266
 123   2.0000      -0.991878       -26.9904
 124   2.0000      -0.985443       -26.8153
 125   2.0000      -0.979755       -26.6605
 126   2.0000      -0.978221       -26.6187
 127   2.0000      -0.974109       -26.5069
 128   2.0000      -0.972067       -26.4513
 129   2.0000      -0.958183       -26.0735
 130   2.0000      -0.933782       -25.4095
 131   2.0000      -0.928452       -25.2645
 132   2.0000      -0.908813       -24.7301
 133   2.0000      -0.904596       -24.6153
 134   2.0000      -0.898568       -24.4513
 135   2.0000      -0.893368       -24.3098
 136   2.0000      -0.891807       -24.2673
 137   2.0000      -0.889387       -24.2015
 138   2.0000      -0.880151       -23.9501
 139   2.0000      -0.876458       -23.8496
 140   2.0000      -0.871216       -23.7070
 141   2.0000      -0.869008       -23.6469
 142   2.0000      -0.863600       -23.4998
 143   2.0000      -0.856083       -23.2952
 144   2.0000      -0.840760       -22.8783
 145   2.0000      -0.837564       -22.7913
 146   2.0000      -0.825693       -22.4683
 147   2.0000      -0.823101       -22.3977
 148   2.0000      -0.819804       -22.3080
 149   2.0000      -0.812085       -22.0980
 150   2.0000      -0.810131       -22.0448
 151   2.0000      -0.792037       -21.5524
 152   2.0000      -0.778428       -21.1821
 153   2.0000      -0.774532       -21.0761
 154   2.0000      -0.771370       -20.9900
 155   2.0000      -0.762167       -20.7396
 156   2.0000      -0.749885       -20.4054
 157   2.0000      -0.743414       -20.2293
 158   2.0000      -0.732692       -19.9376
 159   2.0000      -0.715111       -19.4592
 160   2.0000      -0.712726       -19.3942
 161   2.0000      -0.705581       -19.1998
 162   2.0000      -0.696723       -18.9588
 163   2.0000      -0.691072       -18.8050
 164   2.0000      -0.687530       -18.7086
 165   2.0000      -0.684393       -18.6233
 166   2.0000      -0.681954       -18.5569
 167   2.0000      -0.679789       -18.4980
 168   2.0000      -0.674028       -18.3412
 169   2.0000      -0.671121       -18.2621
 170   2.0000      -0.666529       -18.1372
 171   2.0000      -0.660589       -17.9755
 172   2.0000      -0.656230       -17.8569
 173   2.0000      -0.652760       -17.7625
 174   2.0000      -0.649920       -17.6852
 175   2.0000      -0.648282       -17.6406
 176   2.0000      -0.642417       -17.4811
 177   2.0000      -0.639161       -17.3925
 178   2.0000      -0.636802       -17.3283
 179   2.0000      -0.631347       -17.1798
 180   2.0000      -0.620002       -16.8711
 181   2.0000      -0.617033       -16.7903
 182   2.0000      -0.612956       -16.6794
 183   2.0000      -0.606804       -16.5120
 184   2.0000      -0.603088       -16.4109
 185   2.0000      -0.601626       -16.3711
 186   2.0000      -0.598580       -16.2882
 187   2.0000      -0.591598       -16.0982
 188   2.0000      -0.583015       -15.8647
 189   2.0000      -0.576405       -15.6848
 190   2.0000      -0.573957       -15.6182
 191   2.0000      -0.567205       -15.4344
 192   2.0000      -0.563324       -15.3288
 193   2.0000      -0.562545       -15.3076
 194   2.0000      -0.555694       -15.1212
 195   2.0000      -0.550878       -14.9902
 196   2.0000      -0.549462       -14.9516
 197   2.0000      -0.546529       -14.8718
 198   2.0000      -0.535977       -14.5847
 199   2.0000      -0.535204       -14.5637
 200   2.0000      -0.532657       -14.4943
 201   2.0000      -0.532386       -14.4870
 202   2.0000      -0.530624       -14.4390
 203   2.0000      -0.530265       -14.4292
 204   2.0000      -0.526548       -14.3281
 205   2.0000      -0.525112       -14.2890
 206   2.0000      -0.522539       -14.2190
 207   2.0000      -0.520184       -14.1549
 208   2.0000      -0.515162       -14.0183
 209   2.0000      -0.514764       -14.0074
 210   2.0000      -0.513516       -13.9735
 211   2.0000      -0.513180       -13.9643
 212   2.0000      -0.507876       -13.8200
 213   2.0000      -0.504400       -13.7254
 214   2.0000      -0.502259       -13.6672
 215   2.0000      -0.498126       -13.5547
 216   2.0000      -0.497609       -13.5406
 217   2.0000      -0.495802       -13.4915
 218   2.0000      -0.495433       -13.4814
 219   2.0000      -0.491097       -13.3634
 220   2.0000      -0.487890       -13.2762
 221   2.0000      -0.485831       -13.2201
 222   2.0000      -0.484799       -13.1920
 223   2.0000      -0.483014       -13.1435
 224   2.0000      -0.481226       -13.0948
 225   2.0000      -0.480920       -13.0865
 226   2.0000      -0.478866       -13.0306
 227   2.0000      -0.477434       -12.9916
 228   2.0000      -0.477354       -12.9895
 229   2.0000      -0.471035       -12.8175
 230   2.0000      -0.469767       -12.7830
 231   2.0000      -0.466144       -12.6844
 232   2.0000      -0.465819       -12.6756
 233   2.0000      -0.465639       -12.6707
 234   2.0000      -0.461079       -12.5466
 235   2.0000      -0.460425       -12.5288
 236   2.0000      -0.456527       -12.4227
 237   2.0000      -0.455107       -12.3841
 238   2.0000      -0.452514       -12.3135
 239   2.0000      -0.451640       -12.2897
 240   2.0000      -0.448292       -12.1986
 241   2.0000      -0.445440       -12.1210
 242   2.0000      -0.440312       -11.9815
 243   2.0000      -0.439386       -11.9563
 244   2.0000      -0.439144       -11.9497
 245   2.0000      -0.437697       -11.9103
 246   2.0000      -0.434477       -11.8227
 247   2.0000      -0.430921       -11.7259
 248   2.0000      -0.427776       -11.6404
 249   2.0000      -0.427319       -11.6279
 250   2.0000      -0.426815       -11.6142
 251   2.0000      -0.423650       -11.5281
 252   2.0000      -0.422914       -11.5081
 253   2.0000      -0.420678       -11.4472
 254   2.0000      -0.416842       -11.3429
 255   2.0000      -0.414618       -11.2823
 256   2.0000      -0.413044       -11.2395
 257   2.0000      -0.411345       -11.1933
 258   2.0000      -0.408959       -11.1284
 259   2.0000      -0.401322       -10.9205
 260   2.0000      -0.398889       -10.8543
 261   2.0000      -0.397171       -10.8076
 262   2.0000      -0.395264       -10.7557
 263   2.0000      -0.392125       -10.6703
 264   2.0000      -0.391062       -10.6413
 265   2.0000      -0.390897       -10.6368
 266   2.0000      -0.387463       -10.5434
 267   2.0000      -0.377417       -10.2700
 268   2.0000      -0.368508       -10.0276
 269   2.0000      -0.367875       -10.0104
 270   2.0000      -0.363477        -9.8907
 271   2.0000      -0.359317        -9.7775
 272   2.0000      -0.357640        -9.7319
 273   2.0000      -0.353785        -9.6270
 274   2.0000      -0.338442        -9.2095
 275   2.0000      -0.336534        -9.1576
 276   2.0000      -0.334827        -9.1111
 277   2.0000      -0.331922        -9.0321
 278   2.0000      -0.327039        -8.8992
 279   2.0000      -0.324149        -8.8205
 280   2.0000      -0.318097        -8.6559
 281   2.0000      -0.306560        -8.3419
 282   2.0000      -0.296070        -8.0565
 283   2.0000      -0.291756        -7.9391
 284   2.0000      -0.284708        -7.7473
 285   2.0000      -0.274220        -7.4619
 286   2.0000      -0.253181        -6.8894
 287   2.0000      -0.210886        -5.7385
 288   0.0000      -0.125641        -3.4189
 289   0.0000      -0.119073        -3.2402
 290   0.0000      -0.086281        -2.3478
 291   0.0000      -0.070750        -1.9252
 292   0.0000      -0.053234        -1.4486

MULLIKEN ATOMIC CHARGES
-----------------------
   0 C :    0.307301
   1 C :   -0.344697
   2 C :   -0.181286
   3 N :    0.141815
   4 C :   -0.212260
   5 N :    0.177430
   6 C :    0.013128
   7 C :   -0.010156
   8 C :   -0.073152
   9 C :    0.117695
  10 C :   -0.092469
  11 C :   -0.019782
  12 S :    0.184215
  13 C :   -0.123552
  14 C :    0.038119
  15 Br:    0.018188
  16 C :    0.159522
  17 O :   -0.176591
  18 C :   -0.098485
  19 C :   -0.059599
  20 C :   -0.046668
  21 S :    0.193683
  22 C :   -0.050577
  23 C :   -0.051072
  24 C :   -0.030909
  25 C :   -0.233001
  26 N :    0.170227
  27 C :    0.527379
  28 F :   -0.167354
  29 F :   -0.138211
  30 F :   -0.166515
  31 C :   -0.019831
  32 C :   -0.073501
  33 C :    0.050244
  34 C :   -0.017711
  35 C :   -0.009678
  36 N :   -0.038784
  37 C :   -0.101497
  38 C :   -0.108224
  39 N :    0.028120
  40 C :   -0.223807
  41 N :    0.222693
  42 C :   -0.226426
  43 N :    0.198532
  44 C :    0.112299
  45 C :   -0.004531
  46 C :    0.007982
  47 N :   -0.288776
  48 S :    0.484336
  49 N :   -0.280354
  50 C :   -0.129788
  51 C :    0.033404
  52 C :    0.009333
  53 C :    0.040450
  54 C :   -0.039138
  55 S :    0.134418
  56 C :   -0.002141
  57 C :    0.010088
  58 C :    0.059840
  59 C :   -0.052214
  60 S :    0.113565
  61 C :    0.036793
  62 C :    0.039115
  63 C :   -0.010397
  64 C :    0.052206
  65 C :    0.018831
  66 C :    0.044384
  67 C :   -0.001350
  68 C :    0.053339
  69 C :    0.002353
  70 C :    0.051097
  71 C :    0.031580
  72 C :    0.017071
  73 C :    0.023161
  74 C :    0.011113
  75 C :   -0.014964
  76 H :   -0.012128
  77 H :   -0.007394
  78 H :   -0.005163
  79 H :    0.037064
  80 H :    0.019325
  81 H :    0.006597
  82 H :    0.001014
  83 H :   -0.007499
  84 H :   -0.015206
  85 H :   -0.007091
  86 H :   -0.001584
  87 H :   -0.005498
  88 H :   -0.015258
  89 H :   -0.013851
  90 H :   -0.013346
  91 H :    0.002717
  92 H :    0.009185
  93 H :   -0.020192
  94 H :   -0.008386
  95 H :    0.010099
  96 H :    0.030991
Sum of atomic charges:    0.0000000

LOEWDIN ATOMIC CHARGES
----------------------
   0 C :    0.073072
   1 C :   -0.139991
   2 C :   -0.016727
   3 N :   -0.058674
   4 C :   -0.031056
   5 N :   -0.036709
   6 C :   -0.017487
   7 C :   -0.050106
   8 C :    0.020794
   9 C :   -0.035011
  10 C :   -0.144015
  11 C :   -0.011242
  12 S :    0.430897
  13 C :   -0.273747
  14 C :   -0.070603
  15 Br:    0.132735
  16 C :    0.083070
  17 O :   -0.166264
  18 C :   -0.107640
  19 C :    0.052569
  20 C :   -0.173794
  21 S :    0.529865
  22 C :   -0.118865
  23 C :   -0.117013
  24 C :   -0.053482
  25 C :   -0.043608
  26 N :   -0.026714
  27 C :    0.171561
  28 F :   -0.064283
  29 F :   -0.036719
  30 F :   -0.064870
  31 C :   -0.076501
  32 C :    0.024869
  33 C :   -0.101115
  34 C :    0.016308
  35 C :    0.000190
  36 N :   -0.037519
  37 C :   -0.084399
  38 C :   -0.012288
  39 N :   -0.024414
  40 C :   -0.027973
  41 N :   -0.020834
  42 C :   -0.020294
  43 N :   -0.066227
  44 C :   -0.027664
  45 C :   -0.055124
  46 C :   -0.034917
  47 N :   -0.296568
  48 S :    0.614489
  49 N :   -0.281570
  50 C :   -0.031394
  51 C :   -0.128816
  52 C :   -0.048019
  53 C :   -0.019513
  54 C :   -0.225477
  55 S :    0.491047
  56 C :   -0.126234
  57 C :   -0.059825
  58 C :    0.006167
  59 C :   -0.187563
  60 S :    0.463793
  61 C :    0.034200
  62 C :   -0.087801
  63 C :    0.056009
  64 C :   -0.071626
  65 C :    0.097607
  66 C :   -0.063596
  67 C :    0.064631
  68 C :   -0.055149
  69 C :    0.059083
  70 C :   -0.063526
  71 C :    0.108289
  72 C :   -0.062276
  73 C :    0.055568
  74 C :   -0.023745
  75 C :   -0.038384
  76 H :    0.040249
  77 H :    0.040757
  78 H :    0.038060
  79 H :    0.055475
  80 H :    0.024219
  81 H :    0.028877
  82 H :    0.044363
  83 H :    0.034454
  84 H :    0.030590
  85 H :    0.034472
  86 H :    0.037845
  87 H :    0.043229
  88 H :    0.028843
  89 H :    0.039443
  90 H :    0.029673
  91 H :    0.036643
  92 H :    0.050446
  93 H :    0.012840
  94 H :    0.033543
  95 H :    0.019020
  96 H :    0.029117

  Mayer bond orders larger than 0.100000
B(  0-C ,  1-C ) :   1.6341 B(  0-C ,  6-C ) :   0.9971 B(  0-C , 18-C ) :   1.0751
B(  1-C ,  2-C ) :   1.1423 B(  1-C ,  4-C ) :   1.1419 B(  2-C ,  3-N ) :   2.9677
B(  4-C ,  5-N ) :   2.9948 B(  6-C ,  7-C ) :   1.2780 B(  6-C , 11-C ) :   1.4172
B(  7-C ,  8-C ) :   1.4241 B(  7-C , 16-C ) :   0.9550 B(  8-C ,  9-C ) :   1.2430
B(  8-C , 76-H ) :   1.0165 B(  9-C , 10-C ) :   1.3108 B(  9-C , 14-C ) :   1.1618
B( 10-C , 11-C ) :   1.3247 B( 10-C , 12-S ) :   1.0859 B( 11-C , 77-H ) :   0.9795
B( 12-S , 13-C ) :   1.0853 B( 13-C , 14-C ) :   1.6201 B( 13-C , 15-Br) :   1.0153
B( 14-C , 78-H ) :   0.9997 B( 16-C , 17-O ) :   2.1383 B( 16-C , 18-C ) :   0.9782
B( 18-C , 19-C ) :   1.5036 B( 19-C , 20-C ) :   1.2936 B( 19-C , 79-H ) :   0.9319
B( 20-C , 21-S ) :   1.0800 B( 20-C , 24-C ) :   1.3702 B( 21-S , 22-C ) :   1.1252
B( 22-C , 23-C ) :   1.3584 B( 22-C , 31-C ) :   1.2046 B( 23-C , 24-C ) :   1.4005
B( 23-C , 27-C ) :   0.9358 B( 24-C , 25-C ) :   1.1134 B( 25-C , 26-N ) :   2.9937
B( 27-C , 28-F ) :   1.1506 B( 27-C , 29-F ) :   1.1743 B( 27-C , 30-F ) :   1.1532
B( 31-C , 32-C ) :   1.5163 B( 31-C , 80-H ) :   0.9395 B( 32-C , 33-C ) :   1.2410
B( 32-C , 81-H ) :   0.9641 B( 33-C , 34-C ) :   1.2559 B( 33-C , 46-C ) :   1.1183
B( 34-C , 35-C ) :   1.0985 B( 34-C , 39-N ) :   1.4242 B( 35-C , 36-N ) :   1.5288
B( 35-C , 44-C ) :   1.0820 B( 36-N , 37-C ) :   1.4843 B( 36-N , 55-S ) :   0.1125
B( 37-C , 38-C ) :   1.2998 B( 37-C , 42-C ) :   1.1501 B( 38-C , 39-N ) :   1.6987
B( 38-C , 40-C ) :   1.1489 B( 40-C , 41-N ) :   3.0421 B( 42-C , 43-N ) :   2.9468
B( 43-N , 93-H ) :   0.1289 B( 44-C , 45-C ) :   1.0954 B( 44-C , 50-C ) :   1.4854
B( 45-C , 46-C ) :   1.1250 B( 45-C , 49-N ) :   1.5991 B( 46-C , 47-N ) :   1.5878
B( 47-N , 48-S ) :   1.2192 B( 47-N , 49-N ) :   0.1289 B( 48-S , 49-N ) :   1.2368
B( 50-C , 51-C ) :   1.2546 B( 50-C , 82-H ) :   0.9541 B( 51-C , 52-C ) :   1.2854
B( 51-C , 55-S ) :   1.1225 B( 52-C , 53-C ) :   1.4287 B( 52-C , 83-H ) :   1.0030
B( 53-C , 54-C ) :   1.3205 B( 53-C , 84-H ) :   0.9941 B( 54-C , 55-S ) :   1.0268
B( 54-C , 56-C ) :   1.3029 B( 56-C , 57-C ) :   1.2819 B( 56-C , 60-S ) :   1.1491
B( 57-C , 58-C ) :   1.4804 B( 57-C , 85-H ) :   0.9953 B( 58-C , 59-C ) :   1.2204
B( 58-C , 86-H ) :   0.9991 B( 59-C , 60-S ) :   1.0352 B( 59-C , 61-C ) :   1.4392
B( 61-C , 62-C ) :   1.2357 B( 61-C , 87-H ) :   0.9720 B( 62-C , 63-C ) :   1.2584
B( 62-C , 73-C ) :   1.1533 B( 63-C , 64-C ) :   1.2666 B( 63-C , 88-H ) :   1.0163
B( 64-C , 65-C ) :   1.2589 B( 64-C , 72-C ) :   1.1246 B( 65-C , 66-C ) :   1.2822
B( 65-C , 89-H ) :   1.0050 B( 66-C , 67-C ) :   1.2789 B( 66-C , 70-C ) :   1.1128
B( 67-C , 68-C ) :   1.2739 B( 67-C , 90-H ) :   1.0095 B( 68-C , 69-C ) :   1.3704
B( 68-C , 74-C ) :   1.0773 B( 69-C , 70-C ) :   1.1717 B( 69-C , 91-H ) :   1.0179
B( 70-C , 71-C ) :   1.3685 B( 71-C , 72-C ) :   1.1760 B( 71-C , 92-H ) :   1.0091
B( 72-C , 73-C ) :   1.4311 B( 73-C , 93-H ) :   0.9693 B( 74-C , 75-C ) :   1.9448
B( 74-C , 94-H ) :   0.9667 B( 75-C , 95-H ) :   0.9528 B( 75-C , 96-H ) :   0.9488

-----------------------------------------------------------------------------
         ABSORPTION SPECTRUM VIA TRANSITION ELECTRIC DIPOLE MOMENTS
-----------------------------------------------------------------------------
State   Energy  Wavelength   fosc         T2         TX        TY        TZ
        (cm-1)    (nm)                  (au**2)     (au)      (au)      (au)
-----------------------------------------------------------------------------
   0    5641.5   1772.6   0.179162633  10.45516   1.46478   2.13885   1.93259
   1    6503.7   1537.6   0.451294007  22.84405   1.65944   3.52727   2.76562
   2   11574.4    864.0   0.009669485   0.27503   0.40530  -0.31874   0.09576
   3   13924.7    718.1   0.788586324  18.64397  -0.43684  -3.50191  -2.48792
   4   15452.0    647.2   0.705367474  15.02817  -3.47858   1.22329  -1.19633
   5   15706.1    636.7   0.006162344   0.12917   0.00616  -0.29371  -0.20704
   6   20087.1    497.8   0.007790355   0.12768  -0.25447  -0.18025  -0.17446
   7   21003.9    476.1   0.109998722   1.72411   1.18069  -0.14055   0.55706
   8   21107.6    473.8   0.069600614   1.08555   0.72648  -0.73957   0.10398
   9   21246.4    470.7   0.018669829   0.28929   0.43457   0.00683   0.31684
  10   21990.8    454.7   0.016987350   0.25431   0.42549  -0.26279  -0.06484
  11   22878.5    437.1   0.260088494   3.74256   1.63553   0.17857   1.01771
  12   23422.0    426.9   0.219535980   3.08573  -1.45955   0.73705  -0.64204
  13   24341.1    410.8   0.342627145   4.63402  -0.13755   1.86213   1.07125
  14   25549.3    391.4   0.018690718   0.24084   0.39207  -0.26707  -0.12565
  15   25800.6    387.6   0.048693470   0.62132  -0.09350   0.76119   0.18211
  16   25907.6    386.0   0.578379852   7.34956  -1.66434   2.13947   0.04687
  17   26543.9    376.7   0.151753955   1.88213   1.03743  -0.60247   0.66550
  18   26851.1    372.4   0.096728754   1.18596   0.32421   0.25463   1.00797
  19   27439.0    364.4   0.702452861   8.42801   2.10978  -1.98539   0.18729
  20   27781.0    360.0   0.045928506   0.54427  -0.61292   0.23945  -0.33356
  21   28818.3    347.0   0.015667218   0.17898   0.28001   0.19545   0.24975
  22   29238.5    342.0   0.073013637   0.82210   0.55269  -0.41750   0.58509
  23   29630.5    337.5   0.013457443   0.14952   0.02482   0.26519   0.28032
  24   29725.0    336.4   0.086936978   0.96285  -0.71267  -0.06638  -0.67122
  25   29815.0    335.4   0.015478141   0.17091  -0.19681   0.23799  -0.27483
  26   29891.9    334.5   0.077142308   0.84960  -0.80899   0.16585  -0.40943
  27   30574.0    327.1   0.007547063   0.08126   0.17819   0.21115   0.07020
  28   30826.6    324.4   0.081021923   0.86527  -0.47872   0.68905   0.40163
  29   31326.5    319.2   0.010774870   0.11323   0.30689  -0.02043  -0.13652
  30   31445.1    318.0   0.523962165   5.48558  -1.67258   0.63986  -1.50951
  31   31945.4    313.0   0.062501930   0.64411   0.17120   0.74960   0.23000
  32   32435.3    308.3   0.115964766   1.17702   0.85399   0.01904   0.66885
  33   32520.5    307.5   0.021044629   0.21304   0.07135  -0.15559   0.42865
  34   32746.8    305.4   0.038253751   0.38458  -0.42183   0.26495  -0.36938
  35   32934.5    303.6   0.006128054   0.06126   0.04134   0.23892   0.04966
  36   32997.0    303.1   0.052267411   0.52147   0.10836   0.65664   0.28028
  37   33224.9    301.0   0.117073717   1.16004  -0.57955  -0.15648  -0.89424
  38   33453.7    298.9   0.134004266   1.31871   0.67828  -0.79325   0.47895
  39   33598.1    297.6   0.001629498   0.01597  -0.05625   0.11036   0.02498
  40   33649.4    297.2   0.034211040   0.33471  -0.04369  -0.25043  -0.51970
  41   33851.2    295.4   0.149562356   1.45453  -0.81086   0.50193  -0.73831
  42   33888.6    295.1   0.002650505   0.02575   0.04629   0.11074   0.10650
  43   34333.1    291.3   0.060761709   0.58263  -0.43366   0.61120  -0.14494
  44   34442.8    290.3   0.071056070   0.67917  -0.20872  -0.70551  -0.37130
  45   34479.1    290.0   0.007926196   0.07568   0.18857  -0.18635   0.07347
  46   34728.3    287.9   0.074175474   0.70316   0.64227  -0.29037   0.45424
  47   34925.4    286.3   0.010193580   0.09609  -0.13946   0.19608  -0.19543
  48   35054.8    285.3   0.003434657   0.03226   0.01332  -0.11935   0.13355
  49   35134.0    284.6   0.008867476   0.08309   0.12478  -0.25781   0.03249
  50   35387.3    282.6   0.002717785   0.02528  -0.00413   0.02535  -0.15692
  51   35455.7    282.0   0.177592576   1.64898   0.73621  -1.04495  -0.12269
  52   35721.7    279.9   0.027497466   0.25342  -0.27418   0.40158  -0.13030
  53   35953.3    278.1   0.046076755   0.42191   0.54104  -0.25623   0.25206
  54   36268.0    275.7   0.019907294   0.18070   0.00613  -0.33401  -0.26287
  55   36475.5    274.2   0.022130752   0.19974  -0.39732  -0.09077  -0.18341
  56   36832.3    271.5   0.092263282   0.82466   0.80090  -0.28424   0.32005
  57   36991.2    270.3   0.006593230   0.05868   0.17784  -0.15884   0.04267
  58   37108.5    269.5   0.000788596   0.00700  -0.01120   0.05932   0.05789
  59   37113.1    269.4   0.000455158   0.00404  -0.00500   0.04269   0.04680
  60   37122.2    269.4   0.006237789   0.05532   0.21753   0.00375   0.08936
  61   37443.3    267.1   0.030940683   0.27204  -0.28870   0.35773   0.24642
  62   37825.1    264.4   0.297606383   2.59023  -1.35026   0.16579  -0.85996
  63   37869.0    264.1   0.000390032   0.00339  -0.03066  -0.03628  -0.03368
  64   38236.2    261.5   0.075026062   0.64597   0.06884  -0.68594  -0.41318
  65   38549.0    259.4   0.160770027   1.37299  -0.77326   0.85689  -0.20201
  66   38643.2    258.8   0.000061800   0.00053  -0.00108  -0.02161   0.00765
  67   39140.9    255.5   0.044962323   0.37818   0.32879  -0.50449  -0.12473
  68   39226.4    254.9   0.086404660   0.72516   0.42243  -0.72946  -0.12086
  69   39482.8    253.3   0.023140877   0.19295   0.19960  -0.38220  -0.08389
  70   39622.7    252.4   0.060500493   0.50268  -0.41487  -0.24013  -0.52240
  71   39766.1    251.5   0.060002897   0.49675   0.48959  -0.50688   0.01099
  72   39822.9    251.1   0.008261056   0.06829  -0.20599  -0.12160  -0.10524
  73   40290.6    248.2   0.033397896   0.27289  -0.19638  -0.32426  -0.35942

FINAL SINGLE POINT ENERGY     -7612.530648753434

DIPOLE MOMENT
-------------
                                X             Y             Z
Electronic contribution:    -84.90356    -126.78111    -155.54693
Nuclear contribution   :     84.57507     136.86400     158.96970
                        -----------------------------------------
Total Dipole Moment    :     -0.32849      10.08289       3.42277
                        -----------------------------------------
Magnitude (a.u.)       :     10.65307
Magnitude (Debye)      :     27.07795

Rotational constants in cm-1:     0.001113     0.000232     0.000196
Rotational constants in MHz :    33.374186     6.940754     5.875635

                             ****ORCA TERMINATED NORMALLY****
TOTAL RUN TIME: 0 days 0 hours 14 minutes 31 seconds 921 msec
