                         Program Version 4.2.0 -  RELEASE  -
|  1> # ORCA input file
|  2> # SCF done       -210.572643635398          0.000779443147
|  3> ! CAM-B3LYP def2-SVP def2/J RIJCOSX Grid4 TightSCF
|  4> %maxcore 5000
|  5> %tddft
|  6>     Mode sTDDFT
|  7>     Ethresh 5.0
|  8>     maxcore 5000
|  9> end
| 10>
| 11> %pal
| 12>   nprocs 6
| 13>   end
| 14> * xyz 0 1
| 15>    C       -2.09645         4.14961        -1.37156
| 16>    C       -1.07681         3.49202        -0.73128
| 17>    C        0.29001         3.67019        -1.03123
| 18>    N        1.41617         3.76907        -1.23000
| 19>    C       -1.24231         2.55396         0.30822
| 20>    N       -1.30890         1.78519         1.15921
| 21>    C       -1.93301         5.12521        -2.44641
| 22>    C       -3.21493         5.58502        -2.84357
| 23>    C       -3.39927         6.51393        -3.83859
| 24>    C       -2.25990         7.01630        -4.47619
| 25>    C       -0.98338         6.55323        -4.07530
| 26>    C       -0.79942         5.61281        -3.06756
| 27>    S        0.28485         7.30393        -4.99299
| 28>    C       -0.89853         8.21765        -5.89088
| 29>    C       -2.17945         7.97383        -5.52324
| 30>   Br       -0.33114         9.40438        -7.22635
| 31>    C       -4.23205         4.91141        -2.02742
| 32>    O       -5.44440         5.06850        -2.09604
| 33>    C       -3.51728         4.02034        -1.12141
| 34>    C       -4.12721         3.19843        -0.20081
| 35>    C       -5.48271         3.03134         0.07293
| 36>    S       -6.83422         3.86067        -0.69726
| 37>    C       -7.98924         2.99786         0.28291
| 38>    C       -7.36402         2.11859         1.14877
| 39>    C       -5.95720         2.13305         1.05174
| 40>    C       -5.36356         1.25816         1.99030
| 41>    C       -6.29849         0.62433         2.76004
| 42>    C       -6.05868        -0.31555         3.85869
| 43>    O       -4.98126        -0.73031         4.19394
| 44>    O       -7.22002        -0.64959         4.45263
| 45>    C       -7.12326        -1.55778         5.54128
| 46>    S       -7.94675         1.03986         2.37606
| 47>    N       -9.33642         3.15517         0.24669
| 48>    C      -10.08883         4.05727        -0.42407
| 49>    S       -9.43570         5.09308        -1.64272
| 50>    C      -11.04222         5.68631        -1.96254
| 51>    N      -11.16989         6.67268        -2.95246
| 52>    O      -12.28070         7.10106        -3.18936
| 53>    O      -10.13900         7.02179        -3.49991
| 54>    C      -12.00985         5.11022        -1.18895
| 55>    C      -11.48517         4.18021        -0.26732
| 56>    C      -12.30006         3.46052         0.66521
| 57>    C      -11.86945         2.90638         1.82664
| 58>    C      -12.59304         2.05346         2.70901
| 59>    C      -13.95173         1.66786         2.60202
| 60>    C      -14.57735         0.84084         3.60774
| 61>    N      -15.84953         0.44813         3.43931
| 62>    C      -16.54684         0.90547         2.43075
| 63>    C      -15.94986         1.79093         1.47820
| 64>    N      -14.67953         2.10224         1.56505
| 65>    C      -16.71157         2.29312         0.39387
| 66>    N      -17.34703         2.68282        -0.47529
| 67>    C      -17.89719         0.48918         2.31572
| 68>    N      -18.99643         0.17359         2.25979
| 69>    C      -13.89204         0.38677         4.75841
| 70>    C      -12.51736         0.68044         4.80579
| 71>    C      -11.89279         1.51485         3.81166
| 72>    N      -10.59364         1.69839         4.06923
| 73>    S      -10.20913         0.90772         5.40780
| 74>    N      -11.64978         0.29526         5.74493
| 75>    C      -14.52268        -0.36926         5.79176
| 76>    C      -15.82929        -0.35324         6.15227
| 77>    C      -16.91501         0.55093         5.82004
| 78>    C      -16.81715         1.90265         5.61530
| 79>    C      -17.92476         2.74458         5.38794
| 80>    N      -18.78686         3.47092         5.17407
| 81>    C      -15.59319         2.59741         5.59193
| 82>    N      -14.61370         3.19506         5.53809
| 83>    C      -18.15313        -0.19521         5.98192
| 84>    C      -17.86701        -1.41607         6.64773
| 85>    C      -16.41481        -1.51208         6.89178
| 86>    O      -15.81083        -2.36459         7.49613
| 87>    C      -18.84476        -2.33346         6.94855
| 88>    C      -20.15644        -2.04074         6.55939
| 89>    C      -20.42603        -0.82637         5.87967
| 90>    C      -19.44206         0.10959         5.58924
| 91>    S      -22.10460        -0.68023         5.46977
| 92>    C      -22.42367        -2.22491         6.21198
| 93>    C      -21.32808        -2.82417         6.73854
| 94>   Br      -24.16894        -2.90530         6.22090
| 95>    H       -4.38867         6.84230        -4.11569
| 96>    H        0.19414         5.29392        -2.80065
| 97>    H       -3.03344         8.44868        -5.97062
| 98>    H       -3.48678         2.57535         0.40937
| 99>    H       -4.30852         1.09573         2.11945
|100>    H       -8.14130        -1.84185         5.79484
|101>    H       -6.63681        -1.07556         6.39144
|102>    H       -6.53793        -2.43250         5.25203
|103>    H       -9.86120         2.50612         0.82935
|104>    H      -13.05083         5.36891        -1.26391
|105>    H      -13.34508         3.37326         0.40381
|106>    H      -10.87726         3.11795         2.20565
|107>    H      -13.88645        -1.07900         6.30965
|108>    H      -18.60616        -3.25201         7.46134
|109>    H      -19.68831         1.01346         5.05697
|110>    H      -21.34456        -3.77942         7.23064
|111> *
|112>
|113>                          ****END OF INPUT****

CARTESIAN COORDINATES (ANGSTROEM)
---------------------------------
  C     -2.096450    4.149610   -1.371560
  C     -1.076810    3.492020   -0.731280
  C      0.290010    3.670190   -1.031230
  N      1.416170    3.769070   -1.230000
  C     -1.242310    2.553960    0.308220
  N     -1.308900    1.785190    1.159210
  C     -1.933010    5.125210   -2.446410
  C     -3.214930    5.585020   -2.843570
  C     -3.399270    6.513930   -3.838590
  C     -2.259900    7.016300   -4.476190
  C     -0.983380    6.553230   -4.075300
  C     -0.799420    5.612810   -3.067560
  S      0.284850    7.303930   -4.992990
  C     -0.898530    8.217650   -5.890880
  C     -2.179450    7.973830   -5.523240
  Br    -0.331140    9.404380   -7.226350
  C     -4.232050    4.911410   -2.027420
  O     -5.444400    5.068500   -2.096040
  C     -3.517280    4.020340   -1.121410
  C     -4.127210    3.198430   -0.200810
  C     -5.482710    3.031340    0.072930
  S     -6.834220    3.860670   -0.697260
  C     -7.989240    2.997860    0.282910
  C     -7.364020    2.118590    1.148770
  C     -5.957200    2.133050    1.051740
  C     -5.363560    1.258160    1.990300
  C     -6.298490    0.624330    2.760040
  C     -6.058680   -0.315550    3.858690
  O     -4.981260   -0.730310    4.193940
  O     -7.220020   -0.649590    4.452630
  C     -7.123260   -1.557780    5.541280
  S     -7.946750    1.039860    2.376060
  N     -9.336420    3.155170    0.246690
  C    -10.088830    4.057270   -0.424070
  S     -9.435700    5.093080   -1.642720
  C    -11.042220    5.686310   -1.962540
  N    -11.169890    6.672680   -2.952460
  O    -12.280700    7.101060   -3.189360
  O    -10.139000    7.021790   -3.499910
  C    -12.009850    5.110220   -1.188950
  C    -11.485170    4.180210   -0.267320
  C    -12.300060    3.460520    0.665210
  C    -11.869450    2.906380    1.826640
  C    -12.593040    2.053460    2.709010
  C    -13.951730    1.667860    2.602020
  C    -14.577350    0.840840    3.607740
  N    -15.849530    0.448130    3.439310
  C    -16.546840    0.905470    2.430750
  C    -15.949860    1.790930    1.478200
  N    -14.679530    2.102240    1.565050
  C    -16.711570    2.293120    0.393870
  N    -17.347030    2.682820   -0.475290
  C    -17.897190    0.489180    2.315720
  N    -18.996430    0.173590    2.259790
  C    -13.892040    0.386770    4.758410
  C    -12.517360    0.680440    4.805790
  C    -11.892790    1.514850    3.811660
  N    -10.593640    1.698390    4.069230
  S    -10.209130    0.907720    5.407800
  N    -11.649780    0.295260    5.744930
  C    -14.522680   -0.369260    5.791760
  C    -15.829290   -0.353240    6.152270
  C    -16.915010    0.550930    5.820040
  C    -16.817150    1.902650    5.615300
  C    -17.924760    2.744580    5.387940
  N    -18.786860    3.470920    5.174070
  C    -15.593190    2.597410    5.591930
  N    -14.613700    3.195060    5.538090
  C    -18.153130   -0.195210    5.981920
  C    -17.867010   -1.416070    6.647730
  C    -16.414810   -1.512080    6.891780
  O    -15.810830   -2.364590    7.496130
  C    -18.844760   -2.333460    6.948550
  C    -20.156440   -2.040740    6.559390
  C    -20.426030   -0.826370    5.879670
  C    -19.442060    0.109590    5.589240
  S    -22.104600   -0.680230    5.469770
  C    -22.423670   -2.224910    6.211980
  C    -21.328080   -2.824170    6.738540
  Br   -24.168940   -2.905300    6.220900
  H     -4.388670    6.842300   -4.115690
  H      0.194140    5.293920   -2.800650
  H     -3.033440    8.448680   -5.970620
  H     -3.486780    2.575350    0.409370
  H     -4.308520    1.095730    2.119450
  H     -8.141300   -1.841850    5.794840
  H     -6.636810   -1.075560    6.391440
  H     -6.537930   -2.432500    5.252030
  H     -9.861200    2.506120    0.829350
  H    -13.050830    5.368910   -1.263910
  H    -13.345080    3.373260    0.403810
  H    -10.877260    3.117950    2.205650
  H    -13.886450   -1.079000    6.309650
  H    -18.606160   -3.252010    7.461340
  H    -19.688310    1.013460    5.056970
  H    -21.344560   -3.779420    7.230640

 Total Charge           Charge          ....    0
 Multiplicity           Mult            ....    1
 Number of Electrons    NEL             ....  638
 Basis Dimension        Dim             .... 1260

ORBITAL ENERGIES
----------------

  NO   OCC          E(Eh)            E(eV)
   0   2.0000    -482.888225    -13140.0566
   1   2.0000    -482.886293    -13140.0041
   2   2.0000     -89.064274     -2423.5621
   3   2.0000     -89.004173     -2421.9267
   4   2.0000     -88.996592     -2421.7204
   5   2.0000     -88.984523     -2421.3920
   6   2.0000     -88.979094     -2421.2442
   7   2.0000     -88.977358     -2421.1970
   8   2.0000     -62.565980     -1702.5069
   9   2.0000     -62.564019     -1702.4535
  10   2.0000     -56.399934     -1534.7202
  11   2.0000     -56.397973     -1534.6669
  12   2.0000     -56.397207     -1534.6460
  13   2.0000     -56.397177     -1534.6452
  14   2.0000     -56.395248     -1534.5927
  15   2.0000     -56.395218     -1534.5919
  16   2.0000     -19.285441      -524.7835
  17   2.0000     -19.245976      -523.7096
  18   2.0000     -19.245935      -523.7085
  19   2.0000     -19.229039      -523.2488
  20   2.0000     -19.226052      -523.1675
  21   2.0000     -19.224806      -523.1336
  22   2.0000     -14.658101      -398.8672
  23   2.0000     -14.517712      -395.0470
  24   2.0000     -14.480199      -394.0263
  25   2.0000     -14.478812      -393.9885
  26   2.0000     -14.472949      -393.8290
  27   2.0000     -14.468415      -393.7056
  28   2.0000     -14.448063      -393.1518
  29   2.0000     -14.442980      -393.0135
  30   2.0000     -14.430207      -392.6659
  31   2.0000     -14.423695      -392.4887
  32   2.0000     -14.420399      -392.3990
  33   2.0000     -14.414815      -392.2470
  34   2.0000     -10.426008      -283.7061
  35   2.0000     -10.400419      -283.0098
  36   2.0000     -10.397578      -282.9325
  37   2.0000     -10.393737      -282.8280
  38   2.0000     -10.380761      -282.4749
  39   2.0000     -10.376172      -282.3500
  40   2.0000     -10.374235      -282.2973
  41   2.0000     -10.367791      -282.1219
  42   2.0000     -10.366078      -282.0753
  43   2.0000     -10.362616      -281.9811
  44   2.0000     -10.359976      -281.9093
  45   2.0000     -10.359663      -281.9008
  46   2.0000     -10.359163      -281.8872
  47   2.0000     -10.354633      -281.7639
  48   2.0000     -10.353543      -281.7342
  49   2.0000     -10.350364      -281.6477
  50   2.0000     -10.343743      -281.4675
  51   2.0000     -10.343735      -281.4673
  52   2.0000     -10.342406      -281.4312
  53   2.0000     -10.341995      -281.4200
  54   2.0000     -10.341215      -281.3988
  55   2.0000     -10.336228      -281.2631
  56   2.0000     -10.336021      -281.2574
  57   2.0000     -10.332327      -281.1569
  58   2.0000     -10.331168      -281.1254
  59   2.0000     -10.330482      -281.1067
  60   2.0000     -10.329328      -281.0753
  61   2.0000     -10.328880      -281.0631
  62   2.0000     -10.327261      -281.0191
  63   2.0000     -10.327211      -281.0177
  64   2.0000     -10.326188      -280.9899
  65   2.0000     -10.324920      -280.9554
  66   2.0000     -10.324039      -280.9314
  67   2.0000     -10.323659      -280.9211
  68   2.0000     -10.322967      -280.9022
  69   2.0000     -10.321068      -280.8505
  70   2.0000     -10.319152      -280.7984
  71   2.0000     -10.318220      -280.7730
  72   2.0000     -10.314929      -280.6835
  73   2.0000     -10.313688      -280.6497
  74   2.0000     -10.313115      -280.6341
  75   2.0000     -10.312300      -280.6120
  76   2.0000     -10.311955      -280.6026
  77   2.0000     -10.311397      -280.5874
  78   2.0000     -10.310214      -280.5552
  79   2.0000     -10.309009      -280.5224
  80   2.0000     -10.307382      -280.4781
  81   2.0000     -10.307268      -280.4750
  82   2.0000     -10.304048      -280.3874
  83   2.0000     -10.300714      -280.2967
  84   2.0000     -10.300099      -280.2800
  85   2.0000     -10.297782      -280.2169
  86   2.0000     -10.297635      -280.2129
  87   2.0000     -10.295342      -280.1505
  88   2.0000      -8.795444      -239.3362
  89   2.0000      -8.793464      -239.2823
  90   2.0000      -8.155137      -221.9126
  91   2.0000      -8.099079      -220.3872
  92   2.0000      -8.088021      -220.0863
  93   2.0000      -8.079558      -219.8560
  94   2.0000      -8.075094      -219.7345
  95   2.0000      -8.073268      -219.6848
  96   2.0000      -6.631786      -180.4601
  97   2.0000      -6.629803      -180.4061
  98   2.0000      -6.617173      -180.0624
  99   2.0000      -6.616942      -180.0561
 100   2.0000      -6.615191      -180.0085
 101   2.0000      -6.614968      -180.0024
 102   2.0000      -6.126062      -166.6986
 103   2.0000      -6.118294      -166.4873
 104   2.0000      -6.118253      -166.4861
 105   2.0000      -6.068783      -165.1400
 106   2.0000      -6.064179      -165.0147
 107   2.0000      -6.060608      -164.9175
 108   2.0000      -6.058192      -164.8518
 109   2.0000      -6.052844      -164.7063
 110   2.0000      -6.049748      -164.6220
 111   2.0000      -6.049233      -164.6080
 112   2.0000      -6.044968      -164.4919
 113   2.0000      -6.044771      -164.4866
 114   2.0000      -6.042964      -164.4374
 115   2.0000      -6.040927      -164.3820
 116   2.0000      -6.040462      -164.3693
 117   2.0000      -6.038637      -164.3197
 118   2.0000      -6.036344      -164.2573
 119   2.0000      -6.034550      -164.2085
 120   2.0000      -2.747606       -74.7662
 121   2.0000      -2.745620       -74.7121
 122   2.0000      -2.743589       -74.6568
 123   2.0000      -2.743398       -74.6517
 124   2.0000      -2.741555       -74.6015
 125   2.0000      -2.741461       -74.5989
 126   2.0000      -2.731790       -74.3358
 127   2.0000      -2.731758       -74.3349
 128   2.0000      -2.729810       -74.2819
 129   2.0000      -2.729783       -74.2812
 130   2.0000      -1.328424       -36.1482
 131   2.0000      -1.214257       -33.0416
 132   2.0000      -1.160173       -31.5699
 133   2.0000      -1.147892       -31.2357
 134   2.0000      -1.143872       -31.1263
 135   2.0000      -1.140673       -31.0393
 136   2.0000      -1.139323       -31.0025
 137   2.0000      -1.125881       -30.6368
 138   2.0000      -1.120707       -30.4960
 139   2.0000      -1.066630       -29.0245
 140   2.0000      -1.036595       -28.2072
 141   2.0000      -1.032326       -28.0910
 142   2.0000      -1.029301       -28.0087
 143   2.0000      -1.025075       -27.8937
 144   2.0000      -1.021534       -27.7973
 145   2.0000      -1.019970       -27.7548
 146   2.0000      -1.017065       -27.6758
 147   2.0000      -1.015481       -27.6327
 148   2.0000      -1.013885       -27.5892
 149   2.0000      -1.006081       -27.3769
 150   2.0000      -0.999876       -27.2080
 151   2.0000      -0.996916       -27.1275
 152   2.0000      -0.994789       -27.0696
 153   2.0000      -0.992399       -27.0045
 154   2.0000      -0.974222       -26.5099
 155   2.0000      -0.950801       -25.8726
 156   2.0000      -0.945570       -25.7303
 157   2.0000      -0.942144       -25.6370
 158   2.0000      -0.925874       -25.1943
 159   2.0000      -0.924013       -25.1437
 160   2.0000      -0.915701       -24.9175
 161   2.0000      -0.912511       -24.8307
 162   2.0000      -0.910709       -24.7817
 163   2.0000      -0.899488       -24.4763
 164   2.0000      -0.892016       -24.2730
 165   2.0000      -0.890915       -24.2430
 166   2.0000      -0.887821       -24.1588
 167   2.0000      -0.880986       -23.9728
 168   2.0000      -0.874809       -23.8047
 169   2.0000      -0.868716       -23.6390
 170   2.0000      -0.856555       -23.3080
 171   2.0000      -0.847734       -23.0680
 172   2.0000      -0.844193       -22.9717
 173   2.0000      -0.834703       -22.7134
 174   2.0000      -0.831906       -22.6373
 175   2.0000      -0.827282       -22.5115
 176   2.0000      -0.824946       -22.4479
 177   2.0000      -0.818471       -22.2717
 178   2.0000      -0.797564       -21.7028
 179   2.0000      -0.788262       -21.4497
 180   2.0000      -0.772343       -21.0165
 181   2.0000      -0.765134       -20.8204
 182   2.0000      -0.757919       -20.6240
 183   2.0000      -0.753897       -20.5146
 184   2.0000      -0.744560       -20.2605
 185   2.0000      -0.741920       -20.1887
 186   2.0000      -0.727516       -19.7967
 187   2.0000      -0.721082       -19.6216
 188   2.0000      -0.718951       -19.5637
 189   2.0000      -0.714411       -19.4401
 190   2.0000      -0.709875       -19.3167
 191   2.0000      -0.699740       -19.0409
 192   2.0000      -0.696166       -18.9436
 193   2.0000      -0.694917       -18.9096
 194   2.0000      -0.689792       -18.7702
 195   2.0000      -0.675825       -18.3901
 196   2.0000      -0.671143       -18.2627
 197   2.0000      -0.669559       -18.2196
 198   2.0000      -0.661981       -18.0134
 199   2.0000      -0.658556       -17.9202
 200   2.0000      -0.655951       -17.8493
 201   2.0000      -0.647031       -17.6066
 202   2.0000      -0.643961       -17.5231
 203   2.0000      -0.642844       -17.4927
 204   2.0000      -0.639728       -17.4079
 205   2.0000      -0.637849       -17.3567
 206   2.0000      -0.631852       -17.1936
 207   2.0000      -0.630248       -17.1499
 208   2.0000      -0.629915       -17.1409
 209   2.0000      -0.620091       -16.8735
 210   2.0000      -0.608684       -16.5631
 211   2.0000      -0.605385       -16.4734
 212   2.0000      -0.604019       -16.4362
 213   2.0000      -0.600595       -16.3430
 214   2.0000      -0.599138       -16.3034
 215   2.0000      -0.596531       -16.2324
 216   2.0000      -0.594297       -16.1716
 217   2.0000      -0.592822       -16.1315
 218   2.0000      -0.591545       -16.0967
 219   2.0000      -0.582047       -15.8383
 220   2.0000      -0.580986       -15.8094
 221   2.0000      -0.576728       -15.6936
 222   2.0000      -0.575676       -15.6650
 223   2.0000      -0.571643       -15.5552
 224   2.0000      -0.566514       -15.4156
 225   2.0000      -0.557736       -15.1768
 226   2.0000      -0.555664       -15.1204
 227   2.0000      -0.552013       -15.0210
 228   2.0000      -0.547409       -14.8958
 229   2.0000      -0.546538       -14.8721
 230   2.0000      -0.544496       -14.8165
 231   2.0000      -0.544348       -14.8125
 232   2.0000      -0.538624       -14.6567
 233   2.0000      -0.533217       -14.5096
 234   2.0000      -0.531869       -14.4729
 235   2.0000      -0.528831       -14.3902
 236   2.0000      -0.526302       -14.3214
 237   2.0000      -0.525560       -14.3012
 238   2.0000      -0.524172       -14.2634
 239   2.0000      -0.519996       -14.1498
 240   2.0000      -0.519081       -14.1249
 241   2.0000      -0.517693       -14.0871
 242   2.0000      -0.512780       -13.9535
 243   2.0000      -0.511274       -13.9125
 244   2.0000      -0.508551       -13.8384
 245   2.0000      -0.507553       -13.8112
 246   2.0000      -0.504037       -13.7155
 247   2.0000      -0.501966       -13.6592
 248   2.0000      -0.500285       -13.6134
 249   2.0000      -0.499032       -13.5793
 250   2.0000      -0.498040       -13.5524
 251   2.0000      -0.497322       -13.5328
 252   2.0000      -0.494132       -13.4460
 253   2.0000      -0.491838       -13.3836
 254   2.0000      -0.488515       -13.2932
 255   2.0000      -0.478967       -13.0334
 256   2.0000      -0.476804       -12.9745
 257   2.0000      -0.475695       -12.9443
 258   2.0000      -0.472846       -12.8668
 259   2.0000      -0.472550       -12.8587
 260   2.0000      -0.467501       -12.7213
 261   2.0000      -0.467203       -12.7132
 262   2.0000      -0.465934       -12.6787
 263   2.0000      -0.463950       -12.6247
 264   2.0000      -0.463073       -12.6009
 265   2.0000      -0.461337       -12.5536
 266   2.0000      -0.459553       -12.5051
 267   2.0000      -0.454898       -12.3784
 268   2.0000      -0.453957       -12.3528
 269   2.0000      -0.452662       -12.3176
 270   2.0000      -0.452397       -12.3103
 271   2.0000      -0.449754       -12.2384
 272   2.0000      -0.448122       -12.1940
 273   2.0000      -0.447080       -12.1657
 274   2.0000      -0.445050       -12.1104
 275   2.0000      -0.442551       -12.0424
 276   2.0000      -0.441546       -12.0151
 277   2.0000      -0.440923       -11.9981
 278   2.0000      -0.438682       -11.9372
 279   2.0000      -0.436223       -11.8702
 280   2.0000      -0.433574       -11.7982
 281   2.0000      -0.432690       -11.7741
 282   2.0000      -0.430476       -11.7138
 283   2.0000      -0.429691       -11.6925
 284   2.0000      -0.428008       -11.6467
 285   2.0000      -0.420931       -11.4541
 286   2.0000      -0.418355       -11.3840
 287   2.0000      -0.416976       -11.3465
 288   2.0000      -0.411597       -11.2001
 289   2.0000      -0.409940       -11.1550
 290   2.0000      -0.406888       -11.0720
 291   2.0000      -0.402009       -10.9392
 292   2.0000      -0.399573       -10.8729
 293   2.0000      -0.392804       -10.6888
 294   2.0000      -0.392553       -10.6819
 295   2.0000      -0.392148       -10.6709
 296   2.0000      -0.388793       -10.5796
 297   2.0000      -0.386052       -10.5050
 298   2.0000      -0.380725       -10.3601
 299   2.0000      -0.378004       -10.2860
 300   2.0000      -0.377569       -10.2742
 301   2.0000      -0.375701       -10.2234
 302   2.0000      -0.375374       -10.2144
 303   2.0000      -0.374285       -10.1848
 304   2.0000      -0.369116       -10.0441
 305   2.0000      -0.363465        -9.8904
 306   2.0000      -0.357150        -9.7185
 307   2.0000      -0.352025        -9.5791
 308   2.0000      -0.343309        -9.3419
 309   2.0000      -0.341196        -9.2844
 310   2.0000      -0.339779        -9.2459
 311   2.0000      -0.335380        -9.1262
 312   2.0000      -0.321862        -8.7583
 313   2.0000      -0.319374        -8.6906
 314   2.0000      -0.318048        -8.6545
 315   2.0000      -0.298510        -8.1229
 316   2.0000      -0.295975        -8.0539
 317   2.0000      -0.286488        -7.7957
 318   2.0000      -0.259270        -7.0551
 319   0.0000      -0.144497        -3.9320
 320   0.0000      -0.103404        -2.8138
 321   0.0000      -0.089445        -2.4339
 322   0.0000      -0.071353        -1.9416
 323   0.0000      -0.069423        -1.8891

MULLIKEN ATOMIC CHARGES
-----------------------
   0 C :    0.326920
   1 C :   -0.354453
   2 C :   -0.188750
   3 N :    0.150925
   4 C :   -0.190869
   5 N :    0.143810
   6 C :    0.010275
   7 C :   -0.012935
   8 C :   -0.065506
   9 C :    0.114841
  10 C :   -0.092245
  11 C :   -0.019386
  12 S :    0.188393
  13 C :   -0.124807
  14 C :    0.040377
  15 Br:    0.025741
  16 C :    0.178556
  17 O :   -0.212229
  18 C :   -0.105757
  19 C :   -0.034970
  20 C :   -0.070212
  21 S :    0.186801
  22 C :   -0.110143
  23 C :   -0.016400
  24 C :    0.112091
  25 C :   -0.001761
  26 C :   -0.126474
  27 C :    0.213573
  28 O :   -0.171929
  29 O :   -0.327456
  30 C :    0.181418
  31 S :    0.164071
  32 N :   -0.001795
  33 C :   -0.093583
  34 S :    0.193076
  35 C :   -0.000146
  36 N :    0.275772
  37 O :   -0.240179
  38 O :   -0.260792
  39 C :    0.027644
  40 C :    0.101628
  41 C :    0.036682
  42 C :   -0.154974
  43 C :    0.120826
  44 C :   -0.015429
  45 C :   -0.080620
  46 N :    0.029961
  47 C :   -0.126845
  48 C :   -0.095209
  49 N :    0.045450
  50 C :   -0.236924
  51 N :    0.250701
  52 C :   -0.201541
  53 N :    0.247067
  54 C :    0.069304
  55 C :    0.030931
  56 C :    0.005791
  57 N :   -0.287754
  58 S :    0.568772
  59 N :   -0.266405
  60 C :   -0.021582
  61 C :   -0.092949
  62 C :    0.295462
  63 C :   -0.350625
  64 C :   -0.196404
  65 N :    0.170739
  66 C :   -0.180006
  67 N :    0.152083
  68 C :   -0.002870
  69 C :    0.014843
  70 C :    0.128433
  71 O :   -0.133420
  72 C :   -0.077281
  73 C :    0.113045
  74 C :   -0.089747
  75 C :   -0.003179
  76 S :    0.202505
  77 C :   -0.126076
  78 C :    0.044271
  79 Br:    0.028788
  80 H :   -0.007027
  81 H :   -0.006177
  82 H :   -0.001679
  83 H :   -0.003651
  84 H :    0.037026
  85 H :    0.033594
  86 H :    0.040443
  87 H :    0.046820
  88 H :    0.147373
  89 H :    0.022689
  90 H :    0.030526
  91 H :    0.008539
  92 H :    0.032058
  93 H :   -0.007797
  94 H :    0.001686
  95 H :   -0.003374
Sum of atomic charges:   -0.0000000

LOEWDIN ATOMIC CHARGES
----------------------
   0 C :    0.077937
   1 C :   -0.148588
   2 C :   -0.019483
   3 N :   -0.055642
   4 C :   -0.017376
   5 N :   -0.060008
   6 C :   -0.019373
   7 C :   -0.051214
   8 C :    0.024103
   9 C :   -0.033619
  10 C :   -0.144463
  11 C :   -0.008715
  12 S :    0.435538
  13 C :   -0.271907
  14 C :   -0.069148
  15 Br:    0.138632
  16 C :    0.090454
  17 O :   -0.185053
  18 C :   -0.121209
  19 C :    0.052407
  20 C :   -0.192988
  21 S :    0.508798
  22 C :   -0.140496
  23 C :   -0.229543
  24 C :   -0.037662
  25 C :   -0.004652
  26 C :   -0.188209
  27 C :    0.068442
  28 O :   -0.151917
  29 O :   -0.112378
  30 C :    0.081767
  31 S :    0.428384
  32 N :    0.052215
  33 C :   -0.094040
  34 S :    0.485595
  35 C :   -0.208625
  36 N :    0.272700
  37 O :   -0.206832
  38 O :   -0.227050
  39 C :    0.011711
  40 C :   -0.106765
  41 C :    0.038844
  42 C :   -0.061266
  43 C :    0.013349
  44 C :   -0.006935
  45 C :    0.007284
  46 N :    0.010182
  47 C :   -0.020858
  48 C :   -0.027157
  49 N :    0.008030
  50 C :   -0.040786
  51 N :    0.001788
  52 C :   -0.032786
  53 N :   -0.000315
  54 C :   -0.041418
  55 C :   -0.028165
  56 C :   -0.041251
  57 N :   -0.285074
  58 S :    0.705233
  59 N :   -0.282802
  60 C :    0.063764
  61 C :   -0.059364
  62 C :    0.081426
  63 C :   -0.152879
  64 C :   -0.027139
  65 N :   -0.045537
  66 C :   -0.014348
  67 N :   -0.059988
  68 C :   -0.020010
  69 C :   -0.051019
  70 C :    0.085450
  71 O :   -0.133784
  72 C :    0.022916
  73 C :   -0.029197
  74 C :   -0.139617
  75 C :   -0.000154
  76 S :    0.445704
  77 C :   -0.269389
  78 C :   -0.070668
  79 Br:    0.141688
  80 H :    0.042386
  81 H :    0.041341
  82 H :    0.039646
  83 H :    0.050261
  84 H :    0.050876
  85 H :    0.023205
  86 H :    0.026947
  87 H :    0.028945
  88 H :    0.096146
  89 H :    0.052070
  90 H :    0.038406
  91 H :    0.029015
  92 H :    0.052355
  93 H :    0.042002
  94 H :    0.041801
  95 H :    0.039119

  Mayer bond orders larger than 0.100000
B(  0-C ,  1-C ) :   1.6119 B(  0-C ,  6-C ) :   0.9988 B(  0-C , 18-C ) :   1.0908
B(  1-C ,  2-C ) :   1.1466 B(  1-C ,  4-C ) :   1.1493 B(  2-C ,  3-N ) :   2.9680
B(  4-C ,  5-N ) :   2.9692 B(  6-C ,  7-C ) :   1.2715 B(  6-C , 11-C ) :   1.4202
B(  7-C ,  8-C ) :   1.4250 B(  7-C , 16-C ) :   0.9702 B(  8-C ,  9-C ) :   1.2398
B(  8-C , 80-H ) :   1.0182 B(  9-C , 10-C ) :   1.3076 B(  9-C , 14-C ) :   1.1647
B( 10-C , 11-C ) :   1.3222 B( 10-C , 12-S ) :   1.0893 B( 11-C , 81-H ) :   0.9804
B( 12-S , 13-C ) :   1.0881 B( 13-C , 14-C ) :   1.6149 B( 13-C , 15-Br) :   1.0193
B( 14-C , 82-H ) :   1.0010 B( 16-C , 17-O ) :   2.0408 B( 16-C , 18-C ) :   1.0148
B( 17-O , 21-S ) :   0.1238 B( 18-C , 19-C ) :   1.4475 B( 19-C , 20-C ) :   1.3551
B( 19-C , 83-H ) :   0.9364 B( 20-C , 21-S ) :   1.0438 B( 20-C , 24-C ) :   1.2567
B( 21-S , 22-C ) :   1.1227 B( 22-C , 23-C ) :   1.3632 B( 22-C , 32-N ) :   1.1987
B( 23-C , 24-C ) :   1.3356 B( 23-C , 31-S ) :   1.0295 B( 24-C , 25-C ) :   1.1762
B( 25-C , 26-C ) :   1.6012 B( 25-C , 84-H ) :   0.9973 B( 26-C , 27-C ) :   0.9479
B( 26-C , 31-S ) :   1.0908 B( 27-C , 28-O ) :   2.1685 B( 27-C , 29-O ) :   1.2065
B( 29-O , 30-C ) :   0.9139 B( 30-C , 85-H ) :   0.9800 B( 30-C , 86-H ) :   0.9797
B( 30-C , 87-H ) :   0.9741 B( 32-N , 33-C ) :   1.2213 B( 32-N , 88-H ) :   0.8843
B( 33-C , 34-S ) :   1.1612 B( 33-C , 40-C ) :   1.3242 B( 34-S , 35-C ) :   1.0657
B( 35-C , 36-N ) :   0.9668 B( 35-C , 39-C ) :   1.4982 B( 36-N , 37-O ) :   1.5436
B( 36-N , 38-O ) :   1.5125 B( 37-O , 38-O ) :   0.2613 B( 39-C , 40-C ) :   1.2216
B( 39-C , 89-H ) :   1.0069 B( 40-C , 41-C ) :   1.0981 B( 41-C , 42-C ) :   1.5682
B( 41-C , 90-H ) :   0.9509 B( 42-C , 43-C ) :   1.2343 B( 42-C , 91-H ) :   0.9413
B( 43-C , 44-C ) :   1.2147 B( 43-C , 54-C ) :   0.1318 B( 43-C , 56-C ) :   1.1930
B( 44-C , 45-C ) :   1.1122 B( 44-C , 49-N ) :   1.4447 B( 45-C , 46-N ) :   1.4368
B( 45-C , 54-C ) :   1.2604 B( 46-N , 47-C ) :   1.6935 B( 47-C , 48-C ) :   1.2092
B( 47-C , 52-C ) :   1.1806 B( 48-C , 49-N ) :   1.7167 B( 48-C , 50-C ) :   1.1565
B( 50-C , 51-N ) :   3.0441 B( 52-C , 53-N ) :   2.9994 B( 54-C , 55-C ) :   1.2223
B( 54-C , 60-C ) :   1.0977 B( 55-C , 56-C ) :   1.1076 B( 55-C , 59-N ) :   1.5392
B( 56-C , 57-N ) :   1.5061 B( 57-N , 58-S ) :   1.2983 B( 57-N , 59-N ) :   0.1530
B( 58-S , 59-N ) :   1.2877 B( 60-C , 61-C ) :   1.6870 B( 60-C , 92-H ) :   0.9477
B( 61-C , 62-C ) :   1.0111 B( 61-C , 70-C ) :   0.9346 B( 62-C , 63-C ) :   1.6352
B( 62-C , 68-C ) :   1.0360 B( 63-C , 64-C ) :   1.1329 B( 63-C , 66-C ) :   1.1698
B( 64-C , 65-N ) :   2.9979 B( 66-C , 67-N ) :   2.9855 B( 68-C , 69-C ) :   1.2690
B( 68-C , 75-C ) :   1.4068 B( 69-C , 70-C ) :   0.9185 B( 69-C , 72-C ) :   1.4209
B( 70-C , 71-O ) :   2.2804 B( 72-C , 73-C ) :   1.2503 B( 72-C , 93-H ) :   1.0157
B( 73-C , 74-C ) :   1.2986 B( 73-C , 78-C ) :   1.1707 B( 74-C , 75-C ) :   1.3385
B( 74-C , 76-S ) :   1.0904 B( 75-C , 94-H ) :   0.9800 B( 76-S , 77-C ) :   1.0923
B( 77-C , 78-C ) :   1.6117 B( 77-C , 79-Br) :   1.0220 B( 78-C , 95-H ) :   0.9994

-----------------------------------------------------------------------------
         ABSORPTION SPECTRUM VIA TRANSITION ELECTRIC DIPOLE MOMENTS
-----------------------------------------------------------------------------
State   Energy  Wavelength   fosc         T2         TX        TY        TZ
        (cm-1)    (nm)                  (au**2)     (au)      (au)      (au)
-----------------------------------------------------------------------------
   0   10505.6    951.9   0.573521903  17.97231  -3.28313  -1.46241   2.24827
   1   15544.9    643.3   0.056684610   1.20048  -0.17532  -0.62943   0.87952
   2   17967.8    556.6   0.793821507  14.54469   3.57249   0.80795  -1.06264
   3   18205.8    549.3   0.158041265   2.85783  -1.67880   0.18203   0.07952
   4   22610.7    442.3   0.130057525   1.89364   0.99718   0.19318  -0.92842
   5   22670.9    441.1   0.008532240   0.12390   0.16643  -0.22455   0.21395
   6   23394.4    427.5   0.008730353   0.12286   0.27095   0.09713  -0.20001
   7   24258.9    412.2   0.001451135   0.01969   0.03818  -0.10778   0.08135
   8   24665.2    405.4   0.003508130   0.04682   0.17673  -0.11973  -0.03543
   9   25070.8    398.9   0.017137174   0.22503  -0.06480  -0.29644   0.36463
  10   25436.8    393.1   0.019188285   0.24834   0.44500   0.22386  -0.01438
  11   25758.2    388.2   0.008963855   0.11457   0.15529  -0.29800   0.04056
  12   26520.1    377.1   0.044626227   0.55398  -0.11298  -0.51056   0.52966
  13   26682.4    374.8   0.028732425   0.35451   0.27597   0.35410  -0.39110
  14   27718.8    360.8   0.005895052   0.07001   0.14623  -0.21711   0.03868
  15   28010.0    357.0   0.595949356   7.00441   0.45524   1.92292  -1.76055
  16   28426.4    351.8   0.103136001   1.19444  -1.03293  -0.28235   0.21857
  17   28538.0    350.4   0.026235547   0.30265  -0.25865   0.15721  -0.45939
  18   28712.7    348.3   0.147508853   1.69130   1.06340   0.42040   0.61947
  19   28955.8    345.4   0.002727195   0.03101   0.04092  -0.10842  -0.13258
  20   29139.9    343.2   0.057868960   0.65378   0.53598   0.60455  -0.03198
  21   29422.1    339.9   0.107370036   1.20139   0.52816   0.95885  -0.05518
  22   29772.6    335.9   0.253096189   2.79863  -1.60232  -0.48034  -0.02143
  23   30077.7    332.5   0.223518166   2.44649  -0.48925   0.71562  -1.30193
  24   30394.1    329.0   0.004365515   0.04728   0.17654   0.12441  -0.02530
  25   30831.9    324.3   0.098313888   1.04976   0.41763  -0.54517   0.76035
  26   31106.7    321.5   0.017710021   0.18743   0.27672  -0.03545  -0.33106
  27   31231.7    320.2   0.165347557   1.74292   0.39195   0.87831  -0.90436
  28   31667.3    315.8   0.005240248   0.05448  -0.07621   0.12965   0.17850
  29   32072.6    311.8   0.007569480   0.07770  -0.18750   0.19089  -0.07812
  30   32161.4    310.9   0.102125268   1.04538   0.71710   0.59187  -0.42525
  31   32687.2    305.9   0.383781154   3.86528   0.52534   1.41248  -1.26262
  32   32922.9    303.7   0.351814845   3.51797   0.40617  -1.47104   1.09043
  33   33012.4    302.9   0.012255899   0.12222  -0.11952  -0.31710   0.08593
  34   33293.5    300.4   0.455077937   4.49989  -1.91968  -0.24615  -0.86841
  35   33513.4    298.4   0.071801691   0.70533   0.49102  -0.24477   0.63586
  36   33588.5    297.7   0.244206763   2.39355  -1.18470   0.55351  -0.82684
  37   34018.7    294.0   0.077735185   0.75227  -0.01971   0.64536  -0.57914
  38   34116.3    293.1   0.002122656   0.02048  -0.09645   0.08160  -0.06724
  39   34300.5    291.5   0.171234097   1.64348   1.03975   0.74202  -0.10873
  40   34444.6    290.3   0.229411351   2.19265  -0.89379  -1.09441   0.44278
  41   34688.3    288.3   0.088880452   0.84353   0.32154   0.78351  -0.35533
  42   34854.2    286.9   0.053386516   0.50426   0.70561   0.05898  -0.05379
  43   35171.4    284.3   0.019944823   0.18669  -0.16824   0.20989  -0.33813
  44   35679.6    280.3   0.011309290   0.10435   0.26604  -0.06777   0.17023
  45   35794.2    279.4   0.005647945   0.05195  -0.20456   0.09943  -0.01464
  46   36131.3    276.8   0.033875847   0.30866  -0.05018  -0.38310   0.39922
  47   36472.4    274.2   0.218102758   1.96867  -0.42482  -0.82528   1.05219
  48   37007.0    270.2   0.048786365   0.43400  -0.31742   0.08806   0.57051
  49   37187.3    268.9   0.001402031   0.01241   0.10553  -0.03389   0.01124
  50   37496.3    266.7   0.002372124   0.02083   0.07971  -0.01897   0.11880
  51   37621.8    265.8   0.036803139   0.32205   0.02383   0.25533   0.50625
  52   37820.5    264.4   0.046429569   0.40415  -0.63179   0.06411  -0.02964
  53   38136.4    262.2   0.021975117   0.18970   0.41799   0.11764  -0.03388
  54   38178.7    261.9   0.091356246   0.78776  -0.88449   0.02368   0.06981
  55   38749.7    258.1   0.002236198   0.01900   0.11354   0.03297   0.07085
  56   38776.6    257.9   0.047297432   0.40155  -0.45475   0.43635   0.06602
  57   38894.5    257.1   0.011131428   0.09422  -0.22725  -0.17544  -0.10862
  58   39105.7    255.7   0.003119610   0.02626  -0.05956   0.05877   0.13878
  59   39638.0    252.3   0.070319676   0.58404  -0.70788   0.14247  -0.25029
  60   39831.0    251.1   0.304264417   2.51481   1.07372  -0.55804   1.02496
  61   39929.3    250.4   0.291347639   2.40212  -1.14219  -0.60491   0.85534
  62   39956.6    250.3   0.198035279   1.63166   0.93613  -0.68567   0.53402
  63   40157.4    249.0   0.071091312   0.58281  -0.74621  -0.16050   0.01462

FINAL SINGLE POINT ENERGY    -10707.904816878465

DIPOLE MOMENT
-------------
                                X             Y             Z
Electronic contribution:    -42.52240      25.04988     -46.56908
Nuclear contribution   :     42.00294     -26.91748      47.51188
                        -----------------------------------------
Total Dipole Moment    :     -0.51947      -1.86760       0.94280
                        -----------------------------------------
Magnitude (a.u.)       :      2.15561
Magnitude (Debye)      :      5.47912

Rotational constants in cm-1:     0.001460     0.000175     0.000159
Rotational constants in MHz :    43.774716     5.253460     4.775543

                             ****ORCA TERMINATED NORMALLY****
TOTAL RUN TIME: 0 days 0 hours 12 minutes 11 seconds 37 msec
