                         Program Version 4.2.0 -  RELEASE  -
|  1> # ORCA input file
|  2> # SCF done       -202.000015073830          0.000699852676
|  3> ! CAM-B3LYP def2-SVP def2/J RIJCOSX Grid4 TightSCF
|  4> %maxcore 5000
|  5> %tddft
|  6>     Mode sTDDFT
|  7>     Ethresh 5.0
|  8>     maxcore 5000
|  9> end
| 10>
| 11> %pal
| 12>   nprocs 6
| 13>   end
| 14> * xyz 0 1
| 15>    C       -9.86944        -1.72406        -2.38434
| 16>    C      -10.80846        -2.56051        -1.81366
| 17>    C      -11.08899        -3.85341        -2.28517
| 18>    N      -11.38561        -4.90003        -2.65610
| 19>    C      -11.58306        -2.23202        -0.69183
| 20>    N      -12.18666        -2.05462         0.27258
| 21>    C       -8.85630        -2.12026        -3.34964
| 22>    C       -8.05530        -0.99114        -3.65609
| 23>    C       -6.97835        -1.06277        -4.50270
| 24>    C       -6.66668        -2.30913        -5.06120
| 25>    C       -7.47312        -3.43014        -4.74937
| 26>    C       -8.57112        -3.35477        -3.90211
| 27>    S       -6.91135        -4.86833        -5.54439
| 28>    C       -5.61960        -3.95844        -6.27796
| 29>    C       -5.60588        -2.64503        -5.94446
| 30>   Br       -4.40877        -4.82615        -7.41541
| 31>    C       -8.58337         0.19128        -2.93967
| 32>    O       -8.29494         1.34851        -3.13638
| 33>    C       -9.67471        -0.33336        -2.07776
| 34>    C      -10.50553         0.42824        -1.29443
| 35>    C      -10.23111         1.69737        -0.76725
| 36>    N      -11.23715         2.51381        -0.28520
| 37>    C      -12.64913         2.29119        -0.44017
| 38>    C      -10.73588         3.68920         0.27461
| 39>    O      -11.43922         4.59724         0.68248
| 40>    C       -9.30023         3.52821         0.21716
| 41>    C       -9.01917         2.33086        -0.46478
| 42>    C       -7.57232         2.18250        -0.54027
| 43>    O       -6.86109         1.27231        -0.89955
| 44>    N       -7.08181         3.38512        -0.00762
| 45>    C       -5.67114         3.62797         0.12076
| 46>    C       -8.08372         4.17027         0.52439
| 47>    C       -7.82629         5.32828         1.26170
| 48>    C       -8.64307         5.83962         2.25767
| 49>    C       -8.32261         6.94461         3.09374
| 50>    C       -9.12614         7.06153         4.18859
| 51>    C      -10.11281         6.05155         4.25501
| 52>    S      -10.05573         5.02861         2.84828
| 53>    C      -10.95895         5.69011         5.29419
| 54>    C      -10.95609         6.10194         6.64855
| 55>    C      -11.68168         5.27945         7.45772
| 56>    C      -12.26774         4.17875         6.77518
| 57>    S      -12.02189         4.33409         5.06798
| 58>    C      -12.90856         3.09691         7.35017
| 59>    C      -13.17965         1.87483         6.72458
| 60>    N      -14.07226         0.97241         7.26814
| 61>    C      -14.86800         1.17987         8.44651
| 62>    C      -14.18204        -0.20507         6.51378
| 63>    O      -14.92956        -1.11566         6.78801
| 64>    C      -13.25436         0.00202         5.41837
| 65>    C      -12.64493         1.26792         5.56657
| 66>    C      -11.62730         1.36603         4.54270
| 67>    O      -10.78376         2.20360         4.27581
| 68>    N      -11.74575         0.18064         3.79740
| 69>    C      -11.07398         0.08011         2.52914
| 70>    C      -12.66960        -0.67462         4.34821
| 71>    C      -12.94711        -2.00863         3.95444
| 72>    C      -12.11209        -2.91177         3.37567
| 73>    C      -10.67990        -2.88980         3.17853
| 74>    C       -9.75825        -2.32265         4.01968
| 75>    C       -8.36595        -2.42469         3.82253
| 76>    N       -7.22740        -2.46857         3.68472
| 77>    C      -10.10216        -1.66741         5.22062
| 78>    N      -10.32961        -1.17278         6.23103
| 79>    C      -10.38412        -3.80168         2.08278
| 80>    C      -11.52759        -4.60696         1.84649
| 81>    C      -12.63855        -4.13972         2.70463
| 82>    O      -13.74427        -4.60697         2.81395
| 83>    C      -11.53110        -5.61075         0.90809
| 84>    C      -10.37537        -5.79161         0.13988
| 85>    C       -9.27167        -4.92623         0.33335
| 86>    C       -9.24665        -3.94189         1.31326
| 87>    S       -7.99492        -5.25347        -0.79889
| 88>    C       -8.93735        -6.55152        -1.48871
| 89>    C      -10.14623        -6.72727        -0.90729
| 90>   Br       -8.23879        -7.51414        -2.93352
| 91>    H       -6.38436        -0.18883        -4.71794
| 92>    H       -9.16526        -4.23148        -3.70459
| 93>    H       -4.87786        -1.94201        -6.30583
| 94>    H      -11.47295         0.01675        -1.03409
| 95>    H      -12.97267         1.40495         0.11053
| 96>    H      -12.91429         2.17880        -1.49320
| 97>    H      -13.15226         3.16844        -0.03304
| 98>    H       -5.16200         2.76862        -0.31544
| 99>    H       -5.38151         3.72373         1.16945
|100>    H       -5.38141         4.52953        -0.42246
|101>    H       -6.86197         5.80177         1.13460
|102>    H       -7.49168         7.59272         2.87667
|103>    H       -9.02688         7.82270         4.94146
|104>    H      -10.38486         6.94641         6.98944
|105>    H      -11.76158         5.38913         8.52476
|106>    H      -13.19543         3.19367         8.38880
|107>    H      -15.47510         2.08263         8.35614
|108>    H      -14.24153         1.24758         9.33862
|109>    H      -15.52144         0.31207         8.53941
|110>    H      -11.11157         1.06389         2.05656
|111>    H      -11.56373        -0.65908         1.89625
|112>    H      -10.01931        -0.18060         2.64971
|113>    H      -13.96152        -2.34378         4.14464
|114>    H      -12.40303        -6.22613         0.75340
|115>    H       -8.38179        -3.30996         1.43647
|116>    H      -10.85967        -7.46798        -1.21729
|117> *
|118>
|119>                          ****END OF INPUT****

CARTESIAN COORDINATES (ANGSTROEM)
---------------------------------
  C     -9.869440   -1.724060   -2.384340
  C    -10.808460   -2.560510   -1.813660
  C    -11.088990   -3.853410   -2.285170
  N    -11.385610   -4.900030   -2.656100
  C    -11.583060   -2.232020   -0.691830
  N    -12.186660   -2.054620    0.272580
  C     -8.856300   -2.120260   -3.349640
  C     -8.055300   -0.991140   -3.656090
  C     -6.978350   -1.062770   -4.502700
  C     -6.666680   -2.309130   -5.061200
  C     -7.473120   -3.430140   -4.749370
  C     -8.571120   -3.354770   -3.902110
  S     -6.911350   -4.868330   -5.544390
  C     -5.619600   -3.958440   -6.277960
  C     -5.605880   -2.645030   -5.944460
  Br    -4.408770   -4.826150   -7.415410
  C     -8.583370    0.191280   -2.939670
  O     -8.294940    1.348510   -3.136380
  C     -9.674710   -0.333360   -2.077760
  C    -10.505530    0.428240   -1.294430
  C    -10.231110    1.697370   -0.767250
  N    -11.237150    2.513810   -0.285200
  C    -12.649130    2.291190   -0.440170
  C    -10.735880    3.689200    0.274610
  O    -11.439220    4.597240    0.682480
  C     -9.300230    3.528210    0.217160
  C     -9.019170    2.330860   -0.464780
  C     -7.572320    2.182500   -0.540270
  O     -6.861090    1.272310   -0.899550
  N     -7.081810    3.385120   -0.007620
  C     -5.671140    3.627970    0.120760
  C     -8.083720    4.170270    0.524390
  C     -7.826290    5.328280    1.261700
  C     -8.643070    5.839620    2.257670
  C     -8.322610    6.944610    3.093740
  C     -9.126140    7.061530    4.188590
  C    -10.112810    6.051550    4.255010
  S    -10.055730    5.028610    2.848280
  C    -10.958950    5.690110    5.294190
  C    -10.956090    6.101940    6.648550
  C    -11.681680    5.279450    7.457720
  C    -12.267740    4.178750    6.775180
  S    -12.021890    4.334090    5.067980
  C    -12.908560    3.096910    7.350170
  C    -13.179650    1.874830    6.724580
  N    -14.072260    0.972410    7.268140
  C    -14.868000    1.179870    8.446510
  C    -14.182040   -0.205070    6.513780
  O    -14.929560   -1.115660    6.788010
  C    -13.254360    0.002020    5.418370
  C    -12.644930    1.267920    5.566570
  C    -11.627300    1.366030    4.542700
  O    -10.783760    2.203600    4.275810
  N    -11.745750    0.180640    3.797400
  C    -11.073980    0.080110    2.529140
  C    -12.669600   -0.674620    4.348210
  C    -12.947110   -2.008630    3.954440
  C    -12.112090   -2.911770    3.375670
  C    -10.679900   -2.889800    3.178530
  C     -9.758250   -2.322650    4.019680
  C     -8.365950   -2.424690    3.822530
  N     -7.227400   -2.468570    3.684720
  C    -10.102160   -1.667410    5.220620
  N    -10.329610   -1.172780    6.231030
  C    -10.384120   -3.801680    2.082780
  C    -11.527590   -4.606960    1.846490
  C    -12.638550   -4.139720    2.704630
  O    -13.744270   -4.606970    2.813950
  C    -11.531100   -5.610750    0.908090
  C    -10.375370   -5.791610    0.139880
  C     -9.271670   -4.926230    0.333350
  C     -9.246650   -3.941890    1.313260
  S     -7.994920   -5.253470   -0.798890
  C     -8.937350   -6.551520   -1.488710
  C    -10.146230   -6.727270   -0.907290
  Br    -8.238790   -7.514140   -2.933520
  H     -6.384360   -0.188830   -4.717940
  H     -9.165260   -4.231480   -3.704590
  H     -4.877860   -1.942010   -6.305830
  H    -11.472950    0.016750   -1.034090
  H    -12.972670    1.404950    0.110530
  H    -12.914290    2.178800   -1.493200
  H    -13.152260    3.168440   -0.033040
  H     -5.162000    2.768620   -0.315440
  H     -5.381510    3.723730    1.169450
  H     -5.381410    4.529530   -0.422460
  H     -6.861970    5.801770    1.134600
  H     -7.491680    7.592720    2.876670
  H     -9.026880    7.822700    4.941460
  H    -10.384860    6.946410    6.989440
  H    -11.761580    5.389130    8.524760
  H    -13.195430    3.193670    8.388800
  H    -15.475100    2.082630    8.356140
  H    -14.241530    1.247580    9.338620
  H    -15.521440    0.312070    8.539410
  H    -11.111570    1.063890    2.056560
  H    -11.563730   -0.659080    1.896250
  H    -10.019310   -0.180600    2.649710
  H    -13.961520   -2.343780    4.144640
  H    -12.403030   -6.226130    0.753400
  H     -8.381790   -3.309960    1.436470
  H    -10.859670   -7.467980   -1.217290

 Total Charge           Charge          ....    0
 Multiplicity           Mult            ....    1
 Number of Electrons    NEL             ....  600
 Basis Dimension        Dim             .... 1246

ORBITAL ENERGIES
----------------

  NO   OCC          E(Eh)            E(eV)
   0   2.0000    -482.882101    -13139.8900
   1   2.0000    -482.879771    -13139.8266
   2   2.0000     -88.970916     -2421.0217
   3   2.0000     -88.968894     -2420.9667
   4   2.0000     -88.962578     -2420.7948
   5   2.0000     -88.961020     -2420.7524
   6   2.0000     -62.559812     -1702.3390
   7   2.0000     -62.557304     -1702.2708
   8   2.0000     -56.393750     -1534.5520
   9   2.0000     -56.391220     -1534.4831
  10   2.0000     -56.391054     -1534.4786
  11   2.0000     -56.391022     -1534.4777
  12   2.0000     -56.388569     -1534.4110
  13   2.0000     -56.388543     -1534.4103
  14   2.0000     -19.208215      -522.6821
  15   2.0000     -19.206172      -522.6265
  16   2.0000     -19.202285      -522.5207
  17   2.0000     -19.187507      -522.1186
  18   2.0000     -19.187305      -522.1131
  19   2.0000     -19.182156      -521.9730
  20   2.0000     -14.458673      -393.4405
  21   2.0000     -14.452825      -393.2814
  22   2.0000     -14.452304      -393.2672
  23   2.0000     -14.452146      -393.2629
  24   2.0000     -14.421216      -392.4212
  25   2.0000     -14.412906      -392.1951
  26   2.0000     -14.411171      -392.1479
  27   2.0000     -14.407035      -392.0354
  28   2.0000     -10.382788      -282.5300
  29   2.0000     -10.372240      -282.2430
  30   2.0000     -10.368961      -282.1538
  31   2.0000     -10.368472      -282.1405
  32   2.0000     -10.359399      -281.8936
  33   2.0000     -10.357381      -281.8387
  34   2.0000     -10.354261      -281.7538
  35   2.0000     -10.349189      -281.6158
  36   2.0000     -10.347607      -281.5727
  37   2.0000     -10.344807      -281.4965
  38   2.0000     -10.338807      -281.3333
  39   2.0000     -10.337353      -281.2937
  40   2.0000     -10.335906      -281.2543
  41   2.0000     -10.335636      -281.2470
  42   2.0000     -10.335430      -281.2413
  43   2.0000     -10.334549      -281.2174
  44   2.0000     -10.334122      -281.2058
  45   2.0000     -10.331987      -281.1476
  46   2.0000     -10.331308      -281.1292
  47   2.0000     -10.329060      -281.0680
  48   2.0000     -10.327971      -281.0384
  49   2.0000     -10.319527      -280.8086
  50   2.0000     -10.318995      -280.7941
  51   2.0000     -10.317094      -280.7424
  52   2.0000     -10.313217      -280.6369
  53   2.0000     -10.313176      -280.6358
  54   2.0000     -10.309483      -280.5353
  55   2.0000     -10.308571      -280.5105
  56   2.0000     -10.308410      -280.5061
  57   2.0000     -10.307957      -280.4938
  58   2.0000     -10.307721      -280.4874
  59   2.0000     -10.306428      -280.4522
  60   2.0000     -10.305037      -280.4143
  61   2.0000     -10.303446      -280.3710
  62   2.0000     -10.302939      -280.3572
  63   2.0000     -10.302534      -280.3462
  64   2.0000     -10.302314      -280.3402
  65   2.0000     -10.301447      -280.3166
  66   2.0000     -10.301195      -280.3098
  67   2.0000     -10.300396      -280.2880
  68   2.0000     -10.298682      -280.2414
  69   2.0000     -10.298660      -280.2408
  70   2.0000     -10.298641      -280.2403
  71   2.0000     -10.296635      -280.1857
  72   2.0000     -10.293596      -280.1030
  73   2.0000     -10.293580      -280.1025
  74   2.0000     -10.293489      -280.1001
  75   2.0000     -10.292302      -280.0678
  76   2.0000     -10.291939      -280.0579
  77   2.0000     -10.286763      -279.9171
  78   2.0000     -10.285744      -279.8893
  79   2.0000     -10.285157      -279.8734
  80   2.0000     -10.282582      -279.8033
  81   2.0000     -10.270497      -279.4744
  82   2.0000     -10.269671      -279.4519
  83   2.0000     -10.267383      -279.3897
  84   2.0000      -8.789245      -239.1675
  85   2.0000      -8.786671      -239.0975
  86   2.0000      -8.066808      -219.5090
  87   2.0000      -8.064463      -219.4452
  88   2.0000      -8.058528      -219.2837
  89   2.0000      -8.056488      -219.2282
  90   2.0000      -6.625490      -180.2887
  91   2.0000      -6.622799      -180.2155
  92   2.0000      -6.611019      -179.8950
  93   2.0000      -6.610806      -179.8892
  94   2.0000      -6.608589      -179.8289
  95   2.0000      -6.608198      -179.8182
  96   2.0000      -6.036479      -164.2610
  97   2.0000      -6.034178      -164.1983
  98   2.0000      -6.032219      -164.1450
  99   2.0000      -6.029893      -164.0817
 100   2.0000      -6.028058      -164.0318
 101   2.0000      -6.028017      -164.0307
 102   2.0000      -6.025986      -163.9754
 103   2.0000      -6.025724      -163.9683
 104   2.0000      -6.023657      -163.9120
 105   2.0000      -6.021647      -163.8573
 106   2.0000      -6.019997      -163.8124
 107   2.0000      -6.017879      -163.7548
 108   2.0000      -2.741393       -74.5971
 109   2.0000      -2.738697       -74.5237
 110   2.0000      -2.737297       -74.4856
 111   2.0000      -2.737162       -74.4820
 112   2.0000      -2.734789       -74.4174
 113   2.0000      -2.734469       -74.4087
 114   2.0000      -2.725647       -74.1686
 115   2.0000      -2.725629       -74.1681
 116   2.0000      -2.723171       -74.1013
 117   2.0000      -2.723163       -74.1010
 118   2.0000      -1.141153       -31.0524
 119   2.0000      -1.131878       -30.8000
 120   2.0000      -1.125541       -30.6275
 121   2.0000      -1.124934       -30.6110
 122   2.0000      -1.123969       -30.5847
 123   2.0000      -1.120713       -30.4962
 124   2.0000      -1.068021       -29.0623
 125   2.0000      -1.061821       -28.8936
 126   2.0000      -1.055105       -28.7109
 127   2.0000      -1.053041       -28.6547
 128   2.0000      -1.021851       -27.8060
 129   2.0000      -1.017489       -27.6873
 130   2.0000      -1.015378       -27.6298
 131   2.0000      -1.011874       -27.5345
 132   2.0000      -1.005794       -27.3690
 133   2.0000      -0.997051       -27.1311
 134   2.0000      -0.993785       -27.0423
 135   2.0000      -0.987324       -26.8665
 136   2.0000      -0.985652       -26.8209
 137   2.0000      -0.982320       -26.7303
 138   2.0000      -0.939200       -25.5569
 139   2.0000      -0.936138       -25.4736
 140   2.0000      -0.926694       -25.2166
 141   2.0000      -0.921430       -25.0734
 142   2.0000      -0.914959       -24.8973
 143   2.0000      -0.904923       -24.6242
 144   2.0000      -0.901847       -24.5405
 145   2.0000      -0.900550       -24.5052
 146   2.0000      -0.897013       -24.4090
 147   2.0000      -0.892495       -24.2860
 148   2.0000      -0.880812       -23.9681
 149   2.0000      -0.877871       -23.8881
 150   2.0000      -0.870735       -23.6939
 151   2.0000      -0.863263       -23.4906
 152   2.0000      -0.860495       -23.4153
 153   2.0000      -0.846201       -23.0263
 154   2.0000      -0.841910       -22.9095
 155   2.0000      -0.839283       -22.8380
 156   2.0000      -0.834696       -22.7132
 157   2.0000      -0.824501       -22.4358
 158   2.0000      -0.820908       -22.3380
 159   2.0000      -0.807753       -21.9801
 160   2.0000      -0.799408       -21.7530
 161   2.0000      -0.793573       -21.5942
 162   2.0000      -0.767408       -20.8822
 163   2.0000      -0.764440       -20.8015
 164   2.0000      -0.762599       -20.7514
 165   2.0000      -0.756809       -20.5938
 166   2.0000      -0.754554       -20.5324
 167   2.0000      -0.745501       -20.2861
 168   2.0000      -0.738810       -20.1040
 169   2.0000      -0.721781       -19.6407
 170   2.0000      -0.702339       -19.1116
 171   2.0000      -0.699460       -19.0333
 172   2.0000      -0.698657       -19.0114
 173   2.0000      -0.690687       -18.7945
 174   2.0000      -0.688530       -18.7359
 175   2.0000      -0.685999       -18.6670
 176   2.0000      -0.678345       -18.4587
 177   2.0000      -0.673076       -18.3153
 178   2.0000      -0.672749       -18.3064
 179   2.0000      -0.664216       -18.0742
 180   2.0000      -0.662795       -18.0356
 181   2.0000      -0.655771       -17.8444
 182   2.0000      -0.651212       -17.7204
 183   2.0000      -0.649432       -17.6719
 184   2.0000      -0.642906       -17.4944
 185   2.0000      -0.622058       -16.9271
 186   2.0000      -0.620264       -16.8782
 187   2.0000      -0.618850       -16.8398
 188   2.0000      -0.616630       -16.7793
 189   2.0000      -0.611797       -16.6478
 190   2.0000      -0.611082       -16.6284
 191   2.0000      -0.600453       -16.3391
 192   2.0000      -0.595750       -16.2112
 193   2.0000      -0.592841       -16.1320
 194   2.0000      -0.589094       -16.0301
 195   2.0000      -0.584272       -15.8989
 196   2.0000      -0.581382       -15.8202
 197   2.0000      -0.579096       -15.7580
 198   2.0000      -0.576100       -15.6765
 199   2.0000      -0.572665       -15.5830
 200   2.0000      -0.567161       -15.4332
 201   2.0000      -0.563496       -15.3335
 202   2.0000      -0.559011       -15.2115
 203   2.0000      -0.556988       -15.1564
 204   2.0000      -0.553225       -15.0540
 205   2.0000      -0.550550       -14.9812
 206   2.0000      -0.545667       -14.8483
 207   2.0000      -0.541865       -14.7449
 208   2.0000      -0.541402       -14.7323
 209   2.0000      -0.539285       -14.6747
 210   2.0000      -0.537393       -14.6232
 211   2.0000      -0.532355       -14.4861
 212   2.0000      -0.530278       -14.4296
 213   2.0000      -0.525304       -14.2942
 214   2.0000      -0.524385       -14.2692
 215   2.0000      -0.520997       -14.1770
 216   2.0000      -0.520548       -14.1648
 217   2.0000      -0.518152       -14.0996
 218   2.0000      -0.513744       -13.9797
 219   2.0000      -0.511618       -13.9218
 220   2.0000      -0.510793       -13.8994
 221   2.0000      -0.509502       -13.8643
 222   2.0000      -0.507871       -13.8199
 223   2.0000      -0.507668       -13.8144
 224   2.0000      -0.505206       -13.7474
 225   2.0000      -0.502094       -13.6627
 226   2.0000      -0.499809       -13.6005
 227   2.0000      -0.498072       -13.5532
 228   2.0000      -0.496783       -13.5182
 229   2.0000      -0.496054       -13.4983
 230   2.0000      -0.495289       -13.4775
 231   2.0000      -0.493071       -13.4172
 232   2.0000      -0.491440       -13.3728
 233   2.0000      -0.487672       -13.2702
 234   2.0000      -0.486268       -13.2320
 235   2.0000      -0.485686       -13.2162
 236   2.0000      -0.480622       -13.0784
 237   2.0000      -0.479634       -13.0515
 238   2.0000      -0.478115       -13.0102
 239   2.0000      -0.476617       -12.9694
 240   2.0000      -0.475455       -12.9378
 241   2.0000      -0.473495       -12.8845
 242   2.0000      -0.469392       -12.7728
 243   2.0000      -0.467230       -12.7140
 244   2.0000      -0.466664       -12.6986
 245   2.0000      -0.465213       -12.6591
 246   2.0000      -0.463186       -12.6039
 247   2.0000      -0.461284       -12.5522
 248   2.0000      -0.454059       -12.3556
 249   2.0000      -0.452377       -12.3098
 250   2.0000      -0.450361       -12.2550
 251   2.0000      -0.450060       -12.2467
 252   2.0000      -0.446314       -12.1448
 253   2.0000      -0.445420       -12.1205
 254   2.0000      -0.443359       -12.0644
 255   2.0000      -0.440748       -11.9934
 256   2.0000      -0.438736       -11.9386
 257   2.0000      -0.437629       -11.9085
 258   2.0000      -0.436020       -11.8647
 259   2.0000      -0.435253       -11.8438
 260   2.0000      -0.430974       -11.7274
 261   2.0000      -0.427150       -11.6233
 262   2.0000      -0.424880       -11.5616
 263   2.0000      -0.423103       -11.5132
 264   2.0000      -0.421230       -11.4623
 265   2.0000      -0.419620       -11.4184
 266   2.0000      -0.416804       -11.3418
 267   2.0000      -0.413817       -11.2605
 268   2.0000      -0.412810       -11.2331
 269   2.0000      -0.408538       -11.1169
 270   2.0000      -0.401492       -10.9251
 271   2.0000      -0.398383       -10.8406
 272   2.0000      -0.390062       -10.6141
 273   2.0000      -0.384179       -10.4540
 274   2.0000      -0.382492       -10.4081
 275   2.0000      -0.377179       -10.2636
 276   2.0000      -0.371689       -10.1142
 277   2.0000      -0.367615       -10.0033
 278   2.0000      -0.365066        -9.9340
 279   2.0000      -0.363649        -9.8954
 280   2.0000      -0.357428        -9.7261
 281   2.0000      -0.356159        -9.6916
 282   2.0000      -0.346956        -9.4412
 283   2.0000      -0.340007        -9.2521
 284   2.0000      -0.337617        -9.1870
 285   2.0000      -0.333927        -9.0866
 286   2.0000      -0.332454        -9.0465
 287   2.0000      -0.325408        -8.8548
 288   2.0000      -0.320930        -8.7329
 289   2.0000      -0.320104        -8.7105
 290   2.0000      -0.318963        -8.6794
 291   2.0000      -0.315009        -8.5718
 292   2.0000      -0.310174        -8.4403
 293   2.0000      -0.305110        -8.3025
 294   2.0000      -0.304175        -8.2770
 295   2.0000      -0.290886        -7.9154
 296   2.0000      -0.282264        -7.6808
 297   2.0000      -0.270759        -7.3677
 298   2.0000      -0.247762        -6.7419
 299   2.0000      -0.228155        -6.2084
 300   0.0000      -0.128319        -3.4917
 301   0.0000      -0.094714        -2.5773
 302   0.0000      -0.079113        -2.1528
 303   0.0000      -0.056988        -1.5507
 304   0.0000      -0.050177        -1.3654

MULLIKEN ATOMIC CHARGES
-----------------------
   0 C :    0.300563
   1 C :   -0.368390
   2 C :   -0.167239
   3 N :    0.141108
   4 C :   -0.142302
   5 N :    0.101727
   6 C :    0.025850
   7 C :   -0.016719
   8 C :   -0.066335
   9 C :    0.117154
  10 C :   -0.091771
  11 C :   -0.022052
  12 S :    0.184145
  13 C :   -0.122180
  14 C :    0.037590
  15 Br:    0.019330
  16 C :    0.160911
  17 O :   -0.140803
  18 C :   -0.075453
  19 C :   -0.084302
  20 C :    0.134874
  21 N :   -0.276482
  22 C :    0.116046
  23 C :    0.143160
  24 O :   -0.214334
  25 C :   -0.090083
  26 C :   -0.014880
  27 C :    0.167898
  28 O :   -0.166989
  29 N :   -0.279432
  30 C :    0.116926
  31 C :    0.162887
  32 C :   -0.063445
  33 C :   -0.020327
  34 C :    0.025457
  35 C :    0.050275
  36 C :   -0.050012
  37 S :    0.216139
  38 C :   -0.053280
  39 C :    0.040876
  40 C :    0.048163
  41 C :   -0.052247
  42 S :    0.202592
  43 C :   -0.046205
  44 C :    0.154326
  45 N :   -0.289066
  46 C :    0.116288
  47 C :    0.155101
  48 O :   -0.177050
  49 C :   -0.015575
  50 C :   -0.057467
  51 C :    0.148535
  52 O :   -0.203944
  53 N :   -0.267900
  54 C :    0.147224
  55 C :    0.046673
  56 C :    0.023798
  57 C :   -0.093135
  58 C :    0.221972
  59 C :   -0.338976
  60 C :   -0.192746
  61 N :    0.163388
  62 C :   -0.176568
  63 N :    0.168140
  64 C :    0.013340
  65 C :    0.014828
  66 C :    0.147885
  67 O :   -0.127194
  68 C :   -0.071330
  69 C :    0.081759
  70 C :   -0.090607
  71 C :   -0.022297
  72 S :    0.173017
  73 C :   -0.153866
  74 C :    0.110442
  75 Br:    0.018529
  76 H :   -0.011793
  77 H :   -0.014583
  78 H :   -0.004718
  79 H :    0.013137
  80 H :    0.040201
  81 H :    0.034961
  82 H :    0.059502
  83 H :    0.061328
  84 H :    0.037250
  85 H :    0.034821
  86 H :   -0.013676
  87 H :   -0.002482
  88 H :   -0.002506
  89 H :   -0.003849
  90 H :    0.000123
  91 H :   -0.009995
  92 H :    0.031603
  93 H :    0.035661
  94 H :    0.063127
  95 H :    0.033216
  96 H :    0.038480
  97 H :    0.035429
  98 H :    0.040020
  99 H :   -0.006840
 100 H :   -0.002613
 101 H :   -0.001744
Sum of atomic charges:   -0.0000000

LOEWDIN ATOMIC CHARGES
----------------------
   0 C :    0.080013
   1 C :   -0.162134
   2 C :   -0.015992
   3 N :   -0.061169
   4 C :    0.002568
   5 N :   -0.079348
   6 C :   -0.023175
   7 C :   -0.040159
   8 C :    0.020894
   9 C :   -0.030507
  10 C :   -0.146542
  11 C :   -0.012144
  12 S :    0.431167
  13 C :   -0.273354
  14 C :   -0.070351
  15 Br:    0.134139
  16 C :    0.083569
  17 O :   -0.129881
  18 C :   -0.082565
  19 C :    0.034662
  20 C :    0.029324
  21 N :   -0.003336
  22 C :    0.027357
  23 C :    0.049749
  24 O :   -0.223342
  25 C :   -0.128972
  26 C :   -0.050171
  27 C :    0.090435
  28 O :   -0.160087
  29 N :   -0.009637
  30 C :    0.029723
  31 C :    0.083909
  32 C :   -0.089908
  33 C :   -0.114865
  34 C :   -0.030462
  35 C :   -0.020128
  36 C :   -0.172315
  37 S :    0.526880
  38 C :   -0.153217
  39 C :   -0.027689
  40 C :   -0.019281
  41 C :   -0.129925
  42 S :    0.506019
  43 C :   -0.072235
  44 C :    0.070183
  45 N :   -0.013212
  46 C :    0.027869
  47 C :    0.081185
  48 O :   -0.182623
  49 C :   -0.085989
  50 C :   -0.119013
  51 C :    0.064962
  52 O :   -0.207809
  53 N :    0.007391
  54 C :    0.021443
  55 C :    0.049914
  56 C :    0.051737
  57 C :   -0.059404
  58 C :    0.068731
  59 C :   -0.132920
  60 C :   -0.021281
  61 N :   -0.049186
  62 C :   -0.020289
  63 N :   -0.047042
  64 C :   -0.013956
  65 C :   -0.047460
  66 C :    0.089243
  67 O :   -0.126728
  68 C :    0.026348
  69 C :   -0.033796
  70 C :   -0.145827
  71 C :   -0.016734
  72 S :    0.426425
  73 C :   -0.279036
  74 C :   -0.049589
  75 Br:    0.134503
  76 H :    0.041094
  77 H :    0.035474
  78 H :    0.038366
  79 H :    0.043303
  80 H :    0.025941
  81 H :    0.027739
  82 H :    0.042529
  83 H :    0.042739
  84 H :    0.027643
  85 H :    0.026466
  86 H :    0.037620
  87 H :    0.035661
  88 H :    0.035525
  89 H :    0.035657
  90 H :    0.037555
  91 H :    0.039478
  92 H :    0.025876
  93 H :    0.025992
  94 H :    0.043349
  95 H :    0.028952
  96 H :    0.025557
  97 H :    0.026959
  98 H :    0.060897
  99 H :    0.043066
 100 H :    0.040600
 101 H :    0.040405

  Mayer bond orders larger than 0.100000
B(  0-C ,  1-C ) :   1.5619 B(  0-C ,  6-C ) :   1.0169 B(  0-C , 18-C ) :   1.1251
B(  1-C ,  2-C ) :   1.1532 B(  1-C ,  4-C ) :   1.1752 B(  2-C ,  3-N ) :   2.9111
B(  4-C ,  5-N ) :   2.8406 B(  6-C ,  7-C ) :   1.2707 B(  6-C , 11-C ) :   1.4025
B(  7-C ,  8-C ) :   1.4413 B(  7-C , 16-C ) :   0.9232 B(  8-C ,  9-C ) :   1.2362
B(  8-C , 76-H ) :   1.0149 B(  9-C , 10-C ) :   1.3090 B(  9-C , 14-C ) :   1.1666
B( 10-C , 11-C ) :   1.3337 B( 10-C , 12-S ) :   1.0847 B( 11-C , 77-H ) :   0.9810
B( 12-S , 13-C ) :   1.0859 B( 13-C , 14-C ) :   1.6151 B( 13-C , 15-Br) :   1.0161
B( 14-C , 78-H ) :   0.9997 B( 16-C , 17-O ) :   2.2345 B( 16-C , 18-C ) :   0.9453
B( 18-C , 19-C ) :   1.4858 B( 19-C , 20-C ) :   1.2468 B( 19-C , 79-H ) :   0.9283
B( 20-C , 21-N ) :   1.1196 B( 20-C , 26-C ) :   1.3201 B( 21-N , 22-C ) :   0.9711
B( 21-N , 23-C ) :   1.0576 B( 22-C , 80-H ) :   0.9647 B( 22-C , 81-H ) :   0.9738
B( 22-C , 82-H ) :   0.9501 B( 23-C , 24-O ) :   2.0769 B( 23-C , 25-C ) :   1.0005
B( 25-C , 26-C ) :   1.3539 B( 25-C , 31-C ) :   1.2099 B( 26-C , 27-C ) :   0.9433
B( 27-C , 28-O ) :   2.1449 B( 27-C , 29-N ) :   1.0424 B( 29-N , 30-C ) :   0.9710
B( 29-N , 31-C ) :   1.1596 B( 30-C , 83-H ) :   0.9526 B( 30-C , 84-H ) :   0.9713
B( 30-C , 85-H ) :   0.9714 B( 31-C , 32-C ) :   1.2751 B( 32-C , 33-C ) :   1.4361
B( 32-C , 86-H ) :   0.9505 B( 33-C , 34-C ) :   1.1585 B( 33-C , 37-S ) :   1.1543
B( 34-C , 35-C ) :   1.5766 B( 34-C , 87-H ) :   0.9979 B( 35-C , 36-C ) :   1.1886
B( 35-C , 88-H ) :   0.9945 B( 36-C , 37-S ) :   1.1081 B( 36-C , 38-C ) :   1.4371
B( 38-C , 39-C ) :   1.1865 B( 38-C , 42-S ) :   1.1132 B( 39-C , 40-C ) :   1.5877
B( 39-C , 89-H ) :   0.9926 B( 40-C , 41-C ) :   1.1457 B( 40-C , 90-H ) :   0.9965
B( 41-C , 42-S ) :   1.1252 B( 41-C , 43-C ) :   1.4665 B( 43-C , 44-C ) :   1.2438
B( 43-C , 91-H ) :   0.9496 B( 44-C , 45-N ) :   1.1521 B( 44-C , 50-C ) :   1.2631
B( 45-N , 46-C ) :   0.9725 B( 45-N , 47-C ) :   1.0391 B( 46-C , 92-H ) :   0.9720
B( 46-C , 93-H ) :   0.9701 B( 46-C , 94-H ) :   0.9508 B( 47-C , 48-O ) :   2.1693
B( 47-C , 49-C ) :   0.9620 B( 49-C , 50-C ) :   1.2876 B( 49-C , 55-C ) :   1.3666
B( 50-C , 51-C ) :   0.9986 B( 51-C , 52-O ) :   2.0559 B( 51-C , 53-N ) :   1.0466
B( 53-N , 54-C ) :   0.9555 B( 53-N , 55-C ) :   1.1804 B( 54-C , 95-H ) :   0.9517
B( 54-C , 96-H ) :   0.9454 B( 54-C , 97-H ) :   0.9502 B( 55-C , 56-C ) :   1.1133
B( 56-C , 57-C ) :   1.6443 B( 56-C , 98-H ) :   0.9410 B( 57-C , 58-C ) :   1.0491
B( 57-C , 66-C ) :   0.9225 B( 58-C , 59-C ) :   1.6515 B( 58-C , 64-C ) :   1.0102
B( 59-C , 60-C ) :   1.1364 B( 59-C , 62-C ) :   1.1622 B( 60-C , 61-N ) :   3.0035
B( 62-C , 63-N ) :   2.9892 B( 64-C , 65-C ) :   1.2717 B( 64-C , 71-C ) :   1.4154
B( 65-C , 66-C ) :   0.9171 B( 65-C , 68-C ) :   1.4214 B( 66-C , 67-O ) :   2.2932
B( 68-C , 69-C ) :   1.2541 B( 68-C , 99-H ) :   1.0183 B( 69-C , 70-C ) :   1.3115
B( 69-C , 74-C ) :   1.1688 B( 70-C , 71-C ) :   1.3219 B( 70-C , 72-S ) :   1.0744
B( 71-C ,100-H ) :   0.9894 B( 72-S , 73-C ) :   1.0785 B( 73-C , 74-C ) :   1.6154
B( 73-C , 75-Br) :   1.0151 B( 74-C ,101-H ) :   0.9973

-----------------------------------------------------------------------------
         ABSORPTION SPECTRUM VIA TRANSITION ELECTRIC DIPOLE MOMENTS
-----------------------------------------------------------------------------
State   Energy  Wavelength   fosc         T2         TX        TY        TZ
        (cm-1)    (nm)                  (au**2)     (au)      (au)      (au)
-----------------------------------------------------------------------------
   0    6195.0   1614.2   0.125596914   6.67446   0.71124   0.54652  -2.42279
   1   10902.1    917.3   0.235583190   7.11396   0.23877   2.09176   1.63752
   2   14137.8    707.3   0.714098685  16.62842   0.13283  -3.64582  -1.82175
   3   14905.1    670.9   0.153867247   3.39849  -1.17497   0.20670   1.40542
   4   17197.1    581.5   0.254171859   4.86572  -1.63079  -1.16723   0.91860
   5   18064.9    553.6   0.027160772   0.49497  -0.57498  -0.16176   0.37176
   6   18864.5    530.1   0.123454140   2.15445   0.87812  -0.53107  -1.04944
   7   20205.4    494.9   0.041723582   0.67982   0.45215   0.61095  -0.31957
   8   21329.8    468.8   0.022908102   0.35357  -0.51007  -0.18889  -0.24025
   9   21905.5    456.5   0.009195597   0.13820   0.03099   0.16908   0.32962
  10   22554.1    443.4   0.018562128   0.27094   0.14736   0.30547   0.39486
  11   22692.8    440.7   0.094175763   1.36624   0.49201  -0.47402  -0.94840
  12   22845.9    437.7   0.018401349   0.26516  -0.17984  -0.48249  -0.00500
  13   22940.2    435.9   0.095987656   1.37750   0.73807   0.22036  -0.88555
  14   23120.7    432.5   0.074331789   1.05840  -0.15422   0.86574   0.53395
  15   23916.3    418.1   0.082012064   1.12891  -0.71991  -0.41898   0.65962
  16   24525.9    407.7   0.038227185   0.51312   0.03259   0.33672  -0.63141
  17   24691.3    405.0   0.055466983   0.73955  -0.40715   0.43569   0.61964
  18   25738.9    388.5   0.069518913   0.88918  -0.13702  -0.15133  -0.92060
  19   25802.5    387.6   0.018708486   0.23870   0.31702  -0.08321  -0.36232
  20   26204.7    381.6   0.233687119   2.93583   0.60542  -1.08622  -1.17874
  21   26316.3    380.0   0.048332174   0.60463   0.39465   0.66854  -0.04396
  22   26538.3    376.8   0.022558834   0.27985   0.23083   0.41316  -0.23635
  23   26846.5    372.5   0.002319710   0.02845  -0.13633  -0.09537  -0.02768
  24   27396.4    365.0   0.019504353   0.23438  -0.36217  -0.04535   0.31805
  25   27797.0    359.8   0.018637229   0.22073   0.06458  -0.06327  -0.46104
  26   28137.8    355.4   0.069061270   0.80802   0.51457   0.70095  -0.22783
  27   28267.6    353.8   0.241740101   2.81537  -0.63051   1.31738   0.82604
  28   28685.4    348.6   0.105881740   1.21517   0.00366  -0.89088  -0.64921
  29   28969.5    345.2   0.060309552   0.68536   0.40459  -0.44383  -0.56981
  30   29296.6    341.3   0.056613932   0.63618  -0.15274   0.51279   0.59153
  31   29741.3    336.2   0.034711749   0.38423   0.58570   0.06212  -0.19320
  32   29991.4    333.4   0.022891709   0.25128  -0.45350  -0.14383  -0.15790
  33   30109.1    332.1   0.048922553   0.53492   0.56688   0.39680  -0.23688
  34   30610.1    326.7   0.011296764   0.12150  -0.26118  -0.20423   0.10758
  35   30987.6    322.7   0.069843334   0.74201   0.32990  -0.56621  -0.55910
  36   31064.8    321.9   0.046786994   0.49583   0.10709  -0.51033  -0.47321
  37   31224.6    320.3   0.169319759   1.78520   0.33016  -0.69096  -1.09488
  38   31541.3    317.0   0.062779871   0.65527  -0.71391   0.01351   0.38133
  39   31574.7    316.7   0.133374947   1.39063  -0.69131   0.22790   0.92779
  40   31912.4    313.4   0.101281509   1.04483  -0.86865  -0.22923   0.48758
  41   32240.8    310.2   0.157825413   1.61156  -0.23393   0.95532   0.80262
  42   32530.8    307.4   0.016383973   0.16581  -0.08070   0.29907   0.26430
  43   32682.3    306.0   0.028398915   0.28607  -0.52688  -0.08420  -0.03705
  44   32755.9    305.3   0.113495521   1.14068   0.50962  -0.25811  -0.90241
  45   32813.4    304.8   0.170842910   1.71404   1.18296   0.04043  -0.55948
  46   33136.2    301.8   0.051778930   0.51443   0.08704  -0.16732   0.69199
  47   33287.2    300.4   0.074684075   0.73863   0.52588   0.25385  -0.63059
  48   33361.6    299.7   0.065397485   0.64534   0.17341  -0.40845  -0.66966
  49   33645.3    297.2   0.062191329   0.60853   0.48563   0.44526  -0.41766
  50   33937.6    294.7   0.004020173   0.03900   0.18465   0.05367   0.04497
  51   34439.5    290.4   0.020987384   0.20062   0.11183  -0.28833  -0.32401
  52   34536.7    289.5   0.123994021   1.18194  -0.81625  -0.53702  -0.47675
  53   34847.8    287.0   0.029637445   0.27999  -0.15480   0.48222   0.15327
  54   34968.0    286.0   0.044810113   0.42187   0.15450  -0.55501  -0.29994
  55   35161.9    284.4   0.021785395   0.20397  -0.18953   0.24645   0.32759
  56   35382.4    282.6   0.202932946   1.88817   0.23383  -1.05078  -0.85402
  57   35648.7    280.5   0.008341898   0.07704   0.02776  -0.23127  -0.15094
  58   35858.3    278.9   0.010662088   0.09789   0.10351   0.26671  -0.12666
  59   36134.0    276.7   0.259396783   2.36333   0.61050  -1.24173  -0.66987
  60   36340.2    275.2   0.012612207   0.11426  -0.11220   0.29001  -0.13252
  61   36763.8    272.0   0.030619467   0.27419  -0.48992   0.00451   0.18480
  62   36887.8    271.1   0.024616420   0.21969  -0.24883  -0.39460  -0.04545
  63   37106.1    269.5   0.008672481   0.07694   0.11221   0.16217   0.19507
  64   37167.9    269.0   0.059723623   0.52900  -0.44596  -0.57295   0.04305
  65   37337.1    267.8   0.006908509   0.06091  -0.19283   0.04412   0.14760
  66   37350.4    267.7   0.003785778   0.03337   0.13584  -0.12026   0.02126
  67   37481.7    266.8   0.059628710   0.52373   0.48726   0.07254  -0.53014
  68   37544.3    266.4   0.040608342   0.35608   0.14640  -0.08401   0.57236
  69   37851.3    264.2   0.050156349   0.43623   0.36937   0.04177  -0.54595
  70   38015.5    263.1   0.024058747   0.20835  -0.28835   0.19697   0.29394
  71   38150.8    262.1   0.016399890   0.14152   0.10387  -0.35184  -0.08330
  72   38324.0    260.9   0.208605574   1.79197   0.70013   1.13052   0.15396
  73   38668.9    258.6   0.058538035   0.49837   0.60094  -0.36213   0.07811
  74   38735.0    258.2   0.034482262   0.29307   0.52369   0.07229  -0.11658
  75   39244.1    254.8   0.025879644   0.21710  -0.06456  -0.46007   0.03561
  76   39516.1    253.1   0.032647995   0.27199  -0.29282   0.42484   0.07594
  77   39559.7    252.8   0.025741873   0.21422  -0.14733  -0.37516  -0.22753
  78   39687.7    252.0   0.007752465   0.06431   0.23836  -0.03115  -0.08074
  79   39778.0    251.4   0.036998471   0.30621  -0.05860   0.39911   0.37880
  80   39925.9    250.5   0.022023618   0.18160  -0.20590   0.36717  -0.06623
  81   40099.2    249.4   0.021063044   0.17293   0.18985  -0.33218  -0.16292
  82   40180.5    248.9   0.047897005   0.39244   0.33272   0.49121  -0.20112

FINAL SINGLE POINT ENERGY     -9775.282933009725

DIPOLE MOMENT
-------------
                                X             Y             Z
Electronic contribution:     80.35789    -146.61153    -144.09583
Nuclear contribution   :    -79.05751     150.40854     144.29619
                        -----------------------------------------
Total Dipole Moment    :      1.30038       3.79701       0.20035
                        -----------------------------------------
Magnitude (a.u.)       :      4.01851
Magnitude (Debye)      :     10.21424

Rotational constants in cm-1:     0.001251     0.000450     0.000359
Rotational constants in MHz :    37.511418    13.501625    10.758000

                             ****ORCA TERMINATED NORMALLY****
TOTAL RUN TIME: 0 days 0 hours 15 minutes 13 seconds 681 msec
