                         Program Version 4.2.0 -  RELEASE  -
|  1> # ORCA input file
|  2> # SCF done       -178.998426655217          0.000846329017
|  3> ! CAM-B3LYP def2-SVP def2/J RIJCOSX Grid4 TightSCF
|  4> %maxcore 5000
|  5> %tddft
|  6>     Mode sTDDFT
|  7>     Ethresh 5.0
|  8>     maxcore 5000
|  9> end
| 10>
| 11> %pal
| 12>   nprocs 6
| 13>   end
| 14> * xyz 0 1
| 15>    C       -6.73617        -2.51150        -1.09448
| 16>    C       -5.52643        -3.15333        -1.04831
| 17>    C       -5.37138        -4.55384        -1.11962
| 18>    N       -5.17941        -5.68372        -1.18210
| 19>    C       -4.27139        -2.52172        -0.91446
| 20>    N       -3.21173        -2.09653        -0.79321
| 21>    C       -8.04037        -3.15930        -1.15220
| 22>    C       -9.04629        -2.16328        -1.10995
| 23>    C      -10.38737        -2.45981        -1.13720
| 24>    C      -10.75548        -3.80697        -1.20535
| 25>    C       -9.74405        -4.79649        -1.25314
| 26>    C       -8.38811        -4.49575        -1.22812
| 27>    S      -10.41896        -6.39447        -1.34720
| 28>    C      -12.02727        -5.72135        -1.32026
| 29>    C      -12.06034        -4.36982        -1.24375
| 30>   Br      -13.50918        -6.86593        -1.40029
| 31>    C       -8.42042        -0.83024        -1.06170
| 32>    O       -9.00032         0.23106        -1.16481
| 33>    C       -6.95374        -1.07799        -1.01375
| 34>    C       -5.99541        -0.11008        -1.05982
| 35>    C       -6.21253         1.26259        -0.74945
| 36>    C       -7.14470         1.68076         0.22554
| 37>    C       -7.47504         3.07171         0.40874
| 38>    N       -8.55354         3.40409         1.13220
| 39>    C       -9.21613         2.47282         1.76051
| 40>    C       -8.70583         1.12674         1.79978
| 41>    N       -7.71161         0.77449         1.03160
| 42>    C       -9.28035         0.16422         2.66518
| 43>    N       -9.78772        -0.60656         3.34408
| 44>    C      -10.41428         2.80209         2.43967
| 45>    N      -11.38993         3.02695         2.99620
| 46>    C       -6.74621         4.08502        -0.24200
| 47>    C       -5.70917         3.68272        -1.09379
| 48>    C       -5.46112         2.28321        -1.36342
| 49>    N       -4.47597         2.12254        -2.24816
| 50>    S       -3.90780         3.56629        -2.65929
| 51>    N       -4.86824         4.47386        -1.76744
| 52>    N       -7.10936         5.41005        -0.12316
| 53>    C       -7.33269         6.26607        -1.24622
| 54>    O       -7.17666         5.91611        -2.38950
| 55>    C       -7.80389         7.50964        -0.69262
| 56>    C       -7.84832         7.43478         0.67667
| 57>    C       -7.38063         6.07084         1.06949
| 58>    O       -7.21047         5.62630         2.17363
| 59>    C       -8.22373         8.34502         1.67040
| 60>    C       -8.76209         9.60023         1.48083
| 61>    C       -9.13886        10.51023         2.49669
| 62>    C       -9.69528        11.66977         2.03724
| 63>    C       -9.79462        11.73135         0.63432
| 64>    S       -9.13015        10.27906        -0.08395
| 65>    C      -10.34693        12.72302        -0.16082
| 66>    C      -10.90619        13.96001         0.22490
| 67>    C      -11.39147        14.69029        -0.81882
| 68>    C      -11.25429        14.07270        -2.08735
| 69>    S      -10.45039        12.52258        -1.88769
| 70>    C      -11.70485        14.58850        -3.27719
| 71>    C      -11.65687        14.01702        -4.56407
| 72>    C      -11.08940        12.75891        -4.96324
| 73>    C      -11.30056        12.58353        -6.31721
| 74>    C      -10.95434        11.52088        -7.17827
| 75>    C      -11.32608        11.62482        -8.49247
| 76>    C      -11.15110        10.74613        -9.60328
| 77>    C      -11.72961        11.31880       -10.72592
| 78>    C      -12.28035        12.57791       -10.34446
| 79>    C      -12.04627        12.78526        -8.98794
| 80>    C      -12.38387        13.84608        -8.13874
| 81>    C      -12.01512        13.74707        -6.81124
| 82>    C      -12.21107        14.60877        -5.70906
| 83>    C      -11.75736        10.71900       -12.03868
| 84>    C      -12.32984        11.24591       -13.11753
| 85>    H      -11.12897        -1.67714        -1.10326
| 86>    H       -7.65701        -5.28567        -1.27060
| 87>    H      -12.96567        -3.79143        -1.21560
| 88>    H       -4.98805        -0.35771        -1.36850
| 89>    H       -8.08193         8.33044        -1.32406
| 90>    H       -8.09315         8.00823         2.69064
| 91>    H       -8.99150        10.27663         3.53599
| 92>    H      -10.04407        12.46576         2.67048
| 93>    H      -10.93572        14.27550         1.25213
| 94>    H      -11.85521        15.65589        -0.71718
| 95>    H      -12.18465        15.55834        -3.21399
| 96>    H      -10.58322        12.06592        -4.31868
| 97>    H      -10.42144        10.66070        -6.79930
| 98>    H      -10.65224         9.79501        -9.56448
| 99>    H      -12.79401        13.25696       -10.99992
|100>    H      -12.91904        14.70692        -8.51400
|101>    H      -12.71158        15.55922        -5.74060
|102>    H      -11.26375         9.75789       -12.10956
|103>    H      -12.83622        12.19564       -13.09526
|104>    H      -12.31530        10.73772       -14.06575
|105> *
|106>
|107>                          ****END OF INPUT****

CARTESIAN COORDINATES (ANGSTROEM)
---------------------------------
  C     -6.736170   -2.511500   -1.094480
  C     -5.526430   -3.153330   -1.048310
  C     -5.371380   -4.553840   -1.119620
  N     -5.179410   -5.683720   -1.182100
  C     -4.271390   -2.521720   -0.914460
  N     -3.211730   -2.096530   -0.793210
  C     -8.040370   -3.159300   -1.152200
  C     -9.046290   -2.163280   -1.109950
  C    -10.387370   -2.459810   -1.137200
  C    -10.755480   -3.806970   -1.205350
  C     -9.744050   -4.796490   -1.253140
  C     -8.388110   -4.495750   -1.228120
  S    -10.418960   -6.394470   -1.347200
  C    -12.027270   -5.721350   -1.320260
  C    -12.060340   -4.369820   -1.243750
  Br   -13.509180   -6.865930   -1.400290
  C     -8.420420   -0.830240   -1.061700
  O     -9.000320    0.231060   -1.164810
  C     -6.953740   -1.077990   -1.013750
  C     -5.995410   -0.110080   -1.059820
  C     -6.212530    1.262590   -0.749450
  C     -7.144700    1.680760    0.225540
  C     -7.475040    3.071710    0.408740
  N     -8.553540    3.404090    1.132200
  C     -9.216130    2.472820    1.760510
  C     -8.705830    1.126740    1.799780
  N     -7.711610    0.774490    1.031600
  C     -9.280350    0.164220    2.665180
  N     -9.787720   -0.606560    3.344080
  C    -10.414280    2.802090    2.439670
  N    -11.389930    3.026950    2.996200
  C     -6.746210    4.085020   -0.242000
  C     -5.709170    3.682720   -1.093790
  C     -5.461120    2.283210   -1.363420
  N     -4.475970    2.122540   -2.248160
  S     -3.907800    3.566290   -2.659290
  N     -4.868240    4.473860   -1.767440
  N     -7.109360    5.410050   -0.123160
  C     -7.332690    6.266070   -1.246220
  O     -7.176660    5.916110   -2.389500
  C     -7.803890    7.509640   -0.692620
  C     -7.848320    7.434780    0.676670
  C     -7.380630    6.070840    1.069490
  O     -7.210470    5.626300    2.173630
  C     -8.223730    8.345020    1.670400
  C     -8.762090    9.600230    1.480830
  C     -9.138860   10.510230    2.496690
  C     -9.695280   11.669770    2.037240
  C     -9.794620   11.731350    0.634320
  S     -9.130150   10.279060   -0.083950
  C    -10.346930   12.723020   -0.160820
  C    -10.906190   13.960010    0.224900
  C    -11.391470   14.690290   -0.818820
  C    -11.254290   14.072700   -2.087350
  S    -10.450390   12.522580   -1.887690
  C    -11.704850   14.588500   -3.277190
  C    -11.656870   14.017020   -4.564070
  C    -11.089400   12.758910   -4.963240
  C    -11.300560   12.583530   -6.317210
  C    -10.954340   11.520880   -7.178270
  C    -11.326080   11.624820   -8.492470
  C    -11.151100   10.746130   -9.603280
  C    -11.729610   11.318800  -10.725920
  C    -12.280350   12.577910  -10.344460
  C    -12.046270   12.785260   -8.987940
  C    -12.383870   13.846080   -8.138740
  C    -12.015120   13.747070   -6.811240
  C    -12.211070   14.608770   -5.709060
  C    -11.757360   10.719000  -12.038680
  C    -12.329840   11.245910  -13.117530
  H    -11.128970   -1.677140   -1.103260
  H     -7.657010   -5.285670   -1.270600
  H    -12.965670   -3.791430   -1.215600
  H     -4.988050   -0.357710   -1.368500
  H     -8.081930    8.330440   -1.324060
  H     -8.093150    8.008230    2.690640
  H     -8.991500   10.276630    3.535990
  H    -10.044070   12.465760    2.670480
  H    -10.935720   14.275500    1.252130
  H    -11.855210   15.655890   -0.717180
  H    -12.184650   15.558340   -3.213990
  H    -10.583220   12.065920   -4.318680
  H    -10.421440   10.660700   -6.799300
  H    -10.652240    9.795010   -9.564480
  H    -12.794010   13.256960  -10.999920
  H    -12.919040   14.706920   -8.514000
  H    -12.711580   15.559220   -5.740600
  H    -11.263750    9.757890  -12.109560
  H    -12.836220   12.195640  -13.095260
  H    -12.315300   10.737720  -14.065750

 Total Charge           Charge          ....    0
 Multiplicity           Mult            ....    1
 Number of Electrons    NEL             ....  524
 Basis Dimension        Dim             .... 1114

ORBITAL ENERGIES
----------------

  NO   OCC          E(Eh)            E(eV)
   0   2.0000    -482.882655    -13139.9051
   1   2.0000     -89.043789     -2423.0047
   2   2.0000     -88.972400     -2421.0621
   3   2.0000     -88.961024     -2420.7525
   4   2.0000     -88.957244     -2420.6497
   5   2.0000     -62.560336     -1702.3533
   6   2.0000     -56.394288     -1534.5666
   7   2.0000     -56.391572     -1534.4927
   8   2.0000     -56.391542     -1534.4919
   9   2.0000     -19.215678      -522.8852
  10   2.0000     -19.212065      -522.7869
  11   2.0000     -19.201828      -522.5083
  12   2.0000     -14.462392      -393.5417
  13   2.0000     -14.456055      -393.3693
  14   2.0000     -14.455172      -393.3452
  15   2.0000     -14.451181      -393.2366
  16   2.0000     -14.446473      -393.1085
  17   2.0000     -14.425946      -392.5499
  18   2.0000     -14.421499      -392.4289
  19   2.0000     -14.413530      -392.2121
  20   2.0000     -14.412532      -392.1849
  21   2.0000     -10.390370      -282.7363
  22   2.0000     -10.382800      -282.5303
  23   2.0000     -10.377002      -282.3726
  24   2.0000     -10.373363      -282.2735
  25   2.0000     -10.367532      -282.1149
  26   2.0000     -10.356472      -281.8139
  27   2.0000     -10.355974      -281.8004
  28   2.0000     -10.348102      -281.5862
  29   2.0000     -10.343074      -281.4494
  30   2.0000     -10.341926      -281.4181
  31   2.0000     -10.341748      -281.4133
  32   2.0000     -10.339643      -281.3560
  33   2.0000     -10.339003      -281.3386
  34   2.0000     -10.331866      -281.1444
  35   2.0000     -10.323245      -280.9098
  36   2.0000     -10.321473      -280.8616
  37   2.0000     -10.319027      -280.7950
  38   2.0000     -10.318833      -280.7897
  39   2.0000     -10.317038      -280.7409
  40   2.0000     -10.316027      -280.7134
  41   2.0000     -10.315185      -280.6905
  42   2.0000     -10.314835      -280.6809
  43   2.0000     -10.314271      -280.6656
  44   2.0000     -10.314197      -280.6636
  45   2.0000     -10.313104      -280.6338
  46   2.0000     -10.309617      -280.5389
  47   2.0000     -10.306109      -280.4435
  48   2.0000     -10.305079      -280.4154
  49   2.0000     -10.304564      -280.4015
  50   2.0000     -10.303770      -280.3798
  51   2.0000     -10.303157      -280.3631
  52   2.0000     -10.301755      -280.3250
  53   2.0000     -10.301446      -280.3166
  54   2.0000     -10.299680      -280.2686
  55   2.0000     -10.298678      -280.2413
  56   2.0000     -10.298282      -280.2305
  57   2.0000     -10.297012      -280.1959
  58   2.0000     -10.296079      -280.1706
  59   2.0000     -10.294439      -280.1259
  60   2.0000     -10.293427      -280.0984
  61   2.0000     -10.289989      -280.0048
  62   2.0000     -10.289394      -279.9887
  63   2.0000     -10.287158      -279.9278
  64   2.0000     -10.286583      -279.9121
  65   2.0000     -10.281576      -279.7759
  66   2.0000     -10.280153      -279.7372
  67   2.0000     -10.279580      -279.7216
  68   2.0000     -10.278688      -279.6973
  69   2.0000     -10.278582      -279.6944
  70   2.0000     -10.278306      -279.6869
  71   2.0000     -10.275648      -279.6146
  72   2.0000     -10.274997      -279.5969
  73   2.0000     -10.267671      -279.3975
  74   2.0000      -8.789745      -239.1811
  75   2.0000      -8.134832      -221.3600
  76   2.0000      -8.068519      -219.5556
  77   2.0000      -8.057094      -219.2447
  78   2.0000      -8.053118      -219.1365
  79   2.0000      -6.626032      -180.3035
  80   2.0000      -6.611499      -179.9080
  81   2.0000      -6.611271      -179.9018
  82   2.0000      -6.105734      -166.1455
  83   2.0000      -6.098086      -165.9373
  84   2.0000      -6.097906      -165.9325
  85   2.0000      -6.038211      -164.3081
  86   2.0000      -6.033928      -164.1915
  87   2.0000      -6.029701      -164.0765
  88   2.0000      -6.026816      -163.9980
  89   2.0000      -6.022746      -163.8873
  90   2.0000      -6.022702      -163.8861
  91   2.0000      -6.018606      -163.7746
  92   2.0000      -6.018112      -163.7611
  93   2.0000      -6.014413      -163.6605
  94   2.0000      -2.741945       -74.6121
  95   2.0000      -2.737808       -74.4995
  96   2.0000      -2.737665       -74.4957
  97   2.0000      -2.726109       -74.1812
  98   2.0000      -2.726085       -74.1806
  99   2.0000      -1.157914       -31.5085
 100   2.0000      -1.139507       -31.0076
 101   2.0000      -1.132743       -30.8235
 102   2.0000      -1.128076       -30.6965
 103   2.0000      -1.114945       -30.3392
 104   2.0000      -1.057183       -28.7674
 105   2.0000      -1.038994       -28.2725
 106   2.0000      -1.020596       -27.7718
 107   2.0000      -1.010889       -27.5077
 108   2.0000      -1.008806       -27.4510
 109   2.0000      -1.007975       -27.4284
 110   2.0000      -1.001337       -27.2478
 111   2.0000      -0.997448       -27.1419
 112   2.0000      -0.992570       -27.0092
 113   2.0000      -0.991153       -26.9706
 114   2.0000      -0.987347       -26.8671
 115   2.0000      -0.985583       -26.8191
 116   2.0000      -0.975225       -26.5372
 117   2.0000      -0.974081       -26.5061
 118   2.0000      -0.941153       -25.6101
 119   2.0000      -0.929844       -25.3023
 120   2.0000      -0.915996       -24.9255
 121   2.0000      -0.906223       -24.6596
 122   2.0000      -0.904589       -24.6151
 123   2.0000      -0.900696       -24.5092
 124   2.0000      -0.890886       -24.2422
 125   2.0000      -0.883360       -24.0374
 126   2.0000      -0.878540       -23.9063
 127   2.0000      -0.875382       -23.8204
 128   2.0000      -0.866127       -23.5685
 129   2.0000      -0.855756       -23.2863
 130   2.0000      -0.853078       -23.2134
 131   2.0000      -0.833984       -22.6939
 132   2.0000      -0.832893       -22.6642
 133   2.0000      -0.827386       -22.5143
 134   2.0000      -0.824934       -22.4476
 135   2.0000      -0.814757       -22.1707
 136   2.0000      -0.811349       -22.0779
 137   2.0000      -0.798157       -21.7190
 138   2.0000      -0.784913       -21.3586
 139   2.0000      -0.772850       -21.0303
 140   2.0000      -0.762603       -20.7515
 141   2.0000      -0.757788       -20.6204
 142   2.0000      -0.755992       -20.5716
 143   2.0000      -0.742586       -20.2068
 144   2.0000      -0.732610       -19.9353
 145   2.0000      -0.724183       -19.7060
 146   2.0000      -0.713549       -19.4166
 147   2.0000      -0.705301       -19.1922
 148   2.0000      -0.696646       -18.9567
 149   2.0000      -0.693503       -18.8712
 150   2.0000      -0.685708       -18.6591
 151   2.0000      -0.684151       -18.6167
 152   2.0000      -0.682055       -18.5597
 153   2.0000      -0.677649       -18.4398
 154   2.0000      -0.671751       -18.2793
 155   2.0000      -0.658253       -17.9120
 156   2.0000      -0.656528       -17.8650
 157   2.0000      -0.654677       -17.8147
 158   2.0000      -0.647618       -17.6226
 159   2.0000      -0.639797       -17.4098
 160   2.0000      -0.637971       -17.3601
 161   2.0000      -0.630665       -17.1613
 162   2.0000      -0.628327       -17.0977
 163   2.0000      -0.621488       -16.9115
 164   2.0000      -0.617775       -16.8105
 165   2.0000      -0.614910       -16.7325
 166   2.0000      -0.608488       -16.5578
 167   2.0000      -0.605000       -16.4629
 168   2.0000      -0.595252       -16.1976
 169   2.0000      -0.593351       -16.1459
 170   2.0000      -0.590049       -16.0560
 171   2.0000      -0.589329       -16.0365
 172   2.0000      -0.576628       -15.6909
 173   2.0000      -0.574990       -15.6463
 174   2.0000      -0.569914       -15.5081
 175   2.0000      -0.564011       -15.3475
 176   2.0000      -0.560157       -15.2427
 177   2.0000      -0.552958       -15.0467
 178   2.0000      -0.551146       -14.9975
 179   2.0000      -0.545705       -14.8494
 180   2.0000      -0.544294       -14.8110
 181   2.0000      -0.539013       -14.6673
 182   2.0000      -0.537181       -14.6174
 183   2.0000      -0.536233       -14.5916
 184   2.0000      -0.533688       -14.5224
 185   2.0000      -0.531024       -14.4499
 186   2.0000      -0.526559       -14.3284
 187   2.0000      -0.519827       -14.1452
 188   2.0000      -0.519443       -14.1348
 189   2.0000      -0.513787       -13.9808
 190   2.0000      -0.512640       -13.9496
 191   2.0000      -0.511733       -13.9250
 192   2.0000      -0.506808       -13.7909
 193   2.0000      -0.506135       -13.7726
 194   2.0000      -0.505775       -13.7628
 195   2.0000      -0.505469       -13.7545
 196   2.0000      -0.503224       -13.6934
 197   2.0000      -0.502145       -13.6641
 198   2.0000      -0.495515       -13.4836
 199   2.0000      -0.490287       -13.3414
 200   2.0000      -0.488985       -13.3060
 201   2.0000      -0.487972       -13.2784
 202   2.0000      -0.484899       -13.1948
 203   2.0000      -0.480918       -13.0865
 204   2.0000      -0.480312       -13.0700
 205   2.0000      -0.476791       -12.9741
 206   2.0000      -0.475644       -12.9429
 207   2.0000      -0.473908       -12.8957
 208   2.0000      -0.470627       -12.8064
 209   2.0000      -0.470060       -12.7910
 210   2.0000      -0.466204       -12.6860
 211   2.0000      -0.464160       -12.6304
 212   2.0000      -0.460492       -12.5306
 213   2.0000      -0.455844       -12.4042
 214   2.0000      -0.451468       -12.2851
 215   2.0000      -0.451324       -12.2811
 216   2.0000      -0.447199       -12.1689
 217   2.0000      -0.446433       -12.1480
 218   2.0000      -0.446072       -12.1382
 219   2.0000      -0.441262       -12.0073
 220   2.0000      -0.440439       -11.9849
 221   2.0000      -0.439403       -11.9568
 222   2.0000      -0.437195       -11.8967
 223   2.0000      -0.436272       -11.8716
 224   2.0000      -0.435230       -11.8432
 225   2.0000      -0.431581       -11.7439
 226   2.0000      -0.430688       -11.7196
 227   2.0000      -0.424090       -11.5401
 228   2.0000      -0.421622       -11.4729
 229   2.0000      -0.420424       -11.4403
 230   2.0000      -0.420330       -11.4378
 231   2.0000      -0.419289       -11.4094
 232   2.0000      -0.413762       -11.2590
 233   2.0000      -0.409500       -11.1431
 234   2.0000      -0.407814       -11.0972
 235   2.0000      -0.407094       -11.0776
 236   2.0000      -0.405074       -11.0226
 237   2.0000      -0.403380       -10.9765
 238   2.0000      -0.397776       -10.8240
 239   2.0000      -0.384452       -10.4615
 240   2.0000      -0.381319       -10.3762
 241   2.0000      -0.380788       -10.3618
 242   2.0000      -0.374026       -10.1778
 243   2.0000      -0.371908       -10.1201
 244   2.0000      -0.370227       -10.0744
 245   2.0000      -0.366841        -9.9823
 246   2.0000      -0.361138        -9.8271
 247   2.0000      -0.355383        -9.6705
 248   2.0000      -0.351017        -9.5517
 249   2.0000      -0.344421        -9.3722
 250   2.0000      -0.338802        -9.2193
 251   2.0000      -0.335471        -9.1286
 252   2.0000      -0.334746        -9.1089
 253   2.0000      -0.334056        -9.0901
 254   2.0000      -0.330208        -8.9854
 255   2.0000      -0.312489        -8.5033
 256   2.0000      -0.305512        -8.3134
 257   2.0000      -0.291336        -7.9276
 258   2.0000      -0.282279        -7.6812
 259   2.0000      -0.277926        -7.5627
 260   2.0000      -0.264577        -7.1995
 261   2.0000      -0.221205        -6.0193
 262   0.0000      -0.120580        -3.2812
 263   0.0000      -0.112255        -3.0546
 264   0.0000      -0.095306        -2.5934
 265   0.0000      -0.077574        -2.1109
 266   0.0000      -0.055092        -1.4991

MULLIKEN ATOMIC CHARGES
-----------------------
   0 C :    0.298854
   1 C :   -0.335043
   2 C :   -0.189200
   3 N :    0.153973
   4 C :   -0.198909
   5 N :    0.165412
   6 C :    0.026033
   7 C :   -0.017944
   8 C :   -0.063273
   9 C :    0.117508
  10 C :   -0.088966
  11 C :   -0.022476
  12 S :    0.186474
  13 C :   -0.121134
  14 C :    0.039861
  15 Br:    0.024844
  16 C :    0.151896
  17 O :   -0.162620
  18 C :   -0.051499
  19 C :   -0.081649
  20 C :    0.081932
  21 C :   -0.060481
  22 C :   -0.037735
  23 N :    0.074873
  24 C :   -0.124995
  25 C :   -0.116722
  26 N :    0.041302
  27 C :   -0.198913
  28 N :    0.225763
  29 C :   -0.198539
  30 N :    0.223952
  31 C :    0.155276
  32 C :   -0.002612
  33 C :    0.019510
  34 N :   -0.270468
  35 S :    0.559160
  36 N :   -0.249897
  37 N :   -0.251945
  38 C :    0.242816
  39 O :   -0.166415
  40 C :   -0.147617
  41 C :    0.010493
  42 C :    0.209910
  43 O :   -0.152259
  44 C :   -0.038509
  45 C :    0.011496
  46 C :    0.021457
  47 C :    0.042871
  48 C :   -0.053724
  49 S :    0.071940
  50 C :   -0.008907
  51 C :    0.016246
  52 C :    0.054446
  53 C :   -0.040522
  54 S :    0.060083
  55 C :    0.016116
  56 C :    0.042369
  57 C :   -0.023318
  58 C :    0.036179
  59 C :    0.007821
  60 C :    0.056860
  61 C :   -0.014003
  62 C :    0.056480
  63 C :   -0.008521
  64 C :    0.040026
  65 C :    0.010380
  66 C :    0.058565
  67 C :   -0.021919
  68 C :    0.013623
  69 C :   -0.022297
  70 H :   -0.007903
  71 H :   -0.005647
  72 H :   -0.001411
  73 H :    0.043997
  74 H :    0.007069
  75 H :    0.003143
  76 H :   -0.004685
  77 H :   -0.008462
  78 H :   -0.009471
  79 H :   -0.006128
  80 H :   -0.015817
  81 H :   -0.001199
  82 H :   -0.015261
  83 H :   -0.019364
  84 H :   -0.017626
  85 H :   -0.019397
  86 H :   -0.023446
  87 H :   -0.015816
  88 H :    0.008723
  89 H :    0.024932
Sum of atomic charges:   -0.0000000

LOEWDIN ATOMIC CHARGES
----------------------
   0 C :    0.074388
   1 C :   -0.130623
   2 C :   -0.017140
   3 N :   -0.049811
   4 C :   -0.023058
   5 N :   -0.043860
   6 C :   -0.019166
   7 C :   -0.048931
   8 C :    0.025535
   9 C :   -0.030370
  10 C :   -0.141567
  11 C :   -0.009118
  12 S :    0.433482
  13 C :   -0.270489
  14 C :   -0.068591
  15 Br:    0.138470
  16 C :    0.085559
  17 O :   -0.152990
  18 C :   -0.068106
  19 C :    0.078955
  20 C :   -0.041217
  21 C :    0.023674
  22 C :   -0.016642
  23 N :    0.018228
  24 C :   -0.024199
  25 C :   -0.016197
  26 N :    0.010864
  27 C :   -0.034000
  28 N :   -0.006017
  29 C :   -0.032398
  30 N :   -0.009368
  31 C :    0.061082
  32 C :   -0.055838
  33 C :   -0.027984
  34 N :   -0.291846
  35 S :    0.701815
  36 N :   -0.257764
  37 N :   -0.026785
  38 C :    0.094151
  39 O :   -0.154926
  40 C :   -0.090998
  41 C :   -0.027221
  42 C :    0.103999
  43 O :   -0.142068
  44 C :   -0.084515
  45 C :   -0.109596
  46 C :   -0.046054
  47 C :   -0.015644
  48 C :   -0.203862
  49 S :    0.404799
  50 C :   -0.145537
  51 C :   -0.050141
  52 C :   -0.006373
  53 C :   -0.169046
  54 S :    0.393663
  55 C :   -0.010831
  56 C :   -0.074465
  57 C :    0.029579
  58 C :   -0.061659
  59 C :    0.079192
  60 C :   -0.059482
  61 C :    0.029485
  62 C :   -0.058852
  63 C :    0.060270
  64 C :   -0.066485
  65 C :    0.086248
  66 C :   -0.066405
  67 C :    0.031547
  68 C :   -0.021869
  69 C :   -0.048544
  70 H :    0.041810
  71 H :    0.041186
  72 H :    0.039760
  73 H :    0.049872
  74 H :    0.021617
  75 H :    0.041094
  76 H :    0.036462
  77 H :    0.034430
  78 H :    0.033718
  79 H :    0.036445
  80 H :    0.038987
  81 H :    0.015104
  82 H :    0.039020
  83 H :    0.027845
  84 H :    0.027593
  85 H :    0.037202
  86 H :    0.025915
  87 H :    0.030856
  88 H :    0.018251
  89 H :    0.026498

  Mayer bond orders larger than 0.100000
B(  0-C ,  1-C ) :   1.6442 B(  0-C ,  6-C ) :   1.0094 B(  0-C , 18-C ) :   1.0636
B(  1-C ,  2-C ) :   1.1427 B(  1-C ,  4-C ) :   1.1414 B(  2-C ,  3-N ) :   2.9695
B(  4-C ,  5-N ) :   2.9810 B(  6-C ,  7-C ) :   1.2681 B(  6-C , 11-C ) :   1.4058
B(  7-C ,  8-C ) :   1.4222 B(  7-C , 16-C ) :   0.9510 B(  8-C ,  9-C ) :   1.2519
B(  8-C , 70-H ) :   1.0154 B(  9-C , 10-C ) :   1.2984 B(  9-C , 14-C ) :   1.1639
B( 10-C , 11-C ) :   1.3363 B( 10-C , 12-S ) :   1.0867 B( 11-C , 71-H ) :   0.9793
B( 12-S , 13-C ) :   1.0845 B( 13-C , 14-C ) :   1.6180 B( 13-C , 15-Br) :   1.0197
B( 14-C , 72-H ) :   1.0007 B( 16-C , 17-O ) :   2.1967 B( 16-C , 18-C ) :   0.9341
B( 18-C , 19-C ) :   1.6152 B( 19-C , 20-C ) :   1.1640 B( 19-C , 73-H ) :   0.9362
B( 20-C , 21-C ) :   1.2562 B( 20-C , 31-C ) :   0.1276 B( 20-C , 33-C ) :   1.1776
B( 21-C , 22-C ) :   1.1130 B( 21-C , 26-N ) :   1.4146 B( 22-C , 23-N ) :   1.4146
B( 22-C , 31-C ) :   1.3264 B( 23-N , 24-C ) :   1.7472 B( 24-C , 25-C ) :   1.1687
B( 24-C , 29-C ) :   1.1463 B( 25-C , 26-N ) :   1.7296 B( 25-C , 27-C ) :   1.1498
B( 27-C , 28-N ) :   3.0497 B( 29-C , 30-N ) :   3.0500 B( 31-C , 32-C ) :   1.3220
B( 31-C , 37-N ) :   1.0345 B( 32-C , 33-C ) :   1.1130 B( 32-C , 36-N ) :   1.4634
B( 33-C , 34-N ) :   1.5373 B( 34-N , 35-S ) :   1.2790 B( 34-N , 36-N ) :   0.1558
B( 35-S , 36-N ) :   1.3295 B( 37-N , 38-C ) :   0.9198 B( 37-N , 42-C ) :   1.0105
B( 38-C , 39-O ) :   2.1635 B( 38-C , 40-C ) :   1.0383 B( 40-C , 41-C ) :   1.4962
B( 40-C , 74-H ) :   1.0090 B( 41-C , 42-C ) :   0.9007 B( 41-C , 44-C ) :   1.2449
B( 42-C , 43-O ) :   2.2106 B( 44-C , 45-C ) :   1.4720 B( 44-C , 75-H ) :   0.9684
B( 45-C , 46-C ) :   1.1763 B( 45-C , 49-S ) :   1.0835 B( 46-C , 47-C ) :   1.5511
B( 46-C , 76-H ) :   1.0014 B( 47-C , 48-C ) :   1.2165 B( 47-C , 77-H ) :   0.9937
B( 48-C , 49-S ) :   1.0309 B( 48-C , 50-C ) :   1.4650 B( 50-C , 51-C ) :   1.2005
B( 50-C , 54-S ) :   1.0780 B( 51-C , 52-C ) :   1.5712 B( 51-C , 78-H ) :   0.9952
B( 52-C , 53-C ) :   1.1560 B( 52-C , 79-H ) :   0.9986 B( 53-C , 54-S ) :   1.0145
B( 53-C , 55-C ) :   1.5554 B( 55-C , 56-C ) :   1.1539 B( 55-C , 80-H ) :   0.9692
B( 56-C , 57-C ) :   1.1453 B( 56-C , 67-C ) :   1.3904 B( 57-C , 58-C ) :   1.4496
B( 57-C , 81-H ) :   0.9892 B( 58-C , 59-C ) :   1.1348 B( 58-C , 66-C ) :   1.1389
B( 59-C , 60-C ) :   1.4465 B( 59-C , 82-H ) :   1.0049 B( 60-C , 61-C ) :   1.1038
B( 60-C , 64-C ) :   1.1270 B( 61-C , 62-C ) :   1.4701 B( 61-C , 83-H ) :   1.0167
B( 62-C , 63-C ) :   1.1808 B( 62-C , 68-C ) :   1.0819 B( 63-C , 64-C ) :   1.3836
B( 63-C , 84-H ) :   1.0080 B( 64-C , 65-C ) :   1.1803 B( 65-C , 66-C ) :   1.3760
B( 65-C , 85-H ) :   1.0044 B( 66-C , 67-C ) :   1.1533 B( 67-C , 86-H ) :   1.0179
B( 68-C , 69-C ) :   1.9373 B( 68-C , 87-H ) :   0.9666 B( 69-C , 88-H ) :   0.9530
B( 69-C , 89-H ) :   0.9495

-----------------------------------------------------------------------------
         ABSORPTION SPECTRUM VIA TRANSITION ELECTRIC DIPOLE MOMENTS
-----------------------------------------------------------------------------
State   Energy  Wavelength   fosc         T2         TX        TY        TZ
        (cm-1)    (nm)                  (au**2)     (au)      (au)      (au)
-----------------------------------------------------------------------------
   0    6615.3   1511.6   0.013996941   0.69656   0.27171  -0.39721   0.68188
   1    9973.7   1002.6   0.236197525   7.79644   0.84596  -2.51192   0.87808
   2   13422.0    745.0   1.002381297  24.58621   1.81647  -3.23131   3.29322
   3   15736.1    635.5   0.066666723   1.39472  -0.43928   1.06440  -0.26232
   4   17022.4    587.5   0.331199532   6.40539  -0.25846  -2.11274  -1.36928
   5   21584.8    463.3   0.005526463   0.08429  -0.06029   0.00140  -0.28400
   6   21912.8    456.4   0.032183106   0.48351   0.09555  -0.43009   0.53796
   7   22322.4    448.0   0.117162033   1.72792   0.34390   0.95368   0.83674
   8   22854.1    437.6   0.052890187   0.76188   0.81477   0.30862   0.05280
   9   23569.8    424.3   0.016185582   0.22607  -0.19814   0.29499  -0.31590
  10   24056.0    415.7   0.068889739   0.94277   0.35868   0.78362   0.44728
  11   24463.1    408.8   1.037122829  13.95706   0.09872  -1.92556  -3.19993
  12   24925.4    401.2   0.157598182   2.08154  -0.42503  -0.17866   1.36710
  13   25144.0    397.7   0.095325411   1.24810   0.25527  -1.02922  -0.35164
  14   25503.6    392.1   0.067693564   0.87382   0.11403  -0.51220  -0.77361
  15   26070.9    383.6   0.062328449   0.78706   0.40192  -0.70615  -0.35620
  16   26270.5    380.7   0.006317237   0.07917   0.13565  -0.09971   0.22544
  17   26602.3    375.9   0.005687420   0.07038   0.25098  -0.08597   0.00001
  18   26913.5    371.6   0.049773443   0.60884   0.43657   0.64482  -0.04949
  19   27401.9    364.9   0.173116097   2.07985  -0.24449  -0.17768  -1.41015
  20   27712.5    360.8   0.096527322   1.14670   0.18080   0.11974   1.04865
  21   28159.8    355.1   0.041628007   0.48667  -0.12249   0.45138   0.51761
  22   28374.0    352.4   0.077784248   0.90250  -0.70255  -0.01092   0.63938
  23   28966.5    345.2   0.023231042   0.26403   0.12131  -0.39855   0.30078
  24   29112.2    343.5   0.040193241   0.45452   0.63792   0.13209  -0.17359
  25   29292.3    341.4   0.062433000   0.70167   0.30245  -0.18452  -0.75905
  26   30008.4    333.2   0.107563509   1.18004   0.73344   0.63619   0.48722
  27   30471.6    328.2   0.007922309   0.08559  -0.07343  -0.17976  -0.21883
  28   30509.4    327.8   0.313902592   3.38716  -1.53579  -0.87153  -0.51861
  29   30571.6    327.1   0.185028705   1.99249   1.35834   0.16728  -0.34557
  30   31007.2    322.5   0.050071418   0.53162   0.03223  -0.39535  -0.61179
  31   31280.9    319.7   0.015596997   0.16415  -0.02486   0.29341   0.27829
  32   31993.2    312.6   0.010061387   0.10353   0.31328  -0.03992  -0.06158
  33   32404.3    308.6   0.299068705   3.03839  -0.14082   0.98627   1.43032
  34   32483.9    307.8   0.033108691   0.33554  -0.30217  -0.46014   0.18030
  35   32623.8    306.5   0.018284644   0.18451  -0.09247   0.32437  -0.26598
  36   32882.9    304.1   0.081815601   0.81911  -0.16252  -0.34129  -0.82232
  37   33047.7    302.6   0.220508185   2.19664   0.09418  -0.23284  -1.46067
  38   33068.0    302.4   0.006764115   0.06734   0.14766  -0.06905  -0.20191
  39   33327.4    300.1   0.002234582   0.02207  -0.03887  -0.14055   0.02842
  40   33474.1    298.7   0.017379738   0.17093  -0.13493  -0.31430  -0.23224
  41   34018.3    294.0   0.006986876   0.06762   0.21293   0.14891  -0.01011
  42   34187.9    292.5   0.065461245   0.63036  -0.15931   0.15677  -0.76184
  43   34565.8    289.3   0.012001769   0.11431   0.13154   0.30552   0.06052
  44   34669.0    288.4   0.076675451   0.72810   0.62855  -0.48533  -0.31222
  45   34762.3    287.7   0.172596988   1.63456  -0.51033   1.00279   0.60706
  46   34799.4    287.4   0.127394508   1.20519  -0.98075  -0.06020  -0.48959
  47   35008.7    285.6   0.088578200   0.83296  -0.80018   0.43713   0.03988
  48   35518.2    281.5   0.002015276   0.01868   0.09672   0.07791  -0.05704
  49   35642.0    280.6   0.037869929   0.34979   0.30491   0.35407   0.36257
  50   35823.0    279.2   0.954405931   8.77096  -2.24744  -0.97826   1.66222
  51   36071.1    277.2   0.000864451   0.00789  -0.00526  -0.03496   0.08149
  52   36678.0    272.6   0.000068866   0.00062  -0.01111  -0.01640   0.01503
  53   36968.1    270.5   0.099766349   0.88845  -0.72261  -0.38014   0.47094
  54   37476.8    266.8   0.068526111   0.60196   0.25733  -0.15174  -0.71604
  55   37515.8    266.6   0.007436781   0.06526   0.11980   0.14642   0.17166
  56   37534.3    266.4   0.030366670   0.26634   0.26062   0.25695   0.36386
  57   37946.6    263.5   0.036520448   0.31684  -0.40775  -0.20973  -0.32648
  58   37978.6    263.3   0.013301412   0.11530  -0.23463  -0.17727  -0.16978
  59   38050.1    262.8   0.000116011   0.00100  -0.00719  -0.02996  -0.00739
  60   38290.0    261.2   0.055617164   0.47819  -0.38141  -0.55659  -0.15140
  61   38408.1    260.4   0.025216031   0.21614   0.05659   0.14650  -0.43757
  62   38682.1    258.5   0.021354096   0.18174  -0.02207  -0.40481  -0.13182
  63   38747.8    258.1   0.000526694   0.00447   0.04200  -0.04159   0.03131
  64   39218.2    255.0   0.030678142   0.25752  -0.11314   0.47545   0.13665
  65   39383.0    253.9   0.006515762   0.05447  -0.21610   0.08459  -0.02475
  66   39489.0    253.2   0.006133981   0.05114  -0.13849   0.17850  -0.00965
  67   39599.8    252.5   0.004073205   0.03386   0.07150  -0.00071  -0.16956
  68   39919.7    250.5   0.076220232   0.62858   0.15971   0.59566   0.49826
  69   39931.5    250.4   0.091667174   0.75574   0.26436   0.57743  -0.59366
  70   39978.1    250.1   0.045404580   0.37390  -0.15738  -0.57527   0.13490
  71   40270.9    248.3   0.005212082   0.04261   0.09083   0.17402   0.06384

FINAL SINGLE POINT ENERGY     -6912.698785595857

DIPOLE MOMENT
-------------
                                X             Y             Z
Electronic contribution:    -15.10842    -189.81879      46.45617
Nuclear contribution   :     12.73759     195.91823     -49.60498
                        -----------------------------------------
Total Dipole Moment    :     -2.37083       6.09944      -3.14882
                        -----------------------------------------
Magnitude (a.u.)       :      7.26217
Magnitude (Debye)      :     18.45896

Rotational constants in cm-1:     0.000973     0.000281     0.000256
Rotational constants in MHz :    29.181506     8.423190     7.673745

                             ****ORCA TERMINATED NORMALLY****
TOTAL RUN TIME: 0 days 0 hours 9 minutes 48 seconds 139 msec
