                         Program Version 4.2.0 -  RELEASE  -
|  1> # ORCA input file
|  2> # SCF done       -192.285541757949          0.000783085185
|  3> ! CAM-B3LYP def2-SVP def2/J RIJCOSX Grid4 TightSCF
|  4> %maxcore 5000
|  5> %tddft
|  6>     Mode sTDDFT
|  7>     Ethresh 5.0
|  8>     maxcore 5000
|  9> end
| 10>
| 11> %pal
| 12>   nprocs 6
| 13>   end
| 14> * xyz 0 1
| 15>    C       -4.19702         0.71868         4.69008
| 16>    C       -3.14461         0.63651         5.56882
| 17>    C       -2.93931        -0.43832         6.45835
| 18>    N       -2.71554        -1.28146         7.20481
| 19>    C       -2.12244         1.59519         5.71866
| 20>    N       -1.25603         2.32984         5.89421
| 21>    C       -5.24978        -0.28404         4.54614
| 22>    C       -6.15580         0.15020         3.54720
| 23>    C       -7.25957        -0.57768         3.17691
| 24>    C       -7.48254        -1.79765         3.82469
| 25>    C       -6.57357        -2.22451         4.82121
| 26>    C       -5.45650        -1.48618         5.19512
| 27>    S       -7.03594        -3.75838         5.49313
| 28>    C       -8.42505        -3.80502         4.44062
| 29>    C       -8.53884        -2.72821         3.62705
| 30>   Br       -9.59355        -5.27020         4.51378
| 31>    C       -5.70431         1.45096         3.02374
| 32>    O       -6.25358         2.10802         2.15330
| 33>    C       -4.48015         1.78341         3.75078
| 34>    C       -3.71668         2.91654         3.57186
| 35>    C       -3.88595         4.00169         2.71569
| 36>    S       -5.19123         4.23194         1.58697
| 37>    C       -4.57318         5.74459         1.04462
| 38>    C       -3.37694         6.08682         1.71201
| 39>    C       -2.98573         5.10095         2.65939
| 40>    C       -1.81623         5.28503         3.41377
| 41>    C       -1.07424         6.41968         3.21688
| 42>    F        0.04417         6.61493         3.92546
| 43>    C       -1.46320         7.39598         2.27758
| 44>    F       -0.70456         8.49145         2.11856
| 45>    C       -2.59782         7.24143         1.53053
| 46>    C       -5.23133         6.52076         0.05617
| 47>    C       -6.36630         6.12401        -0.56749
| 48>    C       -7.11823         6.83890        -1.55608
| 49>    C       -7.20058         8.16629        -1.76237
| 50>    C       -6.55365         9.21475        -0.91866
| 51>    C       -8.10720         8.69124        -2.85195
| 52>    N       -9.28870         9.30316        -2.28229
| 53>    C       -9.37644        10.63160        -2.03725
| 54>    C      -10.16102        11.17386        -1.08604
| 55>    C      -10.33200        12.58326        -0.84182
| 56>    C      -10.40439        13.09147         0.44095
| 57>    C      -10.21750        12.30203         1.68570
| 58>    F      -11.18390        11.39194         1.89364
| 59>    F       -9.06184        11.59992         1.66628
| 60>    F      -10.17299        13.07137         2.77885
| 61>    S      -10.64409        14.79164         0.52550
| 62>    C      -10.69452        14.86199        -1.19685
| 63>    C      -10.83919        16.08635        -1.85233
| 64>    N      -10.96480        17.08562        -2.40441
| 65>    C      -10.52522        13.62424        -1.80504
| 66>    C      -10.57551        13.45258        -3.23235
| 67>    C      -11.36789        14.09789        -4.11427
| 68>    C      -12.51974        14.97158        -3.95509
| 69>    C      -13.45918        14.90095        -2.96467
| 70>    C      -14.62293        15.69842        -2.92985
| 71>    N      -15.58257        16.32229        -2.85724
| 72>    C      -13.40902        13.96614        -1.91045
| 73>    N      -13.42273        13.19476        -1.06084
| 74>    C      -12.62575        15.75795        -5.17408
| 75>    C      -11.75355        15.21181        -6.15215
| 76>    C      -11.00560        14.08724        -5.56616
| 77>    O      -10.22163        13.34036        -6.10162
| 78>    C      -11.66173        15.72692        -7.42351
| 79>    C      -12.45513        16.83486        -7.73751
| 80>    C      -13.30740        17.38306        -6.74624
| 81>    C      -13.40846        16.85887        -5.46419
| 82>    S      -14.18313        18.75641        -7.34496
| 83>    C      -13.41217        18.57696        -8.89867
| 84>    C      -12.53921        17.54308        -8.96685
| 85>   Br      -13.83008        19.76953       -10.28218
| 86>    H       -7.93043        -0.21872         2.41227
| 87>    H       -4.79567        -1.85701         5.96034
| 88>    H       -9.33409        -2.59449         2.91666
| 89>    H       -2.83532         2.99203         4.19248
| 90>    H       -1.47969         4.56674         4.14455
| 91>    H       -2.87230         8.00335         0.82000
| 92>    H       -4.75875         7.45130        -0.21482
| 93>    H       -6.74738         5.13814        -0.32810
| 94>    H       -7.72338         6.20173        -2.19085
| 95>    H       -6.42286         8.87160         0.10480
| 96>    H       -7.16176        10.11832        -0.90406
| 97>    H       -5.57684         9.48137        -1.32407
| 98>    H       -8.41996         7.87840        -3.51395
| 99>    H       -7.58567         9.44482        -3.44799
|100>    H       -9.80887         8.70608        -1.65296
|101>    H       -8.76580        11.24589        -2.68552
|102>    H      -10.66964        10.51517        -0.39637
|103>    H       -9.85960        12.77126        -3.67460
|104>    H      -10.99724        15.29090        -8.15284
|105>    H      -14.05831        17.31265        -4.73454
|106>    H      -11.97690        17.29002        -9.84701
|107> *
|108>
|109>                          ****END OF INPUT****

CARTESIAN COORDINATES (ANGSTROEM)
---------------------------------
  C     -4.197020    0.718680    4.690080
  C     -3.144610    0.636510    5.568820
  C     -2.939310   -0.438320    6.458350
  N     -2.715540   -1.281460    7.204810
  C     -2.122440    1.595190    5.718660
  N     -1.256030    2.329840    5.894210
  C     -5.249780   -0.284040    4.546140
  C     -6.155800    0.150200    3.547200
  C     -7.259570   -0.577680    3.176910
  C     -7.482540   -1.797650    3.824690
  C     -6.573570   -2.224510    4.821210
  C     -5.456500   -1.486180    5.195120
  S     -7.035940   -3.758380    5.493130
  C     -8.425050   -3.805020    4.440620
  C     -8.538840   -2.728210    3.627050
  Br    -9.593550   -5.270200    4.513780
  C     -5.704310    1.450960    3.023740
  O     -6.253580    2.108020    2.153300
  C     -4.480150    1.783410    3.750780
  C     -3.716680    2.916540    3.571860
  C     -3.885950    4.001690    2.715690
  S     -5.191230    4.231940    1.586970
  C     -4.573180    5.744590    1.044620
  C     -3.376940    6.086820    1.712010
  C     -2.985730    5.100950    2.659390
  C     -1.816230    5.285030    3.413770
  C     -1.074240    6.419680    3.216880
  F      0.044170    6.614930    3.925460
  C     -1.463200    7.395980    2.277580
  F     -0.704560    8.491450    2.118560
  C     -2.597820    7.241430    1.530530
  C     -5.231330    6.520760    0.056170
  C     -6.366300    6.124010   -0.567490
  C     -7.118230    6.838900   -1.556080
  C     -7.200580    8.166290   -1.762370
  C     -6.553650    9.214750   -0.918660
  C     -8.107200    8.691240   -2.851950
  N     -9.288700    9.303160   -2.282290
  C     -9.376440   10.631600   -2.037250
  C    -10.161020   11.173860   -1.086040
  C    -10.332000   12.583260   -0.841820
  C    -10.404390   13.091470    0.440950
  C    -10.217500   12.302030    1.685700
  F    -11.183900   11.391940    1.893640
  F     -9.061840   11.599920    1.666280
  F    -10.172990   13.071370    2.778850
  S    -10.644090   14.791640    0.525500
  C    -10.694520   14.861990   -1.196850
  C    -10.839190   16.086350   -1.852330
  N    -10.964800   17.085620   -2.404410
  C    -10.525220   13.624240   -1.805040
  C    -10.575510   13.452580   -3.232350
  C    -11.367890   14.097890   -4.114270
  C    -12.519740   14.971580   -3.955090
  C    -13.459180   14.900950   -2.964670
  C    -14.622930   15.698420   -2.929850
  N    -15.582570   16.322290   -2.857240
  C    -13.409020   13.966140   -1.910450
  N    -13.422730   13.194760   -1.060840
  C    -12.625750   15.757950   -5.174080
  C    -11.753550   15.211810   -6.152150
  C    -11.005600   14.087240   -5.566160
  O    -10.221630   13.340360   -6.101620
  C    -11.661730   15.726920   -7.423510
  C    -12.455130   16.834860   -7.737510
  C    -13.307400   17.383060   -6.746240
  C    -13.408460   16.858870   -5.464190
  S    -14.183130   18.756410   -7.344960
  C    -13.412170   18.576960   -8.898670
  C    -12.539210   17.543080   -8.966850
  Br   -13.830080   19.769530  -10.282180
  H     -7.930430   -0.218720    2.412270
  H     -4.795670   -1.857010    5.960340
  H     -9.334090   -2.594490    2.916660
  H     -2.835320    2.992030    4.192480
  H     -1.479690    4.566740    4.144550
  H     -2.872300    8.003350    0.820000
  H     -4.758750    7.451300   -0.214820
  H     -6.747380    5.138140   -0.328100
  H     -7.723380    6.201730   -2.190850
  H     -6.422860    8.871600    0.104800
  H     -7.161760   10.118320   -0.904060
  H     -5.576840    9.481370   -1.324070
  H     -8.419960    7.878400   -3.513950
  H     -7.585670    9.444820   -3.447990
  H     -9.808870    8.706080   -1.652960
  H     -8.765800   11.245890   -2.685520
  H    -10.669640   10.515170   -0.396370
  H     -9.859600   12.771260   -3.674600
  H    -10.997240   15.290900   -8.152840
  H    -14.058310   17.312650   -4.734540
  H    -11.976900   17.290020   -9.847010

 Total Charge           Charge          ....    0
 Multiplicity           Mult            ....    1
 Number of Electrons    NEL             ....  570
 Basis Dimension        Dim             .... 1151

ORBITAL ENERGIES
----------------

  NO   OCC          E(Eh)            E(eV)
   0   2.0000    -482.889603    -13140.0941
   1   2.0000    -482.884905    -13139.9663
   2   2.0000     -88.997352     -2421.7411
   3   2.0000     -88.980416     -2421.2802
   4   2.0000     -88.979574     -2421.2573
   5   2.0000     -88.974499     -2421.1192
   6   2.0000     -62.567348     -1702.5441
   7   2.0000     -62.562614     -1702.4153
   8   2.0000     -56.401303     -1534.7575
   9   2.0000     -56.398577     -1534.6833
  10   2.0000     -56.398545     -1534.6824
  11   2.0000     -56.396560     -1534.6284
  12   2.0000     -56.393852     -1534.5547
  13   2.0000     -56.393817     -1534.5538
  14   2.0000     -24.811433      -675.1534
  15   2.0000     -24.803174      -674.9287
  16   2.0000     -24.800877      -674.8662
  17   2.0000     -24.794899      -674.7035
  18   2.0000     -24.794648      -674.6967
  19   2.0000     -19.228011      -523.2208
  20   2.0000     -19.218922      -522.9735
  21   2.0000     -14.446406      -393.1067
  22   2.0000     -14.427760      -392.5993
  23   2.0000     -14.422237      -392.4490
  24   2.0000     -14.421965      -392.4416
  25   2.0000     -14.416692      -392.2981
  26   2.0000     -14.410098      -392.1187
  27   2.0000     -10.530446      -286.5480
  28   2.0000     -10.380307      -282.4625
  29   2.0000     -10.378469      -282.4125
  30   2.0000     -10.377090      -282.3750
  31   2.0000     -10.366840      -282.0961
  32   2.0000     -10.363728      -282.0114
  33   2.0000     -10.357755      -281.8489
  34   2.0000     -10.352230      -281.6985
  35   2.0000     -10.352070      -281.6941
  36   2.0000     -10.350443      -281.6499
  37   2.0000     -10.338550      -281.3263
  38   2.0000     -10.336346      -281.2663
  39   2.0000     -10.332073      -281.1500
  40   2.0000     -10.331246      -281.1275
  41   2.0000     -10.329547      -281.0813
  42   2.0000     -10.328444      -281.0513
  43   2.0000     -10.328089      -281.0416
  44   2.0000     -10.327672      -281.0302
  45   2.0000     -10.326599      -281.0010
  46   2.0000     -10.324936      -280.9558
  47   2.0000     -10.323943      -280.9288
  48   2.0000     -10.323772      -280.9241
  49   2.0000     -10.323570      -280.9186
  50   2.0000     -10.320499      -280.8351
  51   2.0000     -10.320078      -280.8236
  52   2.0000     -10.319314      -280.8028
  53   2.0000     -10.318151      -280.7711
  54   2.0000     -10.315870      -280.7091
  55   2.0000     -10.314727      -280.6780
  56   2.0000     -10.313939      -280.6565
  57   2.0000     -10.313933      -280.6564
  58   2.0000     -10.311551      -280.5916
  59   2.0000     -10.311478      -280.5896
  60   2.0000     -10.308701      -280.5140
  61   2.0000     -10.305797      -280.4350
  62   2.0000     -10.305588      -280.4293
  63   2.0000     -10.305159      -280.4176
  64   2.0000     -10.304745      -280.4064
  65   2.0000     -10.303893      -280.3832
  66   2.0000     -10.303251      -280.3657
  67   2.0000     -10.303106      -280.3618
  68   2.0000     -10.302178      -280.3365
  69   2.0000     -10.301510      -280.3183
  70   2.0000     -10.301483      -280.3176
  71   2.0000     -10.299908      -280.2748
  72   2.0000     -10.297357      -280.2053
  73   2.0000     -10.295771      -280.1622
  74   2.0000     -10.291768      -280.0532
  75   2.0000     -10.290453      -280.0175
  76   2.0000     -10.290049      -280.0065
  77   2.0000     -10.283573      -279.8302
  78   2.0000     -10.270691      -279.4797
  79   2.0000      -8.796801      -239.3731
  80   2.0000      -8.792045      -239.2437
  81   2.0000      -8.092209      -220.2002
  82   2.0000      -8.076514      -219.7731
  83   2.0000      -8.072514      -219.6643
  84   2.0000      -8.070399      -219.6067
  85   2.0000      -6.633140      -180.4969
  86   2.0000      -6.628316      -180.3656
  87   2.0000      -6.618522      -180.0991
  88   2.0000      -6.618309      -180.0934
  89   2.0000      -6.613792      -179.9704
  90   2.0000      -6.613595      -179.9651
  91   2.0000      -6.061564      -164.9435
  92   2.0000      -6.057250      -164.8262
  93   2.0000      -6.054353      -164.7473
  94   2.0000      -6.046204      -164.5256
  95   2.0000      -6.041905      -164.4086
  96   2.0000      -6.041620      -164.4008
  97   2.0000      -6.040085      -164.3591
  98   2.0000      -6.037709      -164.2944
  99   2.0000      -6.037093      -164.2777
 100   2.0000      -6.035802      -164.2425
 101   2.0000      -6.035430      -164.2324
 102   2.0000      -6.031671      -164.1301
 103   2.0000      -2.748978       -74.8035
 104   2.0000      -2.744939       -74.6936
 105   2.0000      -2.744736       -74.6881
 106   2.0000      -2.744226       -74.6742
 107   2.0000      -2.740094       -74.5618
 108   2.0000      -2.739966       -74.5583
 109   2.0000      -2.733140       -74.3725
 110   2.0000      -2.733113       -74.3718
 111   2.0000      -2.728414       -74.2439
 112   2.0000      -2.728398       -74.2435
 113   2.0000      -1.395755       -37.9804
 114   2.0000      -1.317823       -35.8598
 115   2.0000      -1.302698       -35.4482
 116   2.0000      -1.301439       -35.4139
 117   2.0000      -1.291583       -35.1458
 118   2.0000      -1.143263       -31.1098
 119   2.0000      -1.133658       -30.8484
 120   2.0000      -1.051787       -28.6206
 121   2.0000      -1.036547       -28.2059
 122   2.0000      -1.027158       -27.9504
 123   2.0000      -1.021323       -27.7916
 124   2.0000      -1.018122       -27.7045
 125   2.0000      -1.017439       -27.6859
 126   2.0000      -1.011919       -27.5357
 127   2.0000      -1.005045       -27.3487
 128   2.0000      -0.999841       -27.2071
 129   2.0000      -0.997348       -27.1392
 130   2.0000      -0.992834       -27.0164
 131   2.0000      -0.987397       -26.8684
 132   2.0000      -0.956812       -26.0362
 133   2.0000      -0.950961       -25.8770
 134   2.0000      -0.944260       -25.6946
 135   2.0000      -0.937458       -25.5095
 136   2.0000      -0.922370       -25.0990
 137   2.0000      -0.918574       -24.9957
 138   2.0000      -0.915400       -24.9093
 139   2.0000      -0.906811       -24.6756
 140   2.0000      -0.905972       -24.6527
 141   2.0000      -0.892369       -24.2826
 142   2.0000      -0.888737       -24.1838
 143   2.0000      -0.886143       -24.1132
 144   2.0000      -0.884137       -24.0586
 145   2.0000      -0.875598       -23.8262
 146   2.0000      -0.856531       -23.3074
 147   2.0000      -0.854206       -23.2441
 148   2.0000      -0.845673       -23.0119
 149   2.0000      -0.836799       -22.7705
 150   2.0000      -0.833633       -22.6843
 151   2.0000      -0.827946       -22.5296
 152   2.0000      -0.820568       -22.3288
 153   2.0000      -0.804541       -21.8927
 154   2.0000      -0.796959       -21.6864
 155   2.0000      -0.786832       -21.4108
 156   2.0000      -0.778691       -21.1893
 157   2.0000      -0.765778       -20.8379
 158   2.0000      -0.760902       -20.7052
 159   2.0000      -0.755340       -20.5539
 160   2.0000      -0.747201       -20.3324
 161   2.0000      -0.740699       -20.1554
 162   2.0000      -0.723631       -19.6910
 163   2.0000      -0.719702       -19.5841
 164   2.0000      -0.713911       -19.4265
 165   2.0000      -0.706789       -19.2327
 166   2.0000      -0.700780       -19.0692
 167   2.0000      -0.692224       -18.8364
 168   2.0000      -0.691776       -18.8242
 169   2.0000      -0.686557       -18.6822
 170   2.0000      -0.680093       -18.5063
 171   2.0000      -0.677136       -18.4258
 172   2.0000      -0.674756       -18.3610
 173   2.0000      -0.669332       -18.2134
 174   2.0000      -0.665638       -18.1129
 175   2.0000      -0.660031       -17.9603
 176   2.0000      -0.656145       -17.8546
 177   2.0000      -0.639610       -17.4047
 178   2.0000      -0.635697       -17.2982
 179   2.0000      -0.633115       -17.2279
 180   2.0000      -0.630335       -17.1523
 181   2.0000      -0.625682       -17.0257
 182   2.0000      -0.617166       -16.7939
 183   2.0000      -0.614145       -16.7117
 184   2.0000      -0.613345       -16.6900
 185   2.0000      -0.604524       -16.4499
 186   2.0000      -0.599746       -16.3199
 187   2.0000      -0.599467       -16.3123
 188   2.0000      -0.593553       -16.1514
 189   2.0000      -0.591950       -16.1078
 190   2.0000      -0.586694       -15.9648
 191   2.0000      -0.582631       -15.8542
 192   2.0000      -0.581240       -15.8163
 193   2.0000      -0.572836       -15.5877
 194   2.0000      -0.571496       -15.5512
 195   2.0000      -0.560752       -15.2588
 196   2.0000      -0.557677       -15.1752
 197   2.0000      -0.554913       -15.1000
 198   2.0000      -0.554305       -15.0834
 199   2.0000      -0.551807       -15.0154
 200   2.0000      -0.549816       -14.9613
 201   2.0000      -0.549387       -14.9496
 202   2.0000      -0.543784       -14.7971
 203   2.0000      -0.542277       -14.7561
 204   2.0000      -0.540963       -14.7203
 205   2.0000      -0.540757       -14.7148
 206   2.0000      -0.537694       -14.6314
 207   2.0000      -0.535724       -14.5778
 208   2.0000      -0.532239       -14.4830
 209   2.0000      -0.531955       -14.4752
 210   2.0000      -0.528050       -14.3690
 211   2.0000      -0.523951       -14.2574
 212   2.0000      -0.520225       -14.1561
 213   2.0000      -0.518981       -14.1222
 214   2.0000      -0.516128       -14.0446
 215   2.0000      -0.514747       -14.0070
 216   2.0000      -0.514071       -13.9886
 217   2.0000      -0.512302       -13.9404
 218   2.0000      -0.509769       -13.8715
 219   2.0000      -0.507628       -13.8132
 220   2.0000      -0.505519       -13.7559
 221   2.0000      -0.504028       -13.7153
 222   2.0000      -0.497821       -13.5464
 223   2.0000      -0.496786       -13.5182
 224   2.0000      -0.494683       -13.4610
 225   2.0000      -0.493053       -13.4167
 226   2.0000      -0.492672       -13.4063
 227   2.0000      -0.490465       -13.3462
 228   2.0000      -0.489721       -13.3260
 229   2.0000      -0.487265       -13.2591
 230   2.0000      -0.482571       -13.1314
 231   2.0000      -0.478979       -13.0337
 232   2.0000      -0.474391       -12.9088
 233   2.0000      -0.471835       -12.8393
 234   2.0000      -0.470381       -12.7997
 235   2.0000      -0.464207       -12.6317
 236   2.0000      -0.462107       -12.5746
 237   2.0000      -0.460127       -12.5207
 238   2.0000      -0.458235       -12.4692
 239   2.0000      -0.457105       -12.4384
 240   2.0000      -0.456268       -12.4157
 241   2.0000      -0.454321       -12.3627
 242   2.0000      -0.452932       -12.3249
 243   2.0000      -0.451027       -12.2731
 244   2.0000      -0.449528       -12.2323
 245   2.0000      -0.448063       -12.1924
 246   2.0000      -0.446992       -12.1633
 247   2.0000      -0.444754       -12.1024
 248   2.0000      -0.442902       -12.0520
 249   2.0000      -0.440144       -11.9769
 250   2.0000      -0.437780       -11.9126
 251   2.0000      -0.436790       -11.8856
 252   2.0000      -0.433141       -11.7864
 253   2.0000      -0.432743       -11.7755
 254   2.0000      -0.429854       -11.6969
 255   2.0000      -0.428493       -11.6599
 256   2.0000      -0.426753       -11.6126
 257   2.0000      -0.425335       -11.5739
 258   2.0000      -0.421009       -11.4562
 259   2.0000      -0.419884       -11.4256
 260   2.0000      -0.411784       -11.2052
 261   2.0000      -0.411662       -11.2019
 262   2.0000      -0.408063       -11.1040
 263   2.0000      -0.404634       -11.0107
 264   2.0000      -0.394735       -10.7413
 265   2.0000      -0.388225       -10.5641
 266   2.0000      -0.386132       -10.5072
 267   2.0000      -0.385264       -10.4836
 268   2.0000      -0.378978       -10.3125
 269   2.0000      -0.374263       -10.1842
 270   2.0000      -0.366723        -9.9790
 271   2.0000      -0.363610        -9.8943
 272   2.0000      -0.352151        -9.5825
 273   2.0000      -0.340901        -9.2764
 274   2.0000      -0.337243        -9.1768
 275   2.0000      -0.334457        -9.1010
 276   2.0000      -0.325998        -8.8708
 277   2.0000      -0.321948        -8.7607
 278   2.0000      -0.321468        -8.7476
 279   2.0000      -0.319257        -8.6874
 280   2.0000      -0.314098        -8.5470
 281   2.0000      -0.298832        -8.1316
 282   2.0000      -0.292601        -7.9621
 283   2.0000      -0.273863        -7.4522
 284   2.0000      -0.253025        -6.8852
 285   0.0000      -0.103238        -2.8092
 286   0.0000      -0.098196        -2.6721
 287   0.0000      -0.064852        -1.7647
 288   0.0000      -0.064694        -1.7604
 289   0.0000      -0.041631        -1.1328

MULLIKEN ATOMIC CHARGES
-----------------------
   0 C :    0.324544
   1 C :   -0.363724
   2 C :   -0.185490
   3 N :    0.145513
   4 C :   -0.183424
   5 N :    0.142560
   6 C :    0.011701
   7 C :   -0.006794
   8 C :   -0.077679
   9 C :    0.120745
  10 C :   -0.093369
  11 C :   -0.022772
  12 S :    0.186629
  13 C :   -0.123492
  14 C :    0.035764
  15 Br:    0.022128
  16 C :    0.153050
  17 O :   -0.195089
  18 C :   -0.098116
  19 C :   -0.029558
  20 C :   -0.080531
  21 S :    0.207775
  22 C :   -0.064086
  23 C :    0.122117
  24 C :    0.133172
  25 C :   -0.116910
  26 C :    0.231576
  27 F :   -0.163991
  28 C :    0.221082
  29 F :   -0.175911
  30 C :   -0.112005
  31 C :   -0.014495
  32 C :    0.026026
  33 C :    0.003521
  34 C :   -0.195250
  35 C :    0.076966
  36 C :    0.196171
  37 N :   -0.149347
  38 C :    0.046623
  39 C :   -0.070036
  40 C :    0.090366
  41 C :   -0.255841
  42 C :    0.535308
  43 F :   -0.153308
  44 F :   -0.168880
  45 F :   -0.154388
  46 S :    0.273324
  47 C :   -0.325773
  48 C :   -0.189639
  49 N :    0.158855
  50 C :    0.154912
  51 C :    0.017937
  52 C :   -0.103253
  53 C :    0.241134
  54 C :   -0.303229
  55 C :   -0.185990
  56 N :    0.167737
  57 C :   -0.196124
  58 N :    0.177438
  59 C :    0.012149
  60 C :    0.003964
  61 C :    0.138265
  62 O :   -0.141691
  63 C :   -0.070811
  64 C :    0.112556
  65 C :   -0.086256
  66 C :   -0.007550
  67 S :    0.193558
  68 C :   -0.125345
  69 C :    0.041708
  70 Br:    0.028770
  71 H :   -0.013945
  72 H :   -0.007264
  73 H :   -0.003604
  74 H :   -0.018996
  75 H :    0.015892
  76 H :   -0.010716
  77 H :   -0.015863
  78 H :    0.016716
  79 H :   -0.011608
  80 H :    0.038022
  81 H :    0.028281
  82 H :    0.038023
  83 H :    0.015193
  84 H :    0.023877
  85 H :    0.119298
  86 H :    0.018343
  87 H :    0.005246
  88 H :    0.004017
  89 H :   -0.007806
  90 H :    0.003234
  91 H :   -0.001837
Sum of atomic charges:   -0.0000000

LOEWDIN ATOMIC CHARGES
----------------------
   0 C :    0.078340
   1 C :   -0.153141
   2 C :   -0.019037
   3 N :   -0.059545
   4 C :   -0.016132
   5 N :   -0.063857
   6 C :   -0.019653
   7 C :   -0.049656
   8 C :    0.019120
   9 C :   -0.034236
  10 C :   -0.145218
  11 C :   -0.009824
  12 S :    0.433397
  13 C :   -0.272688
  14 C :   -0.071395
  15 Br:    0.135425
  16 C :    0.082478
  17 O :   -0.181478
  18 C :   -0.120200
  19 C :    0.048678
  20 C :   -0.197865
  21 S :    0.556400
  22 C :   -0.144246
  23 C :   -0.055396
  24 C :   -0.014453
  25 C :   -0.038160
  26 C :    0.075015
  27 F :   -0.044034
  28 C :    0.059160
  29 F :   -0.054617
  30 C :   -0.034940
  31 C :   -0.048942
  32 C :    0.003301
  33 C :   -0.060251
  34 C :   -0.017196
  35 C :   -0.054234
  36 C :    0.047856
  37 N :   -0.005208
  38 C :    0.043002
  39 C :   -0.132330
  40 C :   -0.006523
  41 C :   -0.238825
  42 C :    0.155595
  43 F :   -0.056118
  44 F :   -0.070192
  45 F :   -0.054677
  46 S :    0.533975
  47 C :   -0.213791
  48 C :   -0.052017
  49 N :   -0.046349
  50 C :   -0.035938
  51 C :    0.059880
  52 C :   -0.060602
  53 C :    0.071751
  54 C :   -0.124998
  55 C :   -0.018169
  56 N :   -0.041770
  57 C :   -0.019512
  58 N :   -0.043281
  59 C :   -0.011163
  60 C :   -0.053153
  61 C :    0.088556
  62 O :   -0.138361
  63 C :    0.024520
  64 C :   -0.030806
  65 C :   -0.139712
  66 C :   -0.001731
  67 S :    0.439095
  68 C :   -0.270215
  69 C :   -0.069972
  70 Br:    0.141135
  71 H :    0.039393
  72 H :    0.041011
  73 H :    0.038268
  74 H :    0.046699
  75 H :    0.047842
  76 H :    0.039682
  77 H :    0.031183
  78 H :    0.029545
  79 H :    0.029690
  80 H :    0.038617
  81 H :    0.035755
  82 H :    0.040129
  83 H :    0.027476
  84 H :    0.033215
  85 H :    0.080055
  86 H :    0.024902
  87 H :    0.028654
  88 H :    0.041710
  89 H :    0.042010
  90 H :    0.043883
  91 H :    0.039411

  Mayer bond orders larger than 0.100000
B(  0-C ,  1-C ) :   1.5993 B(  0-C ,  6-C ) :   0.9938 B(  0-C , 18-C ) :   1.1051
B(  1-C ,  2-C ) :   1.1477 B(  1-C ,  4-C ) :   1.1514 B(  2-C ,  3-N ) :   2.9647
B(  4-C ,  5-N ) :   2.9715 B(  6-C ,  7-C ) :   1.2753 B(  6-C , 11-C ) :   1.4200
B(  7-C ,  8-C ) :   1.4255 B(  7-C , 16-C ) :   0.9580 B(  8-C ,  9-C ) :   1.2383
B(  8-C , 71-H ) :   1.0177 B(  9-C , 10-C ) :   1.3119 B(  9-C , 14-C ) :   1.1627
B( 10-C , 11-C ) :   1.3213 B( 10-C , 12-S ) :   1.0867 B( 11-C , 72-H ) :   0.9801
B( 12-S , 13-C ) :   1.0875 B( 13-C , 14-C ) :   1.6179 B( 13-C , 15-Br) :   1.0183
B( 14-C , 73-H ) :   1.0000 B( 16-C , 17-O ) :   2.1153 B( 16-C , 18-C ) :   0.9874
B( 18-C , 19-C ) :   1.4552 B( 19-C , 20-C ) :   1.3472 B( 19-C , 74-H ) :   0.9302
B( 20-C , 21-S ) :   1.0918 B( 20-C , 24-C ) :   1.2273 B( 21-S , 22-C ) :   1.1769
B( 22-C , 23-C ) :   1.2592 B( 22-C , 31-C ) :   1.1888 B( 23-C , 24-C ) :   1.2498
B( 23-C , 30-C ) :   1.1803 B( 24-C , 25-C ) :   1.2028 B( 25-C , 26-C ) :   1.4655
B( 25-C , 30-C ) :   0.1121 B( 25-C , 75-H ) :   0.9884 B( 26-C , 27-F ) :   1.1548
B( 26-C , 28-C ) :   1.1782 B( 28-C , 29-F ) :   1.1327 B( 28-C , 30-C ) :   1.4859
B( 30-C , 76-H ) :   0.9974 B( 31-C , 32-C ) :   1.6722 B( 31-C , 77-H ) :   0.9644
B( 32-C , 33-C ) :   1.1197 B( 32-C , 78-H ) :   0.9587 B( 33-C , 34-C ) :   1.7931
B( 33-C , 79-H ) :   0.9521 B( 34-C , 35-C ) :   1.0763 B( 34-C , 36-C ) :   1.0402
B( 35-C , 80-H ) :   0.9450 B( 35-C , 81-H ) :   0.9430 B( 35-C , 82-H ) :   0.9350
B( 36-C , 37-N ) :   1.0127 B( 36-C , 83-H ) :   0.9410 B( 36-C , 84-H ) :   0.9329
B( 37-N , 38-C ) :   1.2216 B( 37-N , 85-H ) :   0.9375 B( 38-C , 39-C ) :   1.6586
B( 38-C , 86-H ) :   0.9645 B( 39-C , 40-C ) :   1.1347 B( 39-C , 87-H ) :   0.9273
B( 40-C , 41-C ) :   1.5194 B( 40-C , 50-C ) :   1.2441 B( 41-C , 42-C ) :   0.9597
B( 41-C , 46-S ) :   1.1128 B( 41-C , 47-C ) :   0.1201 B( 42-C , 43-F ) :   1.1612
B( 42-C , 44-F ) :   1.1544 B( 42-C , 45-F ) :   1.1696 B( 46-S , 47-C ) :   1.1774
B( 47-C , 48-C ) :   1.2425 B( 47-C , 50-C ) :   1.4561 B( 48-C , 49-N ) :   2.9892
B( 50-C , 51-C ) :   0.9981 B( 51-C , 52-C ) :   1.8069 B( 51-C , 88-H ) :   0.9283
B( 52-C , 53-C ) :   0.9838 B( 52-C , 61-C ) :   0.9277 B( 53-C , 54-C ) :   1.6823
B( 53-C , 59-C ) :   1.0240 B( 54-C , 55-C ) :   1.1293 B( 54-C , 57-C ) :   1.1693
B( 55-C , 56-N ) :   2.9996 B( 57-C , 58-N ) :   3.0082 B( 59-C , 60-C ) :   1.2682
B( 59-C , 66-C ) :   1.4116 B( 60-C , 61-C ) :   0.9315 B( 60-C , 63-C ) :   1.4153
B( 61-C , 62-O ) :   2.2549 B( 63-C , 64-C ) :   1.2576 B( 63-C , 89-H ) :   1.0163
B( 64-C , 65-C ) :   1.2974 B( 64-C , 69-C ) :   1.1667 B( 65-C , 66-C ) :   1.3326
B( 65-C , 67-S ) :   1.0879 B( 66-C , 90-H ) :   0.9838 B( 67-S , 68-C ) :   1.0880
B( 68-C , 69-C ) :   1.6164 B( 68-C , 70-Br) :   1.0217 B( 69-C , 91-H ) :   0.9998

-----------------------------------------------------------------------------
         ABSORPTION SPECTRUM VIA TRANSITION ELECTRIC DIPOLE MOMENTS
-----------------------------------------------------------------------------
State   Energy  Wavelength   fosc         T2         TX        TY        TZ
        (cm-1)    (nm)                  (au**2)     (au)      (au)      (au)
-----------------------------------------------------------------------------
   0   17060.2    586.2   1.180278077  22.77587  -0.61490   3.92390  -2.64590
   1   19764.5    506.0   0.038033502   0.63351  -0.48637   0.38160  -0.50134
   2   23861.3    419.1   0.016514506   0.22785   0.27606  -0.38747   0.03890
   3   24454.0    408.9   0.041650011   0.56071  -0.74022  -0.00708   0.11286
   4   26031.8    384.1   0.002687278   0.03398  -0.06691   0.09653  -0.14209
   5   26497.2    377.4   0.218034947   2.70896   0.24383   0.98542  -1.29556
   6   26843.8    372.5   0.221926661   2.72171  -1.14977  -1.17719  -0.11810
   7   27551.8    363.0   0.002884701   0.03447   0.05146  -0.16305  -0.07236
   8   28132.0    355.5   0.147482810   1.72590  -0.90151   0.25367  -0.92132
   9   28770.1    347.6   0.056137484   0.64237  -0.07770   0.06325  -0.79520
  10   28885.8    346.2   0.008880614   0.10121  -0.25164   0.12795  -0.14668
  11   29173.9    342.8   0.044127501   0.49795   0.51821  -0.26252   0.40062
  12   29809.6    335.5   0.049487239   0.54653  -0.59791  -0.43340   0.03449
  13   30253.8    330.5   0.018181381   0.19784   0.05793  -0.24746   0.36504
  14   30783.1    324.9   0.189467006   2.02627  -1.27821  -0.44406  -0.44187
  15   31801.8    314.4   0.159897751   1.65526  -1.18753   0.42085  -0.26059
  16   31966.4    312.8   0.165606164   1.70553   0.29829   1.01377   0.76735
  17   32412.4    308.5   0.000505749   0.00514   0.02471   0.06402   0.02069
  18   32583.0    306.9   0.708585624   7.15939  -2.11224  -1.49666  -0.67666
  19   33049.6    302.6   0.640822965   6.38333   0.49286   1.09582  -2.22252
  20   33742.2    296.4   0.003645134   0.03556   0.00819   0.00610  -0.18831
  21   33944.2    294.6   0.055518577   0.53845  -0.45392   0.25560  -0.51680
  22   33980.7    294.3   0.042533047   0.41207   0.35069   0.51995  -0.13689
  23   35212.7    284.0   0.017310515   0.16184   0.27316  -0.17164   0.24034
  24   35795.6    279.4   0.286629769   2.63613  -1.45030   0.29197  -0.66897
  25   36050.8    277.4   0.009543016   0.08715   0.11653  -0.06958   0.26216
  26   36120.6    276.9   0.399960495   3.64533   0.72639  -0.50108   1.69311
  27   36150.9    276.6   0.037628866   0.34267  -0.30930   0.15430  -0.47243
  28   36728.0    272.3   0.008649745   0.07753  -0.11143   0.14035  -0.21311
  29   36862.9    271.3   0.171867324   1.53490   0.49359  -0.80591   0.80112
  30   37276.9    268.3   0.011343044   0.10018   0.26321  -0.15011  -0.09145
  31   37829.1    264.3   0.029960076   0.26073   0.44547  -0.24938  -0.00984
  32   38686.9    258.5   0.001340885   0.01141   0.05191  -0.01376   0.09234
  33   39237.8    254.9   0.098145228   0.82346  -0.47681  -0.45941  -0.62053
  34   39467.7    253.4   0.030973674   0.25836   0.20682  -0.46023   0.06142
  35   39656.5    252.2   0.040018009   0.33221  -0.36398   0.44066   0.07451
  36   39689.6    252.0   0.293676508   2.43595   0.61298   1.32598  -0.54952
  37   40162.9    249.0   0.125046948   1.02500   0.64786  -0.73100  -0.26629

FINAL SINGLE POINT ENERGY     -9708.785163688213

DIPOLE MOMENT
-------------
                                X             Y             Z
Electronic contribution:    -67.36573      -5.33192     -23.67186
Nuclear contribution   :     66.49813       5.44447      19.76501
                        -----------------------------------------
Total Dipole Moment    :     -0.86760       0.11255      -3.90685
                        -----------------------------------------
Magnitude (a.u.)       :      4.00361
Magnitude (Debye)      :     10.17636

Rotational constants in cm-1:     0.001200     0.000162     0.000152
Rotational constants in MHz :    35.965302     4.843210     4.562230

                             ****ORCA TERMINATED NORMALLY****
TOTAL RUN TIME: 0 days 0 hours 9 minutes 25 seconds 199 msec
