                         Program Version 4.2.0 -  RELEASE  -
|  1> # ORCA input file
|  2> # SCF done       -164.753760421526          0.000763613835
|  3> ! CAM-B3LYP def2-SVP def2/J RIJCOSX Grid4 TightSCF
|  4> %maxcore 5000
|  5> %tddft
|  6>     Mode sTDDFT
|  7>     Ethresh 5.0
|  8>     maxcore 5000
|  9> end
| 10>
| 11> %pal
| 12>   nprocs 6
| 13>   end
| 14> * xyz 0 1
| 15>    C       -5.57157         3.91778         3.19405
| 16>    C       -4.98679         3.30074         4.26366
| 17>    C       -5.01183         3.81248         5.58015
| 18>    N       -5.00746         4.17361         6.66904
| 19>    C       -4.23971         2.10201         4.21128
| 20>    N       -3.59497         1.15430         4.26463
| 21>    C       -6.24976         5.20360         3.21777
| 22>    C       -6.51538         5.60401         1.88493
| 23>    C       -7.15090         6.78501         1.58150
| 24>    C       -7.56489         7.59587         2.64351
| 25>    C       -7.30474         7.18141         3.97416
| 26>    C       -6.64406         5.99859         4.27955
| 27>    S       -7.93313         8.30917         5.13343
| 28>    C       -8.53808         9.29913         3.83689
| 29>    C       -8.27368         8.82746         2.59446
| 30>   Br       -9.46939        10.87434         4.25272
| 31>    C       -6.04589         4.56553         0.94165
| 32>    O       -6.11326         4.62097        -0.25983
| 33>    C       -5.55060         3.44676         1.80826
| 34>    C       -5.31376         2.16929         1.44498
| 35>    C       -5.27535         1.59738         0.10884
| 36>    N       -5.52263         0.28258         0.06433
| 37>    C       -5.47567        -0.29312        -1.12191
| 38>    C       -5.18514         0.41312        -2.27892
| 39>    C       -4.93604         1.78473        -2.13514
| 40>    N       -4.97181         2.35279        -0.93017
| 41>    C       -4.64433         2.63360        -3.27422
| 42>    C       -4.63465         3.96784        -3.16435
| 43>    C       -4.38357         4.87724        -4.26615
| 44>    N       -4.13737         4.38668        -5.48549
| 45>    C       -3.92510         5.26350        -6.44844
| 46>    C       -3.95277         6.63468        -6.23645
| 47>    C       -4.21496         7.05819        -4.92857
| 48>    N       -4.42394         6.16680        -3.96230
| 49>    C       -4.27424         8.46201        -4.55798
| 50>    C       -4.52615         8.83093        -3.29579
| 51>    C       -4.60429        10.20130        -2.83448
| 52>    N       -4.44004        11.19988        -3.70793
| 53>    C       -4.53591        12.42817        -3.23969
| 54>    C       -4.78493        12.70293        -1.90209
| 55>    C       -4.92507        11.59695        -1.05647
| 56>    N       -4.83187        10.35952        -1.53628
| 57>    C       -5.19991        11.74667         0.35932
| 58>    C       -5.44711        10.68409         1.14548
| 59>    C       -5.70668        10.72544         2.54992
| 60>    C       -6.29691        11.69145         3.29226
| 61>    C       -7.00955        12.91130         2.95116
| 62>    C       -7.78513        13.11264         1.84204
| 63>    C       -8.49736        14.30133         1.58253
| 64>    N       -9.06018        15.26324         1.30998
| 65>    C       -8.03216        12.10271         0.89118
| 66>    N       -8.31154        11.28391         0.13711
| 67>    C       -6.97669        13.76786         4.12864
| 68>    C       -6.51388        13.00761         5.23447
| 69>    C       -6.16387        11.65180         4.77919
| 70>    O       -5.81788        10.69929         5.43823
| 71>    C       -6.43834        13.52657         6.50461
| 72>    C       -6.82083        14.85894         6.68851
| 73>    C       -7.26582        15.61352         5.57479
| 74>    C       -7.35465        15.08678         4.29286
| 75>    S       -7.68048        17.23734         6.02759
| 76>    C       -7.26185        16.88745         7.68396
| 77>    C       -6.83127        15.61960         7.88911
| 78>   Br       -7.42876        18.22887         8.98212
| 79>    H       -7.33739         7.06934         0.55760
| 80>    H       -6.47339         5.72227         5.30657
| 81>    H       -8.56777         9.31789         1.68339
| 82>    H       -5.17551         1.41855         2.21326
| 83>    H       -5.67638        -1.35709        -1.13726
| 84>    H       -5.15117        -0.06582        -3.24383
| 85>    H       -4.46370         2.15355        -4.22543
| 86>    H       -4.84716         4.43041        -2.21158
| 87>    H       -3.72644         4.84690        -7.42859
| 88>    H       -3.78152         7.33761        -7.03534
| 89>    H       -4.10968         9.19855        -5.33081
| 90>    H       -4.68680         8.07433        -2.54176
| 91>    H       -4.40314        13.22202        -3.96432
| 92>    H       -4.86862        13.71288        -1.53479
| 93>    H       -5.18534        12.75472         0.75222
| 94>    H       -5.36886         9.70532         0.68943
| 95>    H       -5.33076         9.88019         3.12078
| 96>    H       -6.09709        12.92330         7.33102
| 97>    H       -7.69888        15.69670         3.47396
| 98>    H       -6.53295        15.23525         8.84728
| 99> *
|100>
|101>                          ****END OF INPUT****

CARTESIAN COORDINATES (ANGSTROEM)
---------------------------------
  C     -5.571570    3.917780    3.194050
  C     -4.986790    3.300740    4.263660
  C     -5.011830    3.812480    5.580150
  N     -5.007460    4.173610    6.669040
  C     -4.239710    2.102010    4.211280
  N     -3.594970    1.154300    4.264630
  C     -6.249760    5.203600    3.217770
  C     -6.515380    5.604010    1.884930
  C     -7.150900    6.785010    1.581500
  C     -7.564890    7.595870    2.643510
  C     -7.304740    7.181410    3.974160
  C     -6.644060    5.998590    4.279550
  S     -7.933130    8.309170    5.133430
  C     -8.538080    9.299130    3.836890
  C     -8.273680    8.827460    2.594460
  Br    -9.469390   10.874340    4.252720
  C     -6.045890    4.565530    0.941650
  O     -6.113260    4.620970   -0.259830
  C     -5.550600    3.446760    1.808260
  C     -5.313760    2.169290    1.444980
  C     -5.275350    1.597380    0.108840
  N     -5.522630    0.282580    0.064330
  C     -5.475670   -0.293120   -1.121910
  C     -5.185140    0.413120   -2.278920
  C     -4.936040    1.784730   -2.135140
  N     -4.971810    2.352790   -0.930170
  C     -4.644330    2.633600   -3.274220
  C     -4.634650    3.967840   -3.164350
  C     -4.383570    4.877240   -4.266150
  N     -4.137370    4.386680   -5.485490
  C     -3.925100    5.263500   -6.448440
  C     -3.952770    6.634680   -6.236450
  C     -4.214960    7.058190   -4.928570
  N     -4.423940    6.166800   -3.962300
  C     -4.274240    8.462010   -4.557980
  C     -4.526150    8.830930   -3.295790
  C     -4.604290   10.201300   -2.834480
  N     -4.440040   11.199880   -3.707930
  C     -4.535910   12.428170   -3.239690
  C     -4.784930   12.702930   -1.902090
  C     -4.925070   11.596950   -1.056470
  N     -4.831870   10.359520   -1.536280
  C     -5.199910   11.746670    0.359320
  C     -5.447110   10.684090    1.145480
  C     -5.706680   10.725440    2.549920
  C     -6.296910   11.691450    3.292260
  C     -7.009550   12.911300    2.951160
  C     -7.785130   13.112640    1.842040
  C     -8.497360   14.301330    1.582530
  N     -9.060180   15.263240    1.309980
  C     -8.032160   12.102710    0.891180
  N     -8.311540   11.283910    0.137110
  C     -6.976690   13.767860    4.128640
  C     -6.513880   13.007610    5.234470
  C     -6.163870   11.651800    4.779190
  O     -5.817880   10.699290    5.438230
  C     -6.438340   13.526570    6.504610
  C     -6.820830   14.858940    6.688510
  C     -7.265820   15.613520    5.574790
  C     -7.354650   15.086780    4.292860
  S     -7.680480   17.237340    6.027590
  C     -7.261850   16.887450    7.683960
  C     -6.831270   15.619600    7.889110
  Br    -7.428760   18.228870    8.982120
  H     -7.337390    7.069340    0.557600
  H     -6.473390    5.722270    5.306570
  H     -8.567770    9.317890    1.683390
  H     -5.175510    1.418550    2.213260
  H     -5.676380   -1.357090   -1.137260
  H     -5.151170   -0.065820   -3.243830
  H     -4.463700    2.153550   -4.225430
  H     -4.847160    4.430410   -2.211580
  H     -3.726440    4.846900   -7.428590
  H     -3.781520    7.337610   -7.035340
  H     -4.109680    9.198550   -5.330810
  H     -4.686800    8.074330   -2.541760
  H     -4.403140   13.222020   -3.964320
  H     -4.868620   13.712880   -1.534790
  H     -5.185340   12.754720    0.752220
  H     -5.368860    9.705320    0.689430
  H     -5.330760    9.880190    3.120780
  H     -6.097090   12.923300    7.331020
  H     -7.698880   15.696700    3.473960
  H     -6.532950   15.235250    8.847280

 Total Charge           Charge          ....    0
 Multiplicity           Mult            ....    1
 Number of Electrons    NEL             ....  496
 Basis Dimension        Dim             .... 1040

ORBITAL ENERGIES
----------------

  NO   OCC          E(Eh)            E(eV)
   0   2.0000    -482.891722    -13140.1518
   1   2.0000    -482.891483    -13140.1453
   2   2.0000     -88.983333     -2421.3596
   3   2.0000     -88.973514     -2421.0924
   4   2.0000     -62.569418     -1702.6004
   5   2.0000     -62.568599     -1702.5781
   6   2.0000     -56.403376     -1534.8139
   7   2.0000     -56.402540     -1534.7912
   8   2.0000     -56.400647     -1534.7396
   9   2.0000     -56.400617     -1534.7388
  10   2.0000     -56.399926     -1534.7200
  11   2.0000     -56.399816     -1534.7170
  12   2.0000     -19.224516      -523.1257
  13   2.0000     -19.212825      -522.8076
  14   2.0000     -14.426667      -392.5696
  15   2.0000     -14.426073      -392.5534
  16   2.0000     -14.416181      -392.2842
  17   2.0000     -14.414649      -392.2425
  18   2.0000     -14.414464      -392.2375
  19   2.0000     -14.413477      -392.2106
  20   2.0000     -14.410389      -392.1266
  21   2.0000     -14.405620      -391.9969
  22   2.0000     -14.405294      -391.9880
  23   2.0000     -14.402540      -391.9131
  24   2.0000     -10.374495      -282.3044
  25   2.0000     -10.367074      -282.1024
  26   2.0000     -10.366185      -282.0782
  27   2.0000     -10.358228      -281.8617
  28   2.0000     -10.352963      -281.7184
  29   2.0000     -10.352301      -281.7004
  30   2.0000     -10.346458      -281.5414
  31   2.0000     -10.345125      -281.5052
  32   2.0000     -10.344966      -281.5008
  33   2.0000     -10.341153      -281.3971
  34   2.0000     -10.336398      -281.2677
  35   2.0000     -10.336279      -281.2644
  36   2.0000     -10.334419      -281.2138
  37   2.0000     -10.328994      -281.0662
  38   2.0000     -10.328480      -281.0522
  39   2.0000     -10.328028      -281.0399
  40   2.0000     -10.325371      -280.9676
  41   2.0000     -10.324784      -280.9516
  42   2.0000     -10.324236      -280.9368
  43   2.0000     -10.321975      -280.8752
  44   2.0000     -10.319923      -280.8194
  45   2.0000     -10.318715      -280.7865
  46   2.0000     -10.318371      -280.7772
  47   2.0000     -10.318048      -280.7684
  48   2.0000     -10.315884      -280.7095
  49   2.0000     -10.315595      -280.7016
  50   2.0000     -10.315119      -280.6887
  51   2.0000     -10.309624      -280.5391
  52   2.0000     -10.307949      -280.4936
  53   2.0000     -10.307847      -280.4908
  54   2.0000     -10.306844      -280.4635
  55   2.0000     -10.306736      -280.4606
  56   2.0000     -10.305148      -280.4173
  57   2.0000     -10.304182      -280.3910
  58   2.0000     -10.303573      -280.3745
  59   2.0000     -10.302302      -280.3399
  60   2.0000     -10.302252      -280.3385
  61   2.0000     -10.299565      -280.2654
  62   2.0000     -10.298214      -280.2286
  63   2.0000     -10.294137      -280.1177
  64   2.0000     -10.293041      -280.0879
  65   2.0000     -10.291437      -280.0443
  66   2.0000     -10.287375      -279.9337
  67   2.0000     -10.283141      -279.8185
  68   2.0000     -10.277384      -279.6618
  69   2.0000     -10.271980      -279.5148
  70   2.0000     -10.270055      -279.4624
  71   2.0000     -10.264808      -279.3196
  72   2.0000      -8.798849      -239.4289
  73   2.0000      -8.797797      -239.4002
  74   2.0000      -8.079288      -219.8486
  75   2.0000      -8.069376      -219.5789
  76   2.0000      -6.635160      -180.5519
  77   2.0000      -6.633820      -180.5154
  78   2.0000      -6.620585      -180.1553
  79   2.0000      -6.620361      -180.1492
  80   2.0000      -6.619842      -180.1350
  81   2.0000      -6.619314      -180.1207
  82   2.0000      -6.048965      -164.6007
  83   2.0000      -6.044697      -164.4846
  84   2.0000      -6.040547      -164.3716
  85   2.0000      -6.039078      -164.3317
  86   2.0000      -6.034756      -164.2141
  87   2.0000      -6.030574      -164.1003
  88   2.0000      -2.751079       -74.8607
  89   2.0000      -2.749751       -74.8245
  90   2.0000      -2.746919       -74.7475
  91   2.0000      -2.746759       -74.7431
  92   2.0000      -2.745932       -74.7206
  93   2.0000      -2.745496       -74.7087
  94   2.0000      -2.735172       -74.4278
  95   2.0000      -2.735166       -74.4276
  96   2.0000      -2.734399       -74.4068
  97   2.0000      -2.734389       -74.4065
  98   2.0000      -1.139681       -31.0123
  99   2.0000      -1.130858       -30.7722
 100   2.0000      -1.088822       -29.6284
 101   2.0000      -1.083562       -29.4852
 102   2.0000      -1.078364       -29.3438
 103   2.0000      -1.032555       -28.0972
 104   2.0000      -1.022977       -27.8366
 105   2.0000      -1.022213       -27.8158
 106   2.0000      -1.012789       -27.5594
 107   2.0000      -1.005464       -27.3601
 108   2.0000      -0.999162       -27.1886
 109   2.0000      -0.993157       -27.0252
 110   2.0000      -0.988950       -26.9107
 111   2.0000      -0.988816       -26.9071
 112   2.0000      -0.980936       -26.6926
 113   2.0000      -0.977397       -26.5963
 114   2.0000      -0.952660       -25.9232
 115   2.0000      -0.943767       -25.6812
 116   2.0000      -0.928596       -25.2684
 117   2.0000      -0.917569       -24.9683
 118   2.0000      -0.917107       -24.9557
 119   2.0000      -0.912216       -24.8227
 120   2.0000      -0.909539       -24.7498
 121   2.0000      -0.901766       -24.5383
 122   2.0000      -0.894748       -24.3473
 123   2.0000      -0.885828       -24.1046
 124   2.0000      -0.884467       -24.0676
 125   2.0000      -0.881750       -23.9936
 126   2.0000      -0.860730       -23.4217
 127   2.0000      -0.847681       -23.0666
 128   2.0000      -0.841340       -22.8940
 129   2.0000      -0.837356       -22.7856
 130   2.0000      -0.835324       -22.7303
 131   2.0000      -0.827623       -22.5208
 132   2.0000      -0.789878       -21.4937
 133   2.0000      -0.782599       -21.2956
 134   2.0000      -0.773950       -21.0603
 135   2.0000      -0.769956       -20.9516
 136   2.0000      -0.768182       -20.9033
 137   2.0000      -0.758558       -20.6414
 138   2.0000      -0.747379       -20.3372
 139   2.0000      -0.737714       -20.0742
 140   2.0000      -0.726566       -19.7709
 141   2.0000      -0.718748       -19.5581
 142   2.0000      -0.714654       -19.4467
 143   2.0000      -0.700731       -19.0679
 144   2.0000      -0.695770       -18.9329
 145   2.0000      -0.695120       -18.9152
 146   2.0000      -0.688762       -18.7422
 147   2.0000      -0.673520       -18.3274
 148   2.0000      -0.670264       -18.2388
 149   2.0000      -0.666344       -18.1321
 150   2.0000      -0.655814       -17.8456
 151   2.0000      -0.653203       -17.7746
 152   2.0000      -0.644035       -17.5251
 153   2.0000      -0.633167       -17.2293
 154   2.0000      -0.627483       -17.0747
 155   2.0000      -0.624149       -16.9839
 156   2.0000      -0.619842       -16.8668
 157   2.0000      -0.618793       -16.8382
 158   2.0000      -0.607843       -16.5402
 159   2.0000      -0.600086       -16.3292
 160   2.0000      -0.596850       -16.2411
 161   2.0000      -0.593971       -16.1628
 162   2.0000      -0.586184       -15.9509
 163   2.0000      -0.583169       -15.8688
 164   2.0000      -0.580671       -15.8009
 165   2.0000      -0.570917       -15.5354
 166   2.0000      -0.566605       -15.4181
 167   2.0000      -0.560013       -15.2387
 168   2.0000      -0.551620       -15.0103
 169   2.0000      -0.549896       -14.9634
 170   2.0000      -0.548801       -14.9336
 171   2.0000      -0.545974       -14.8567
 172   2.0000      -0.543565       -14.7912
 173   2.0000      -0.540904       -14.7188
 174   2.0000      -0.539134       -14.6706
 175   2.0000      -0.535430       -14.5698
 176   2.0000      -0.533943       -14.5293
 177   2.0000      -0.531712       -14.4686
 178   2.0000      -0.526809       -14.3352
 179   2.0000      -0.524768       -14.2797
 180   2.0000      -0.521812       -14.1992
 181   2.0000      -0.520123       -14.1533
 182   2.0000      -0.517477       -14.0813
 183   2.0000      -0.514211       -13.9924
 184   2.0000      -0.511196       -13.9103
 185   2.0000      -0.510946       -13.9036
 186   2.0000      -0.509215       -13.8564
 187   2.0000      -0.505072       -13.7437
 188   2.0000      -0.504172       -13.7192
 189   2.0000      -0.500137       -13.6094
 190   2.0000      -0.497459       -13.5366
 191   2.0000      -0.492270       -13.3953
 192   2.0000      -0.490865       -13.3571
 193   2.0000      -0.488642       -13.2966
 194   2.0000      -0.485305       -13.2058
 195   2.0000      -0.481971       -13.1151
 196   2.0000      -0.475411       -12.9366
 197   2.0000      -0.471202       -12.8221
 198   2.0000      -0.468013       -12.7353
 199   2.0000      -0.464741       -12.6462
 200   2.0000      -0.461905       -12.5691
 201   2.0000      -0.459984       -12.5168
 202   2.0000      -0.455931       -12.4065
 203   2.0000      -0.454066       -12.3558
 204   2.0000      -0.451639       -12.2897
 205   2.0000      -0.447843       -12.1864
 206   2.0000      -0.446396       -12.1470
 207   2.0000      -0.445480       -12.1221
 208   2.0000      -0.445033       -12.1100
 209   2.0000      -0.442082       -12.0297
 210   2.0000      -0.437458       -11.9038
 211   2.0000      -0.436259       -11.8712
 212   2.0000      -0.435236       -11.8434
 213   2.0000      -0.430538       -11.7155
 214   2.0000      -0.427215       -11.6251
 215   2.0000      -0.425320       -11.5736
 216   2.0000      -0.422184       -11.4882
 217   2.0000      -0.420500       -11.4424
 218   2.0000      -0.418870       -11.3980
 219   2.0000      -0.411884       -11.2079
 220   2.0000      -0.409605       -11.1459
 221   2.0000      -0.407029       -11.0758
 222   2.0000      -0.396478       -10.7887
 223   2.0000      -0.390896       -10.6368
 224   2.0000      -0.389515       -10.5992
 225   2.0000      -0.384654       -10.4670
 226   2.0000      -0.383042       -10.4231
 227   2.0000      -0.382198       -10.4001
 228   2.0000      -0.380928       -10.3656
 229   2.0000      -0.380700       -10.3594
 230   2.0000      -0.378508       -10.2997
 231   2.0000      -0.375838       -10.2271
 232   2.0000      -0.373244       -10.1565
 233   2.0000      -0.363648        -9.8954
 234   2.0000      -0.357415        -9.7258
 235   2.0000      -0.343174        -9.3382
 236   2.0000      -0.341985        -9.3059
 237   2.0000      -0.330468        -8.9925
 238   2.0000      -0.324165        -8.8210
 239   2.0000      -0.319970        -8.7068
 240   2.0000      -0.319279        -8.6880
 241   2.0000      -0.316350        -8.6083
 242   2.0000      -0.311224        -8.4688
 243   2.0000      -0.306853        -8.3499
 244   2.0000      -0.303556        -8.2602
 245   2.0000      -0.301318        -8.1993
 246   2.0000      -0.293212        -7.9787
 247   2.0000      -0.289984        -7.8909
 248   0.0000      -0.100751        -2.7416
 249   0.0000      -0.088746        -2.4149
 250   0.0000      -0.068415        -1.8617
 251   0.0000      -0.055657        -1.5145
 252   0.0000      -0.051375        -1.3980

MULLIKEN ATOMIC CHARGES
-----------------------
   0 C :    0.288610
   1 C :   -0.331089
   2 C :   -0.188157
   3 N :    0.154972
   4 C :   -0.200831
   5 N :    0.171046
   6 C :    0.023398
   7 C :   -0.019069
   8 C :   -0.081007
   9 C :    0.097035
  10 C :   -0.083262
  11 C :   -0.028801
  12 S :    0.216933
  13 C :   -0.156521
  14 C :    0.062901
  15 Br:    0.025633
  16 C :    0.154864
  17 O :   -0.103082
  18 C :   -0.035316
  19 C :    0.024633
  20 C :   -0.098370
  21 N :   -0.069459
  22 C :    0.080025
  23 C :   -0.029909
  24 C :    0.049186
  25 N :   -0.012655
  26 C :    0.010838
  27 C :    0.084600
  28 C :   -0.073693
  29 N :   -0.072308
  30 C :    0.079883
  31 C :   -0.043613
  32 C :    0.053917
  33 N :   -0.039570
  34 C :    0.014502
  35 C :    0.075048
  36 C :   -0.053030
  37 N :   -0.067157
  38 C :    0.082338
  39 C :   -0.041112
  40 C :    0.038254
  41 N :   -0.048129
  42 C :    0.024694
  43 C :    0.019776
  44 C :    0.068283
  45 C :   -0.116352
  46 C :    0.260464
  47 C :   -0.344326
  48 C :   -0.175194
  49 N :    0.158829
  50 C :   -0.160556
  51 N :    0.152122
  52 C :    0.003890
  53 C :    0.014279
  54 C :    0.127147
  55 O :   -0.138208
  56 C :   -0.069078
  57 C :    0.111349
  58 C :   -0.089272
  59 C :   -0.023760
  60 S :    0.188713
  61 C :   -0.125485
  62 C :    0.043804
  63 Br:    0.030202
  64 H :    0.001555
  65 H :   -0.003837
  66 H :    0.001252
  67 H :    0.033449
  68 H :    0.010721
  69 H :   -0.000539
  70 H :   -0.005794
  71 H :    0.016805
  72 H :    0.004953
  73 H :   -0.004248
  74 H :   -0.003273
  75 H :    0.012869
  76 H :    0.011350
  77 H :   -0.003015
  78 H :   -0.000434
  79 H :    0.031298
  80 H :    0.031903
  81 H :   -0.005538
  82 H :   -0.003505
  83 H :    0.000229
Sum of atomic charges:   -0.0000000

LOEWDIN ATOMIC CHARGES
----------------------
   0 C :    0.074265
   1 C :   -0.128043
   2 C :   -0.017180
   3 N :   -0.047312
   4 C :   -0.025919
   5 N :   -0.039051
   6 C :   -0.023270
   7 C :   -0.051956
   8 C :    0.022707
   9 C :   -0.036195
  10 C :   -0.144236
  11 C :   -0.009145
  12 S :    0.454941
  13 C :   -0.274494
  14 C :   -0.067065
  15 Br:    0.153198
  16 C :    0.084522
  17 O :   -0.105707
  18 C :   -0.059809
  19 C :    0.064678
  20 C :    0.010972
  21 N :   -0.082155
  22 C :    0.047016
  23 C :   -0.047187
  24 C :    0.038214
  25 N :   -0.049493
  26 C :   -0.017784
  27 C :    0.014566
  28 C :    0.026126
  29 N :   -0.089668
  30 C :    0.050153
  31 C :   -0.062521
  32 C :    0.034412
  33 N :   -0.073417
  34 C :   -0.006984
  35 C :    0.003386
  36 C :    0.031341
  37 N :   -0.083298
  38 C :    0.054605
  39 C :   -0.058691
  40 C :    0.031595
  41 N :   -0.075185
  42 C :    0.005886
  43 C :    0.002219
  44 C :    0.067061
  45 C :   -0.085076
  46 C :    0.067692
  47 C :   -0.142517
  48 C :   -0.021935
  49 N :   -0.048775
  50 C :   -0.009035
  51 N :   -0.048229
  52 C :   -0.020302
  53 C :   -0.051859
  54 C :    0.078118
  55 O :   -0.138323
  56 C :    0.024856
  57 C :   -0.031505
  58 C :   -0.143390
  59 C :   -0.012195
  60 S :    0.434819
  61 C :   -0.270232
  62 C :   -0.069381
  63 Br:    0.141966
  64 H :    0.044797
  65 H :    0.041407
  66 H :    0.039069
  67 H :    0.050528
  68 H :    0.028134
  69 H :    0.035948
  70 H :    0.029950
  71 H :    0.040503
  72 H :    0.025622
  73 H :    0.033946
  74 H :    0.031729
  75 H :    0.038557
  76 H :    0.028174
  77 H :    0.034443
  78 H :    0.030096
  79 H :    0.042391
  80 H :    0.049605
  81 H :    0.043154
  82 H :    0.040955
  83 H :    0.040197

  Mayer bond orders larger than 0.100000
B(  0-C ,  1-C ) :   1.6664 B(  0-C ,  6-C ) :   1.0129 B(  0-C , 18-C ) :   1.0328
B(  1-C ,  2-C ) :   1.1367 B(  1-C ,  4-C ) :   1.1327 B(  2-C ,  3-N ) :   2.9793
B(  4-C ,  5-N ) :   3.0033 B(  6-C ,  7-C ) :   1.2721 B(  6-C , 11-C ) :   1.3960
B(  7-C ,  8-C ) :   1.4104 B(  7-C , 16-C ) :   0.9402 B(  8-C ,  9-C ) :   1.2467
B(  8-C , 64-H ) :   1.0214 B(  9-C , 10-C ) :   1.2929 B(  9-C , 14-C ) :   1.1697
B( 10-C , 11-C ) :   1.3343 B( 10-C , 12-S ) :   1.1009 B( 11-C , 65-H ) :   0.9826
B( 12-S , 13-C ) :   1.0966 B( 13-C , 14-C ) :   1.5949 B( 13-C , 15-Br) :   1.0238
B( 14-C , 66-H ) :   0.9896 B( 16-C , 17-O ) :   2.2332 B( 16-C , 18-C ) :   0.9019
B( 18-C , 19-C ) :   1.6992 B( 19-C , 20-C ) :   1.0151 B( 19-C , 67-H ) :   0.9435
B( 20-C , 21-N ) :   1.5210 B( 20-C , 25-N ) :   1.5630 B( 21-N , 22-C ) :   1.5498
B( 22-C , 23-C ) :   1.3703 B( 22-C , 68-H ) :   0.9801 B( 23-C , 24-C ) :   1.3289
B( 23-C , 69-H ) :   0.9769 B( 24-C , 25-N ) :   1.5152 B( 24-C , 26-C ) :   1.0380
B( 26-C , 27-C ) :   1.7414 B( 26-C , 70-H ) :   0.9744 B( 27-C , 28-C ) :   1.0049
B( 27-C , 71-H ) :   0.9614 B( 28-C , 29-N ) :   1.5175 B( 28-C , 33-N ) :   1.5592
B( 29-N , 30-C ) :   1.5584 B( 30-C , 31-C ) :   1.3597 B( 30-C , 72-H ) :   0.9801
B( 31-C , 32-C ) :   1.3458 B( 31-C , 73-H ) :   0.9763 B( 32-C , 33-N ) :   1.5178
B( 32-C , 34-C ) :   1.0331 B( 34-C , 35-C ) :   1.7426 B( 34-C , 74-H ) :   0.9781
B( 35-C , 36-C ) :   1.0052 B( 35-C , 75-H ) :   0.9657 B( 36-C , 37-N ) :   1.5205
B( 36-C , 41-N ) :   1.5378 B( 37-N , 38-C ) :   1.5638 B( 38-C , 39-C ) :   1.3557
B( 38-C , 76-H ) :   0.9800 B( 39-C , 40-C ) :   1.3437 B( 39-C , 77-H ) :   0.9766
B( 40-C , 41-N ) :   1.5219 B( 40-C , 42-C ) :   1.0699 B( 42-C , 43-C ) :   1.7544
B( 42-C , 78-H ) :   0.9694 B( 43-C , 44-C ) :   1.0685 B( 43-C , 79-H ) :   0.9415
B( 44-C , 45-C ) :   1.7414 B( 44-C , 80-H ) :   0.9204 B( 45-C , 46-C ) :   1.0052
B( 45-C , 54-C ) :   0.9294 B( 46-C , 47-C ) :   1.6622 B( 46-C , 52-C ) :   1.0213
B( 47-C , 48-C ) :   1.1216 B( 47-C , 50-C ) :   1.1802 B( 48-C , 49-N ) :   2.9925
B( 50-C , 51-N ) :   2.9082 B( 52-C , 53-C ) :   1.2726 B( 52-C , 59-C ) :   1.4089
B( 53-C , 54-C ) :   0.9209 B( 53-C , 56-C ) :   1.4230 B( 54-C , 55-O ) :   2.2555
B( 56-C , 57-C ) :   1.2520 B( 56-C , 81-H ) :   1.0167 B( 57-C , 58-C ) :   1.3032
B( 57-C , 62-C ) :   1.1651 B( 58-C , 59-C ) :   1.3300 B( 58-C , 60-S ) :   1.0855
B( 59-C , 82-H ) :   0.9846 B( 60-S , 61-C ) :   1.0874 B( 61-C , 62-C ) :   1.6164
B( 61-C , 63-Br) :   1.0235 B( 62-C , 83-H ) :   1.0001

-----------------------------------------------------------------------------
         ABSORPTION SPECTRUM VIA TRANSITION ELECTRIC DIPOLE MOMENTS
-----------------------------------------------------------------------------
State   Energy  Wavelength   fosc         T2         TX        TY        TZ
        (cm-1)    (nm)                  (au**2)     (au)      (au)      (au)
-----------------------------------------------------------------------------
   0   23495.0    425.6   0.004860731   0.06811  -0.11365   0.07242  -0.22349
   1   24215.4    413.0   0.130235131   1.77057  -0.54260   1.01772   0.66362
   2   26333.7    379.7   0.233732032   2.92201   0.91452  -0.29761  -1.41318
   3   26962.7    370.9   0.304669749   3.71998   0.09652   1.42875   1.29203
   4   27522.1    363.3   0.199133155   2.38198   1.00614  -1.08608   0.43600
   5   28482.7    351.1   0.037350937   0.43171  -0.25836   0.59887   0.07949
   6   29001.2    344.8   0.004289186   0.04869  -0.20730   0.02908  -0.06979
   7   29052.5    344.2   0.120522985   1.36572  -0.03577   0.66581   0.95976
   8   29349.0    340.7   0.039522666   0.44333  -0.16165   0.45147   0.46192
   9   29673.2    337.0   0.047186389   0.52351   0.34823  -0.61096  -0.17022
  10   29805.1    335.5   0.080692733   0.89129   0.48079  -0.74402   0.32644
  11   30179.5    331.4   0.010513046   0.11468  -0.11817   0.11229  -0.29683
  12   30245.2    330.6   0.067923536   0.73933   0.18731  -0.43124  -0.71991
  13   30393.3    329.0   0.047018169   0.50929   0.02998   0.27307   0.65865
  14   31523.5    317.2   0.139890714   1.46093   0.19941   0.21099   1.17331
  15   31910.4    313.4   0.037041093   0.38214   0.32560  -0.23717  -0.46892
  16   32247.3    310.1   0.010843183   0.11070   0.02834   0.14422   0.29849
  17   32498.0    307.7   0.009788050   0.09916   0.26436  -0.04383  -0.16537
  18   32994.4    303.1   0.020662228   0.20616   0.03286   0.16838   0.42039
  19   33366.1    299.7   0.142229064   1.40333  -0.14922  -0.74961  -0.90506
  20   33403.6    299.4   0.615500077   6.06611  -0.46494   1.78585   1.63116
  21   33562.2    298.0   0.086648379   0.84993   0.15125  -0.52531  -0.74236
  22   33777.4    296.1   0.668446767   6.51502   1.28943  -1.30474   1.77484
  23   34195.8    292.4   0.294906355   2.83914  -0.56704   0.64572   1.44936
  24   34411.4    290.6   0.300269353   2.87266  -0.46058   0.94199   1.33161
  25   34778.0    287.5   0.006888445   0.06521   0.16931  -0.15075  -0.11753
  26   35064.3    285.2   0.006550258   0.06150  -0.08145  -0.17580  -0.15479
  27   35452.9    282.1   0.141829317   1.31701   0.09266  -1.03592  -0.48508
  28   35743.2    279.8   0.071359992   0.65726  -0.25992   0.06944   0.76477
  29   36110.3    276.9   0.025509431   0.23257   0.12269   0.03970  -0.46469
  30   36178.6    276.4   0.040109069   0.36498   0.05493  -0.05880  -0.59875
  31   36574.6    273.4   0.039830930   0.35852   0.03664   0.47583   0.36162
  32   36639.4    272.9   0.019705481   0.17706   0.01406   0.31633   0.27712
  33   36938.2    270.7   0.000555154   0.00495  -0.03777   0.05085  -0.03058
  34   37146.9    269.2   0.003620616   0.03209   0.08295   0.15781   0.01744
  35   37462.5    266.9   0.279368031   2.45502  -0.52684  -1.06697   1.01933
  36   37715.4    265.1   0.181808804   1.58698   0.36013   0.66743  -1.00590
  37   38088.3    262.5   0.041296060   0.35694   0.02200  -0.58536   0.11752
  38   38601.8    259.1   0.343611781   2.93046   0.08791  -1.58750   0.63449
  39   38655.1    258.7   0.526972994   4.48804  -0.13944   2.08435   0.35227
  40   39109.2    255.7   0.616664465   5.19093   0.15631  -1.46735  -1.73591
  41   39133.0    255.5   0.058782829   0.49452  -0.32556   0.49948   0.37289
  42   39539.9    252.9   0.112550226   0.93710   0.22182  -0.79500  -0.50584
  43   39679.9    252.0   0.021756006   0.18050   0.00580  -0.36075   0.22434
  44   40240.1    248.5   0.193977672   1.58697  -0.51693   0.72063  -0.89468

FINAL SINGLE POINT ENERGY     -8479.871058271605

DIPOLE MOMENT
-------------
                                X             Y             Z
Electronic contribution:    -55.46303     123.80032     126.95593
Nuclear contribution   :     55.56740    -121.13870    -128.02585
                        -----------------------------------------
Total Dipole Moment    :      0.10437       2.66162      -1.06992
                        -----------------------------------------
Magnitude (a.u.)       :      2.87051
Magnitude (Debye)      :      7.29625

Rotational constants in cm-1:     0.001591     0.000460     0.000380
Rotational constants in MHz :    47.697726    13.788909    11.390134

                             ****ORCA TERMINATED NORMALLY****
TOTAL RUN TIME: 0 days 0 hours 8 minutes 17 seconds 595 msec
