                         Program Version 4.2.0 -  RELEASE  -
|  1> # ORCA input file
|  2> # SCF done       -203.233733969560          0.000837251240
|  3> ! CAM-B3LYP def2-SVP def2/J RIJCOSX Grid4 TightSCF
|  4> %maxcore 5000
|  5> %tddft
|  6>     Mode sTDDFT
|  7>     Ethresh 5.0
|  8>     maxcore 5000
|  9> end
| 10>
| 11> %pal
| 12>   nprocs 6
| 13>   end
| 14> * xyz 0 1
| 15>    C       -7.86720        -1.94783        -2.11035
| 16>    C       -8.23290        -2.75223        -1.06337
| 17>    C       -8.10142        -4.15631        -1.05434
| 18>    N       -8.03357        -5.30018        -0.99081
| 19>    C       -8.77202        -2.27273         0.14783
| 20>    N       -9.20614        -1.92160         1.15099
| 21>    C       -7.27565        -2.38894        -3.36844
| 22>    C       -6.99736        -1.24808        -4.17011
| 23>    C       -6.49571        -1.35318        -5.44562
| 24>    C       -6.22478        -2.63350        -5.93949
| 25>    C       -6.46274        -3.76091        -5.11694
| 26>    C       -6.99710        -3.65677        -3.83720
| 27>    S       -6.01945        -5.23458        -5.90550
| 28>    C       -5.52077        -4.34013        -7.30832
| 29>    C       -5.68556        -2.99805        -7.20014
| 30>   Br       -4.81927        -5.23940        -8.79456
| 31>    C       -7.35855        -0.04616        -3.41799
| 32>    O       -7.16657         1.13130        -3.74007
| 33>    C       -7.97994        -0.50679        -2.17957
| 34>    C       -8.62425         0.34967        -1.32013
| 35>    N       -8.66365         1.66418        -1.56331
| 36>    C       -9.38281         2.59488        -0.87985
| 37>    S      -10.50101         2.12004         0.36627
| 38>    C      -10.98878         3.77453         0.52803
| 39>    N      -11.96554         4.08722         1.48334
| 40>    O      -12.29552         5.25414         1.58823
| 41>    O      -12.41269         3.16319         2.13794
| 42>    C      -10.33533         4.62324        -0.32283
| 43>    C       -9.38428         3.97050        -1.13485
| 44>    C       -8.55811         4.71108        -2.05081
| 45>    C       -7.34270         4.36713        -2.52786
| 46>    C       -6.53508         5.19842        -3.36195
| 47>    C       -5.60757         4.71861        -4.28987
| 48>    C       -5.06550         5.83275        -5.02708
| 49>    C       -5.66530         6.96405        -4.58879
| 50>    C       -6.54613         6.64182        -3.48723
| 51>    C       -7.05598         7.60664        -2.64364
| 52>    C       -7.49343         7.42681        -1.24837
| 53>    C       -7.84796         8.62305        -0.75740
| 54>    C       -7.67952         9.62192        -1.81537
| 55>    C       -7.17123         8.99485        -2.92406
| 56>    N       -7.95526        10.93096        -1.64026
| 57>    N       -5.31430         3.40636        -4.51142
| 58>    C       -4.27870         2.95205        -5.25362
| 59>    C       -3.99811         1.63947        -5.41230
| 60>    N       -2.92385         1.22443        -6.16176
| 61>    C       -2.49205        -0.03229        -6.31721
| 62>    S       -3.28349        -1.35765        -5.52740
| 63>    C       -2.09025        -2.44377        -6.18870
| 64>    N       -2.28239        -3.79121        -5.92428
| 65>    O       -1.46613        -4.59500        -6.33612
| 66>    O       -3.30033        -4.07481        -5.29458
| 67>    C       -1.13173        -1.81691        -6.93861
| 68>    C       -1.34546        -0.43210        -7.04837
| 69>    C       -0.54494         0.49601        -7.77346
| 70>    C        0.74792         0.30689        -8.15086
| 71>    C        1.54456         1.23786        -8.85211
| 72>    C        1.38226         2.57728        -9.10829
| 73>    C        0.50079         3.59900        -8.61254
| 74>    C       -0.11307         3.65466        -7.37772
| 75>    C       -1.10514         4.57714        -7.01467
| 76>    N       -2.01123         5.19647        -6.66695
| 77>    C        0.14304         2.75652        -6.32622
| 78>    N        0.29609         2.06715        -5.41951
| 79>    C        0.51992         4.70646        -9.56245
| 80>    C        1.54691         4.47312       -10.50995
| 81>    C        2.17442         3.16533       -10.22357
| 82>    O        3.11022         2.65608       -10.79586
| 83>    C        1.84882         5.36868       -11.50501
| 84>    C        1.09307         6.54575       -11.57535
| 85>    C        0.06455         6.76530       -10.62904
| 86>    C       -0.23295         5.86367        -9.61422
| 87>    S       -0.74358         8.27911       -10.90266
| 88>    C        0.30012         8.59539       -12.26304
| 89>    C        1.20577         7.61742       -12.50261
| 90>   Br        0.09282        10.18510       -13.23669
| 91>    H       -6.32362        -0.47827        -6.05389
| 92>    H       -7.17781        -4.54286        -3.25216
| 93>    H       -5.42635        -2.29778        -7.97362
| 94>    H       -9.13925        -0.00311        -0.43656
| 95>    H       -8.18176         1.95759        -2.42493
| 96>    H      -10.52048         5.68219        -0.34265
| 97>    H       -8.95603         5.68000        -2.31699
| 98>    H       -6.90833         3.40740        -2.27865
| 99>    H       -4.32246         5.77021        -5.79829
|100>    H       -5.45745         7.96181        -4.92251
|101>    H       -7.43775         6.50043        -0.71183
|102>    H       -8.18407         8.85401         0.23665
|103>    H       -6.95598         9.45978        -3.86578
|104>    H       -8.44322        11.23492        -0.81679
|105>    H       -7.88876        11.56450        -2.41710
|106>    H       -5.91120         2.70503        -4.08145
|107>    H       -3.65092         3.70448        -5.71040
|108>    H       -4.58978         0.86240        -4.95467
|109>    H       -2.36318         1.96098        -6.57186
|110>    H       -0.33784        -2.35676        -7.42095
|111>    H       -1.03562         1.41581        -8.06406
|112>    H        1.21646        -0.64160        -7.92992
|113>    H        2.42509         0.82281        -9.33483
|114>    H        2.64449         5.17237       -12.20622
|115>    H       -1.02549         6.07523        -8.91494
|116>    H        1.92550         7.64910       -13.30011
|117> *
|118>
|119>                          ****END OF INPUT****

CARTESIAN COORDINATES (ANGSTROEM)
---------------------------------
  C     -7.867200   -1.947830   -2.110350
  C     -8.232900   -2.752230   -1.063370
  C     -8.101420   -4.156310   -1.054340
  N     -8.033570   -5.300180   -0.990810
  C     -8.772020   -2.272730    0.147830
  N     -9.206140   -1.921600    1.150990
  C     -7.275650   -2.388940   -3.368440
  C     -6.997360   -1.248080   -4.170110
  C     -6.495710   -1.353180   -5.445620
  C     -6.224780   -2.633500   -5.939490
  C     -6.462740   -3.760910   -5.116940
  C     -6.997100   -3.656770   -3.837200
  S     -6.019450   -5.234580   -5.905500
  C     -5.520770   -4.340130   -7.308320
  C     -5.685560   -2.998050   -7.200140
  Br    -4.819270   -5.239400   -8.794560
  C     -7.358550   -0.046160   -3.417990
  O     -7.166570    1.131300   -3.740070
  C     -7.979940   -0.506790   -2.179570
  C     -8.624250    0.349670   -1.320130
  N     -8.663650    1.664180   -1.563310
  C     -9.382810    2.594880   -0.879850
  S    -10.501010    2.120040    0.366270
  C    -10.988780    3.774530    0.528030
  N    -11.965540    4.087220    1.483340
  O    -12.295520    5.254140    1.588230
  O    -12.412690    3.163190    2.137940
  C    -10.335330    4.623240   -0.322830
  C     -9.384280    3.970500   -1.134850
  C     -8.558110    4.711080   -2.050810
  C     -7.342700    4.367130   -2.527860
  C     -6.535080    5.198420   -3.361950
  C     -5.607570    4.718610   -4.289870
  C     -5.065500    5.832750   -5.027080
  C     -5.665300    6.964050   -4.588790
  C     -6.546130    6.641820   -3.487230
  C     -7.055980    7.606640   -2.643640
  C     -7.493430    7.426810   -1.248370
  C     -7.847960    8.623050   -0.757400
  C     -7.679520    9.621920   -1.815370
  C     -7.171230    8.994850   -2.924060
  N     -7.955260   10.930960   -1.640260
  N     -5.314300    3.406360   -4.511420
  C     -4.278700    2.952050   -5.253620
  C     -3.998110    1.639470   -5.412300
  N     -2.923850    1.224430   -6.161760
  C     -2.492050   -0.032290   -6.317210
  S     -3.283490   -1.357650   -5.527400
  C     -2.090250   -2.443770   -6.188700
  N     -2.282390   -3.791210   -5.924280
  O     -1.466130   -4.595000   -6.336120
  O     -3.300330   -4.074810   -5.294580
  C     -1.131730   -1.816910   -6.938610
  C     -1.345460   -0.432100   -7.048370
  C     -0.544940    0.496010   -7.773460
  C      0.747920    0.306890   -8.150860
  C      1.544560    1.237860   -8.852110
  C      1.382260    2.577280   -9.108290
  C      0.500790    3.599000   -8.612540
  C     -0.113070    3.654660   -7.377720
  C     -1.105140    4.577140   -7.014670
  N     -2.011230    5.196470   -6.666950
  C      0.143040    2.756520   -6.326220
  N      0.296090    2.067150   -5.419510
  C      0.519920    4.706460   -9.562450
  C      1.546910    4.473120  -10.509950
  C      2.174420    3.165330  -10.223570
  O      3.110220    2.656080  -10.795860
  C      1.848820    5.368680  -11.505010
  C      1.093070    6.545750  -11.575350
  C      0.064550    6.765300  -10.629040
  C     -0.232950    5.863670   -9.614220
  S     -0.743580    8.279110  -10.902660
  C      0.300120    8.595390  -12.263040
  C      1.205770    7.617420  -12.502610
  Br     0.092820   10.185100  -13.236690
  H     -6.323620   -0.478270   -6.053890
  H     -7.177810   -4.542860   -3.252160
  H     -5.426350   -2.297780   -7.973620
  H     -9.139250   -0.003110   -0.436560
  H     -8.181760    1.957590   -2.424930
  H    -10.520480    5.682190   -0.342650
  H     -8.956030    5.680000   -2.316990
  H     -6.908330    3.407400   -2.278650
  H     -4.322460    5.770210   -5.798290
  H     -5.457450    7.961810   -4.922510
  H     -7.437750    6.500430   -0.711830
  H     -8.184070    8.854010    0.236650
  H     -6.955980    9.459780   -3.865780
  H     -8.443220   11.234920   -0.816790
  H     -7.888760   11.564500   -2.417100
  H     -5.911200    2.705030   -4.081450
  H     -3.650920    3.704480   -5.710400
  H     -4.589780    0.862400   -4.954670
  H     -2.363180    1.960980   -6.571860
  H     -0.337840   -2.356760   -7.420950
  H     -1.035620    1.415810   -8.064060
  H      1.216460   -0.641600   -7.929920
  H      2.425090    0.822810   -9.334830
  H      2.644490    5.172370  -12.206220
  H     -1.025490    6.075230   -8.914940
  H      1.925500    7.649100  -13.300110

 Total Charge           Charge          ....    0
 Multiplicity           Mult            ....    1
 Number of Electrons    NEL             ....  602
 Basis Dimension        Dim             .... 1246

ORBITAL ENERGIES
----------------

  NO   OCC          E(Eh)            E(eV)
   0   2.0000    -482.892573    -13140.1749
   1   2.0000    -482.883465    -13139.9271
   2   2.0000     -88.987374     -2421.4695
   3   2.0000     -88.985611     -2421.4216
   4   2.0000     -88.983859     -2421.3739
   5   2.0000     -88.972650     -2421.0689
   6   2.0000     -62.570286     -1702.6240
   7   2.0000     -62.561164     -1702.3758
   8   2.0000     -56.404247     -1534.8376
   9   2.0000     -56.401513     -1534.7632
  10   2.0000     -56.401484     -1534.7624
  11   2.0000     -56.395123     -1534.5893
  12   2.0000     -56.392391     -1534.5150
  13   2.0000     -56.392366     -1534.5143
  14   2.0000     -19.242910      -523.6262
  15   2.0000     -19.237478      -523.4784
  16   2.0000     -19.236884      -523.4622
  17   2.0000     -19.236878      -523.4621
  18   2.0000     -19.235730      -523.4308
  19   2.0000     -19.219871      -522.9993
  20   2.0000     -14.648125      -398.5957
  21   2.0000     -14.648049      -398.5937
  22   2.0000     -14.498983      -394.5374
  23   2.0000     -14.495971      -394.4554
  24   2.0000     -14.457750      -393.4154
  25   2.0000     -14.438561      -392.8932
  26   2.0000     -14.438291      -392.8859
  27   2.0000     -14.430087      -392.6626
  28   2.0000     -14.419982      -392.3876
  29   2.0000     -14.415085      -392.2544
  30   2.0000     -10.388228      -282.6781
  31   2.0000     -10.380470      -282.4669
  32   2.0000     -10.371420      -282.2207
  33   2.0000     -10.370249      -282.1888
  34   2.0000     -10.366558      -282.0884
  35   2.0000     -10.364688      -282.0375
  36   2.0000     -10.356993      -281.8281
  37   2.0000     -10.354786      -281.7681
  38   2.0000     -10.350432      -281.6496
  39   2.0000     -10.347360      -281.5660
  40   2.0000     -10.344201      -281.4800
  41   2.0000     -10.343936      -281.4728
  42   2.0000     -10.343686      -281.4660
  43   2.0000     -10.342298      -281.4282
  44   2.0000     -10.334138      -281.2062
  45   2.0000     -10.331254      -281.1277
  46   2.0000     -10.327744      -281.0322
  47   2.0000     -10.325063      -280.9592
  48   2.0000     -10.323646      -280.9207
  49   2.0000     -10.322585      -280.8918
  50   2.0000     -10.322286      -280.8837
  51   2.0000     -10.319233      -280.8006
  52   2.0000     -10.318198      -280.7725
  53   2.0000     -10.318028      -280.7678
  54   2.0000     -10.317819      -280.7621
  55   2.0000     -10.317021      -280.7404
  56   2.0000     -10.315942      -280.7110
  57   2.0000     -10.315543      -280.7002
  58   2.0000     -10.313482      -280.6441
  59   2.0000     -10.311609      -280.5931
  60   2.0000     -10.308868      -280.5186
  61   2.0000     -10.308716      -280.5144
  62   2.0000     -10.307861      -280.4912
  63   2.0000     -10.307450      -280.4800
  64   2.0000     -10.306005      -280.4407
  65   2.0000     -10.304643      -280.4036
  66   2.0000     -10.304135      -280.3898
  67   2.0000     -10.302746      -280.3520
  68   2.0000     -10.301912      -280.3293
  69   2.0000     -10.300871      -280.3010
  70   2.0000     -10.300086      -280.2796
  71   2.0000     -10.299347      -280.2595
  72   2.0000     -10.294892      -280.1382
  73   2.0000     -10.294874      -280.1378
  74   2.0000     -10.285180      -279.8740
  75   2.0000     -10.284280      -279.8495
  76   2.0000     -10.275569      -279.6124
  77   2.0000     -10.273838      -279.5654
  78   2.0000     -10.273735      -279.5626
  79   2.0000     -10.270026      -279.4616
  80   2.0000     -10.263636      -279.2877
  81   2.0000     -10.262031      -279.2441
  82   2.0000     -10.254949      -279.0514
  83   2.0000     -10.235567      -278.5239
  84   2.0000      -8.799714      -239.4524
  85   2.0000      -8.790596      -239.2043
  86   2.0000      -8.082028      -219.9232
  87   2.0000      -8.080816      -219.8902
  88   2.0000      -8.079836      -219.8635
  89   2.0000      -8.068460      -219.5540
  90   2.0000      -6.636059      -180.5764
  91   2.0000      -6.626888      -180.3268
  92   2.0000      -6.621438      -180.1785
  93   2.0000      -6.621207      -180.1722
  94   2.0000      -6.612375      -179.9319
  95   2.0000      -6.612091      -179.9241
  96   2.0000      -6.051884      -164.6801
  97   2.0000      -6.050473      -164.6417
  98   2.0000      -6.049514      -164.6156
  99   2.0000      -6.047457      -164.5597
 100   2.0000      -6.046097      -164.5227
 101   2.0000      -6.045262      -164.5000
 102   2.0000      -6.043178      -164.4432
 103   2.0000      -6.042294      -164.4192
 104   2.0000      -6.041067      -164.3858
 105   2.0000      -6.038128      -164.3058
 106   2.0000      -6.033851      -164.1894
 107   2.0000      -6.029703      -164.0766
 108   2.0000      -2.751894       -74.8828
 109   2.0000      -2.747788       -74.7711
 110   2.0000      -2.747710       -74.7690
 111   2.0000      -2.742757       -74.6342
 112   2.0000      -2.738710       -74.5241
 113   2.0000      -2.738517       -74.5188
 114   2.0000      -2.736036       -74.4513
 115   2.0000      -2.736022       -74.4510
 116   2.0000      -2.726959       -74.2043
 117   2.0000      -2.726950       -74.2041
 118   2.0000      -1.317917       -35.8623
 119   2.0000      -1.315355       -35.7926
 120   2.0000      -1.152695       -31.3664
 121   2.0000      -1.136890       -30.9363
 122   2.0000      -1.135232       -30.8912
 123   2.0000      -1.134542       -30.8725
 124   2.0000      -1.104336       -30.0505
 125   2.0000      -1.100694       -29.9514
 126   2.0000      -1.061701       -28.8904
 127   2.0000      -1.036798       -28.2127
 128   2.0000      -1.026363       -27.9288
 129   2.0000      -1.026019       -27.9194
 130   2.0000      -1.023109       -27.8402
 131   2.0000      -1.014951       -27.6182
 132   2.0000      -1.012923       -27.5630
 133   2.0000      -1.007320       -27.4106
 134   2.0000      -1.006716       -27.3941
 135   2.0000      -0.999533       -27.1987
 136   2.0000      -0.996812       -27.1246
 137   2.0000      -0.992955       -27.0197
 138   2.0000      -0.964368       -26.2418
 139   2.0000      -0.953050       -25.9338
 140   2.0000      -0.944255       -25.6945
 141   2.0000      -0.938368       -25.5343
 142   2.0000      -0.935840       -25.4655
 143   2.0000      -0.918711       -24.9994
 144   2.0000      -0.917683       -24.9714
 145   2.0000      -0.911579       -24.8053
 146   2.0000      -0.908248       -24.7147
 147   2.0000      -0.896738       -24.4015
 148   2.0000      -0.894941       -24.3526
 149   2.0000      -0.891602       -24.2617
 150   2.0000      -0.888470       -24.1765
 151   2.0000      -0.879812       -23.9409
 152   2.0000      -0.871074       -23.7031
 153   2.0000      -0.862795       -23.4778
 154   2.0000      -0.854826       -23.2610
 155   2.0000      -0.849451       -23.1147
 156   2.0000      -0.838705       -22.8223
 157   2.0000      -0.831875       -22.6365
 158   2.0000      -0.831039       -22.6137
 159   2.0000      -0.823831       -22.4176
 160   2.0000      -0.800696       -21.7880
 161   2.0000      -0.794280       -21.6135
 162   2.0000      -0.787315       -21.4239
 163   2.0000      -0.786316       -21.3968
 164   2.0000      -0.772856       -21.0305
 165   2.0000      -0.768019       -20.8989
 166   2.0000      -0.762486       -20.7483
 167   2.0000      -0.748848       -20.3772
 168   2.0000      -0.741747       -20.1840
 169   2.0000      -0.732279       -19.9263
 170   2.0000      -0.729826       -19.8596
 171   2.0000      -0.728180       -19.8148
 172   2.0000      -0.715663       -19.4742
 173   2.0000      -0.712146       -19.3785
 174   2.0000      -0.701145       -19.0791
 175   2.0000      -0.698533       -19.0081
 176   2.0000      -0.692589       -18.8463
 177   2.0000      -0.691713       -18.8225
 178   2.0000      -0.683380       -18.5957
 179   2.0000      -0.675416       -18.3790
 180   2.0000      -0.671205       -18.2644
 181   2.0000      -0.659708       -17.9516
 182   2.0000      -0.657551       -17.8929
 183   2.0000      -0.652961       -17.7680
 184   2.0000      -0.647614       -17.6225
 185   2.0000      -0.645664       -17.5694
 186   2.0000      -0.643978       -17.5235
 187   2.0000      -0.637285       -17.3414
 188   2.0000      -0.634897       -17.2764
 189   2.0000      -0.632664       -17.2157
 190   2.0000      -0.630174       -17.1479
 191   2.0000      -0.629445       -17.1281
 192   2.0000      -0.625857       -17.0304
 193   2.0000      -0.622757       -16.9461
 194   2.0000      -0.614393       -16.7185
 195   2.0000      -0.610977       -16.6255
 196   2.0000      -0.606961       -16.5162
 197   2.0000      -0.606698       -16.5091
 198   2.0000      -0.603152       -16.4126
 199   2.0000      -0.598936       -16.2979
 200   2.0000      -0.596876       -16.2418
 201   2.0000      -0.594833       -16.1862
 202   2.0000      -0.591283       -16.0896
 203   2.0000      -0.590034       -16.0557
 204   2.0000      -0.584613       -15.9081
 205   2.0000      -0.579940       -15.7810
 206   2.0000      -0.571151       -15.5418
 207   2.0000      -0.569892       -15.5076
 208   2.0000      -0.562904       -15.3174
 209   2.0000      -0.559643       -15.2286
 210   2.0000      -0.557882       -15.1807
 211   2.0000      -0.554382       -15.0855
 212   2.0000      -0.551389       -15.0040
 213   2.0000      -0.547427       -14.8963
 214   2.0000      -0.547222       -14.8907
 215   2.0000      -0.544968       -14.8293
 216   2.0000      -0.543731       -14.7957
 217   2.0000      -0.541597       -14.7376
 218   2.0000      -0.534939       -14.5564
 219   2.0000      -0.533958       -14.5297
 220   2.0000      -0.531177       -14.4541
 221   2.0000      -0.524989       -14.2857
 222   2.0000      -0.524140       -14.2626
 223   2.0000      -0.521948       -14.2029
 224   2.0000      -0.518589       -14.1115
 225   2.0000      -0.514876       -14.0105
 226   2.0000      -0.511934       -13.9304
 227   2.0000      -0.510590       -13.8938
 228   2.0000      -0.507996       -13.8233
 229   2.0000      -0.507215       -13.8020
 230   2.0000      -0.504445       -13.7266
 231   2.0000      -0.501757       -13.6535
 232   2.0000      -0.500471       -13.6185
 233   2.0000      -0.499288       -13.5863
 234   2.0000      -0.499075       -13.5805
 235   2.0000      -0.491447       -13.3729
 236   2.0000      -0.489359       -13.3161
 237   2.0000      -0.487860       -13.2753
 238   2.0000      -0.481573       -13.1043
 239   2.0000      -0.479131       -13.0378
 240   2.0000      -0.477868       -13.0035
 241   2.0000      -0.472880       -12.8677
 242   2.0000      -0.470462       -12.8019
 243   2.0000      -0.469611       -12.7788
 244   2.0000      -0.467686       -12.7264
 245   2.0000      -0.464254       -12.6330
 246   2.0000      -0.461948       -12.5703
 247   2.0000      -0.460956       -12.5432
 248   2.0000      -0.460194       -12.5225
 249   2.0000      -0.457453       -12.4479
 250   2.0000      -0.456980       -12.4351
 251   2.0000      -0.454235       -12.3604
 252   2.0000      -0.452569       -12.3150
 253   2.0000      -0.451401       -12.2833
 254   2.0000      -0.451133       -12.2759
 255   2.0000      -0.448981       -12.2174
 256   2.0000      -0.448560       -12.2059
 257   2.0000      -0.446318       -12.1449
 258   2.0000      -0.444828       -12.1044
 259   2.0000      -0.442748       -12.0478
 260   2.0000      -0.439259       -11.9529
 261   2.0000      -0.436771       -11.8851
 262   2.0000      -0.434922       -11.8348
 263   2.0000      -0.429353       -11.6833
 264   2.0000      -0.429078       -11.6758
 265   2.0000      -0.428818       -11.6687
 266   2.0000      -0.424278       -11.5452
 267   2.0000      -0.418831       -11.3970
 268   2.0000      -0.412912       -11.2359
 269   2.0000      -0.411726       -11.2036
 270   2.0000      -0.404548       -11.0083
 271   2.0000      -0.394975       -10.7478
 272   2.0000      -0.392763       -10.6876
 273   2.0000      -0.388950       -10.5839
 274   2.0000      -0.386274       -10.5111
 275   2.0000      -0.383852       -10.4451
 276   2.0000      -0.382216       -10.4006
 277   2.0000      -0.381936       -10.3930
 278   2.0000      -0.377731       -10.2786
 279   2.0000      -0.374774       -10.1981
 280   2.0000      -0.373265       -10.1571
 281   2.0000      -0.372729       -10.1425
 282   2.0000      -0.369303       -10.0492
 283   2.0000      -0.367371        -9.9967
 284   2.0000      -0.365527        -9.9465
 285   2.0000      -0.363610        -9.8943
 286   2.0000      -0.355750        -9.6804
 287   2.0000      -0.342695        -9.3252
 288   2.0000      -0.340413        -9.2631
 289   2.0000      -0.339352        -9.2342
 290   2.0000      -0.332608        -9.0507
 291   2.0000      -0.323907        -8.8140
 292   2.0000      -0.317291        -8.6339
 293   2.0000      -0.309749        -8.4287
 294   2.0000      -0.303240        -8.2516
 295   2.0000      -0.295413        -8.0386
 296   2.0000      -0.293589        -7.9890
 297   2.0000      -0.287221        -7.8157
 298   2.0000      -0.262833        -7.1520
 299   2.0000      -0.252939        -6.8828
 300   2.0000      -0.217989        -5.9318
 301   0.0000      -0.105493        -2.8706
 302   0.0000      -0.088135        -2.3983
 303   0.0000      -0.074776        -2.0348
 304   0.0000      -0.069083        -1.8798
 305   0.0000      -0.067083        -1.8254

MULLIKEN ATOMIC CHARGES
-----------------------
   0 C :    0.325382
   1 C :   -0.342953
   2 C :   -0.185444
   3 N :    0.152968
   4 C :   -0.198154
   5 N :    0.149352
   6 C :    0.005055
   7 C :    0.010245
   8 C :   -0.091571
   9 C :    0.127035
  10 C :   -0.075840
  11 C :   -0.016915
  12 S :    0.222693
  13 C :   -0.122187
  14 C :    0.025939
  15 Br:    0.026199
  16 C :    0.182315
  17 O :   -0.263674
  18 C :   -0.117665
  19 C :    0.024490
  20 N :   -0.003445
  21 C :   -0.139497
  22 S :    0.167016
  23 C :    0.009545
  24 N :    0.275270
  25 O :   -0.250750
  26 O :   -0.256907
  27 C :   -0.002323
  28 C :    0.136031
  29 C :   -0.071283
  30 C :   -0.046731
  31 C :    0.020341
  32 C :    0.030228
  33 C :   -0.030465
  34 C :    0.005266
  35 C :    0.033558
  36 C :    0.038317
  37 C :   -0.003072
  38 C :   -0.006672
  39 C :    0.046564
  40 C :   -0.134993
  41 N :   -0.017748
  42 N :   -0.011529
  43 C :    0.051539
  44 C :    0.017278
  45 N :   -0.004777
  46 C :   -0.088212
  47 S :    0.122690
  48 C :   -0.001463
  49 N :    0.292833
  50 O :   -0.250648
  51 O :   -0.286998
  52 C :    0.015277
  53 C :    0.111599
  54 C :    0.000544
  55 C :   -0.005123
  56 C :    0.047461
  57 C :   -0.131210
  58 C :    0.296935
  59 C :   -0.400010
  60 C :   -0.121254
  61 N :    0.110233
  62 C :   -0.248311
  63 N :    0.193319
  64 C :    0.011404
  65 C :    0.002857
  66 C :    0.132585
  67 O :   -0.143470
  68 C :   -0.070966
  69 C :    0.115534
  70 C :   -0.088961
  71 C :   -0.032842
  72 S :    0.182165
  73 C :   -0.123767
  74 C :    0.038821
  75 Br:    0.027440
  76 H :   -0.019891
  77 H :   -0.004089
  78 H :   -0.011870
  79 H :    0.050489
  80 H :    0.172275
  81 H :    0.010545
  82 H :    0.008292
  83 H :   -0.025346
  84 H :   -0.030080
  85 H :   -0.026220
  86 H :    0.000171
  87 H :   -0.029852
  88 H :   -0.055429
  89 H :    0.121997
  90 H :    0.124158
  91 H :    0.131006
  92 H :    0.010345
  93 H :    0.008381
  94 H :    0.141285
  95 H :    0.012046
  96 H :    0.002835
  97 H :   -0.001475
  98 H :    0.029365
  99 H :   -0.006341
 100 H :   -0.009497
 101 H :    0.000411
Sum of atomic charges:   -0.0000000

LOEWDIN ATOMIC CHARGES
----------------------
   0 C :    0.079256
   1 C :   -0.146120
   2 C :   -0.020418
   3 N :   -0.049942
   4 C :   -0.021592
   5 N :   -0.051614
   6 C :   -0.020371
   7 C :   -0.058748
   8 C :    0.006586
   9 C :   -0.039065
  10 C :   -0.138560
  11 C :   -0.001129
  12 S :    0.467381
  13 C :   -0.269150
  14 C :   -0.083331
  15 Br:    0.140655
  16 C :    0.105567
  17 O :   -0.206679
  18 C :   -0.146277
  19 C :    0.110425
  20 N :    0.085785
  21 C :   -0.125144
  22 S :    0.465447
  23 C :   -0.202986
  24 N :    0.273558
  25 O :   -0.216974
  26 O :   -0.222989
  27 C :   -0.001156
  28 C :   -0.075009
  29 C :   -0.060731
  30 C :   -0.014604
  31 C :   -0.113457
  32 C :    0.034127
  33 C :   -0.047270
  34 C :   -0.001960
  35 C :   -0.007240
  36 C :    0.024201
  37 C :   -0.008862
  38 C :   -0.037106
  39 C :    0.042877
  40 C :   -0.153439
  41 N :    0.014067
  42 N :    0.061870
  43 C :    0.022050
  44 C :   -0.068526
  45 N :    0.071857
  46 C :   -0.078646
  47 S :    0.472474
  48 C :   -0.216656
  49 N :    0.276799
  50 O :   -0.216707
  51 O :   -0.253006
  52 C :    0.019080
  53 C :   -0.121646
  54 C :    0.050922
  55 C :   -0.061757
  56 C :    0.076941
  57 C :   -0.113684
  58 C :    0.077346
  59 C :   -0.181484
  60 C :   -0.008670
  61 N :   -0.076606
  62 C :   -0.030979
  63 N :   -0.041973
  64 C :   -0.020968
  65 C :   -0.049883
  66 C :    0.083484
  67 O :   -0.141609
  68 C :    0.023664
  69 C :   -0.032257
  70 C :   -0.144593
  71 C :   -0.016875
  72 S :    0.430177
  73 C :   -0.271070
  74 C :   -0.069213
  75 Br:    0.139342
  76 H :    0.033118
  77 H :    0.043022
  78 H :    0.033607
  79 H :    0.036896
  80 H :    0.087576
  81 H :    0.046081
  82 H :    0.034323
  83 H :    0.014668
  84 H :    0.021533
  85 H :    0.023863
  86 H :    0.028490
  87 H :    0.022342
  88 H :    0.012715
  89 H :    0.079529
  90 H :    0.082182
  91 H :    0.079529
  92 H :    0.030943
  93 H :    0.018091
  94 H :    0.094348
  95 H :    0.047067
  96 H :    0.028125
  97 H :    0.034947
  98 H :    0.048473
  99 H :    0.042554
 100 H :    0.038669
 101 H :    0.040103

  Mayer bond orders larger than 0.100000
B(  0-C ,  1-C ) :   1.6329 B(  0-C ,  6-C ) :   1.0054 B(  0-C , 18-C ) :   1.0943
B(  1-C ,  2-C ) :   1.1403 B(  1-C ,  4-C ) :   1.1468 B(  2-C ,  3-N ) :   2.9721
B(  4-C ,  5-N ) :   2.9617 B(  6-C ,  7-C ) :   1.2644 B(  6-C , 11-C ) :   1.4284
B(  7-C ,  8-C ) :   1.4055 B(  7-C , 16-C ) :   0.9874 B(  8-C ,  9-C ) :   1.2346
B(  8-C , 76-H ) :   1.0161 B(  9-C , 10-C ) :   1.3159 B(  9-C , 14-C ) :   1.1664
B( 10-C , 11-C ) :   1.3063 B( 10-C , 12-S ) :   1.1071 B( 11-C , 77-H ) :   0.9800
B( 12-S , 13-C ) :   1.1066 B( 13-C , 14-C ) :   1.6006 B( 13-C , 15-Br) :   1.0230
B( 14-C , 78-H ) :   1.0020 B( 16-C , 17-O ) :   1.9093 B( 16-C , 18-C ) :   1.0355
B( 17-O , 80-H ) :   0.1190 B( 18-C , 19-C ) :   1.4325 B( 19-C , 20-N ) :   1.3539
B( 19-C , 79-H ) :   0.9308 B( 20-N , 21-C ) :   1.1678 B( 20-N , 80-H ) :   0.8379
B( 21-C , 22-S ) :   1.1261 B( 21-C , 28-C ) :   1.3921 B( 22-S , 23-C ) :   1.0881
B( 23-C , 24-N ) :   0.9652 B( 23-C , 27-C ) :   1.4859 B( 24-N , 25-O ) :   1.5354
B( 24-N , 26-O ) :   1.5182 B( 25-O , 26-O ) :   0.2617 B( 27-C , 28-C ) :   1.2108
B( 27-C , 81-H ) :   1.0085 B( 28-C , 29-C ) :   1.0867 B( 29-C , 30-C ) :   1.6847
B( 29-C , 82-H ) :   0.9591 B( 30-C , 31-C ) :   1.1431 B( 30-C , 83-H ) :   0.9316
B( 31-C , 32-C ) :   1.4407 B( 31-C , 35-C ) :   1.0820 B( 32-C , 33-C ) :   1.1099
B( 32-C , 42-N ) :   1.1877 B( 33-C , 34-C ) :   1.6046 B( 33-C , 84-H ) :   1.0058
B( 34-C , 35-C ) :   1.1182 B( 34-C , 85-H ) :   1.0054 B( 35-C , 36-C ) :   1.4630
B( 36-C , 37-C ) :   1.0571 B( 36-C , 40-C ) :   1.1530 B( 37-C , 38-C ) :   1.6947
B( 37-C , 86-H ) :   0.9974 B( 38-C , 39-C ) :   1.0470 B( 38-C , 87-H ) :   1.0095
B( 39-C , 40-C ) :   1.4985 B( 39-C , 41-N ) :   1.2866 B( 40-C , 88-H ) :   1.0218
B( 41-N , 89-H ) :   0.9455 B( 41-N , 90-H ) :   0.9474 B( 42-N , 43-C ) :   1.1945
B( 42-N , 91-H ) :   0.8843 B( 43-C , 44-C ) :   1.6527 B( 43-C , 92-H ) :   0.9654
B( 44-C , 45-N ) :   1.0530 B( 44-C , 93-H ) :   0.9587 B( 45-N , 46-C ) :   1.3563
B( 45-N , 94-H ) :   0.9069 B( 46-C , 47-S ) :   1.1301 B( 46-C , 53-C ) :   1.2333
B( 47-S , 48-C ) :   1.0367 B( 48-C , 49-N ) :   0.9974 B( 48-C , 52-C ) :   1.4873
B( 49-N , 50-O ) :   1.5286 B( 49-N , 51-O ) :   1.4594 B( 50-O , 51-O ) :   0.2422
B( 52-C , 53-C ) :   1.2394 B( 52-C , 95-H ) :   1.0026 B( 53-C , 54-C ) :   1.1693
B( 54-C , 55-C ) :   1.5794 B( 54-C , 96-H ) :   0.9430 B( 55-C , 56-C ) :   1.2375
B( 55-C , 97-H ) :   0.9617 B( 56-C , 57-C ) :   1.5558 B( 56-C , 98-H ) :   0.9308
B( 57-C , 58-C ) :   1.0943 B( 57-C , 66-C ) :   0.9519 B( 58-C , 59-C ) :   1.5337
B( 58-C , 64-C ) :   1.0337 B( 59-C , 60-C ) :   1.1266 B( 59-C , 62-C ) :   1.1967
B( 60-C , 61-N ) :   2.8713 B( 62-C , 63-N ) :   2.9782 B( 64-C , 65-C ) :   1.2711
B( 64-C , 71-C ) :   1.4111 B( 65-C , 66-C ) :   0.9160 B( 65-C , 68-C ) :   1.4349
B( 66-C , 67-O ) :   2.2573 B( 68-C , 69-C ) :   1.2438 B( 68-C , 99-H ) :   1.0171
B( 69-C , 70-C ) :   1.3100 B( 69-C , 74-C ) :   1.1650 B( 70-C , 71-C ) :   1.3303
B( 70-C , 72-S ) :   1.0842 B( 71-C ,100-H ) :   0.9828 B( 72-S , 73-C ) :   1.0865
B( 73-C , 74-C ) :   1.6171 B( 73-C , 75-Br) :   1.0206 B( 74-C ,101-H ) :   1.0008

-----------------------------------------------------------------------------
         ABSORPTION SPECTRUM VIA TRANSITION ELECTRIC DIPOLE MOMENTS
-----------------------------------------------------------------------------
State   Energy  Wavelength   fosc         T2         TX        TY        TZ
        (cm-1)    (nm)                  (au**2)     (au)      (au)      (au)
-----------------------------------------------------------------------------
   0   10605.5    942.9   0.234217495   7.27047   2.03956   0.59443  -1.66051
   1   13564.5    737.2   0.043513900   1.05609   0.30844   0.97628  -0.08846
   2   15158.5    659.7   0.265195493   5.75949  -0.97878   1.91957   1.05676
   3   15737.6    635.4   0.008130276   0.17008  -0.28416   0.23804   0.18073
   4   18272.5    547.3   0.236795460   4.26630   0.93014   1.64538  -0.83299
   5   20253.8    493.7   0.409564243   6.65719   0.58013  -2.38833  -0.78519
   6   20396.0    490.3   0.049561217   0.79997  -0.56992  -0.54319   0.42438
   7   21370.5    467.9   0.024483912   0.37717   0.51182  -0.33841  -0.02639
   8   21781.1    459.1   0.208897087   3.15739  -0.61736   1.58128   0.52516
   9   22214.3    450.2   0.378533182   5.60980  -1.03623   2.09084   0.40549
  10   23607.2    423.6   0.019145591   0.26699  -0.37902  -0.05700   0.34654
  11   23787.3    420.4   0.022507252   0.31150  -0.22816  -0.26365   0.43581
  12   25374.8    394.1   0.190777867   2.47514  -0.38607   1.48995   0.32580
  13   25779.9    387.9   0.349134971   4.45849   0.45387  -2.03607  -0.32696
  14   26402.4    378.8   0.176776906   2.20423   0.00980   0.70575  -1.30616
  15   26753.5    373.8   0.005277573   0.06494  -0.02016  -0.24374  -0.07159
  16   27247.9    367.0   0.330629149   3.99469  -1.12043   1.18419   1.15630
  17   27522.1    363.3   0.094269247   1.12763  -0.59659   0.80582   0.34980
  18   27991.0    357.3   0.470805798   5.53732   0.88819   1.58089  -1.49974
  19   28423.4    351.8   0.117359915   1.35931  -0.10770   0.96713   0.64216
  20   28522.7    350.6   0.076467916   0.88260   0.85340   0.31941  -0.22865
  21   29092.6    343.7   0.267950482   3.03213   0.98302   0.14247  -1.43021
  22   29132.2    343.3   0.009176901   0.10370   0.11797   0.19737  -0.22546
  23   29289.0    341.4   0.378351798   4.25273   1.08632  -0.66790  -1.62066
  24   29535.3    338.6   0.033970330   0.37865   0.23716   0.17992  -0.53854
  25   29770.9    335.9   0.016366078   0.18098  -0.05289   0.35451  -0.22914
  26   30001.7    333.3   0.312982585   3.43439  -0.83122   0.91310   1.38192
  27   30582.2    327.0   0.072099108   0.77614  -0.27517   0.80843   0.21649
  28   30819.8    324.5   0.043858133   0.46849   0.49526  -0.36583  -0.29896
  29   30927.9    323.3   0.007680825   0.08176  -0.14251  -0.21578   0.12201
  30   31051.2    322.0   0.022235355   0.23574  -0.20576   0.43977   0.00336
  31   31334.4    319.1   0.054147617   0.56890   0.48412   0.37742  -0.43827
  32   31870.8    313.8   0.109046983   1.12641  -0.46908  -0.37143   0.87659
  33   31948.1    313.0   0.049709242   0.51223  -0.12784  -0.47610   0.51886
  34   32049.7    312.0   0.013894598   0.14272  -0.26035   0.18757   0.19940
  35   32702.8    305.8   0.046315222   0.46625   0.24400  -0.59764  -0.22256
  36   33087.9    302.2   0.046441525   0.46208  -0.23393   0.03109   0.63748
  37   33153.1    301.6   0.292201238   2.90158   0.46416   0.40473  -1.58818
  38   33370.2    299.7   0.195753437   1.93120   0.66622   0.65245  -1.03037
  39   33634.3    297.3   0.296655036   2.90366   0.22517   1.31830  -1.05596
  40   34020.1    293.9   0.074068647   0.71676  -0.51834   0.28363   0.60633
  41   34268.3    291.8   0.405748276   3.89798   0.55865  -1.66377  -0.90431
  42   34609.9    288.9   0.023306975   0.22170   0.04514  -0.08518  -0.46087
  43   34878.4    286.7   0.114693551   1.08257  -0.35419  -0.74104   0.63873
  44   35086.3    285.0   0.048727735   0.45721  -0.16825  -0.53741   0.37429
  45   35588.7    281.0   0.053815550   0.49782   0.08383   0.66522  -0.21971
  46   35708.5    280.0   0.014952503   0.13785  -0.23089  -0.08296   0.27867
  47   35980.2    277.9   0.005525473   0.05056  -0.18277   0.12088   0.05040
  48   36042.2    277.5   0.045158170   0.41248   0.33615   0.19226  -0.51236
  49   36123.4    276.8   0.265158767   2.41654  -0.78392   0.85037   1.03868
  50   36701.6    272.5   0.042009617   0.37682   0.50745   0.10084  -0.33038
  51   36841.7    271.4   0.076273334   0.68157  -0.24064  -0.73213   0.29605
  52   36965.1    270.5   0.007131463   0.06351   0.16556  -0.01485  -0.18943
  53   37550.5    266.3   0.011750793   0.10302  -0.07334  -0.20408   0.23663
  54   37733.5    265.0   0.299528261   2.61328  -0.97586  -0.46506   1.20195
  55   38019.1    263.0   0.019855198   0.17193  -0.35026   0.15776   0.15608
  56   38214.1    261.7   0.036607394   0.31537  -0.30379  -0.20496   0.42553
  57   38680.1    258.5   0.013403514   0.11408   0.19516  -0.15409  -0.22858
  58   38841.8    257.5   0.026143999   0.22159  -0.43017   0.18786  -0.03535
  59   38989.4    256.5   0.013585241   0.11471  -0.29781   0.04130   0.15591
  60   39073.3    255.9   0.005406206   0.04555  -0.13146  -0.14593  -0.08349
  61   39161.5    255.4   0.078932911   0.66355   0.33689   0.26314  -0.69341
  62   39295.3    254.5   0.025299281   0.21195   0.36831  -0.05823  -0.27003
  63   39346.8    254.2   0.058818209   0.49213   0.06996   0.54492  -0.43622
  64   39403.2    253.8   0.012578911   0.10510   0.01767   0.30808  -0.09937
  65   39584.4    252.6   0.107808635   0.89661   0.59107  -0.43496  -0.59839
  66   39659.9    252.1   0.098635698   0.81876  -0.70878   0.50636   0.24495
  67   39858.4    250.9   0.031501409   0.26019  -0.45650   0.18892   0.12690
  68   39925.0    250.5   0.054844075   0.45223  -0.00625  -0.65456  -0.15410
  69   40120.9    249.2   0.021736264   0.17836   0.06019  -0.40313   0.11055
  70   40261.4    248.4   0.001348502   0.01103  -0.08080  -0.00904   0.06645
  71   40264.1    248.4   0.017181900   0.14048  -0.07909  -0.29163   0.22177

FINAL SINGLE POINT ENERGY     -9808.285103556220

DIPOLE MOMENT
-------------
                                X             Y             Z
Electronic contribution:     45.95478     -29.23124    -118.49523
Nuclear contribution   :    -44.76886      33.82748     114.40097
                        -----------------------------------------
Total Dipole Moment    :      1.18592       4.59624      -4.09426
                        -----------------------------------------
Magnitude (a.u.)       :      6.26856
Magnitude (Debye)      :     15.93342

Rotational constants in cm-1:     0.000642     0.000392     0.000259
Rotational constants in MHz :    19.247045    11.749431     7.759830

                             ****ORCA TERMINATED NORMALLY****
TOTAL RUN TIME: 0 days 0 hours 11 minutes 49 seconds 152 msec
