                         Program Version 4.2.0 -  RELEASE  -
|  1> # ORCA input file
|  2> # SCF done       -171.181526409514          0.000893458761
|  3> ! CAM-B3LYP def2-SVP def2/J RIJCOSX Grid4 TightSCF
|  4> %maxcore 5000
|  5> %tddft
|  6>     Mode sTDDFT
|  7>     Ethresh 5.0
|  8>     maxcore 5000
|  9> end
| 10>
| 11> %pal
| 12>   nprocs 6
| 13>   end
| 14> * xyz 0 1
| 15>    C      -11.10249         5.02950         4.92044
| 16>    C      -11.27907         3.92695         5.71678
| 17>    C      -12.24129         3.83675         6.74254
| 18>    N      -13.00550         3.71191         7.58981
| 19>    C      -10.51059         2.75025         5.61066
| 20>    N       -9.90878         1.77459         5.55174
| 21>    C      -11.86968         6.27176         4.99520
| 22>    C      -11.35663         7.18589         4.03804
| 23>    C      -11.88255         8.44072         3.85037
| 24>    C      -12.97954         8.80859         4.63489
| 25>    C      -13.48704         7.89302         5.58571
| 26>    C      -12.94465         6.62699         5.78543
| 27>    S      -14.85584         8.54706         6.43135
| 28>    C      -14.73498        10.01724         5.49963
| 29>    C      -13.71768        10.02213         4.60583
| 30>   Br      -15.96630        11.40169         5.79104
| 31>    C      -10.26895         6.53810         3.30309
| 32>    O       -9.60973         7.01179         2.37745
| 33>    C      -10.13504         5.19135         3.86068
| 34>    C       -9.20552         4.30309         3.36719
| 35>    N       -8.42455         4.67584         2.34857
| 36>    C       -7.42749         3.98573         1.74779
| 37>    S       -6.91461         2.41813         2.28501
| 38>    C       -5.66941         2.44396         1.07660
| 39>    N       -4.82344         1.32868         0.98543
| 40>    O       -3.94569         1.35578         0.14398
| 41>    O       -5.03395         0.41557         1.76268
| 42>    C       -5.65424         3.58129         0.31641
| 43>    C       -6.67017         4.49027         0.67677
| 44>    C       -6.94379         5.74707         0.05081
| 45>    C       -6.06075         6.44668        -0.70730
| 46>    C       -6.32233         7.69267        -1.32139
| 47>    C       -7.53293         8.27323        -1.59956
| 48>    C       -7.69762         9.57332        -2.15278
| 49>    C       -8.98261         9.91615        -2.42624
| 50>    C       -9.92248         8.89566        -2.14090
| 51>    S       -9.10839         7.51130        -1.43877
| 52>    C      -11.27445         8.90390        -2.40102
| 53>    C      -12.05819         9.99417        -2.86045
| 54>    C      -13.35846         9.68297        -3.07443
| 55>    C      -13.69726         8.31926        -2.81212
| 56>    S      -12.26918         7.47191        -2.22875
| 57>    C      -14.89943         7.75762        -3.11106
| 58>    C      -15.32723         6.38576        -2.98303
| 59>    C      -16.10248         5.86611        -4.03588
| 60>    C      -16.46634         4.54364        -4.00577
| 61>    C      -16.11403         3.72549        -2.92445
| 62>    C      -16.65217         2.37161        -3.17874
| 63>    O      -16.57049         1.37259        -2.50855
| 64>    N      -17.29334         2.45598        -4.40786
| 65>    C      -17.23753         3.72367        -4.96882
| 66>    O      -17.72487         4.03476        -6.02651
| 67>    C      -17.98099         1.34125        -5.02309
| 68>    C      -19.41736         1.23293        -4.52388
| 69>    C      -15.41150         4.22889        -1.85416
| 70>    C      -15.00749         5.56839        -1.87365
| 71>    C      -14.38374         6.16701        -0.70288
| 72>    C      -13.45235         5.63134         0.08910
| 73>    C      -12.78344         4.31170        -0.13243
| 74>    C      -12.91241         6.38572         1.28483
| 75>    N      -13.54843         7.63424         1.60392
| 76>    C      -13.20710         8.78048         0.92044
| 77>    C      -13.97366         9.85739         0.79449
| 78>    H      -11.46887         9.11718         3.12068
| 79>    H      -13.36830         5.96578         6.52281
| 80>    H      -13.50040        10.83920         3.94287
| 81>    H       -9.07526         3.30495         3.76444
| 82>    H       -8.60531         5.64872         2.02858
| 83>    H       -4.94923         3.72932        -0.48071
| 84>    H       -7.91261         6.18356         0.24435
| 85>    H       -5.04979         6.07573        -0.80848
| 86>    H       -5.45534         8.26342        -1.62952
| 87>    H       -6.84919        10.21121        -2.32787
| 88>    H       -9.27965        10.85549        -2.85659
| 89>    H      -11.63616        10.97185        -3.00886
| 90>    H      -14.10225        10.37770        -3.42252
| 91>    H      -15.59956         8.40784        -3.62313
| 92>    H      -16.37719         6.49289        -4.87083
| 93>    H      -17.42451         0.43403        -4.77476
| 94>    H      -17.96301         1.50567        -6.10314
| 95>    H      -19.42878         1.08244        -3.44684
| 96>    H      -19.90979         0.39008        -5.00037
| 97>    H      -19.96749         2.14066        -4.76135
| 98>    H      -15.21543         3.60910        -0.99475
| 99>    H      -14.72261         7.17522        -0.49539
|100>    H      -12.89775         3.97787        -1.15940
|101>    H      -13.19889         3.55248         0.53070
|102>    H      -11.72070         4.39768         0.09081
|103>    H      -11.85156         6.59031         1.10475
|104>    H      -12.97910         5.73031         2.16365
|105>    H      -14.52812         7.56134         1.84335
|106>    H      -12.19707         8.76623         0.53258
|107>    H      -14.98030         9.88647         1.17639
|108>    H      -13.61012        10.74607         0.31457
|109> *
|110>
|111>                          ****END OF INPUT****

CARTESIAN COORDINATES (ANGSTROEM)
---------------------------------
  C    -11.102490    5.029500    4.920440
  C    -11.279070    3.926950    5.716780
  C    -12.241290    3.836750    6.742540
  N    -13.005500    3.711910    7.589810
  C    -10.510590    2.750250    5.610660
  N     -9.908780    1.774590    5.551740
  C    -11.869680    6.271760    4.995200
  C    -11.356630    7.185890    4.038040
  C    -11.882550    8.440720    3.850370
  C    -12.979540    8.808590    4.634890
  C    -13.487040    7.893020    5.585710
  C    -12.944650    6.626990    5.785430
  S    -14.855840    8.547060    6.431350
  C    -14.734980   10.017240    5.499630
  C    -13.717680   10.022130    4.605830
  Br   -15.966300   11.401690    5.791040
  C    -10.268950    6.538100    3.303090
  O     -9.609730    7.011790    2.377450
  C    -10.135040    5.191350    3.860680
  C     -9.205520    4.303090    3.367190
  N     -8.424550    4.675840    2.348570
  C     -7.427490    3.985730    1.747790
  S     -6.914610    2.418130    2.285010
  C     -5.669410    2.443960    1.076600
  N     -4.823440    1.328680    0.985430
  O     -3.945690    1.355780    0.143980
  O     -5.033950    0.415570    1.762680
  C     -5.654240    3.581290    0.316410
  C     -6.670170    4.490270    0.676770
  C     -6.943790    5.747070    0.050810
  C     -6.060750    6.446680   -0.707300
  C     -6.322330    7.692670   -1.321390
  C     -7.532930    8.273230   -1.599560
  C     -7.697620    9.573320   -2.152780
  C     -8.982610    9.916150   -2.426240
  C     -9.922480    8.895660   -2.140900
  S     -9.108390    7.511300   -1.438770
  C    -11.274450    8.903900   -2.401020
  C    -12.058190    9.994170   -2.860450
  C    -13.358460    9.682970   -3.074430
  C    -13.697260    8.319260   -2.812120
  S    -12.269180    7.471910   -2.228750
  C    -14.899430    7.757620   -3.111060
  C    -15.327230    6.385760   -2.983030
  C    -16.102480    5.866110   -4.035880
  C    -16.466340    4.543640   -4.005770
  C    -16.114030    3.725490   -2.924450
  C    -16.652170    2.371610   -3.178740
  O    -16.570490    1.372590   -2.508550
  N    -17.293340    2.455980   -4.407860
  C    -17.237530    3.723670   -4.968820
  O    -17.724870    4.034760   -6.026510
  C    -17.980990    1.341250   -5.023090
  C    -19.417360    1.232930   -4.523880
  C    -15.411500    4.228890   -1.854160
  C    -15.007490    5.568390   -1.873650
  C    -14.383740    6.167010   -0.702880
  C    -13.452350    5.631340    0.089100
  C    -12.783440    4.311700   -0.132430
  C    -12.912410    6.385720    1.284830
  N    -13.548430    7.634240    1.603920
  C    -13.207100    8.780480    0.920440
  C    -13.973660    9.857390    0.794490
  H    -11.468870    9.117180    3.120680
  H    -13.368300    5.965780    6.522810
  H    -13.500400   10.839200    3.942870
  H     -9.075260    3.304950    3.764440
  H     -8.605310    5.648720    2.028580
  H     -4.949230    3.729320   -0.480710
  H     -7.912610    6.183560    0.244350
  H     -5.049790    6.075730   -0.808480
  H     -5.455340    8.263420   -1.629520
  H     -6.849190   10.211210   -2.327870
  H     -9.279650   10.855490   -2.856590
  H    -11.636160   10.971850   -3.008860
  H    -14.102250   10.377700   -3.422520
  H    -15.599560    8.407840   -3.623130
  H    -16.377190    6.492890   -4.870830
  H    -17.424510    0.434030   -4.774760
  H    -17.963010    1.505670   -6.103140
  H    -19.428780    1.082440   -3.446840
  H    -19.909790    0.390080   -5.000370
  H    -19.967490    2.140660   -4.761350
  H    -15.215430    3.609100   -0.994750
  H    -14.722610    7.175220   -0.495390
  H    -12.897750    3.977870   -1.159400
  H    -13.198890    3.552480    0.530700
  H    -11.720700    4.397680    0.090810
  H    -11.851560    6.590310    1.104750
  H    -12.979100    5.730310    2.163650
  H    -14.528120    7.561340    1.843350
  H    -12.197070    8.766230    0.532580
  H    -14.980300    9.886470    1.176390
  H    -13.610120   10.746070    0.314570

 Total Charge           Charge          ....    0
 Multiplicity           Mult            ....    1
 Number of Electrons    NEL             ....  494
 Basis Dimension        Dim             .... 1071

ORBITAL ENERGIES
----------------

  NO   OCC          E(Eh)            E(eV)
   0   2.0000    -482.887754    -13140.0438
   1   2.0000     -88.992394     -2421.6062
   2   2.0000     -88.978678     -2421.2329
   3   2.0000     -88.957963     -2420.6692
   4   2.0000     -88.955243     -2420.5952
   5   2.0000     -62.565480     -1702.4933
   6   2.0000     -56.399428     -1534.7065
   7   2.0000     -56.396726     -1534.6329
   8   2.0000     -56.396674     -1534.6315
   9   2.0000     -19.240864      -523.5705
  10   2.0000     -19.240113      -523.5501
  11   2.0000     -19.236677      -523.4566
  12   2.0000     -19.205131      -522.5982
  13   2.0000     -19.205050      -522.5960
  14   2.0000     -14.652321      -398.7099
  15   2.0000     -14.498292      -394.5186
  16   2.0000     -14.446433      -393.1074
  17   2.0000     -14.422170      -392.4472
  18   2.0000     -14.421292      -392.4233
  19   2.0000     -14.417557      -392.3217
  20   2.0000     -10.385058      -282.5918
  21   2.0000     -10.384700      -282.5820
  22   2.0000     -10.382588      -282.5246
  23   2.0000     -10.373793      -282.2853
  24   2.0000     -10.372572      -282.2520
  25   2.0000     -10.360326      -281.9188
  26   2.0000     -10.349906      -281.6353
  27   2.0000     -10.349481      -281.6237
  28   2.0000     -10.345035      -281.5027
  29   2.0000     -10.328765      -281.0600
  30   2.0000     -10.324583      -280.9462
  31   2.0000     -10.321522      -280.8629
  32   2.0000     -10.321062      -280.8504
  33   2.0000     -10.320734      -280.8415
  34   2.0000     -10.320027      -280.8222
  35   2.0000     -10.319250      -280.8011
  36   2.0000     -10.313402      -280.6419
  37   2.0000     -10.313174      -280.6357
  38   2.0000     -10.310378      -280.5596
  39   2.0000     -10.309258      -280.5292
  40   2.0000     -10.308778      -280.5161
  41   2.0000     -10.308193      -280.5002
  42   2.0000     -10.306208      -280.4462
  43   2.0000     -10.302994      -280.3587
  44   2.0000     -10.301600      -280.3208
  45   2.0000     -10.300493      -280.2907
  46   2.0000     -10.299360      -280.2598
  47   2.0000     -10.298049      -280.2242
  48   2.0000     -10.297844      -280.2186
  49   2.0000     -10.297599      -280.2119
  50   2.0000     -10.297286      -280.2034
  51   2.0000     -10.296862      -280.1918
  52   2.0000     -10.295506      -280.1550
  53   2.0000     -10.294738      -280.1341
  54   2.0000     -10.293078      -280.0889
  55   2.0000     -10.292670      -280.0778
  56   2.0000     -10.291692      -280.0512
  57   2.0000     -10.290756      -280.0257
  58   2.0000     -10.290682      -280.0237
  59   2.0000     -10.288591      -279.9668
  60   2.0000     -10.287736      -279.9435
  61   2.0000     -10.287389      -279.9341
  62   2.0000     -10.285784      -279.8904
  63   2.0000     -10.272271      -279.5227
  64   2.0000     -10.268500      -279.4201
  65   2.0000     -10.254597      -279.0418
  66   2.0000     -10.242668      -278.7172
  67   2.0000      -8.794907      -239.3216
  68   2.0000      -8.087460      -220.0710
  69   2.0000      -8.074669      -219.7229
  70   2.0000      -8.053629      -219.1504
  71   2.0000      -8.050377      -219.0619
  72   2.0000      -6.631194      -180.4440
  73   2.0000      -6.616638      -180.0479
  74   2.0000      -6.616462      -180.0431
  75   2.0000      -6.057089      -164.8218
  76   2.0000      -6.052752      -164.7038
  77   2.0000      -6.049006      -164.6018
  78   2.0000      -6.044330      -164.4746
  79   2.0000      -6.040079      -164.3589
  80   2.0000      -6.035915      -164.2456
  81   2.0000      -6.023368      -163.9042
  82   2.0000      -6.020250      -163.8193
  83   2.0000      -6.019337      -163.7945
  84   2.0000      -6.016056      -163.7052
  85   2.0000      -6.014603      -163.6657
  86   2.0000      -6.011274      -163.5751
  87   2.0000      -2.747082       -74.7519
  88   2.0000      -2.742984       -74.6404
  89   2.0000      -2.742822       -74.6360
  90   2.0000      -2.731277       -74.3218
  91   2.0000      -2.731258       -74.3213
  92   2.0000      -1.322351       -35.9830
  93   2.0000      -1.151588       -31.3363
  94   2.0000      -1.150803       -31.3150
  95   2.0000      -1.141485       -31.0614
  96   2.0000      -1.127137       -30.6710
  97   2.0000      -1.106146       -30.0998
  98   2.0000      -1.041817       -28.3493
  99   2.0000      -1.028276       -27.9808
 100   2.0000      -1.025284       -27.8994
 101   2.0000      -1.017266       -27.6812
 102   2.0000      -1.012394       -27.5486
 103   2.0000      -1.005158       -27.3517
 104   2.0000      -0.999271       -27.1916
 105   2.0000      -0.994328       -27.0570
 106   2.0000      -0.985376       -26.8134
 107   2.0000      -0.973963       -26.5029
 108   2.0000      -0.945961       -25.7409
 109   2.0000      -0.930204       -25.3121
 110   2.0000      -0.919917       -25.0322
 111   2.0000      -0.913725       -24.8637
 112   2.0000      -0.911021       -24.7901
 113   2.0000      -0.904431       -24.6108
 114   2.0000      -0.891065       -24.2471
 115   2.0000      -0.889030       -24.1917
 116   2.0000      -0.881820       -23.9956
 117   2.0000      -0.871807       -23.7231
 118   2.0000      -0.861994       -23.4561
 119   2.0000      -0.854757       -23.2591
 120   2.0000      -0.853922       -23.2364
 121   2.0000      -0.840823       -22.8799
 122   2.0000      -0.833972       -22.6935
 123   2.0000      -0.833165       -22.6716
 124   2.0000      -0.831651       -22.6304
 125   2.0000      -0.824539       -22.4369
 126   2.0000      -0.802908       -21.8482
 127   2.0000      -0.794417       -21.6172
 128   2.0000      -0.785700       -21.3800
 129   2.0000      -0.768323       -20.9071
 130   2.0000      -0.763923       -20.7874
 131   2.0000      -0.760439       -20.6926
 132   2.0000      -0.749652       -20.3991
 133   2.0000      -0.739136       -20.1129
 134   2.0000      -0.736342       -20.0369
 135   2.0000      -0.727444       -19.7948
 136   2.0000      -0.712312       -19.3830
 137   2.0000      -0.700943       -19.0736
 138   2.0000      -0.697074       -18.9684
 139   2.0000      -0.694941       -18.9103
 140   2.0000      -0.684740       -18.6327
 141   2.0000      -0.681986       -18.5578
 142   2.0000      -0.681604       -18.5474
 143   2.0000      -0.672218       -18.2920
 144   2.0000      -0.662568       -18.0294
 145   2.0000      -0.654158       -17.8005
 146   2.0000      -0.650559       -17.7026
 147   2.0000      -0.640106       -17.4182
 148   2.0000      -0.637436       -17.3455
 149   2.0000      -0.635366       -17.2892
 150   2.0000      -0.633687       -17.2435
 151   2.0000      -0.628050       -17.0901
 152   2.0000      -0.626309       -17.0427
 153   2.0000      -0.622872       -16.9492
 154   2.0000      -0.610648       -16.6166
 155   2.0000      -0.607767       -16.5382
 156   2.0000      -0.602630       -16.3984
 157   2.0000      -0.597308       -16.2536
 158   2.0000      -0.593856       -16.1596
 159   2.0000      -0.588158       -16.0046
 160   2.0000      -0.582887       -15.8612
 161   2.0000      -0.576447       -15.6859
 162   2.0000      -0.570877       -15.5343
 163   2.0000      -0.568403       -15.4670
 164   2.0000      -0.568101       -15.4588
 165   2.0000      -0.564221       -15.3532
 166   2.0000      -0.561304       -15.2739
 167   2.0000      -0.559200       -15.2166
 168   2.0000      -0.552929       -15.0460
 169   2.0000      -0.550855       -14.9895
 170   2.0000      -0.546645       -14.8750
 171   2.0000      -0.541899       -14.7458
 172   2.0000      -0.540945       -14.7199
 173   2.0000      -0.538003       -14.6398
 174   2.0000      -0.532232       -14.4828
 175   2.0000      -0.529288       -14.4026
 176   2.0000      -0.526530       -14.3276
 177   2.0000      -0.523776       -14.2527
 178   2.0000      -0.522541       -14.2191
 179   2.0000      -0.521249       -14.1839
 180   2.0000      -0.518268       -14.1028
 181   2.0000      -0.514660       -14.0046
 182   2.0000      -0.512190       -13.9374
 183   2.0000      -0.508845       -13.8464
 184   2.0000      -0.508720       -13.8430
 185   2.0000      -0.504472       -13.7274
 186   2.0000      -0.502536       -13.6747
 187   2.0000      -0.501821       -13.6552
 188   2.0000      -0.499890       -13.6027
 189   2.0000      -0.498664       -13.5693
 190   2.0000      -0.493768       -13.4361
 191   2.0000      -0.489113       -13.3094
 192   2.0000      -0.480436       -13.0733
 193   2.0000      -0.478569       -13.0225
 194   2.0000      -0.475929       -12.9507
 195   2.0000      -0.474379       -12.9085
 196   2.0000      -0.474221       -12.9042
 197   2.0000      -0.471513       -12.8305
 198   2.0000      -0.470160       -12.7937
 199   2.0000      -0.468441       -12.7469
 200   2.0000      -0.465475       -12.6662
 201   2.0000      -0.462228       -12.5779
 202   2.0000      -0.459904       -12.5146
 203   2.0000      -0.455588       -12.3972
 204   2.0000      -0.454802       -12.3758
 205   2.0000      -0.453189       -12.3319
 206   2.0000      -0.452800       -12.3213
 207   2.0000      -0.449217       -12.2238
 208   2.0000      -0.447704       -12.1826
 209   2.0000      -0.444474       -12.0948
 210   2.0000      -0.443619       -12.0715
 211   2.0000      -0.442284       -12.0352
 212   2.0000      -0.440179       -11.9779
 213   2.0000      -0.432230       -11.7616
 214   2.0000      -0.431408       -11.7392
 215   2.0000      -0.430462       -11.7135
 216   2.0000      -0.429157       -11.6780
 217   2.0000      -0.421640       -11.4734
 218   2.0000      -0.421280       -11.4636
 219   2.0000      -0.417107       -11.3501
 220   2.0000      -0.414727       -11.2853
 221   2.0000      -0.408860       -11.1256
 222   2.0000      -0.404836       -11.0161
 223   2.0000      -0.391811       -10.6617
 224   2.0000      -0.387753       -10.5513
 225   2.0000      -0.385500       -10.4900
 226   2.0000      -0.379974       -10.3396
 227   2.0000      -0.377276       -10.2662
 228   2.0000      -0.373478       -10.1628
 229   2.0000      -0.369403       -10.0520
 230   2.0000      -0.364713        -9.9243
 231   2.0000      -0.361302        -9.8315
 232   2.0000      -0.359421        -9.7804
 233   2.0000      -0.358545        -9.7565
 234   2.0000      -0.348156        -9.4738
 235   2.0000      -0.344432        -9.3725
 236   2.0000      -0.338205        -9.2030
 237   2.0000      -0.337425        -9.1818
 238   2.0000      -0.336742        -9.1632
 239   2.0000      -0.331493        -9.0204
 240   2.0000      -0.321369        -8.7449
 241   2.0000      -0.306830        -8.3493
 242   2.0000      -0.298405        -8.1200
 243   2.0000      -0.292763        -7.9665
 244   2.0000      -0.278452        -7.5771
 245   2.0000      -0.270601        -7.3634
 246   2.0000      -0.227094        -6.1795
 247   0.0000      -0.095247        -2.5918
 248   0.0000      -0.083547        -2.2734
 249   0.0000      -0.072463        -1.9718
 250   0.0000      -0.046782        -1.2730
 251   0.0000      -0.037625        -1.0238

MULLIKEN ATOMIC CHARGES
-----------------------
   0 C :    0.324553
   1 C :   -0.348816
   2 C :   -0.184316
   3 N :    0.153278
   4 C :   -0.199254
   5 N :    0.147448
   6 C :    0.013072
   7 C :   -0.011073
   8 C :   -0.010240
   9 C :    0.091840
  10 C :   -0.087095
  11 C :   -0.034589
  12 S :    0.184866
  13 C :   -0.128804
  14 C :    0.044677
  15 Br:    0.022590
  16 C :    0.150529
  17 O :   -0.233041
  18 C :   -0.130435
  19 C :    0.031361
  20 N :   -0.010118
  21 C :   -0.122841
  22 S :    0.183674
  23 C :    0.003214
  24 N :    0.273319
  25 O :   -0.245562
  26 O :   -0.256011
  27 C :    0.001313
  28 C :    0.129755
  29 C :   -0.067546
  30 C :    0.019134
  31 C :   -0.016131
  32 C :   -0.019596
  33 C :    0.035303
  34 C :    0.035872
  35 C :   -0.050719
  36 S :    0.075937
  37 C :   -0.066573
  38 C :    0.035327
  39 C :    0.046950
  40 C :   -0.002062
  41 S :    0.090669
  42 C :   -0.078920
  43 C :    0.083098
  44 C :   -0.093097
  45 C :    0.018343
  46 C :    0.013244
  47 C :    0.187686
  48 O :   -0.161830
  49 N :   -0.303613
  50 C :    0.186109
  51 O :   -0.160608
  52 C :    0.133764
  53 C :   -0.009653
  54 C :   -0.098051
  55 C :    0.081547
  56 C :   -0.081890
  57 C :   -0.157668
  58 C :    0.088753
  59 C :    0.151037
  60 N :   -0.191004
  61 C :    0.032174
  62 C :   -0.076479
  63 H :   -0.012361
  64 H :   -0.007193
  65 H :   -0.000999
  66 H :    0.043275
  67 H :    0.188360
  68 H :    0.014969
  69 H :    0.014435
  70 H :   -0.009602
  71 H :   -0.007837
  72 H :   -0.008523
  73 H :   -0.011188
  74 H :   -0.012006
  75 H :   -0.008102
  76 H :    0.001570
  77 H :   -0.011754
  78 H :    0.028962
  79 H :    0.032294
  80 H :    0.028567
  81 H :    0.021275
  82 H :    0.023951
  83 H :   -0.014009
  84 H :    0.009495
  85 H :    0.032434
  86 H :    0.038064
  87 H :    0.010598
  88 H :    0.031057
  89 H :    0.017137
  90 H :    0.112600
  91 H :    0.018194
  92 H :   -0.004096
  93 H :    0.007634
Sum of atomic charges:   -0.0000000

LOEWDIN ATOMIC CHARGES
----------------------
   0 C :    0.077185
   1 C :   -0.149831
   2 C :   -0.020185
   3 N :   -0.053613
   4 C :   -0.021040
   5 N :   -0.053472
   6 C :   -0.020462
   7 C :   -0.058738
   8 C :    0.044031
   9 C :   -0.032835
  10 C :   -0.145065
  11 C :   -0.013237
  12 S :    0.432514
  13 C :   -0.275699
  14 C :   -0.063770
  15 Br:    0.135135
  16 C :    0.095124
  17 O :   -0.180868
  18 C :   -0.148184
  19 C :    0.110550
  20 N :    0.081256
  21 C :   -0.119282
  22 S :    0.470572
  23 C :   -0.199171
  24 N :    0.272850
  25 O :   -0.212608
  26 O :   -0.222047
  27 C :    0.002483
  28 C :   -0.080641
  29 C :   -0.044446
  30 C :   -0.021430
  31 C :   -0.063887
  32 C :   -0.134932
  33 C :   -0.029163
  34 C :   -0.031044
  35 C :   -0.180868
  36 S :    0.382654
  37 C :   -0.177242
  38 C :   -0.033240
  39 C :   -0.020624
  40 C :   -0.132852
  41 S :    0.403655
  42 C :   -0.054339
  43 C :   -0.016976
  44 C :    0.019618
  45 C :   -0.056942
  46 C :   -0.054944
  47 C :    0.087798
  48 O :   -0.163044
  49 N :   -0.037229
  50 C :    0.087904
  51 O :   -0.162621
  52 C :    0.043913
  53 C :   -0.060163
  54 C :    0.014937
  55 C :   -0.012469
  56 C :   -0.074929
  57 C :   -0.027754
  58 C :   -0.050238
  59 C :    0.027024
  60 N :   -0.025689
  61 C :    0.022211
  62 C :   -0.159702
  63 H :    0.040550
  64 H :    0.041066
  65 H :    0.039875
  66 H :    0.037114
  67 H :    0.083622
  68 H :    0.046181
  69 H :    0.013977
  70 H :    0.030799
  71 H :    0.035982
  72 H :    0.035040
  73 H :    0.032885
  74 H :    0.032396
  75 H :    0.035173
  76 H :    0.037335
  77 H :    0.037575
  78 H :    0.031417
  79 H :    0.032035
  80 H :    0.028346
  81 H :    0.029631
  82 H :    0.027315
  83 H :    0.037998
  84 H :    0.028963
  85 H :    0.035577
  86 H :    0.039770
  87 H :    0.029917
  88 H :    0.029979
  89 H :    0.027129
  90 H :    0.070942
  91 H :    0.023019
  92 H :    0.014160
  93 H :    0.020335

  Mayer bond orders larger than 0.100000
B(  0-C ,  1-C ) :   1.6268 B(  0-C ,  6-C ) :   1.0011 B(  0-C , 18-C ) :   1.0955
B(  1-C ,  2-C ) :   1.1416 B(  1-C ,  4-C ) :   1.1484 B(  2-C ,  3-N ) :   2.9718
B(  4-C ,  5-N ) :   2.9571 B(  6-C ,  7-C ) :   1.2722 B(  6-C , 11-C ) :   1.4258
B(  7-C ,  8-C ) :   1.4190 B(  7-C , 16-C ) :   0.9925 B(  8-C ,  9-C ) :   1.2405
B(  8-C , 63-H ) :   1.0074 B(  9-C , 10-C ) :   1.3175 B(  9-C , 14-C ) :   1.1712
B( 10-C , 11-C ) :   1.3042 B( 10-C , 12-S ) :   1.0903 B( 11-C , 64-H ) :   0.9812
B( 12-S , 13-C ) :   1.0836 B( 13-C , 14-C ) :   1.6087 B( 13-C , 15-Br) :   1.0182
B( 14-C , 65-H ) :   0.9993 B( 16-C , 17-O ) :   1.9753 B( 16-C , 18-C ) :   1.0118
B( 17-O , 67-H ) :   0.1514 B( 18-C , 19-C ) :   1.4399 B( 19-C , 20-N ) :   1.3462
B( 19-C , 66-H ) :   0.9331 B( 20-N , 21-C ) :   1.1926 B( 20-N , 67-H ) :   0.8127
B( 21-C , 22-S ) :   1.1315 B( 21-C , 28-C ) :   1.3642 B( 22-S , 23-C ) :   1.0835
B( 23-C , 24-N ) :   0.9620 B( 23-C , 27-C ) :   1.5017 B( 24-N , 25-O ) :   1.5387
B( 24-N , 26-O ) :   1.5177 B( 25-O , 26-O ) :   0.2625 B( 27-C , 28-C ) :   1.2169
B( 27-C , 68-H ) :   1.0018 B( 28-C , 29-C ) :   1.1089 B( 29-C , 30-C ) :   1.6746
B( 29-C , 69-H ) :   0.9355 B( 30-C , 31-C ) :   1.1720 B( 30-C , 70-H ) :   0.9686
B( 31-C , 32-C ) :   1.5991 B( 31-C , 71-H ) :   0.9599 B( 32-C , 33-C ) :   1.1375
B( 32-C , 36-S ) :   1.0377 B( 33-C , 34-C ) :   1.6037 B( 33-C , 72-H ) :   0.9983
B( 34-C , 35-C ) :   1.1727 B( 34-C , 73-H ) :   0.9928 B( 35-C , 36-S ) :   1.0415
B( 35-C , 37-C ) :   1.5334 B( 37-C , 38-C ) :   1.1571 B( 37-C , 41-S ) :   1.0442
B( 38-C , 39-C ) :   1.6272 B( 38-C , 74-H ) :   0.9932 B( 39-C , 40-C ) :   1.1081
B( 39-C , 75-H ) :   0.9974 B( 40-C , 41-S ) :   1.0374 B( 40-C , 42-C ) :   1.6633
B( 42-C , 43-C ) :   1.0533 B( 42-C , 76-H ) :   0.9606 B( 43-C , 44-C ) :   1.2777
B( 43-C , 55-C ) :   1.3456 B( 44-C , 45-C ) :   1.4093 B( 44-C , 77-H ) :   1.0133
B( 45-C , 46-C ) :   1.3375 B( 45-C , 50-C ) :   0.8763 B( 46-C , 47-C ) :   0.8816
B( 46-C , 54-C ) :   1.3942 B( 47-C , 48-O ) :   2.2231 B( 47-C , 49-N ) :   1.0598
B( 49-N , 50-C ) :   1.0637 B( 49-N , 52-C ) :   0.9203 B( 50-C , 51-O ) :   2.2288
B( 52-C , 53-C ) :   1.1238 B( 52-C , 78-H ) :   0.9431 B( 52-C , 79-H ) :   0.9421
B( 53-C , 80-H ) :   0.9700 B( 53-C , 81-H ) :   0.9701 B( 53-C , 82-H ) :   0.9695
B( 54-C , 55-C ) :   1.3167 B( 54-C , 83-H ) :   1.0108 B( 55-C , 56-C ) :   1.0226
B( 56-C , 57-C ) :   1.8521 B( 56-C , 84-H ) :   0.9384 B( 57-C , 58-C ) :   1.0805
B( 57-C , 59-C ) :   0.9873 B( 58-C , 85-H ) :   0.9437 B( 58-C , 86-H ) :   0.9450
B( 58-C , 87-H ) :   0.9492 B( 59-C , 60-N ) :   1.0757 B( 59-C , 88-H ) :   0.9108
B( 59-C , 89-H ) :   0.9348 B( 60-N , 61-C ) :   1.1374 B( 60-N , 90-H ) :   0.9398
B( 61-C , 62-C ) :   1.8947 B( 61-C , 91-H ) :   0.9548 B( 62-C , 92-H ) :   0.9510
B( 62-C , 93-H ) :   0.9508

-----------------------------------------------------------------------------
         ABSORPTION SPECTRUM VIA TRANSITION ELECTRIC DIPOLE MOMENTS
-----------------------------------------------------------------------------
State   Energy  Wavelength   fosc         T2         TX        TY        TZ
        (cm-1)    (nm)                  (au**2)     (au)      (au)      (au)
-----------------------------------------------------------------------------
   0   14294.1    699.6   0.336315695   7.74581  -1.44902   0.29754  -2.35746
   1   17610.6    567.8   0.585039399  10.93668   3.28056  -0.07914   0.41031
   2   18927.6    528.3   0.097963707   1.70391   1.26790  -0.22366   0.21520
   3   22021.3    454.1   0.038115188   0.56981  -0.54446  -0.12643   0.50734
   4   23755.5    421.0   0.041331737   0.57279   0.48726  -0.57871  -0.02146
   5   23871.1    418.9   0.672540743   9.27515  -2.70191   0.82917   1.13460
   6   24334.5    410.9   0.372468728   5.03899  -1.66526  -0.87007   1.22837
   7   25416.8    393.4   0.062467313   0.80911   0.03209  -0.49245   0.75205
   8   26456.9    378.0   0.103516983   1.28810   0.49251   0.99693  -0.22730
   9   26755.8    373.8   0.019076743   0.23473   0.04424  -0.48245  -0.00300
  10   27252.5    366.9   0.080570399   0.97330  -0.72436   0.54792  -0.38520
  11   27809.5    359.6   0.246246893   2.91509   0.75214  -1.50254  -0.30292
  12   29267.3    341.7   0.510064880   5.73743   1.46523  -1.89483  -0.01294
  13   29668.2    337.1   0.082638885   0.91700  -0.95135  -0.09518   0.05351
  14   30277.2    330.3   0.004362988   0.04744  -0.04433  -0.17187   0.12624
  15   30773.5    325.0   0.177808943   1.90219  -0.06765   1.34652   0.29069
  16   31315.4    319.3   0.413725501   4.34940  -0.60174   1.99457  -0.09492
  17   32190.0    310.7   0.035195395   0.35995   0.37116   0.43197  -0.18867
  18   32906.6    303.9   0.038032678   0.38049   0.02548  -0.26278   0.55749
  19   33177.8    301.4   0.008335425   0.08271  -0.17516   0.13007   0.18738
  20   33343.0    299.9   0.344140269   3.39786   0.45550  -1.73045   0.44265
  21   33659.3    297.1   0.011497160   0.11245  -0.17622  -0.24772  -0.14153
  22   33738.5    296.4   0.007986040   0.07793   0.12412  -0.24964  -0.01412
  23   34354.8    291.1   0.002164415   0.02074  -0.12032   0.07837  -0.01108
  24   34426.6    290.5   0.055680587   0.53246  -0.15243  -0.70876   0.08294
  25   34750.8    287.8   0.101035123   0.95716  -0.05423  -0.94522   0.24652
  26   34837.9    287.0   0.240957493   2.27701  -0.40389   1.42901  -0.26796
  27   35167.2    284.4   0.043447297   0.40673  -0.59581   0.06738   0.21723
  28   35712.6    280.0   0.015276625   0.14083   0.28400  -0.03832   0.24228
  29   35754.7    279.7   0.017935400   0.16514  -0.22206  -0.33852  -0.03517
  30   36030.5    277.5   0.000890066   0.00813  -0.04153  -0.02813   0.07494
  31   36153.9    276.6   0.022000372   0.20033   0.32247   0.25862  -0.17164
  32   36280.4    275.6   0.128341886   1.16459  -0.44056  -0.42680  -0.88789
  33   36546.1    273.6   0.007617901   0.06862  -0.13448  -0.19405  -0.11350
  34   36999.3    270.3   0.037755079   0.33594   0.35956  -0.40112   0.21392
  35   37392.6    267.4   0.182926852   1.61053  -0.81791  -0.35183   0.90430
  36   38108.5    262.4   0.019406855   0.16765   0.07993   0.34069  -0.21258
  37   38265.4    261.3   0.067940066   0.58451   0.36987   0.42035  -0.52060
  38   38686.9    258.5   0.008595823   0.07315   0.13707   0.13249   0.19185
  39   39025.0    256.2   0.007560258   0.06378  -0.15447   0.18988  -0.06215
  40   39340.1    254.2   0.064454425   0.53938   0.35022  -0.58849  -0.26534
  41   39808.6    251.2   0.128512215   1.06278   0.58574   0.60603  -0.59365
  42   40281.1    248.3   0.120570270   0.98541  -0.06184  -0.07473   0.98793

FINAL SINGLE POINT ENERGY     -6677.238377600413

DIPOLE MOMENT
-------------
                                X             Y             Z
Electronic contribution:    -15.87219      51.20377      92.96202
Nuclear contribution   :     15.55983     -46.61249     -94.31867
                        -----------------------------------------
Total Dipole Moment    :     -0.31235       4.59128      -1.35665
                        -----------------------------------------
Magnitude (a.u.)       :      4.79770
Magnitude (Debye)      :     12.19478

Rotational constants in cm-1:     0.000812     0.000774     0.000566
Rotational constants in MHz :    24.328837    23.197202    16.966879

                             ****ORCA TERMINATED NORMALLY****
TOTAL RUN TIME: 0 days 0 hours 10 minutes 59 seconds 108 msec
