                         Program Version 4.2.0 -  RELEASE  -
|  1> # ORCA input file
|  2> # SCF done       -184.982513233603          0.000539598384
|  3> ! CAM-B3LYP def2-SVP def2/J RIJCOSX Grid4 TightSCF
|  4> %maxcore 5000
|  5> %tddft
|  6>     Mode sTDDFT
|  7>     Ethresh 5.0
|  8>     maxcore 5000
|  9> end
| 10>
| 11> %pal
| 12>   nprocs 6
| 13>   end
| 14> * xyz 0 1
| 15>    C       -3.04331        -1.42387         0.85509
| 16>    C       -3.69506        -2.61685         0.67125
| 17>    C       -3.07360        -3.88034         0.75496
| 18>    N       -2.62916        -4.93773         0.80783
| 19>    C       -5.06578        -2.77150         0.37737
| 20>    N       -6.16878        -2.98883         0.14116
| 21>    C       -1.62462        -1.28064         1.16651
| 22>    C       -1.32331         0.09631         1.30196
| 23>    C       -0.06222         0.55497         1.59507
| 24>    C        0.95454        -0.39098         1.76032
| 25>    C        0.64556        -1.76496         1.62139
| 26>    C       -0.63058        -2.22847         1.32727
| 27>    S        2.04811        -2.76285         1.86130
| 28>    C        3.01647        -1.34006         2.14109
| 29>    C        2.32780        -0.17693         2.05993
| 30>   Br        4.84583        -1.52433         2.51202
| 31>    C       -2.54668         0.89110         1.07530
| 32>    O       -2.63207         2.10154         1.12339
| 33>    C       -3.61519        -0.09281         0.78264
| 34>    C       -4.91081         0.22617         0.48081
| 35>    C       -5.42185         1.54032         0.39976
| 36>    C       -6.71807         1.77746         0.07243
| 37>    C       -7.34381         3.06131        -0.06373
| 38>    C       -6.66290         4.26556         0.19334
| 39>    C       -7.31360         5.45963         0.01859
| 40>    C       -8.65359         5.49360        -0.41060
| 41>    C       -9.34390         4.31230        -0.65381
| 42>    C       -8.68673         3.11432        -0.47712
| 43>    C       -9.05602         6.87347        -0.54581
| 44>    C       -7.97049         7.69768        -0.19212
| 45>    C       -6.79481         6.86156         0.25961
| 46>    C       -6.54087         6.99385         1.78044
| 47>    C       -6.18329         8.38886         2.27546
| 48>    C       -5.52629         7.15630        -0.55492
| 49>    C       -5.72282         6.90679        -2.04607
| 50>    C       -8.07550         9.06145        -0.31400
| 51>    C       -9.27460         9.63758        -0.76900
| 52>    C      -10.35519         8.79988        -1.08380
| 53>    C      -10.25265         7.42935        -0.98061
| 54>    C       -9.33631        11.07207        -0.88368
| 55>    C      -10.30487        11.77831        -1.50847
| 56>    C      -10.34238        13.19607        -1.58861
| 57>    S      -11.59087        13.96720        -2.51059
| 58>    C      -11.00908        15.56287        -2.15484
| 59>    C       -9.87069        15.48283        -1.34536
| 60>    C       -9.50159        14.15405        -1.01724
| 61>    O       -8.45913        13.83887        -0.25014
| 62>    C       -9.12527        16.59832        -0.77174
| 63>    O       -8.12704        16.43695        -0.08939
| 64>    O       -9.60634        17.81078        -1.03012
| 65>    C      -11.56852        16.71044        -2.75604
| 66>    C      -12.81417        16.87576        -3.28399
| 67>    C      -14.04210        16.12592        -3.13694
| 68>    C      -14.43866        15.44152        -2.01675
| 69>    C      -15.69063        14.80988        -1.88552
| 70>    N      -16.69198        14.26687        -1.74334
| 71>    C      -13.66363        15.38408        -0.84040
| 72>    N      -13.07751        15.35486         0.14615
| 73>    C      -14.90166        16.47936        -4.26099
| 74>    C      -14.33154        17.58948        -4.93503
| 75>    C      -13.04621        17.94065        -4.29674
| 76>    O      -12.30851        18.86017        -4.56625
| 77>    C      -14.93632        18.18262        -6.01640
| 78>    C      -16.15112        17.64817        -6.45951
| 79>    C      -16.70320        16.53075        -5.78798
| 80>    C      -16.09765        15.93611        -4.68746
| 81>    S      -18.20048        16.02702        -6.51001
| 82>    C      -18.07047        17.30927        -7.68474
| 83>    C      -16.96224        18.07509        -7.54648
| 84>   Br      -19.40788        17.51323        -8.98318
| 85>    H        0.13393         1.61130         1.69230
| 86>    H       -0.81259        -3.28563         1.23175
| 87>    H        2.76832         0.79262         2.20445
| 88>    H       -5.60931        -0.57514         0.27637
| 89>    H       -4.73734         2.34945         0.59822
| 90>    H       -7.35685         0.92241        -0.12079
| 91>    H       -5.63543         4.24525         0.52014
| 92>    H      -10.37357         4.33205        -0.97740
| 93>    H       -9.20770         2.18677        -0.66629
| 94>    H       -5.73425         6.30525         2.04115
| 95>    H       -7.44185         6.65830         2.30111
| 96>    H       -5.29855         8.77360         1.77545
| 97>    H       -5.97402         8.34671         3.34215
| 98>    H       -7.00749         9.07981         2.12201
| 99>    H       -4.71529         6.52629        -0.18460
|100>    H       -5.23914         8.19747        -0.40447
|101>    H       -5.97746         5.86594        -2.23366
|102>    H       -4.80904         7.13926        -2.58781
|103>    H       -6.52323         7.53117        -2.43771
|104>    H       -7.24057         9.70841        -0.09091
|105>    H      -11.28817         9.23401        -1.40734
|106>    H      -11.08908         6.79733        -1.23879
|107>    H       -8.51601        11.61459        -0.43678
|108>    H      -11.12186        11.27460        -2.00642
|109>    H       -8.03653        14.68205         0.04147
|110>    H       -9.06225        18.48559        -0.59220
|111>    H      -10.89554        17.54958        -2.89721
|112>    H      -14.48796        19.03262        -6.50623
|113>    H      -16.54949        15.08333        -4.20810
|114>    H      -16.72440        18.90693        -8.18397
|115> *
|116>
|117>                          ****END OF INPUT****

CARTESIAN COORDINATES (ANGSTROEM)
---------------------------------
  C     -3.043310   -1.423870    0.855090
  C     -3.695060   -2.616850    0.671250
  C     -3.073600   -3.880340    0.754960
  N     -2.629160   -4.937730    0.807830
  C     -5.065780   -2.771500    0.377370
  N     -6.168780   -2.988830    0.141160
  C     -1.624620   -1.280640    1.166510
  C     -1.323310    0.096310    1.301960
  C     -0.062220    0.554970    1.595070
  C      0.954540   -0.390980    1.760320
  C      0.645560   -1.764960    1.621390
  C     -0.630580   -2.228470    1.327270
  S      2.048110   -2.762850    1.861300
  C      3.016470   -1.340060    2.141090
  C      2.327800   -0.176930    2.059930
  Br     4.845830   -1.524330    2.512020
  C     -2.546680    0.891100    1.075300
  O     -2.632070    2.101540    1.123390
  C     -3.615190   -0.092810    0.782640
  C     -4.910810    0.226170    0.480810
  C     -5.421850    1.540320    0.399760
  C     -6.718070    1.777460    0.072430
  C     -7.343810    3.061310   -0.063730
  C     -6.662900    4.265560    0.193340
  C     -7.313600    5.459630    0.018590
  C     -8.653590    5.493600   -0.410600
  C     -9.343900    4.312300   -0.653810
  C     -8.686730    3.114320   -0.477120
  C     -9.056020    6.873470   -0.545810
  C     -7.970490    7.697680   -0.192120
  C     -6.794810    6.861560    0.259610
  C     -6.540870    6.993850    1.780440
  C     -6.183290    8.388860    2.275460
  C     -5.526290    7.156300   -0.554920
  C     -5.722820    6.906790   -2.046070
  C     -8.075500    9.061450   -0.314000
  C     -9.274600    9.637580   -0.769000
  C    -10.355190    8.799880   -1.083800
  C    -10.252650    7.429350   -0.980610
  C     -9.336310   11.072070   -0.883680
  C    -10.304870   11.778310   -1.508470
  C    -10.342380   13.196070   -1.588610
  S    -11.590870   13.967200   -2.510590
  C    -11.009080   15.562870   -2.154840
  C     -9.870690   15.482830   -1.345360
  C     -9.501590   14.154050   -1.017240
  O     -8.459130   13.838870   -0.250140
  C     -9.125270   16.598320   -0.771740
  O     -8.127040   16.436950   -0.089390
  O     -9.606340   17.810780   -1.030120
  C    -11.568520   16.710440   -2.756040
  C    -12.814170   16.875760   -3.283990
  C    -14.042100   16.125920   -3.136940
  C    -14.438660   15.441520   -2.016750
  C    -15.690630   14.809880   -1.885520
  N    -16.691980   14.266870   -1.743340
  C    -13.663630   15.384080   -0.840400
  N    -13.077510   15.354860    0.146150
  C    -14.901660   16.479360   -4.260990
  C    -14.331540   17.589480   -4.935030
  C    -13.046210   17.940650   -4.296740
  O    -12.308510   18.860170   -4.566250
  C    -14.936320   18.182620   -6.016400
  C    -16.151120   17.648170   -6.459510
  C    -16.703200   16.530750   -5.787980
  C    -16.097650   15.936110   -4.687460
  S    -18.200480   16.027020   -6.510010
  C    -18.070470   17.309270   -7.684740
  C    -16.962240   18.075090   -7.546480
  Br   -19.407880   17.513230   -8.983180
  H      0.133930    1.611300    1.692300
  H     -0.812590   -3.285630    1.231750
  H      2.768320    0.792620    2.204450
  H     -5.609310   -0.575140    0.276370
  H     -4.737340    2.349450    0.598220
  H     -7.356850    0.922410   -0.120790
  H     -5.635430    4.245250    0.520140
  H    -10.373570    4.332050   -0.977400
  H     -9.207700    2.186770   -0.666290
  H     -5.734250    6.305250    2.041150
  H     -7.441850    6.658300    2.301110
  H     -5.298550    8.773600    1.775450
  H     -5.974020    8.346710    3.342150
  H     -7.007490    9.079810    2.122010
  H     -4.715290    6.526290   -0.184600
  H     -5.239140    8.197470   -0.404470
  H     -5.977460    5.865940   -2.233660
  H     -4.809040    7.139260   -2.587810
  H     -6.523230    7.531170   -2.437710
  H     -7.240570    9.708410   -0.090910
  H    -11.288170    9.234010   -1.407340
  H    -11.089080    6.797330   -1.238790
  H     -8.516010   11.614590   -0.436780
  H    -11.121860   11.274600   -2.006420
  H     -8.036530   14.682050    0.041470
  H     -9.062250   18.485590   -0.592200
  H    -10.895540   17.549580   -2.897210
  H    -14.487960   19.032620   -6.506230
  H    -16.549490   15.083330   -4.208100
  H    -16.724400   18.906930   -8.183970

 Total Charge           Charge          ....    0
 Multiplicity           Mult            ....    1
 Number of Electrons    NEL             ....  552
 Basis Dimension        Dim             .... 1178

ORBITAL ENERGIES
----------------

  NO   OCC          E(Eh)            E(eV)
   0   2.0000    -482.887928    -13140.0485
   1   2.0000    -482.884140    -13139.9455
   2   2.0000     -88.980348     -2421.2784
   3   2.0000     -88.978448     -2421.2267
   4   2.0000     -88.973313     -2421.0869
   5   2.0000     -62.565625     -1702.4972
   6   2.0000     -62.561849     -1702.3945
   7   2.0000     -56.399577     -1534.7105
   8   2.0000     -56.396859     -1534.6366
   9   2.0000     -56.396827     -1534.6357
  10   2.0000     -56.395798     -1534.6077
  11   2.0000     -56.393085     -1534.5338
  12   2.0000     -56.393052     -1534.5330
  13   2.0000     -19.291520      -524.9489
  14   2.0000     -19.252762      -523.8943
  15   2.0000     -19.236856      -523.4615
  16   2.0000     -19.217467      -522.9339
  17   2.0000     -19.213143      -522.8162
  18   2.0000     -14.418591      -392.3498
  19   2.0000     -14.415774      -392.2732
  20   2.0000     -14.412299      -392.1786
  21   2.0000     -14.410473      -392.1289
  22   2.0000     -10.436964      -284.0042
  23   2.0000     -10.368986      -282.1545
  24   2.0000     -10.363640      -282.0090
  25   2.0000     -10.361399      -281.9480
  26   2.0000     -10.357078      -281.8304
  27   2.0000     -10.356997      -281.8282
  28   2.0000     -10.345716      -281.5213
  29   2.0000     -10.344696      -281.4935
  30   2.0000     -10.337207      -281.2897
  31   2.0000     -10.336566      -281.2722
  32   2.0000     -10.333442      -281.1873
  33   2.0000     -10.328979      -281.0658
  34   2.0000     -10.322967      -280.9022
  35   2.0000     -10.322357      -280.8856
  36   2.0000     -10.321046      -280.8499
  37   2.0000     -10.317678      -280.7583
  38   2.0000     -10.316571      -280.7282
  39   2.0000     -10.315506      -280.6992
  40   2.0000     -10.313838      -280.6538
  41   2.0000     -10.312043      -280.6050
  42   2.0000     -10.310330      -280.5583
  43   2.0000     -10.309848      -280.5452
  44   2.0000     -10.309644      -280.5397
  45   2.0000     -10.308942      -280.5206
  46   2.0000     -10.305117      -280.4165
  47   2.0000     -10.304750      -280.4065
  48   2.0000     -10.304367      -280.3961
  49   2.0000     -10.302346      -280.3411
  50   2.0000     -10.301287      -280.3123
  51   2.0000     -10.300414      -280.2885
  52   2.0000     -10.299130      -280.2536
  53   2.0000     -10.298178      -280.2277
  54   2.0000     -10.296189      -280.1736
  55   2.0000     -10.294800      -280.1357
  56   2.0000     -10.290406      -280.0162
  57   2.0000     -10.288718      -279.9702
  58   2.0000     -10.288420      -279.9621
  59   2.0000     -10.287236      -279.9299
  60   2.0000     -10.283642      -279.8321
  61   2.0000     -10.283587      -279.8306
  62   2.0000     -10.282781      -279.8087
  63   2.0000     -10.282233      -279.7938
  64   2.0000     -10.279848      -279.7289
  65   2.0000     -10.279363      -279.7157
  66   2.0000     -10.279294      -279.7138
  67   2.0000     -10.278088      -279.6810
  68   2.0000     -10.277224      -279.6575
  69   2.0000     -10.276927      -279.6494
  70   2.0000     -10.276141      -279.6280
  71   2.0000     -10.275667      -279.6151
  72   2.0000     -10.275138      -279.6007
  73   2.0000     -10.274297      -279.5778
  74   2.0000     -10.266825      -279.3745
  75   2.0000     -10.266128      -279.3556
  76   2.0000     -10.253703      -279.0174
  77   2.0000     -10.249616      -278.9062
  78   2.0000      -8.795047      -239.3254
  79   2.0000      -8.791273      -239.2227
  80   2.0000      -8.075187      -219.7370
  81   2.0000      -8.074383      -219.7151
  82   2.0000      -8.069326      -219.5775
  83   2.0000      -6.631338      -180.4479
  84   2.0000      -6.627567      -180.3453
  85   2.0000      -6.616786      -180.0519
  86   2.0000      -6.616584      -180.0464
  87   2.0000      -6.613007      -179.9491
  88   2.0000      -6.612810      -179.9437
  89   2.0000      -6.044335      -164.4747
  90   2.0000      -6.044080      -164.4678
  91   2.0000      -6.040344      -164.3661
  92   2.0000      -6.039787      -164.3510
  93   2.0000      -6.039007      -164.3297
  94   2.0000      -6.037488      -164.2884
  95   2.0000      -6.035640      -164.2381
  96   2.0000      -6.034750      -164.2139
  97   2.0000      -6.030538      -164.0993
  98   2.0000      -2.747260       -74.7568
  99   2.0000      -2.743441       -74.6528
 100   2.0000      -2.743102       -74.6436
 101   2.0000      -2.742957       -74.6396
 102   2.0000      -2.739337       -74.5411
 103   2.0000      -2.739224       -74.5381
 104   2.0000      -2.731394       -74.3250
 105   2.0000      -2.731389       -74.3249
 106   2.0000      -2.727631       -74.2226
 107   2.0000      -2.727625       -74.2224
 108   2.0000      -1.221621       -33.2420
 109   2.0000      -1.159267       -31.5453
 110   2.0000      -1.132773       -30.8243
 111   2.0000      -1.127226       -30.6734
 112   2.0000      -1.119992       -30.4765
 113   2.0000      -1.026600       -27.9352
 114   2.0000      -1.019643       -27.7459
 115   2.0000      -1.016596       -27.6630
 116   2.0000      -1.010081       -27.4857
 117   2.0000      -1.004807       -27.3422
 118   2.0000      -0.994538       -27.0628
 119   2.0000      -0.994220       -27.0541
 120   2.0000      -0.991877       -26.9903
 121   2.0000      -0.990270       -26.9466
 122   2.0000      -0.985615       -26.8199
 123   2.0000      -0.955495       -26.0003
 124   2.0000      -0.945844       -25.7377
 125   2.0000      -0.940896       -25.6031
 126   2.0000      -0.930889       -25.3308
 127   2.0000      -0.914879       -24.8951
 128   2.0000      -0.911153       -24.7937
 129   2.0000      -0.910682       -24.7809
 130   2.0000      -0.905321       -24.6350
 131   2.0000      -0.896389       -24.3920
 132   2.0000      -0.888927       -24.1889
 133   2.0000      -0.887113       -24.1396
 134   2.0000      -0.883081       -24.0299
 135   2.0000      -0.874545       -23.7976
 136   2.0000      -0.866396       -23.5758
 137   2.0000      -0.858997       -23.3745
 138   2.0000      -0.843516       -22.9532
 139   2.0000      -0.838607       -22.8197
 140   2.0000      -0.837986       -22.8027
 141   2.0000      -0.835168       -22.7261
 142   2.0000      -0.831812       -22.6348
 143   2.0000      -0.826486       -22.4898
 144   2.0000      -0.815159       -22.1816
 145   2.0000      -0.799191       -21.7471
 146   2.0000      -0.778015       -21.1709
 147   2.0000      -0.770488       -20.9660
 148   2.0000      -0.769347       -20.9350
 149   2.0000      -0.762486       -20.7483
 150   2.0000      -0.756795       -20.5934
 151   2.0000      -0.749826       -20.4038
 152   2.0000      -0.734041       -19.9743
 153   2.0000      -0.720065       -19.5940
 154   2.0000      -0.715967       -19.4825
 155   2.0000      -0.707904       -19.2630
 156   2.0000      -0.701860       -19.0986
 157   2.0000      -0.694149       -18.8888
 158   2.0000      -0.690729       -18.7957
 159   2.0000      -0.689628       -18.7657
 160   2.0000      -0.686352       -18.6766
 161   2.0000      -0.681081       -18.5332
 162   2.0000      -0.672814       -18.3082
 163   2.0000      -0.666865       -18.1463
 164   2.0000      -0.663537       -18.0558
 165   2.0000      -0.659342       -17.9416
 166   2.0000      -0.653980       -17.7957
 167   2.0000      -0.648182       -17.6379
 168   2.0000      -0.646042       -17.5797
 169   2.0000      -0.633080       -17.2270
 170   2.0000      -0.626969       -17.0607
 171   2.0000      -0.621359       -16.9080
 172   2.0000      -0.618231       -16.8229
 173   2.0000      -0.607412       -16.5285
 174   2.0000      -0.605018       -16.4634
 175   2.0000      -0.598889       -16.2966
 176   2.0000      -0.597343       -16.2545
 177   2.0000      -0.592605       -16.1256
 178   2.0000      -0.591338       -16.0911
 179   2.0000      -0.586112       -15.9489
 180   2.0000      -0.581699       -15.8288
 181   2.0000      -0.574559       -15.6345
 182   2.0000      -0.570896       -15.5349
 183   2.0000      -0.564912       -15.3720
 184   2.0000      -0.558998       -15.2111
 185   2.0000      -0.550535       -14.9808
 186   2.0000      -0.547371       -14.8947
 187   2.0000      -0.545622       -14.8471
 188   2.0000      -0.544163       -14.8074
 189   2.0000      -0.542286       -14.7564
 190   2.0000      -0.540792       -14.7157
 191   2.0000      -0.536401       -14.5962
 192   2.0000      -0.535364       -14.5680
 193   2.0000      -0.533406       -14.5147
 194   2.0000      -0.530213       -14.4278
 195   2.0000      -0.527398       -14.3512
 196   2.0000      -0.525781       -14.3072
 197   2.0000      -0.524311       -14.2672
 198   2.0000      -0.521722       -14.1968
 199   2.0000      -0.521017       -14.1776
 200   2.0000      -0.520460       -14.1624
 201   2.0000      -0.514632       -14.0039
 202   2.0000      -0.511278       -13.9126
 203   2.0000      -0.510718       -13.8973
 204   2.0000      -0.507043       -13.7973
 205   2.0000      -0.506130       -13.7725
 206   2.0000      -0.505322       -13.7505
 207   2.0000      -0.503269       -13.6946
 208   2.0000      -0.499623       -13.5954
 209   2.0000      -0.497188       -13.5292
 210   2.0000      -0.494606       -13.4589
 211   2.0000      -0.490450       -13.3458
 212   2.0000      -0.489852       -13.3296
 213   2.0000      -0.484731       -13.1902
 214   2.0000      -0.484301       -13.1785
 215   2.0000      -0.480084       -13.0637
 216   2.0000      -0.475979       -12.9521
 217   2.0000      -0.472094       -12.8463
 218   2.0000      -0.469327       -12.7710
 219   2.0000      -0.467009       -12.7080
 220   2.0000      -0.461074       -12.5465
 221   2.0000      -0.460173       -12.5220
 222   2.0000      -0.458747       -12.4831
 223   2.0000      -0.456076       -12.4104
 224   2.0000      -0.453965       -12.3530
 225   2.0000      -0.450554       -12.2602
 226   2.0000      -0.449601       -12.2343
 227   2.0000      -0.448566       -12.2061
 228   2.0000      -0.446975       -12.1628
 229   2.0000      -0.445543       -12.1238
 230   2.0000      -0.445395       -12.1198
 231   2.0000      -0.444784       -12.1032
 232   2.0000      -0.443937       -12.0801
 233   2.0000      -0.440963       -11.9992
 234   2.0000      -0.440001       -11.9730
 235   2.0000      -0.437329       -11.9003
 236   2.0000      -0.436255       -11.8711
 237   2.0000      -0.432981       -11.7820
 238   2.0000      -0.429555       -11.6888
 239   2.0000      -0.428719       -11.6660
 240   2.0000      -0.427756       -11.6398
 241   2.0000      -0.425727       -11.5846
 242   2.0000      -0.424106       -11.5405
 243   2.0000      -0.423097       -11.5130
 244   2.0000      -0.422050       -11.4846
 245   2.0000      -0.419807       -11.4235
 246   2.0000      -0.416657       -11.3378
 247   2.0000      -0.415275       -11.3002
 248   2.0000      -0.411922       -11.2090
 249   2.0000      -0.406238       -11.0543
 250   2.0000      -0.403625       -10.9832
 251   2.0000      -0.397607       -10.8194
 252   2.0000      -0.395895       -10.7729
 253   2.0000      -0.390337       -10.6216
 254   2.0000      -0.389865       -10.6088
 255   2.0000      -0.385542       -10.4911
 256   2.0000      -0.384706       -10.4684
 257   2.0000      -0.383402       -10.4329
 258   2.0000      -0.377374       -10.2689
 259   2.0000      -0.377193       -10.2640
 260   2.0000      -0.373552       -10.1649
 261   2.0000      -0.366609        -9.9759
 262   2.0000      -0.355240        -9.6666
 263   2.0000      -0.343809        -9.3555
 264   2.0000      -0.334274        -9.0961
 265   2.0000      -0.332240        -9.0407
 266   2.0000      -0.327935        -8.9236
 267   2.0000      -0.326701        -8.8900
 268   2.0000      -0.321062        -8.7365
 269   2.0000      -0.318103        -8.6560
 270   2.0000      -0.313020        -8.5177
 271   2.0000      -0.309478        -8.4213
 272   2.0000      -0.296434        -8.0664
 273   2.0000      -0.291489        -7.9318
 274   2.0000      -0.274571        -7.4715
 275   2.0000      -0.245810        -6.6888
 276   0.0000      -0.104946        -2.8557
 277   0.0000      -0.090704        -2.4682
 278   0.0000      -0.063999        -1.7415
 279   0.0000      -0.058370        -1.5883
 280   0.0000      -0.032402        -0.8817

MULLIKEN ATOMIC CHARGES
-----------------------
   0 C :    0.332693
   1 C :   -0.355108
   2 C :   -0.188910
   3 N :    0.145635
   4 C :   -0.190491
   5 N :    0.145451
   6 C :    0.012832
   7 C :   -0.008120
   8 C :   -0.074735
   9 C :    0.119820
  10 C :   -0.089895
  11 C :   -0.023131
  12 S :    0.185228
  13 C :   -0.122455
  14 C :    0.036390
  15 Br:    0.022062
  16 C :    0.146316
  17 O :   -0.160060
  18 C :   -0.077321
  19 C :   -0.026391
  20 C :   -0.005190
  21 C :    0.027359
  22 C :    0.108836
  23 C :   -0.072308
  24 C :    0.012987
  25 C :    0.104008
  26 C :   -0.043622
  27 C :   -0.007742
  28 C :    0.094464
  29 C :    0.036686
  30 C :   -0.132366
  31 C :    0.074904
  32 C :    0.027652
  33 C :    0.048488
  34 C :    0.025944
  35 C :   -0.115391
  36 C :    0.127641
  37 C :   -0.008526
  38 C :   -0.040234
  39 C :   -0.019590
  40 C :    0.057512
  41 C :   -0.136556
  42 S :    0.180725
  43 C :   -0.143597
  44 C :    0.034258
  45 C :    0.132981
  46 O :   -0.170661
  47 C :    0.165014
  48 O :   -0.253108
  49 O :   -0.148216
  50 C :    0.046790
  51 C :   -0.131632
  52 C :    0.248020
  53 C :   -0.325505
  54 C :   -0.177881
  55 N :    0.156830
  56 C :   -0.203621
  57 N :    0.174078
  58 C :    0.005576
  59 C :   -0.000936
  60 C :    0.138392
  61 O :   -0.143851
  62 C :   -0.068246
  63 C :    0.110215
  64 C :   -0.087888
  65 C :   -0.020124
  66 S :    0.185830
  67 C :   -0.125607
  68 C :    0.042845
  69 Br:    0.025196
  70 H :   -0.012041
  71 H :   -0.007179
  72 H :   -0.004589
  73 H :    0.005276
  74 H :    0.027618
  75 H :   -0.001400
  76 H :   -0.028424
  77 H :   -0.030110
  78 H :   -0.019814
  79 H :    0.001654
  80 H :    0.005444
  81 H :    0.004441
  82 H :    0.016160
  83 H :    0.022943
  84 H :    0.004754
  85 H :    0.008113
  86 H :    0.019808
  87 H :    0.010920
  88 H :    0.019956
  89 H :   -0.031420
  90 H :   -0.026923
  91 H :   -0.033308
  92 H :    0.004743
  93 H :   -0.023943
  94 H :    0.202140
  95 H :    0.205440
  96 H :    0.032965
  97 H :   -0.008664
  98 H :   -0.002617
  99 H :   -0.002583
Sum of atomic charges:   -0.0000000

LOEWDIN ATOMIC CHARGES
----------------------
   0 C :    0.076833
   1 C :   -0.144475
   2 C :   -0.018101
   3 N :   -0.057630
   4 C :   -0.020049
   5 N :   -0.056459
   6 C :   -0.020356
   7 C :   -0.049991
   8 C :    0.020290
   9 C :   -0.033074
  10 C :   -0.144066
  11 C :   -0.010282
  12 S :    0.431652
  13 C :   -0.271804
  14 C :   -0.070778
  15 Br:    0.135487
  16 C :    0.085636
  17 O :   -0.152216
  18 C :   -0.103357
  19 C :    0.074369
  20 C :   -0.041536
  21 C :    0.047471
  22 C :   -0.038963
  23 C :    0.000726
  24 C :    0.006915
  25 C :   -0.000735
  26 C :   -0.020846
  27 C :   -0.002077
  28 C :   -0.018498
  29 C :    0.006649
  30 C :   -0.034782
  31 C :   -0.009117
  32 C :   -0.059137
  33 C :   -0.015150
  34 C :   -0.056357
  35 C :   -0.016822
  36 C :   -0.022023
  37 C :   -0.011396
  38 C :   -0.013423
  39 C :    0.001998
  40 C :   -0.046599
  41 C :   -0.184011
  42 S :    0.503309
  43 C :   -0.159082
  44 C :   -0.119605
  45 C :    0.045519
  46 O :   -0.033412
  47 C :    0.107904
  48 O :   -0.188271
  49 O :   -0.006250
  50 C :    0.045804
  51 C :   -0.093458
  52 C :    0.059724
  53 C :   -0.142548
  54 C :   -0.020568
  55 N :   -0.050979
  56 C :   -0.033928
  57 N :   -0.047397
  58 C :   -0.017352
  59 C :   -0.052519
  60 C :    0.083143
  61 O :   -0.143030
  62 C :    0.023098
  63 C :   -0.033385
  64 C :   -0.142883
  65 C :   -0.012441
  66 S :    0.432767
  67 C :   -0.271680
  68 C :   -0.069863
  69 Br:    0.138048
  70 H :    0.040078
  71 H :    0.040928
  72 H :    0.038364
  73 H :    0.041308
  74 H :    0.030202
  75 H :    0.035333
  76 H :    0.030488
  77 H :    0.029097
  78 H :    0.029944
  79 H :    0.021894
  80 H :    0.026708
  81 H :    0.020363
  82 H :    0.029183
  83 H :    0.024932
  84 H :    0.022598
  85 H :    0.020609
  86 H :    0.024577
  87 H :    0.024973
  88 H :    0.025167
  89 H :    0.026525
  90 H :    0.026248
  91 H :    0.028124
  92 H :    0.032139
  93 H :    0.025341
  94 H :    0.077271
  95 H :    0.112907
  96 H :    0.048339
  97 H :    0.041650
  98 H :    0.040984
  99 H :    0.039137

  Mayer bond orders larger than 0.100000
B(  0-C ,  1-C ) :   1.6196 B(  0-C ,  6-C ) :   1.0001 B(  0-C , 18-C ) :   1.0688
B(  1-C ,  2-C ) :   1.1443 B(  1-C ,  4-C ) :   1.1481 B(  2-C ,  3-N ) :   2.9657
B(  4-C ,  5-N ) :   2.9599 B(  6-C ,  7-C ) :   1.2778 B(  6-C , 11-C ) :   1.4078
B(  7-C ,  8-C ) :   1.4226 B(  7-C , 16-C ) :   0.9458 B(  8-C ,  9-C ) :   1.2443
B(  8-C , 70-H ) :   1.0174 B(  9-C , 10-C ) :   1.3064 B(  9-C , 14-C ) :   1.1603
B( 10-C , 11-C ) :   1.3308 B( 10-C , 12-S ) :   1.0851 B( 11-C , 71-H ) :   0.9798
B( 12-S , 13-C ) :   1.0859 B( 13-C , 14-C ) :   1.6188 B( 13-C , 15-Br) :   1.0179
B( 14-C , 72-H ) :   1.0013 B( 16-C , 17-O ) :   2.1859 B( 16-C , 18-C ) :   0.9506
B( 18-C , 19-C ) :   1.5212 B( 19-C , 20-C ) :   1.1688 B( 19-C , 73-H ) :   0.9619
B( 20-C , 21-C ) :   1.5681 B( 20-C , 74-H ) :   0.9701 B( 21-C , 22-C ) :   1.0708
B( 21-C , 75-H ) :   0.9927 B( 22-C , 23-C ) :   1.2862 B( 22-C , 27-C ) :   1.3164
B( 23-C , 24-C ) :   1.4219 B( 23-C , 76-H ) :   0.9988 B( 24-C , 25-C ) :   1.3506
B( 24-C , 30-C ) :   0.9263 B( 25-C , 26-C ) :   1.3372 B( 25-C , 28-C ) :   1.0063
B( 26-C , 27-C ) :   1.3837 B( 26-C , 77-H ) :   0.9903 B( 27-C , 78-H ) :   0.9953
B( 28-C , 29-C ) :   1.3799 B( 28-C , 38-C ) :   1.3222 B( 29-C , 30-C ) :   0.9178
B( 29-C , 35-C ) :   1.3789 B( 30-C , 31-C ) :   1.0125 B( 30-C , 33-C ) :   1.0328
B( 31-C , 32-C ) :   1.1162 B( 31-C , 79-H ) :   0.9376 B( 31-C , 80-H ) :   0.9390
B( 32-C , 81-H ) :   0.9629 B( 32-C , 82-H ) :   0.9593 B( 32-C , 83-H ) :   0.9607
B( 33-C , 34-C ) :   1.1033 B( 33-C , 84-H ) :   0.9396 B( 33-C , 85-H ) :   0.9383
B( 34-C , 86-H ) :   0.9629 B( 34-C , 87-H ) :   0.9648 B( 34-C , 88-H ) :   0.9652
B( 35-C , 36-C ) :   1.2820 B( 35-C , 89-H ) :   1.0093 B( 36-C , 37-C ) :   1.3403
B( 36-C , 39-C ) :   1.0609 B( 37-C , 38-C ) :   1.4043 B( 37-C , 90-H ) :   0.9842
B( 38-C , 91-H ) :   0.9896 B( 39-C , 40-C ) :   1.6770 B( 39-C , 92-H ) :   0.9790
B( 40-C , 41-C ) :   1.1326 B( 40-C , 93-H ) :   0.9477 B( 41-C , 42-S ) :   1.1285
B( 41-C , 43-C ) :   0.1054 B( 41-C , 45-C ) :   1.4066 B( 42-S , 43-C ) :   1.1570
B( 43-C , 44-C ) :   1.3679 B( 43-C , 50-C ) :   1.1520 B( 44-C , 45-C ) :   1.2296
B( 44-C , 47-C ) :   0.9601 B( 45-C , 46-O ) :   1.3191 B( 46-O , 94-H ) :   0.8823
B( 47-C , 48-O ) :   1.9736 B( 47-C , 49-O ) :   1.3105 B( 48-O , 94-H ) :   0.1295
B( 49-O , 95-H ) :   0.9310 B( 50-C , 51-C ) :   1.6382 B( 50-C , 96-H ) :   0.9335
B( 51-C , 52-C ) :   1.0342 B( 51-C , 60-C ) :   0.9414 B( 52-C , 53-C ) :   1.6546
B( 52-C , 58-C ) :   1.0149 B( 53-C , 54-C ) :   1.1359 B( 53-C , 56-C ) :   1.1545
B( 54-C , 55-N ) :   2.9898 B( 56-C , 57-N ) :   3.0239 B( 58-C , 59-C ) :   1.2752
B( 58-C , 65-C ) :   1.4152 B( 59-C , 60-C ) :   0.9206 B( 59-C , 62-C ) :   1.4277
B( 60-C , 61-O ) :   2.2644 B( 62-C , 63-C ) :   1.2521 B( 62-C , 97-H ) :   1.0161
B( 63-C , 64-C ) :   1.3085 B( 63-C , 68-C ) :   1.1631 B( 64-C , 65-C ) :   1.3267
B( 64-C , 66-S ) :   1.0838 B( 65-C , 98-H ) :   0.9845 B( 66-S , 67-C ) :   1.0870
B( 67-C , 68-C ) :   1.6184 B( 67-C , 69-Br) :   1.0203 B( 68-C , 99-H ) :   1.0006

-----------------------------------------------------------------------------
         ABSORPTION SPECTRUM VIA TRANSITION ELECTRIC DIPOLE MOMENTS
-----------------------------------------------------------------------------
State   Energy  Wavelength   fosc         T2         TX        TY        TZ
        (cm-1)    (nm)                  (au**2)     (au)      (au)      (au)
-----------------------------------------------------------------------------
   0   15409.4    649.0   1.185748590  25.33277  -3.02417   3.82834  -1.23733
   1   20945.3    477.4   1.256646653  19.75161  -2.29861   3.74908  -0.64215
   2   24752.5    404.0   0.044603134   0.59323  -0.30176  -0.67507  -0.21554
   3   25249.8    396.0   0.112504024   1.46685   0.00930   0.95121  -0.74964
   4   26346.9    379.6   0.199392736   2.49147  -0.55705   0.67114  -1.31557
   5   27253.9    366.9   0.031755114   0.38358   0.52119   0.14981   0.29917
   6   27594.5    362.4   0.023525108   0.28066  -0.24105  -0.46174   0.09670
   7   28149.7    355.2   0.056351372   0.65903  -0.72266  -0.24779  -0.27459
   8   28930.5    345.7   0.000989939   0.01126   0.10307  -0.01006   0.02324
   9   29013.6    344.7   0.552256481   6.26636   2.41030  -0.52510   0.42556
  10   29300.0    341.3   0.053652342   0.60283  -0.52478   0.24302  -0.51805
  11   30277.6    330.3   0.014338275   0.15590  -0.38078  -0.05810  -0.08681
  12   30471.2    328.2   0.268921569   2.90544  -1.51450   0.07018  -0.77897
  13   31959.4    312.9   0.323578317   3.33316   0.81601  -1.50861   0.62561
  14   32210.0    310.5   0.000271987   0.00278  -0.05246   0.00054  -0.00526
  15   32704.3    305.8   0.334141716   3.36358  -0.42083  -1.35883   1.15761
  16   33189.4    301.3   0.465686162   4.61924  -1.34732  -0.77852  -1.48252
  17   33466.3    298.8   0.011617248   0.11428  -0.19543  -0.16363  -0.22207
  18   33519.7    298.3   0.595195374   5.84568  -2.15639  -0.97545  -0.49412
  19   33605.5    297.6   0.114538317   1.12206  -0.87955  -0.46217  -0.36722
  20   33939.1    294.6   0.052844203   0.51259  -0.43389  -0.46423  -0.32988
  21   34256.0    291.9   0.125743744   1.20844  -0.44799   0.45819  -0.89320
  22   35039.9    285.4   0.098895440   0.92916   0.07140  -0.94938   0.15076
  23   35668.5    280.4   0.044869517   0.41414  -0.57750  -0.23299  -0.16233
  24   35793.2    279.4   0.070971839   0.65277   0.41426  -0.66185   0.20764
  25   36055.3    277.4   0.024327360   0.22213   0.39752   0.25245  -0.01949
  26   37202.0    268.8   0.001629978   0.01442   0.04261  -0.08510   0.07326
  27   37712.1    265.2   0.015649812   0.13662   0.20417   0.27047  -0.14757
  28   38606.3    259.0   0.080576328   0.68711   0.61689   0.51957  -0.19133
  29   38833.2    257.5   0.062328869   0.52840  -0.32841  -0.64806   0.02386
  30   39132.4    255.5   0.189968476   1.59816  -0.09260   1.25882  -0.07034
  31   39270.1    254.6   0.067031487   0.56194  -0.06790  -0.74548  -0.03997
  32   39408.5    253.8   0.137819769   1.15132   1.06886  -0.00318   0.09405
  33   40157.1    249.0   0.030578817   0.25069  -0.27904  -0.41521   0.02065
  34   40227.8    248.6   0.092868430   0.76001  -0.56921   0.00172  -0.66031

FINAL SINGLE POINT ENERGY     -9085.799564639214

DIPOLE MOMENT
-------------
                                X             Y             Z
Electronic contribution:     -2.73876       7.06446     -57.54492
Nuclear contribution   :      3.47392      -3.85440      56.12406
                        -----------------------------------------
Total Dipole Moment    :      0.73515       3.21006      -1.42086
                        -----------------------------------------
Magnitude (a.u.)       :      3.58662
Magnitude (Debye)      :      9.11645

Rotational constants in cm-1:     0.001703     0.000136     0.000130
Rotational constants in MHz :    51.040728     4.070801     3.886234

                             ****ORCA TERMINATED NORMALLY****
TOTAL RUN TIME: 0 days 0 hours 22 minutes 45 seconds 840 msec
