                         Program Version 4.2.0 -  RELEASE  -
|  1> # ORCA input file
|  2> # SCF done       -189.838558354738          0.000783839418
|  3> ! CAM-B3LYP def2-SVP def2/J RIJCOSX Grid4 TightSCF
|  4> %maxcore 5000
|  5> %tddft
|  6>     Mode sTDDFT
|  7>     Ethresh 5.0
|  8>     maxcore 5000
|  9> end
| 10>
| 11> %pal
| 12>   nprocs 6
| 13>   end
| 14> * xyz 0 1
| 15>    C       -3.24061         3.25402         3.51708
| 16>    C       -3.69621         2.80264         4.73170
| 17>    C       -3.51393         3.50743         5.94165
| 18>    N       -3.34533         4.02211         6.95339
| 19>    C       -4.32769         1.57408         4.99279
| 20>    N       -4.83873         0.59827         5.32740
| 21>    C       -2.57626         4.53350         3.29180
| 22>    C       -2.18960         4.61252         1.93005
| 23>    C       -1.54501         5.70244         1.39991
| 24>    C       -1.25673         6.76941         2.25742
| 25>    C       -1.63374         6.67966         3.61895
| 26>    C       -2.29633         5.57975         4.15137
| 27>    S       -1.14912         8.08894         4.50974
| 28>    C       -0.46041         8.77166         3.06156
| 29>    C       -0.58752         7.98738         1.96446
| 30>   Br        0.36190        10.45241         3.13301
| 31>    C       -2.57808         3.36721         1.24523
| 32>    O       -2.32742         3.06843         0.09215
| 33>    C       -3.28532         2.55950         2.24606
| 34>    C       -3.92877         1.37228         2.01338
| 35>    C       -4.02532         0.59771         0.84785
| 36>    S       -2.99757         0.73236        -0.55213
| 37>    C       -3.61423        -0.73630        -1.17500
| 38>    C       -4.58104        -1.31561        -0.40163
| 39>    C       -5.29874        -2.57920        -0.73706
| 40>    C       -4.84866        -0.54541         0.75329
| 41>    C       -5.81761        -0.87060         1.75651
| 42>    C       -6.54885         0.07128         2.40039
| 43>    C       -7.23181        -0.06589         3.64446
| 44>    C       -7.15897        -1.16747         4.42921
| 45>    C       -7.37680        -1.26412         5.83064
| 46>    S       -7.28510        -2.87494         6.49558
| 47>    C       -7.12986        -2.29714         8.12117
| 48>    C       -7.20632        -0.92678         8.15373
| 49>    C       -7.36006        -0.33549         6.86338
| 50>    N       -7.34205         1.07777         6.74956
| 51>    O       -6.72979         1.68838         7.60248
| 52>    O       -7.94685         1.60025         5.83144
| 53>    C       -7.09128        -0.20543         9.35995
| 54>    N       -7.01806         0.30002        10.38580
| 55>    C       -6.80562        -3.21679         9.20758
| 56>    C       -7.65705        -3.41416        10.29366
| 57>    C       -8.95802        -2.68356        10.41425
| 58>    C       -7.27025        -4.32614        11.26281
| 59>    C       -6.08312        -5.04406        11.19297
| 60>    C       -5.78541        -6.03387        12.28493
| 61>    C       -6.14084        -7.45566        11.84435
| 62>    C       -5.23749        -4.85894        10.09734
| 63>    C       -3.91720        -5.55198         9.94589
| 64>    C       -5.60718        -3.94375         9.10669
| 65>    C       -4.74305        -3.73528         7.94582
| 66>    C       -4.22282        -2.54828         7.58358
| 67>    C       -3.49568        -2.34887         6.37445
| 68>    C       -2.65070        -1.32848         6.07460
| 69>    C       -2.02501        -0.33592         6.92459
| 70>    C       -1.76168        -0.46631         8.26251
| 71>    C       -1.07008         0.49925         9.02600
| 72>    N       -0.49971         1.24187         9.68847
| 73>    C       -1.98705        -1.65016         8.99475
| 74>    N       -2.06574        -2.61772         9.60774
| 75>    C       -1.46558         0.69398         6.05581
| 76>    C       -1.54442         0.24614         4.71146
| 77>    C       -2.28669        -1.03051         4.66568
| 78>    O       -2.59145        -1.67014         3.68289
| 79>    C       -0.98077         0.94382         3.67006
| 80>    C       -0.33495         2.15013         3.96450
| 81>    C       -0.31284         2.61395         5.30199
| 82>    C       -0.86421         1.90065         6.35958
| 83>    S        0.51587         4.13284         5.43925
| 84>    C        0.84786         4.10775         3.72761
| 85>    C        0.34564         3.03089         3.07873
| 86>   Br        1.84048         5.50000         2.96588
| 87>    H       -1.26440         5.72991         0.35884
| 88>    H       -2.56928         5.56769         5.19300
| 89>    H       -0.21385         8.24968         0.99204
| 90>    H       -4.45562         0.94576         2.85877
| 91>    H       -3.24247        -1.10634        -2.11158
| 92>    H       -4.96578        -2.96350        -1.69705
| 93>    H       -6.37323        -2.40659        -0.77884
| 94>    H       -5.10709        -3.33256         0.02630
| 95>    H       -5.91817        -1.91786         2.00552
| 96>    H       -6.55135         1.07383         1.98961
| 97>    H       -7.70590         0.82765         4.02154
| 98>    H       -6.79198        -2.08840         3.99355
| 99>    H       -9.42302        -2.53941         9.44066
|100>    H       -8.79311        -1.70173        10.85841
|101>    H       -9.64435        -3.23325        11.05324
|102>    H       -7.92432        -4.48474        12.10822
|103>    H       -6.37561        -5.77890        13.16668
|104>    H       -4.73379        -5.98730        12.57043
|105>    H       -7.19654        -7.51622        11.58910
|106>    H       -5.93793        -8.16138        12.64630
|107>    H       -5.56248        -7.74695        10.97141
|108>    H       -3.66694        -6.15053        10.81375
|109>    H       -3.13220        -4.81171         9.79770
|110>    H       -3.93148        -6.20663         9.07391
|111>    H       -4.49191        -4.61691         7.36757
|112>    H       -4.38042        -1.68291         8.21529
|113>    H       -3.69821        -3.03887         5.56131
|114>    H       -1.02300         0.56714         2.65982
|115>    H       -0.82107         2.29099         7.36276
|116>    H        0.45406         2.85688         2.02345
|117> *
|118>
|119>                          ****END OF INPUT****

CARTESIAN COORDINATES (ANGSTROEM)
---------------------------------
  C     -3.240610    3.254020    3.517080
  C     -3.696210    2.802640    4.731700
  C     -3.513930    3.507430    5.941650
  N     -3.345330    4.022110    6.953390
  C     -4.327690    1.574080    4.992790
  N     -4.838730    0.598270    5.327400
  C     -2.576260    4.533500    3.291800
  C     -2.189600    4.612520    1.930050
  C     -1.545010    5.702440    1.399910
  C     -1.256730    6.769410    2.257420
  C     -1.633740    6.679660    3.618950
  C     -2.296330    5.579750    4.151370
  S     -1.149120    8.088940    4.509740
  C     -0.460410    8.771660    3.061560
  C     -0.587520    7.987380    1.964460
  Br     0.361900   10.452410    3.133010
  C     -2.578080    3.367210    1.245230
  O     -2.327420    3.068430    0.092150
  C     -3.285320    2.559500    2.246060
  C     -3.928770    1.372280    2.013380
  C     -4.025320    0.597710    0.847850
  S     -2.997570    0.732360   -0.552130
  C     -3.614230   -0.736300   -1.175000
  C     -4.581040   -1.315610   -0.401630
  C     -5.298740   -2.579200   -0.737060
  C     -4.848660   -0.545410    0.753290
  C     -5.817610   -0.870600    1.756510
  C     -6.548850    0.071280    2.400390
  C     -7.231810   -0.065890    3.644460
  C     -7.158970   -1.167470    4.429210
  C     -7.376800   -1.264120    5.830640
  S     -7.285100   -2.874940    6.495580
  C     -7.129860   -2.297140    8.121170
  C     -7.206320   -0.926780    8.153730
  C     -7.360060   -0.335490    6.863380
  N     -7.342050    1.077770    6.749560
  O     -6.729790    1.688380    7.602480
  O     -7.946850    1.600250    5.831440
  C     -7.091280   -0.205430    9.359950
  N     -7.018060    0.300020   10.385800
  C     -6.805620   -3.216790    9.207580
  C     -7.657050   -3.414160   10.293660
  C     -8.958020   -2.683560   10.414250
  C     -7.270250   -4.326140   11.262810
  C     -6.083120   -5.044060   11.192970
  C     -5.785410   -6.033870   12.284930
  C     -6.140840   -7.455660   11.844350
  C     -5.237490   -4.858940   10.097340
  C     -3.917200   -5.551980    9.945890
  C     -5.607180   -3.943750    9.106690
  C     -4.743050   -3.735280    7.945820
  C     -4.222820   -2.548280    7.583580
  C     -3.495680   -2.348870    6.374450
  C     -2.650700   -1.328480    6.074600
  C     -2.025010   -0.335920    6.924590
  C     -1.761680   -0.466310    8.262510
  C     -1.070080    0.499250    9.026000
  N     -0.499710    1.241870    9.688470
  C     -1.987050   -1.650160    8.994750
  N     -2.065740   -2.617720    9.607740
  C     -1.465580    0.693980    6.055810
  C     -1.544420    0.246140    4.711460
  C     -2.286690   -1.030510    4.665680
  O     -2.591450   -1.670140    3.682890
  C     -0.980770    0.943820    3.670060
  C     -0.334950    2.150130    3.964500
  C     -0.312840    2.613950    5.301990
  C     -0.864210    1.900650    6.359580
  S      0.515870    4.132840    5.439250
  C      0.847860    4.107750    3.727610
  C      0.345640    3.030890    3.078730
  Br     1.840480    5.500000    2.965880
  H     -1.264400    5.729910    0.358840
  H     -2.569280    5.567690    5.193000
  H     -0.213850    8.249680    0.992040
  H     -4.455620    0.945760    2.858770
  H     -3.242470   -1.106340   -2.111580
  H     -4.965780   -2.963500   -1.697050
  H     -6.373230   -2.406590   -0.778840
  H     -5.107090   -3.332560    0.026300
  H     -5.918170   -1.917860    2.005520
  H     -6.551350    1.073830    1.989610
  H     -7.705900    0.827650    4.021540
  H     -6.791980   -2.088400    3.993550
  H     -9.423020   -2.539410    9.440660
  H     -8.793110   -1.701730   10.858410
  H     -9.644350   -3.233250   11.053240
  H     -7.924320   -4.484740   12.108220
  H     -6.375610   -5.778900   13.166680
  H     -4.733790   -5.987300   12.570430
  H     -7.196540   -7.516220   11.589100
  H     -5.937930   -8.161380   12.646300
  H     -5.562480   -7.746950   10.971410
  H     -3.666940   -6.150530   10.813750
  H     -3.132200   -4.811710    9.797700
  H     -3.931480   -6.206630    9.073910
  H     -4.491910   -4.616910    7.367570
  H     -4.380420   -1.682910    8.215290
  H     -3.698210   -3.038870    5.561310
  H     -1.023000    0.567140    2.659820
  H     -0.821070    2.290990    7.362760
  H      0.454060    2.856880    2.023450

 Total Charge           Charge          ....    0
 Multiplicity           Mult            ....    1
 Number of Electrons    NEL             ....  574
 Basis Dimension        Dim             .... 1210

ORBITAL ENERGIES
----------------

  NO   OCC          E(Eh)            E(eV)
   0   2.0000    -482.886909    -13140.0208
   1   2.0000    -482.885465    -13139.9815
   2   2.0000     -88.981403     -2421.3071
   3   2.0000     -88.976561     -2421.1753
   4   2.0000     -88.975299     -2421.1410
   5   2.0000     -88.963554     -2420.8214
   6   2.0000     -62.564236     -1702.4594
   7   2.0000     -62.563227     -1702.4320
   8   2.0000     -56.398157     -1534.6719
   9   2.0000     -56.397172     -1534.6451
  10   2.0000     -56.395518     -1534.6001
  11   2.0000     -56.395477     -1534.5989
  12   2.0000     -56.394459     -1534.5712
  13   2.0000     -56.394439     -1534.5707
  14   2.0000     -19.240951      -523.5729
  15   2.0000     -19.239486      -523.5330
  16   2.0000     -19.220920      -523.0278
  17   2.0000     -19.215958      -522.8928
  18   2.0000     -14.647808      -398.5871
  19   2.0000     -14.423538      -392.4844
  20   2.0000     -14.413047      -392.1990
  21   2.0000     -14.412054      -392.1719
  22   2.0000     -14.410726      -392.1358
  23   2.0000     -14.398032      -391.7904
  24   2.0000     -10.368841      -282.1505
  25   2.0000     -10.365726      -282.0657
  26   2.0000     -10.358446      -281.8676
  27   2.0000     -10.358394      -281.8662
  28   2.0000     -10.342895      -281.4445
  29   2.0000     -10.341789      -281.4144
  30   2.0000     -10.339364      -281.3484
  31   2.0000     -10.338873      -281.3350
  32   2.0000     -10.338387      -281.3218
  33   2.0000     -10.338031      -281.3121
  34   2.0000     -10.331381      -281.1312
  35   2.0000     -10.329745      -281.0867
  36   2.0000     -10.325139      -280.9613
  37   2.0000     -10.323871      -280.9268
  38   2.0000     -10.323273      -280.9105
  39   2.0000     -10.321765      -280.8695
  40   2.0000     -10.315900      -280.7099
  41   2.0000     -10.315877      -280.7093
  42   2.0000     -10.314989      -280.6851
  43   2.0000     -10.312532      -280.6183
  44   2.0000     -10.310673      -280.5677
  45   2.0000     -10.307574      -280.4833
  46   2.0000     -10.307322      -280.4765
  47   2.0000     -10.307001      -280.4678
  48   2.0000     -10.306791      -280.4621
  49   2.0000     -10.305236      -280.4197
  50   2.0000     -10.303039      -280.3599
  51   2.0000     -10.301851      -280.3276
  52   2.0000     -10.301124      -280.3078
  53   2.0000     -10.300914      -280.3021
  54   2.0000     -10.300571      -280.2928
  55   2.0000     -10.299968      -280.2764
  56   2.0000     -10.298056      -280.2244
  57   2.0000     -10.297382      -280.2060
  58   2.0000     -10.297061      -280.1973
  59   2.0000     -10.295932      -280.1665
  60   2.0000     -10.294388      -280.1245
  61   2.0000     -10.294370      -280.1241
  62   2.0000     -10.293276      -280.0943
  63   2.0000     -10.292936      -280.0850
  64   2.0000     -10.292413      -280.0708
  65   2.0000     -10.292193      -280.0648
  66   2.0000     -10.288698      -279.9697
  67   2.0000     -10.287437      -279.9354
  68   2.0000     -10.286614      -279.9130
  69   2.0000     -10.286358      -279.9060
  70   2.0000     -10.283411      -279.8258
  71   2.0000     -10.279510      -279.7197
  72   2.0000     -10.277960      -279.6775
  73   2.0000     -10.275387      -279.6075
  74   2.0000     -10.273543      -279.5573
  75   2.0000     -10.264389      -279.3082
  76   2.0000     -10.263593      -279.2866
  77   2.0000     -10.257872      -279.1309
  78   2.0000     -10.256093      -279.0825
  79   2.0000     -10.253688      -279.0170
  80   2.0000      -8.793545      -239.2845
  81   2.0000      -8.792685      -239.2611
  82   2.0000      -8.076705      -219.7783
  83   2.0000      -8.071834      -219.6458
  84   2.0000      -8.071151      -219.6272
  85   2.0000      -8.057757      -219.2627
  86   2.0000      -6.629769      -180.4052
  87   2.0000      -6.628982      -180.3838
  88   2.0000      -6.615296      -180.0114
  89   2.0000      -6.615143      -180.0072
  90   2.0000      -6.614438      -179.9880
  91   2.0000      -6.614209      -179.9818
  92   2.0000      -6.046022      -164.5206
  93   2.0000      -6.041793      -164.4055
  94   2.0000      -6.041531      -164.3984
  95   2.0000      -6.040817      -164.3790
  96   2.0000      -6.038771      -164.3233
  97   2.0000      -6.037271      -164.2825
  98   2.0000      -6.036546      -164.2628
  99   2.0000      -6.033131      -164.1698
 100   2.0000      -6.032441      -164.1511
 101   2.0000      -6.027099      -164.0057
 102   2.0000      -6.022466      -163.8796
 103   2.0000      -6.020177      -163.8173
 104   2.0000      -2.745656       -74.7131
 105   2.0000      -2.744815       -74.6902
 106   2.0000      -2.741587       -74.6024
 107   2.0000      -2.741494       -74.5998
 108   2.0000      -2.740791       -74.5807
 109   2.0000      -2.740643       -74.5767
 110   2.0000      -2.729980       -74.2865
 111   2.0000      -2.729971       -74.2863
 112   2.0000      -2.729065       -74.2616
 113   2.0000      -2.729042       -74.2610
 114   2.0000      -1.320572       -35.9346
 115   2.0000      -1.138599       -30.9829
 116   2.0000      -1.136180       -30.9170
 117   2.0000      -1.129272       -30.7290
 118   2.0000      -1.027198       -27.9515
 119   2.0000      -1.024181       -27.8694
 120   2.0000      -1.019636       -27.7457
 121   2.0000      -1.016540       -27.6615
 122   2.0000      -1.011102       -27.5135
 123   2.0000      -0.999653       -27.2019
 124   2.0000      -0.997853       -27.1530
 125   2.0000      -0.990523       -26.9535
 126   2.0000      -0.989057       -26.9136
 127   2.0000      -0.986764       -26.8512
 128   2.0000      -0.979837       -26.6627
 129   2.0000      -0.970751       -26.4155
 130   2.0000      -0.945379       -25.7251
 131   2.0000      -0.940911       -25.6035
 132   2.0000      -0.929829       -25.3019
 133   2.0000      -0.919770       -25.0282
 134   2.0000      -0.912435       -24.8286
 135   2.0000      -0.909217       -24.7410
 136   2.0000      -0.907928       -24.7060
 137   2.0000      -0.906039       -24.6546
 138   2.0000      -0.899711       -24.4824
 139   2.0000      -0.888704       -24.1829
 140   2.0000      -0.885694       -24.1010
 141   2.0000      -0.884909       -24.0796
 142   2.0000      -0.883117       -24.0308
 143   2.0000      -0.875650       -23.8276
 144   2.0000      -0.865561       -23.5531
 145   2.0000      -0.860483       -23.4149
 146   2.0000      -0.840447       -22.8697
 147   2.0000      -0.832805       -22.6618
 148   2.0000      -0.829682       -22.5768
 149   2.0000      -0.827824       -22.5262
 150   2.0000      -0.815081       -22.1795
 151   2.0000      -0.810123       -22.0446
 152   2.0000      -0.803453       -21.8631
 153   2.0000      -0.786077       -21.3903
 154   2.0000      -0.773959       -21.0605
 155   2.0000      -0.764684       -20.8081
 156   2.0000      -0.762832       -20.7577
 157   2.0000      -0.756960       -20.5979
 158   2.0000      -0.753544       -20.5050
 159   2.0000      -0.740690       -20.1552
 160   2.0000      -0.735442       -20.0124
 161   2.0000      -0.726862       -19.7789
 162   2.0000      -0.713874       -19.4255
 163   2.0000      -0.710919       -19.3451
 164   2.0000      -0.699249       -19.0275
 165   2.0000      -0.693946       -18.8832
 166   2.0000      -0.691517       -18.8171
 167   2.0000      -0.687334       -18.7033
 168   2.0000      -0.685214       -18.6456
 169   2.0000      -0.669074       -18.2064
 170   2.0000      -0.665085       -18.0979
 171   2.0000      -0.661279       -17.9943
 172   2.0000      -0.654108       -17.7992
 173   2.0000      -0.653275       -17.7765
 174   2.0000      -0.644813       -17.5463
 175   2.0000      -0.643567       -17.5123
 176   2.0000      -0.638837       -17.3836
 177   2.0000      -0.628368       -17.0988
 178   2.0000      -0.623834       -16.9754
 179   2.0000      -0.622081       -16.9277
 180   2.0000      -0.620808       -16.8930
 181   2.0000      -0.612813       -16.6755
 182   2.0000      -0.602555       -16.3964
 183   2.0000      -0.600944       -16.3525
 184   2.0000      -0.597367       -16.2552
 185   2.0000      -0.596568       -16.2334
 186   2.0000      -0.589564       -16.0428
 187   2.0000      -0.587848       -15.9962
 188   2.0000      -0.581117       -15.8130
 189   2.0000      -0.579122       -15.7587
 190   2.0000      -0.572330       -15.5739
 191   2.0000      -0.568396       -15.4668
 192   2.0000      -0.561393       -15.2763
 193   2.0000      -0.559176       -15.2160
 194   2.0000      -0.550191       -14.9715
 195   2.0000      -0.547501       -14.8983
 196   2.0000      -0.545225       -14.8363
 197   2.0000      -0.541615       -14.7381
 198   2.0000      -0.540537       -14.7088
 199   2.0000      -0.534797       -14.5526
 200   2.0000      -0.533216       -14.5095
 201   2.0000      -0.530648       -14.4397
 202   2.0000      -0.528044       -14.3688
 203   2.0000      -0.526162       -14.3176
 204   2.0000      -0.520428       -14.1616
 205   2.0000      -0.517854       -14.0915
 206   2.0000      -0.515900       -14.0384
 207   2.0000      -0.515739       -14.0340
 208   2.0000      -0.512112       -13.9353
 209   2.0000      -0.511716       -13.9245
 210   2.0000      -0.508837       -13.8461
 211   2.0000      -0.505670       -13.7600
 212   2.0000      -0.503603       -13.7037
 213   2.0000      -0.502271       -13.6675
 214   2.0000      -0.499611       -13.5951
 215   2.0000      -0.495979       -13.4963
 216   2.0000      -0.495707       -13.4889
 217   2.0000      -0.494638       -13.4598
 218   2.0000      -0.493569       -13.4307
 219   2.0000      -0.491626       -13.3778
 220   2.0000      -0.489510       -13.3202
 221   2.0000      -0.483706       -13.1623
 222   2.0000      -0.481857       -13.1120
 223   2.0000      -0.476214       -12.9584
 224   2.0000      -0.475046       -12.9267
 225   2.0000      -0.472246       -12.8505
 226   2.0000      -0.468412       -12.7461
 227   2.0000      -0.466850       -12.7036
 228   2.0000      -0.463205       -12.6045
 229   2.0000      -0.461644       -12.5620
 230   2.0000      -0.459919       -12.5150
 231   2.0000      -0.459384       -12.5005
 232   2.0000      -0.457984       -12.4624
 233   2.0000      -0.455531       -12.3956
 234   2.0000      -0.453987       -12.3536
 235   2.0000      -0.451553       -12.2874
 236   2.0000      -0.450903       -12.2697
 237   2.0000      -0.449366       -12.2279
 238   2.0000      -0.446004       -12.1364
 239   2.0000      -0.444650       -12.0995
 240   2.0000      -0.442637       -12.0448
 241   2.0000      -0.441961       -12.0264
 242   2.0000      -0.439692       -11.9646
 243   2.0000      -0.438474       -11.9315
 244   2.0000      -0.436514       -11.8782
 245   2.0000      -0.434838       -11.8325
 246   2.0000      -0.433886       -11.8066
 247   2.0000      -0.430730       -11.7208
 248   2.0000      -0.428650       -11.6642
 249   2.0000      -0.427146       -11.6232
 250   2.0000      -0.425277       -11.5724
 251   2.0000      -0.422897       -11.5076
 252   2.0000      -0.421966       -11.4823
 253   2.0000      -0.415288       -11.3006
 254   2.0000      -0.412992       -11.2381
 255   2.0000      -0.412156       -11.2153
 256   2.0000      -0.409429       -11.1411
 257   2.0000      -0.407867       -11.0986
 258   2.0000      -0.406796       -11.0695
 259   2.0000      -0.405460       -11.0331
 260   2.0000      -0.401797       -10.9334
 261   2.0000      -0.399281       -10.8650
 262   2.0000      -0.396385       -10.7862
 263   2.0000      -0.390722       -10.6321
 264   2.0000      -0.383023       -10.4226
 265   2.0000      -0.380664       -10.3584
 266   2.0000      -0.377652       -10.2764
 267   2.0000      -0.374937       -10.2026
 268   2.0000      -0.372466       -10.1353
 269   2.0000      -0.371076       -10.0975
 270   2.0000      -0.367494       -10.0000
 271   2.0000      -0.359479        -9.7819
 272   2.0000      -0.356820        -9.7096
 273   2.0000      -0.348670        -9.4878
 274   2.0000      -0.340325        -9.2607
 275   2.0000      -0.337729        -9.1901
 276   2.0000      -0.332681        -9.0527
 277   2.0000      -0.326752        -8.8914
 278   2.0000      -0.319668        -8.6986
 279   2.0000      -0.318357        -8.6629
 280   2.0000      -0.311333        -8.4718
 281   2.0000      -0.300992        -8.1904
 282   2.0000      -0.295817        -8.0496
 283   2.0000      -0.293000        -7.9729
 284   2.0000      -0.286937        -7.8080
 285   2.0000      -0.284011        -7.7283
 286   2.0000      -0.264189        -7.1890
 287   0.0000      -0.097734        -2.6595
 288   0.0000      -0.086214        -2.3460
 289   0.0000      -0.068086        -1.8527
 290   0.0000      -0.058031        -1.5791
 291   0.0000      -0.055933        -1.5220

MULLIKEN ATOMIC CHARGES
-----------------------
   0 C :    0.357444
   1 C :   -0.393206
   2 C :   -0.206718
   3 N :    0.164786
   4 C :   -0.146569
   5 N :    0.120621
   6 C :   -0.002312
   7 C :    0.004937
   8 C :   -0.096273
   9 C :    0.138683
  10 C :   -0.098370
  11 C :   -0.017437
  12 S :    0.190387
  13 C :   -0.119650
  14 C :    0.030199
  15 Br:    0.023411
  16 C :    0.136791
  17 O :   -0.168486
  18 C :   -0.098214
  19 C :   -0.073807
  20 C :   -0.110160
  21 S :    0.191125
  22 C :   -0.096132
  23 C :   -0.080192
  24 C :    0.119731
  25 C :    0.113154
  26 C :    0.006092
  27 C :   -0.038182
  28 C :   -0.005277
  29 C :    0.061706
  30 C :   -0.129619
  31 S :    0.182022
  32 C :   -0.262920
  33 C :   -0.028998
  34 C :    0.205852
  35 N :    0.263574
  36 O :   -0.217286
  37 O :   -0.246765
  38 C :   -0.220837
  39 N :    0.187692
  40 C :    0.035830
  41 C :   -0.054401
  42 C :    0.118486
  43 C :   -0.085338
  44 C :   -0.040959
  45 C :    0.045538
  46 C :    0.026538
  47 C :   -0.129983
  48 C :    0.125014
  49 C :    0.049637
  50 C :   -0.072677
  51 C :    0.048449
  52 C :    0.019263
  53 C :   -0.075028
  54 C :    0.291096
  55 C :   -0.311503
  56 C :   -0.179559
  57 N :    0.160254
  58 C :   -0.207877
  59 N :    0.174929
  60 C :   -0.015070
  61 C :   -0.011626
  62 C :    0.146297
  63 O :   -0.151300
  64 C :   -0.066887
  65 C :    0.099974
  66 C :   -0.102975
  67 C :   -0.002526
  68 S :    0.190811
  69 C :   -0.144943
  70 C :    0.067458
  71 Br:    0.025981
  72 H :   -0.014471
  73 H :   -0.006992
  74 H :   -0.006234
  75 H :    0.042825
  76 H :    0.021163
  77 H :    0.011148
  78 H :    0.032289
  79 H :    0.033261
  80 H :    0.010166
  81 H :    0.021999
  82 H :    0.029720
  83 H :   -0.010371
  84 H :    0.019311
  85 H :    0.051314
  86 H :    0.008639
  87 H :   -0.040962
  88 H :    0.000490
  89 H :    0.020287
  90 H :    0.007687
  91 H :    0.018474
  92 H :    0.008599
  93 H :    0.004369
  94 H :    0.048181
  95 H :    0.008341
  96 H :    0.015619
  97 H :    0.043773
  98 H :    0.011314
  99 H :   -0.013383
 100 H :    0.007337
 101 H :    0.002404
Sum of atomic charges:   -0.0000000

LOEWDIN ATOMIC CHARGES
----------------------
   0 C :    0.083999
   1 C :   -0.154115
   2 C :   -0.016255
   3 N :   -0.054173
   4 C :   -0.003281
   5 N :   -0.075902
   6 C :   -0.024556
   7 C :   -0.049547
   8 C :    0.016331
   9 C :   -0.034730
  10 C :   -0.150395
  11 C :   -0.010212
  12 S :    0.436306
  13 C :   -0.272146
  14 C :   -0.073520
  15 Br:    0.137677
  16 C :    0.077441
  17 O :   -0.166249
  18 C :   -0.120001
  19 C :    0.059637
  20 C :   -0.182455
  21 S :    0.503767
  22 C :   -0.167886
  23 C :   -0.063984
  24 C :   -0.044325
  25 C :   -0.016186
  26 C :   -0.001408
  27 C :   -0.015270
  28 C :    0.001080
  29 C :   -0.034270
  30 C :   -0.129767
  31 S :    0.493324
  32 C :   -0.122659
  33 C :   -0.097506
  34 C :   -0.049287
  35 N :    0.291799
  36 O :   -0.173814
  37 O :   -0.201775
  38 C :   -0.036904
  39 N :   -0.040611
  40 C :   -0.060236
  41 C :   -0.005244
  42 C :   -0.048176
  43 C :   -0.022202
  44 C :   -0.006225
  45 C :   -0.027284
  46 C :   -0.049069
  47 C :   -0.012745
  48 C :   -0.051923
  49 C :   -0.022164
  50 C :    0.026397
  51 C :   -0.028368
  52 C :    0.073574
  53 C :   -0.082223
  54 C :    0.073986
  55 C :   -0.127688
  56 C :   -0.018202
  57 N :   -0.042094
  58 C :   -0.008486
  59 N :   -0.046058
  60 C :   -0.017944
  61 C :   -0.057714
  62 C :    0.085405
  63 O :   -0.151995
  64 C :    0.020568
  65 C :   -0.039730
  66 C :   -0.145495
  67 C :   -0.002479
  68 S :    0.447790
  69 C :   -0.273811
  70 C :   -0.068436
  71 Br:    0.149459
  72 H :    0.039378
  73 H :    0.039394
  74 H :    0.037354
  75 H :    0.049282
  76 H :    0.024781
  77 H :    0.034138
  78 H :    0.037620
  79 H :    0.037771
  80 H :    0.032117
  81 H :    0.036708
  82 H :    0.031561
  83 H :    0.025476
  84 H :    0.030827
  85 H :    0.045005
  86 H :    0.030864
  87 H :    0.025308
  88 H :    0.027485
  89 H :    0.028896
  90 H :    0.023811
  91 H :    0.025182
  92 H :    0.021959
  93 H :    0.027522
  94 H :    0.040573
  95 H :    0.031183
  96 H :    0.031531
  97 H :    0.041066
  98 H :    0.041088
  99 H :    0.038678
 100 H :    0.044762
 101 H :    0.039320

  Mayer bond orders larger than 0.100000
B(  0-C ,  1-C ) :   1.6036 B(  0-C ,  6-C ) :   0.9973 B(  0-C , 18-C ) :   1.0829
B(  1-C ,  2-C ) :   1.1500 B(  1-C ,  4-C ) :   1.1726 B(  2-C ,  3-N ) :   2.9496
B(  4-C ,  5-N ) :   2.8389 B(  6-C ,  7-C ) :   1.2684 B(  6-C , 11-C ) :   1.4133
B(  7-C ,  8-C ) :   1.4205 B(  7-C , 16-C ) :   0.9485 B(  8-C ,  9-C ) :   1.2248
B(  8-C , 72-H ) :   1.0212 B(  9-C , 10-C ) :   1.3112 B(  9-C , 14-C ) :   1.1615
B( 10-C , 11-C ) :   1.3151 B( 10-C , 12-S ) :   1.0878 B( 11-C , 73-H ) :   0.9809
B( 12-S , 13-C ) :   1.0872 B( 13-C , 14-C ) :   1.6135 B( 13-C , 15-Br) :   1.0186
B( 14-C , 74-H ) :   1.0024 B( 16-C , 17-O ) :   2.1679 B( 16-C , 18-C ) :   0.9677
B( 18-C , 19-C ) :   1.5078 B( 19-C , 20-C ) :   1.2616 B( 19-C , 75-H ) :   0.9315
B( 20-C , 21-S ) :   1.1184 B( 20-C , 25-C ) :   1.3334 B( 21-S , 22-C ) :   1.1683
B( 22-C , 23-C ) :   1.5275 B( 22-C , 76-H ) :   0.9628 B( 23-C , 24-C ) :   1.0943
B( 23-C , 25-C ) :   1.2860 B( 24-C , 77-H ) :   0.9498 B( 24-C , 78-H ) :   0.9461
B( 24-C , 79-H ) :   0.9424 B( 25-C , 26-C ) :   1.1249 B( 26-C , 27-C ) :   1.6858
B( 26-C , 80-H ) :   0.9400 B( 27-C , 28-C ) :   1.1292 B( 27-C , 81-H ) :   0.9802
B( 28-C , 29-C ) :   1.7133 B( 28-C , 82-H ) :   0.9610 B( 29-C , 30-C ) :   1.1357
B( 29-C , 83-H ) :   0.9336 B( 30-C , 31-S ) :   1.1461 B( 30-C , 34-C ) :   1.4578
B( 31-S , 32-C ) :   1.1443 B( 32-C , 33-C ) :   1.5901 B( 32-C , 40-C ) :   0.9587
B( 33-C , 34-C ) :   1.2511 B( 33-C , 38-C ) :   1.1391 B( 34-C , 35-N ) :   0.9229
B( 35-N , 36-O ) :   1.5314 B( 35-N , 37-O ) :   1.4780 B( 36-O , 37-O ) :   0.2610
B( 38-C , 39-N ) :   2.9772 B( 40-C , 41-C ) :   1.4042 B( 40-C , 49-C ) :   1.3889
B( 41-C , 42-C ) :   1.0925 B( 41-C , 43-C ) :   1.3589 B( 42-C , 84-H ) :   0.9382
B( 42-C , 85-H ) :   0.9324 B( 42-C , 86-H ) :   0.9461 B( 43-C , 44-C ) :   1.3581
B( 43-C , 87-H ) :   0.9958 B( 44-C , 45-C ) :   1.0472 B( 44-C , 47-C ) :   1.3852
B( 45-C , 46-C ) :   1.1000 B( 45-C , 88-H ) :   0.9293 B( 45-C , 89-H ) :   0.9283
B( 46-C , 90-H ) :   0.9656 B( 46-C , 91-H ) :   0.9681 B( 46-C , 92-H ) :   0.9715
B( 47-C , 48-C ) :   1.1169 B( 47-C , 49-C ) :   1.3899 B( 48-C , 93-H ) :   0.9365
B( 48-C , 94-H ) :   0.9141 B( 48-C , 95-H ) :   0.9272 B( 49-C , 50-C ) :   1.0035
B( 50-C , 51-C ) :   1.7519 B( 50-C , 96-H ) :   0.9513 B( 51-C , 52-C ) :   1.0988
B( 51-C , 97-H ) :   0.9485 B( 52-C , 53-C ) :   1.6484 B( 52-C , 98-H ) :   0.9517
B( 53-C , 54-C ) :   1.0403 B( 53-C , 62-C ) :   0.9449 B( 54-C , 55-C ) :   1.6494
B( 54-C , 60-C ) :   1.0099 B( 55-C , 56-C ) :   1.1287 B( 55-C , 58-C ) :   1.1621
B( 56-C , 57-N ) :   2.9890 B( 58-C , 59-N ) :   2.9829 B( 60-C , 61-C ) :   1.2651
B( 60-C , 67-C ) :   1.4232 B( 61-C , 62-C ) :   0.9237 B( 61-C , 64-C ) :   1.4294
B( 62-C , 63-O ) :   2.2557 B( 64-C , 65-C ) :   1.2383 B( 64-C , 99-H ) :   1.0071
B( 65-C , 66-C ) :   1.3130 B( 65-C , 70-C ) :   1.1778 B( 66-C , 67-C ) :   1.3069
B( 66-C , 68-S ) :   1.0915 B( 67-C ,100-H ) :   0.9815 B( 68-S , 69-C ) :   1.0868
B( 69-C , 70-C ) :   1.5997 B( 69-C , 71-Br) :   1.0220 B( 70-C ,101-H ) :   0.9970

-----------------------------------------------------------------------------
         ABSORPTION SPECTRUM VIA TRANSITION ELECTRIC DIPOLE MOMENTS
-----------------------------------------------------------------------------
State   Energy  Wavelength   fosc         T2         TX        TY        TZ
        (cm-1)    (nm)                  (au**2)     (au)      (au)      (au)
-----------------------------------------------------------------------------
   0   18580.9    538.2   0.195534048   3.46443  -1.15718  -1.32148   0.61568
   1   22237.7    449.7   0.162979285   2.41278   1.15507   0.81525  -0.64339
   2   23955.7    417.4   0.182829965   2.51254  -0.00168   0.35372   1.54513
   3   24585.6    406.7   0.083948575   1.12411   0.83707   0.51760  -0.39436
   4   25480.2    392.5   0.352547862   4.55502  -1.17431  -1.75275  -0.32231
   5   26082.3    383.4   0.148054156   1.86875   0.16468   0.18822  -1.34395
   6   26254.9    380.9   0.188823028   2.36767  -0.75581   0.21554   1.32286
   7   27157.2    368.2   0.095705904   1.16019  -0.18055  -0.78512   0.71496
   8   27345.2    365.7   0.047461054   0.57139  -0.35050  -0.41884   0.52260
   9   27927.5    358.1   0.278865020   3.28728   0.39187   1.09719   1.38921
  10   28091.4    356.0   0.237636578   2.78494   0.50480   1.38877  -0.77551
  11   28379.7    352.4   0.173325232   2.01062   0.26922   1.16404   0.76365
  12   28720.9    348.2   0.086850230   0.99552  -0.62833  -0.65095  -0.42069
  13   29159.0    342.9   0.040847193   0.46117   0.42886   0.39993   0.34251
  14   29552.5    338.4   0.014389828   0.16030  -0.18554   0.07406  -0.34698
  15   29916.8    334.3   0.029229572   0.32165  -0.40442  -0.30495   0.25515
  16   30145.3    331.7   0.087762222   0.95844   0.35680   0.74546  -0.52481
  17   30349.6    329.5   0.027175747   0.29478  -0.06296   0.06677   0.53513
  18   30714.5    325.6   0.062756136   0.67265  -0.42121  -0.49873   0.49649
  19   31002.0    322.6   0.039047318   0.41465   0.04849   0.63887  -0.06438
  20   31474.3    317.7   0.013949509   0.14591   0.11511  -0.29845   0.20877
  21   31623.0    316.2   0.014185841   0.14768  -0.13471   0.34411  -0.10549
  22   32009.8    312.4   0.031806594   0.32712   0.04337  -0.56860  -0.04396
  23   32106.6    311.5   0.173880558   1.78292  -0.44811  -0.04105   1.25715
  24   32235.8    310.2   0.175129016   1.78853   0.83544   0.63986  -0.82531
  25   32406.2    308.6   0.056362013   0.57258  -0.04846   0.50592  -0.56060
  26   32500.3    307.7   0.207084770   2.09767   0.45262   0.74644  -1.15570
  27   32727.8    305.6   0.017176836   0.17278  -0.08814  -0.17027   0.36881
  28   32925.1    303.7   0.123698067   1.23683   0.45051   0.84727  -0.56214
  29   33183.4    301.4   0.023923328   0.23734   0.42538  -0.09104  -0.21933
  30   33422.9    299.2   0.111996335   1.10315   0.08948   0.27177  -1.01059
  31   33902.5    295.0   0.611754673   5.94048  -0.96849  -1.81874   1.30181
  32   33924.4    294.8   0.082251696   0.79819   0.00138  -0.29453   0.84347
  33   34079.9    293.4   0.426936819   4.12421  -0.62358  -1.24740   1.47627
  34   34584.4    289.1   0.125937255   1.19881   0.80653   0.72957  -0.12663
  35   34946.7    286.2   0.035492808   0.33436   0.04271   0.05257  -0.57425
  36   35435.3    282.2   0.018901510   0.17560   0.14263   0.05318  -0.39043
  37   35687.3    280.2   0.082875999   0.76452  -0.16205  -0.84064   0.17775
  38   35959.5    278.1   0.009420262   0.08624  -0.10097  -0.15096   0.23078
  39   36408.7    274.7   0.026801611   0.24234  -0.44898  -0.19020  -0.06773
  40   36566.8    273.5   0.005598888   0.05041  -0.13528  -0.04827  -0.17256
  41   36704.0    272.4   0.040352823   0.36194   0.26580   0.30340  -0.44636
  42   36846.7    271.4   0.015370620   0.13733   0.21403   0.26945  -0.13753
  43   37064.3    269.8   0.002494197   0.02215  -0.04739   0.09798  -0.10153
  44   37247.0    268.5   0.043806674   0.38719  -0.35035   0.07561   0.50865
  45   37528.4    266.5   0.032505280   0.28515   0.51278  -0.13559   0.06178
  46   37871.3    264.1   0.041653733   0.36209   0.06271   0.46738  -0.37379
  47   38028.6    263.0   0.057575968   0.49843  -0.13101   0.47407  -0.50648
  48   38166.0    262.0   0.051887112   0.44757   0.26086  -0.07382   0.61161
  49   38410.4    260.3   0.108870103   0.93312   0.15757  -0.45296  -0.83852
  50   38548.7    259.4   0.110354682   0.94245   0.39848   0.87752   0.11674
  51   38879.2    257.2   0.271976707   2.30298  -0.45180  -1.35395  -0.51545
  52   39178.6    255.2   0.062486657   0.52507  -0.37191  -0.05645  -0.61932
  53   39579.1    252.7   0.037290671   0.31018   0.04539  -0.50983  -0.21952
  54   39765.8    251.5   0.025078996   0.20762   0.25110  -0.33540  -0.17911
  55   40009.1    249.9   0.009031394   0.07431   0.07607   0.02060  -0.26097
  56   40314.9    248.0   0.013002942   0.10618  -0.31693   0.02058   0.07289

FINAL SINGLE POINT ENERGY     -9517.868737404000

DIPOLE MOMENT
-------------
                                X             Y             Z
Electronic contribution:    126.99744     217.61762     -71.42145
Nuclear contribution   :   -127.14472    -219.45244      67.55415
                        -----------------------------------------
Total Dipole Moment    :     -0.14728      -1.83482      -3.86730
                        -----------------------------------------
Magnitude (a.u.)       :      4.28302
Magnitude (Debye)      :     10.88657

Rotational constants in cm-1:     0.001503     0.000471     0.000429
Rotational constants in MHz :    45.068581    14.125825    12.867289

                             ****ORCA TERMINATED NORMALLY****
TOTAL RUN TIME: 0 days 0 hours 12 minutes 30 seconds 620 msec
