                         Program Version 4.2.0 -  RELEASE  -
|  1> # ORCA input file
|  2> # SCF done       -188.313316039269          0.000642651129
|  3> ! CAM-B3LYP def2-SVP def2/J RIJCOSX Grid4 TightSCF
|  4> %maxcore 5000
|  5> %tddft
|  6>     Mode sTDDFT
|  7>     Ethresh 5.0
|  8>     maxcore 5000
|  9> end
| 10>
| 11> %pal
| 12>   nprocs 6
| 13>   end
| 14> * xyz 0 1
| 15>    C       -5.22934         4.79902        -6.74503
| 16>    C       -4.44965         5.86627        -7.10917
| 17>    C       -3.93402         6.06050        -8.40605
| 18>    N       -3.50247         6.25559        -9.45173
| 19>    C       -3.99623         6.83568        -6.19384
| 20>    N       -3.53710         7.60851        -5.47906
| 21>    C       -5.54012         3.63500        -7.56176
| 22>    C       -6.14938         2.65993        -6.73421
| 23>    C       -6.54829         1.43543        -7.21010
| 24>    C       -6.33585         1.16105        -8.56588
| 25>    C       -5.73108         2.14417        -9.38420
| 26>    C       -5.32575         3.38325        -8.90325
| 27>    S       -5.57344         1.59970       -11.02706
| 28>    C       -6.31054         0.07952       -10.59730
| 29>    C       -6.65734        -0.01831        -9.29209
| 30>   Br       -6.55325        -1.23614       -11.91180
| 31>    C       -6.28831         3.19198        -5.36103
| 32>    O       -6.81956         2.62917        -4.42442
| 33>    C       -5.76151         4.56887        -5.41875
| 34>    C       -6.01010         5.54512        -4.49111
| 35>    C       -6.37568         5.36666        -3.14168
| 36>    S       -7.43188         6.55590        -2.43419
| 37>    C       -7.36480         5.77418        -0.88713
| 38>    C       -6.52001         4.67224        -0.92423
| 39>    C       -5.96388         4.43796        -2.18976
| 40>    C       -4.93972         3.37970        -2.40684
| 41>    C       -4.28792         3.00026        -1.08334
| 42>    C       -5.37042         2.59699        -0.08409
| 43>    O       -4.72544         2.05387         1.05140
| 44>    C       -5.57297         1.38188         1.94663
| 45>    C       -6.22804         3.82061         0.27221
| 46>    C       -7.98116         6.31396         0.28833
| 47>    C       -8.94231         7.25123         0.35869
| 48>    C       -9.64166         7.83711        -0.82389
| 49>    C       -9.25718         7.89936         1.68516
| 50>    N       -8.62711         9.20961         1.67919
| 51>    C       -9.22214        10.28324         1.11473
| 52>    C       -8.55050        11.24773         0.42883
| 53>    C       -9.14246        12.38657        -0.14339
| 54>    C       -8.50878        13.16267        -1.08127
| 55>    C       -8.98881        14.30843        -1.75703
| 56>    C       -8.14990        14.78697        -2.72109
| 57>    C       -6.96589        14.03369        -2.87099
| 58>    S       -6.91741        12.73593        -1.70856
| 59>    C       -5.95535        14.14757        -3.81129
| 60>    C       -5.77884        15.05245        -4.87362
| 61>    C       -4.70047        14.76236        -5.66231
| 62>    C       -3.98273        13.60566        -5.27916
| 63>    S       -4.69970        12.92897        -3.84590
| 64>    C       -2.82496        13.12699        -5.87821
| 65>    C       -2.07786        12.00421        -5.54126
| 66>    C       -2.40743        10.91121        -4.75312
| 67>    C       -1.34043        10.15873        -4.05167
| 68>    O       -0.14382        10.25614        -4.21858
| 69>    C       -2.04634         9.32237        -3.04888
| 70>    C       -1.54826         8.57682        -2.02243
| 71>    C       -2.44764         8.00160        -1.09052
| 72>    C       -3.84571         8.22700        -1.24030
| 73>    C       -4.72340         7.75640        -0.24635
| 74>    C       -4.22217         7.06899         0.82181
| 75>    C       -2.86036         6.78634         0.96269
| 76>    C       -1.99154         7.25472         0.01349
| 77>    F       -5.07201         6.65148         1.79367
| 78>    C       -4.33656         8.94325        -2.35676
| 79>    C       -3.44631         9.46820        -3.24761
| 80>    C       -3.65529        10.30302        -4.42613
| 81>    C       -4.82029        10.31675        -5.16550
| 82>    C       -4.98251        11.03721        -6.36010
| 83>    N       -5.16454        11.62104        -7.33295
| 84>    C       -5.91098         9.48654        -4.86818
| 85>    N       -6.81478         8.79929        -4.68006
| 86>    H       -7.01039         0.71003        -6.55895
| 87>    H       -4.87490         4.10567        -9.56340
| 88>    H       -7.12192        -0.88470        -8.85786
| 89>    H       -6.00663         6.57819        -4.82654
| 90>    H       -4.19522         3.72256        -3.12967
| 91>    H       -5.43125         2.50066        -2.83726
| 92>    H       -3.72393         3.84208        -0.67727
| 93>    H       -3.60080         2.16571        -1.22024
| 94>    H       -6.01122         1.82474        -0.54328
| 95>    H       -4.92487         0.88858         2.66852
| 96>    H       -6.17960         0.62828         1.42925
| 97>    H       -6.24101         2.06950         2.47765
| 98>    H       -5.67867         4.40649         1.01502
| 99>    H       -7.16835         3.50288         0.73028
|100>    H       -7.57366         5.92987         1.21480
|101>    H       -9.86936         7.06671        -1.55725
|102>    H       -9.01988         8.58328        -1.32212
|103>    H      -10.56944         8.31827        -0.52287
|104>    H       -8.84876         7.32152         2.51717
|105>    H      -10.33166         8.03059         1.82942
|106>    H       -7.62206         9.16455         1.55532
|107>    H      -10.29485        10.34162         1.24498
|108>    H       -7.49112        11.10811         0.25073
|109>    H      -10.15948        12.63967         0.12415
|110>    H       -9.94501        14.73976        -1.51710
|111>    H       -8.35819        15.64137        -3.33975
|112>    H       -6.44412        15.88146        -5.03675
|113>    H       -4.41349        15.33270        -6.52761
|114>    H       -2.41492        13.76810        -6.64830
|115>    H       -1.04315        12.00846        -5.87069
|116>    H       -0.48367         8.44810        -1.89580
|117>    H       -5.78165         7.94877        -0.32979
|118>    H       -2.52221         6.22162         1.81700
|119>    H       -0.93289         7.06621         0.11086
|120>    H       -5.40093         9.08777        -2.45951
|121> *
|122>
|123>                          ****END OF INPUT****

CARTESIAN COORDINATES (ANGSTROEM)
---------------------------------
  C     -5.229340    4.799020   -6.745030
  C     -4.449650    5.866270   -7.109170
  C     -3.934020    6.060500   -8.406050
  N     -3.502470    6.255590   -9.451730
  C     -3.996230    6.835680   -6.193840
  N     -3.537100    7.608510   -5.479060
  C     -5.540120    3.635000   -7.561760
  C     -6.149380    2.659930   -6.734210
  C     -6.548290    1.435430   -7.210100
  C     -6.335850    1.161050   -8.565880
  C     -5.731080    2.144170   -9.384200
  C     -5.325750    3.383250   -8.903250
  S     -5.573440    1.599700  -11.027060
  C     -6.310540    0.079520  -10.597300
  C     -6.657340   -0.018310   -9.292090
  Br    -6.553250   -1.236140  -11.911800
  C     -6.288310    3.191980   -5.361030
  O     -6.819560    2.629170   -4.424420
  C     -5.761510    4.568870   -5.418750
  C     -6.010100    5.545120   -4.491110
  C     -6.375680    5.366660   -3.141680
  S     -7.431880    6.555900   -2.434190
  C     -7.364800    5.774180   -0.887130
  C     -6.520010    4.672240   -0.924230
  C     -5.963880    4.437960   -2.189760
  C     -4.939720    3.379700   -2.406840
  C     -4.287920    3.000260   -1.083340
  C     -5.370420    2.596990   -0.084090
  O     -4.725440    2.053870    1.051400
  C     -5.572970    1.381880    1.946630
  C     -6.228040    3.820610    0.272210
  C     -7.981160    6.313960    0.288330
  C     -8.942310    7.251230    0.358690
  C     -9.641660    7.837110   -0.823890
  C     -9.257180    7.899360    1.685160
  N     -8.627110    9.209610    1.679190
  C     -9.222140   10.283240    1.114730
  C     -8.550500   11.247730    0.428830
  C     -9.142460   12.386570   -0.143390
  C     -8.508780   13.162670   -1.081270
  C     -8.988810   14.308430   -1.757030
  C     -8.149900   14.786970   -2.721090
  C     -6.965890   14.033690   -2.870990
  S     -6.917410   12.735930   -1.708560
  C     -5.955350   14.147570   -3.811290
  C     -5.778840   15.052450   -4.873620
  C     -4.700470   14.762360   -5.662310
  C     -3.982730   13.605660   -5.279160
  S     -4.699700   12.928970   -3.845900
  C     -2.824960   13.126990   -5.878210
  C     -2.077860   12.004210   -5.541260
  C     -2.407430   10.911210   -4.753120
  C     -1.340430   10.158730   -4.051670
  O     -0.143820   10.256140   -4.218580
  C     -2.046340    9.322370   -3.048880
  C     -1.548260    8.576820   -2.022430
  C     -2.447640    8.001600   -1.090520
  C     -3.845710    8.227000   -1.240300
  C     -4.723400    7.756400   -0.246350
  C     -4.222170    7.068990    0.821810
  C     -2.860360    6.786340    0.962690
  C     -1.991540    7.254720    0.013490
  F     -5.072010    6.651480    1.793670
  C     -4.336560    8.943250   -2.356760
  C     -3.446310    9.468200   -3.247610
  C     -3.655290   10.303020   -4.426130
  C     -4.820290   10.316750   -5.165500
  C     -4.982510   11.037210   -6.360100
  N     -5.164540   11.621040   -7.332950
  C     -5.910980    9.486540   -4.868180
  N     -6.814780    8.799290   -4.680060
  H     -7.010390    0.710030   -6.558950
  H     -4.874900    4.105670   -9.563400
  H     -7.121920   -0.884700   -8.857860
  H     -6.006630    6.578190   -4.826540
  H     -4.195220    3.722560   -3.129670
  H     -5.431250    2.500660   -2.837260
  H     -3.723930    3.842080   -0.677270
  H     -3.600800    2.165710   -1.220240
  H     -6.011220    1.824740   -0.543280
  H     -4.924870    0.888580    2.668520
  H     -6.179600    0.628280    1.429250
  H     -6.241010    2.069500    2.477650
  H     -5.678670    4.406490    1.015020
  H     -7.168350    3.502880    0.730280
  H     -7.573660    5.929870    1.214800
  H     -9.869360    7.066710   -1.557250
  H     -9.019880    8.583280   -1.322120
  H    -10.569440    8.318270   -0.522870
  H     -8.848760    7.321520    2.517170
  H    -10.331660    8.030590    1.829420
  H     -7.622060    9.164550    1.555320
  H    -10.294850   10.341620    1.244980
  H     -7.491120   11.108110    0.250730
  H    -10.159480   12.639670    0.124150
  H     -9.945010   14.739760   -1.517100
  H     -8.358190   15.641370   -3.339750
  H     -6.444120   15.881460   -5.036750
  H     -4.413490   15.332700   -6.527610
  H     -2.414920   13.768100   -6.648300
  H     -1.043150   12.008460   -5.870690
  H     -0.483670    8.448100   -1.895800
  H     -5.781650    7.948770   -0.329790
  H     -2.522210    6.221620    1.817000
  H     -0.932890    7.066210    0.110860
  H     -5.400930    9.087770   -2.459510

 Total Charge           Charge          ....    0
 Multiplicity           Mult            ....    1
 Number of Electrons    NEL             ....  544
 Basis Dimension        Dim             .... 1203

ORBITAL ENERGIES
----------------

  NO   OCC          E(Eh)            E(eV)
   0   2.0000    -482.880316    -13139.8414
   1   2.0000     -88.968708     -2420.9616
   2   2.0000     -88.954914     -2420.5863
   3   2.0000     -88.954522     -2420.5756
   4   2.0000     -88.949392     -2420.4360
   5   2.0000     -62.558018     -1702.2902
   6   2.0000     -56.391959     -1534.5032
   7   2.0000     -56.389260     -1534.4298
   8   2.0000     -56.389225     -1534.4288
   9   2.0000     -24.786559      -674.4766
  10   2.0000     -19.206537      -522.6365
  11   2.0000     -19.205772      -522.6156
  12   2.0000     -19.181532      -521.9560
  13   2.0000     -14.459062      -393.4511
  14   2.0000     -14.404744      -391.9730
  15   2.0000     -14.404078      -391.9549
  16   2.0000     -14.392719      -391.6458
  17   2.0000     -14.382415      -391.3654
  18   2.0000     -10.357377      -281.8385
  19   2.0000     -10.356687      -281.8198
  20   2.0000     -10.352472      -281.7051
  21   2.0000     -10.343073      -281.4493
  22   2.0000     -10.333749      -281.1956
  23   2.0000     -10.331076      -281.1229
  24   2.0000     -10.329315      -281.0750
  25   2.0000     -10.329046      -281.0676
  26   2.0000     -10.328507      -281.0530
  27   2.0000     -10.317980      -280.7665
  28   2.0000     -10.310953      -280.5753
  29   2.0000     -10.310315      -280.5579
  30   2.0000     -10.309070      -280.5241
  31   2.0000     -10.308696      -280.5139
  32   2.0000     -10.308112      -280.4980
  33   2.0000     -10.307431      -280.4795
  34   2.0000     -10.307350      -280.4773
  35   2.0000     -10.305476      -280.4263
  36   2.0000     -10.304941      -280.4117
  37   2.0000     -10.303592      -280.3750
  38   2.0000     -10.302052      -280.3331
  39   2.0000     -10.301681      -280.3230
  40   2.0000     -10.301087      -280.3068
  41   2.0000     -10.300321      -280.2860
  42   2.0000     -10.300220      -280.2832
  43   2.0000     -10.298988      -280.2497
  44   2.0000     -10.297619      -280.2124
  45   2.0000     -10.297343      -280.2049
  46   2.0000     -10.296478      -280.1814
  47   2.0000     -10.293245      -280.0934
  48   2.0000     -10.290942      -280.0308
  49   2.0000     -10.290536      -280.0197
  50   2.0000     -10.285890      -279.8933
  51   2.0000     -10.285677      -279.8875
  52   2.0000     -10.285552      -279.8841
  53   2.0000     -10.285343      -279.8784
  54   2.0000     -10.285041      -279.8702
  55   2.0000     -10.284555      -279.8570
  56   2.0000     -10.284201      -279.8473
  57   2.0000     -10.282219      -279.7934
  58   2.0000     -10.280722      -279.7527
  59   2.0000     -10.280276      -279.7405
  60   2.0000     -10.279959      -279.7319
  61   2.0000     -10.277916      -279.6763
  62   2.0000     -10.277594      -279.6675
  63   2.0000     -10.276934      -279.6496
  64   2.0000     -10.276160      -279.6285
  65   2.0000     -10.275574      -279.6126
  66   2.0000     -10.274373      -279.5799
  67   2.0000     -10.273544      -279.5573
  68   2.0000     -10.270417      -279.4723
  69   2.0000     -10.266961      -279.3782
  70   2.0000     -10.265632      -279.3420
  71   2.0000     -10.262492      -279.2566
  72   2.0000     -10.259620      -279.1785
  73   2.0000     -10.259261      -279.1687
  74   2.0000     -10.253408      -279.0094
  75   2.0000      -8.787433      -239.1182
  76   2.0000      -8.064749      -219.4530
  77   2.0000      -8.051026      -219.0796
  78   2.0000      -8.049157      -219.0287
  79   2.0000      -8.044240      -218.8949
  80   2.0000      -6.623687      -180.2397
  81   2.0000      -6.609183      -179.8450
  82   2.0000      -6.609006      -179.8402
  83   2.0000      -6.034435      -164.2053
  84   2.0000      -6.030174      -164.0894
  85   2.0000      -6.025953      -163.9745
  86   2.0000      -6.020656      -163.8304
  87   2.0000      -6.018435      -163.7699
  88   2.0000      -6.016617      -163.7205
  89   2.0000      -6.014160      -163.6536
  90   2.0000      -6.013703      -163.6412
  91   2.0000      -6.012185      -163.5999
  92   2.0000      -6.011412      -163.5788
  93   2.0000      -6.009428      -163.5248
  94   2.0000      -6.006084      -163.4338
  95   2.0000      -2.739612       -74.5486
  96   2.0000      -2.735471       -74.4359
  97   2.0000      -2.735338       -74.4323
  98   2.0000      -2.723820       -74.1189
  99   2.0000      -2.723816       -74.1188
 100   2.0000      -1.296267       -35.2732
 101   2.0000      -1.120705       -30.4959
 102   2.0000      -1.108418       -30.1616
 103   2.0000      -1.095697       -29.8154
 104   2.0000      -1.061528       -28.8856
 105   2.0000      -1.014685       -27.6110
 106   2.0000      -1.004232       -27.3265
 107   2.0000      -1.001697       -27.2576
 108   2.0000      -0.992333       -27.0028
 109   2.0000      -0.991386       -26.9770
 110   2.0000      -0.983303       -26.7570
 111   2.0000      -0.979968       -26.6663
 112   2.0000      -0.977077       -26.5876
 113   2.0000      -0.976016       -26.5587
 114   2.0000      -0.965048       -26.2603
 115   2.0000      -0.951858       -25.9014
 116   2.0000      -0.935795       -25.4643
 117   2.0000      -0.928957       -25.2782
 118   2.0000      -0.912830       -24.8394
 119   2.0000      -0.908044       -24.7091
 120   2.0000      -0.903909       -24.5966
 121   2.0000      -0.900529       -24.5047
 122   2.0000      -0.890102       -24.2209
 123   2.0000      -0.883904       -24.0523
 124   2.0000      -0.878267       -23.8988
 125   2.0000      -0.870952       -23.6998
 126   2.0000      -0.867183       -23.5973
 127   2.0000      -0.862309       -23.4646
 128   2.0000      -0.855719       -23.2853
 129   2.0000      -0.846263       -23.0280
 130   2.0000      -0.835798       -22.7432
 131   2.0000      -0.827231       -22.5101
 132   2.0000      -0.824439       -22.4341
 133   2.0000      -0.821639       -22.3579
 134   2.0000      -0.820097       -22.3160
 135   2.0000      -0.814122       -22.1534
 136   2.0000      -0.810077       -22.0433
 137   2.0000      -0.800922       -21.7942
 138   2.0000      -0.784834       -21.3564
 139   2.0000      -0.777377       -21.1535
 140   2.0000      -0.761243       -20.7145
 141   2.0000      -0.754424       -20.5289
 142   2.0000      -0.749699       -20.4003
 143   2.0000      -0.738156       -20.0862
 144   2.0000      -0.734922       -19.9983
 145   2.0000      -0.728179       -19.8148
 146   2.0000      -0.711338       -19.3565
 147   2.0000      -0.703487       -19.1429
 148   2.0000      -0.702723       -19.1221
 149   2.0000      -0.695610       -18.9285
 150   2.0000      -0.687836       -18.7170
 151   2.0000      -0.683660       -18.6033
 152   2.0000      -0.682066       -18.5600
 153   2.0000      -0.674921       -18.3655
 154   2.0000      -0.666623       -18.1397
 155   2.0000      -0.664083       -18.0706
 156   2.0000      -0.652947       -17.7676
 157   2.0000      -0.652002       -17.7419
 158   2.0000      -0.644784       -17.5455
 159   2.0000      -0.643493       -17.5103
 160   2.0000      -0.633488       -17.2381
 161   2.0000      -0.626999       -17.0615
 162   2.0000      -0.618829       -16.8392
 163   2.0000      -0.616900       -16.7867
 164   2.0000      -0.614683       -16.7264
 165   2.0000      -0.612120       -16.6566
 166   2.0000      -0.610533       -16.6134
 167   2.0000      -0.607458       -16.5298
 168   2.0000      -0.598119       -16.2757
 169   2.0000      -0.589672       -16.0458
 170   2.0000      -0.588948       -16.0261
 171   2.0000      -0.585146       -15.9226
 172   2.0000      -0.582224       -15.8431
 173   2.0000      -0.577587       -15.7170
 174   2.0000      -0.570526       -15.5248
 175   2.0000      -0.567986       -15.4557
 176   2.0000      -0.563519       -15.3341
 177   2.0000      -0.558226       -15.1901
 178   2.0000      -0.555603       -15.1187
 179   2.0000      -0.548445       -14.9239
 180   2.0000      -0.545863       -14.8537
 181   2.0000      -0.542038       -14.7496
 182   2.0000      -0.539192       -14.6722
 183   2.0000      -0.536546       -14.6002
 184   2.0000      -0.536070       -14.5872
 185   2.0000      -0.532199       -14.4819
 186   2.0000      -0.530742       -14.4422
 187   2.0000      -0.529004       -14.3949
 188   2.0000      -0.525477       -14.2990
 189   2.0000      -0.524944       -14.2845
 190   2.0000      -0.520449       -14.1621
 191   2.0000      -0.518542       -14.1102
 192   2.0000      -0.514309       -13.9951
 193   2.0000      -0.509993       -13.8776
 194   2.0000      -0.506910       -13.7937
 195   2.0000      -0.505733       -13.7617
 196   2.0000      -0.503402       -13.6983
 197   2.0000      -0.502383       -13.6705
 198   2.0000      -0.501449       -13.6451
 199   2.0000      -0.500605       -13.6222
 200   2.0000      -0.498521       -13.5654
 201   2.0000      -0.495995       -13.4967
 202   2.0000      -0.491414       -13.3720
 203   2.0000      -0.489746       -13.3267
 204   2.0000      -0.487499       -13.2655
 205   2.0000      -0.487051       -13.2533
 206   2.0000      -0.484831       -13.1929
 207   2.0000      -0.483015       -13.1435
 208   2.0000      -0.481240       -13.0952
 209   2.0000      -0.480538       -13.0761
 210   2.0000      -0.478732       -13.0270
 211   2.0000      -0.475369       -12.9355
 212   2.0000      -0.474968       -12.9245
 213   2.0000      -0.468888       -12.7591
 214   2.0000      -0.468789       -12.7564
 215   2.0000      -0.467298       -12.7158
 216   2.0000      -0.462185       -12.5767
 217   2.0000      -0.459838       -12.5128
 218   2.0000      -0.457959       -12.4617
 219   2.0000      -0.454599       -12.3703
 220   2.0000      -0.452396       -12.3103
 221   2.0000      -0.449595       -12.2341
 222   2.0000      -0.443091       -12.0571
 223   2.0000      -0.441536       -12.0148
 224   2.0000      -0.440547       -11.9879
 225   2.0000      -0.439032       -11.9467
 226   2.0000      -0.436197       -11.8695
 227   2.0000      -0.435653       -11.8547
 228   2.0000      -0.434548       -11.8247
 229   2.0000      -0.431994       -11.7551
 230   2.0000      -0.430417       -11.7122
 231   2.0000      -0.429976       -11.7003
 232   2.0000      -0.426964       -11.6183
 233   2.0000      -0.425214       -11.5707
 234   2.0000      -0.419734       -11.4215
 235   2.0000      -0.416711       -11.3393
 236   2.0000      -0.416170       -11.3246
 237   2.0000      -0.414794       -11.2871
 238   2.0000      -0.409482       -11.1426
 239   2.0000      -0.408689       -11.1210
 240   2.0000      -0.405939       -11.0462
 241   2.0000      -0.403685       -10.9848
 242   2.0000      -0.402033       -10.9399
 243   2.0000      -0.398597       -10.8464
 244   2.0000      -0.397951       -10.8288
 245   2.0000      -0.395980       -10.7752
 246   2.0000      -0.393438       -10.7060
 247   2.0000      -0.391769       -10.6606
 248   2.0000      -0.382979       -10.4214
 249   2.0000      -0.382165       -10.3992
 250   2.0000      -0.376148       -10.2355
 251   2.0000      -0.372275       -10.1301
 252   2.0000      -0.369765       -10.0618
 253   2.0000      -0.369317       -10.0496
 254   2.0000      -0.361424        -9.8348
 255   2.0000      -0.356765        -9.7081
 256   2.0000      -0.346004        -9.4152
 257   2.0000      -0.342570        -9.3218
 258   2.0000      -0.331266        -9.0142
 259   2.0000      -0.324911        -8.8413
 260   2.0000      -0.322744        -8.7823
 261   2.0000      -0.320041        -8.7088
 262   2.0000      -0.313508        -8.5310
 263   2.0000      -0.309395        -8.4191
 264   2.0000      -0.305813        -8.3216
 265   2.0000      -0.303836        -8.2678
 266   2.0000      -0.288377        -7.8471
 267   2.0000      -0.286500        -7.7961
 268   2.0000      -0.277216        -7.5434
 269   2.0000      -0.268239        -7.2991
 270   2.0000      -0.260608        -7.0915
 271   2.0000      -0.216076        -5.8797
 272   0.0000      -0.091406        -2.4873
 273   0.0000      -0.079790        -2.1712
 274   0.0000      -0.052066        -1.4168
 275   0.0000      -0.040210        -1.0942
 276   0.0000      -0.025996        -0.7074

MULLIKEN ATOMIC CHARGES
-----------------------
   0 C :    0.276147
   1 C :   -0.325154
   2 C :   -0.181382
   3 N :    0.150260
   4 C :   -0.181423
   5 N :    0.145752
   6 C :    0.016850
   7 C :   -0.010857
   8 C :   -0.077447
   9 C :    0.117656
  10 C :   -0.088921
  11 C :   -0.022012
  12 S :    0.184252
  13 C :   -0.123736
  14 C :    0.038077
  15 Br:    0.018773
  16 C :    0.144229
  17 O :   -0.162878
  18 C :   -0.104367
  19 C :    0.018905
  20 C :   -0.136365
  21 S :    0.134303
  22 C :   -0.137630
  23 C :   -0.065256
  24 C :   -0.025648
  25 C :    0.109682
  26 C :    0.066327
  27 C :    0.079284
  28 O :   -0.371500
  29 C :    0.194118
  30 C :    0.150532
  31 C :    0.014027
  32 C :   -0.270117
  33 C :    0.123725
  34 C :    0.198066
  35 N :   -0.130838
  36 C :    0.048652
  37 C :   -0.031090
  38 C :    0.027673
  39 C :   -0.054409
  40 C :    0.060616
  41 C :    0.013014
  42 C :   -0.013162
  43 S :    0.082391
  44 C :   -0.063170
  45 C :    0.042311
  46 C :    0.043997
  47 C :   -0.032340
  48 S :    0.099825
  49 C :    0.006315
  50 C :    0.032679
  51 C :   -0.162294
  52 C :    0.146725
  53 O :   -0.156444
  54 C :    0.039954
  55 C :   -0.101974
  56 C :    0.099605
  57 C :    0.115261
  58 C :   -0.083928
  59 C :    0.283225
  60 C :   -0.025321
  61 C :   -0.017912
  62 F :   -0.209728
  63 C :   -0.115263
  64 C :    0.068821
  65 C :    0.274964
  66 C :   -0.336387
  67 C :   -0.207881
  68 N :    0.156416
  69 C :   -0.135892
  70 N :    0.080010
  71 H :   -0.014409
  72 H :   -0.005489
  73 H :   -0.005639
  74 H :    0.034198
  75 H :    0.013759
  76 H :    0.045434
  77 H :    0.004679
  78 H :    0.004951
  79 H :   -0.012009
  80 H :    0.026114
  81 H :   -0.002421
  82 H :    0.000446
  83 H :    0.019095
  84 H :    0.009584
  85 H :   -0.009184
  86 H :    0.047619
  87 H :    0.053213
  88 H :   -0.000249
  89 H :    0.021015
  90 H :    0.023165
  91 H :    0.128175
  92 H :    0.011650
  93 H :    0.002883
  94 H :   -0.006758
  95 H :   -0.007528
  96 H :   -0.009235
  97 H :   -0.014628
  98 H :   -0.011079
  99 H :   -0.008270
 100 H :    0.018207
 101 H :   -0.020058
 102 H :   -0.039248
 103 H :   -0.004722
 104 H :   -0.012863
 105 H :   -0.021091
Sum of atomic charges:   -0.0000000

LOEWDIN ATOMIC CHARGES
----------------------
   0 C :    0.076939
   1 C :   -0.139355
   2 C :   -0.018146
   3 N :   -0.052925
   4 C :   -0.009171
   5 N :   -0.049522
   6 C :   -0.020299
   7 C :   -0.047913
   8 C :    0.018237
   9 C :   -0.034093
  10 C :   -0.145046
  11 C :   -0.009612
  12 S :    0.430878
  13 C :   -0.273240
  14 C :   -0.071183
  15 Br:    0.133129
  16 C :    0.083317
  17 O :   -0.147454
  18 C :   -0.104907
  19 C :    0.061447
  20 C :   -0.184490
  21 S :    0.492786
  22 C :   -0.161665
  23 C :   -0.054445
  24 C :   -0.003285
  25 C :   -0.030387
  26 C :   -0.027735
  27 C :    0.069022
  28 O :   -0.170219
  29 C :    0.066630
  30 C :   -0.042049
  31 C :   -0.062574
  32 C :   -0.040345
  33 C :   -0.065100
  34 C :    0.050915
  35 N :    0.013501
  36 C :    0.066157
  37 C :   -0.124210
  38 C :    0.001907
  39 C :   -0.181086
  40 C :   -0.003347
  41 C :   -0.053826
  42 C :   -0.132747
  43 S :    0.388824
  44 C :   -0.211793
  45 C :   -0.020035
  46 C :   -0.041730
  47 C :   -0.113363
  48 S :    0.462579
  49 C :   -0.075050
  50 C :    0.036952
  51 C :   -0.117469
  52 C :    0.085691
  53 O :   -0.158427
  54 C :   -0.041904
  55 C :    0.022577
  56 C :   -0.021729
  57 C :    0.002632
  58 C :   -0.052188
  59 C :    0.080151
  60 C :   -0.051138
  61 C :    0.003564
  62 F :   -0.078910
  63 C :   -0.010590
  64 C :    0.004032
  65 C :    0.044776
  66 C :   -0.176225
  67 C :   -0.023176
  68 N :   -0.067403
  69 C :    0.004303
  70 N :   -0.111492
  71 H :    0.039155
  72 H :    0.041254
  73 H :    0.037787
  74 H :    0.043834
  75 H :    0.035156
  76 H :    0.038103
  77 H :    0.023920
  78 H :    0.027665
  79 H :    0.006761
  80 H :    0.022610
  81 H :    0.005842
  82 H :    0.002365
  83 H :    0.032130
  84 H :    0.028976
  85 H :    0.031235
  86 H :    0.035762
  87 H :    0.040464
  88 H :    0.027378
  89 H :    0.030511
  90 H :    0.029466
  91 H :    0.082631
  92 H :    0.029782
  93 H :    0.021193
  94 H :    0.036314
  95 H :    0.035937
  96 H :    0.033874
  97 H :    0.032370
  98 H :    0.034943
  99 H :    0.037800
 100 H :    0.043665
 101 H :    0.035799
 102 H :    0.026821
 103 H :    0.038775
 104 H :    0.034146
 105 H :    0.027624

  Mayer bond orders larger than 0.100000
B(  0-C ,  1-C ) :   1.6483 B(  0-C ,  6-C ) :   1.0095 B(  0-C , 18-C ) :   1.0614
B(  1-C ,  2-C ) :   1.1317 B(  1-C ,  4-C ) :   1.1463 B(  2-C ,  3-N ) :   2.9784
B(  4-C ,  5-N ) :   2.9500 B(  6-C ,  7-C ) :   1.2741 B(  6-C , 11-C ) :   1.4156
B(  7-C ,  8-C ) :   1.4277 B(  7-C , 16-C ) :   0.9378 B(  8-C ,  9-C ) :   1.2444
B(  8-C , 71-H ) :   1.0158 B(  9-C , 10-C ) :   1.3116 B(  9-C , 14-C ) :   1.1625
B( 10-C , 11-C ) :   1.3229 B( 10-C , 12-S ) :   1.0831 B( 11-C , 72-H ) :   0.9821
B( 12-S , 13-C ) :   1.0875 B( 13-C , 14-C ) :   1.6190 B( 13-C , 15-Br) :   1.0163
B( 14-C , 73-H ) :   0.9996 B( 16-C , 17-O ) :   2.1684 B( 16-C , 18-C ) :   0.9726
B( 18-C , 19-C ) :   1.5676 B( 19-C , 20-C ) :   1.1977 B( 19-C , 74-H ) :   0.9234
B( 20-C , 21-S ) :   1.0948 B( 20-C , 24-C ) :   1.4389 B( 21-S , 22-C ) :   1.1339
B( 22-C , 23-C ) :   1.4528 B( 22-C , 31-C ) :   1.1052 B( 23-C , 24-C ) :   1.3573
B( 23-C , 30-C ) :   1.0492 B( 24-C , 25-C ) :   1.0604 B( 25-C , 26-C ) :   1.0698
B( 25-C , 75-H ) :   0.9106 B( 25-C , 76-H ) :   0.8788 B( 26-C , 27-C ) :   1.0432
B( 26-C , 77-H ) :   0.9367 B( 26-C , 78-H ) :   0.9278 B( 27-C , 28-O ) :   1.0397
B( 27-C , 30-C ) :   1.0410 B( 27-C , 79-H ) :   0.9292 B( 28-O , 29-C ) :   0.9991
B( 29-C , 80-H ) :   0.9830 B( 29-C , 81-H ) :   0.9624 B( 29-C , 82-H ) :   0.9657
B( 30-C , 83-H ) :   0.8769 B( 30-C , 84-H ) :   0.9035 B( 31-C , 32-C ) :   1.7711
B( 31-C , 85-H ) :   0.9562 B( 32-C , 33-C ) :   1.0977 B( 32-C , 34-C ) :   1.0425
B( 33-C , 86-H ) :   0.9345 B( 33-C , 87-H ) :   0.9297 B( 33-C , 88-H ) :   0.9323
B( 34-C , 35-N ) :   1.0010 B( 34-C , 89-H ) :   0.9452 B( 34-C , 90-H ) :   0.9311
B( 35-N , 36-C ) :   1.2672 B( 35-N , 91-H ) :   0.9319 B( 36-C , 37-C ) :   1.5634
B( 36-C , 92-H ) :   0.9699 B( 37-C , 38-C ) :   1.1994 B( 37-C , 93-H ) :   0.9558
B( 38-C , 39-C ) :   1.5526 B( 38-C , 94-H ) :   0.9809 B( 39-C , 40-C ) :   1.1700
B( 39-C , 43-S ) :   1.0138 B( 40-C , 41-C ) :   1.5577 B( 40-C , 95-H ) :   0.9972
B( 41-C , 42-C ) :   1.2158 B( 41-C , 96-H ) :   0.9964 B( 42-C , 43-S ) :   1.1019
B( 42-C , 44-C ) :   1.4288 B( 44-C , 45-C ) :   1.2341 B( 44-C , 48-S ) :   1.0451
B( 45-C , 46-C ) :   1.5318 B( 45-C , 97-H ) :   0.9926 B( 46-C , 47-C ) :   1.2065
B( 46-C , 98-H ) :   0.9977 B( 47-C , 48-S ) :   1.1296 B( 47-C , 49-C ) :   1.3892
B( 49-C , 50-C ) :   1.3836 B( 49-C , 99-H ) :   0.9577 B( 50-C , 51-C ) :   1.3999
B( 50-C ,100-H ) :   0.9377 B( 51-C , 52-C ) :   0.9747 B( 51-C , 65-C ) :   1.1782
B( 52-C , 53-O ) :   2.2616 B( 52-C , 54-C ) :   0.9031 B( 54-C , 55-C ) :   1.4891
B( 54-C , 64-C ) :   1.2279 B( 55-C , 56-C ) :   1.1698 B( 55-C ,101-H ) :   1.0140
B( 56-C , 57-C ) :   1.2639 B( 56-C , 61-C ) :   1.2470 B( 57-C , 58-C ) :   1.2153
B( 57-C , 63-C ) :   1.1867 B( 58-C , 59-C ) :   1.4333 B( 58-C ,102-H ) :   0.9937
B( 59-C , 60-C ) :   1.2737 B( 59-C , 62-F ) :   1.0226 B( 60-C , 61-C ) :   1.4447
B( 60-C ,103-H ) :   0.9927 B( 61-C ,104-H ) :   0.9963 B( 63-C , 64-C ) :   1.4834
B( 63-C ,105-H ) :   1.0001 B( 64-C , 65-C ) :   0.9595 B( 65-C , 66-C ) :   1.5320
B( 66-C , 67-C ) :   1.1633 B( 66-C , 69-C ) :   1.1906 B( 67-C , 68-N ) :   3.0068
B( 69-C , 70-N ) :   2.8595

-----------------------------------------------------------------------------
         ABSORPTION SPECTRUM VIA TRANSITION ELECTRIC DIPOLE MOMENTS
-----------------------------------------------------------------------------
State   Energy  Wavelength   fosc         T2         TX        TY        TZ
        (cm-1)    (nm)                  (au**2)     (au)      (au)      (au)
-----------------------------------------------------------------------------
   0   11746.8    851.3   0.341536694   9.57177  -2.36611   0.58076   1.90684
   1   16749.0    597.0   0.099893925   1.96347  -0.73928   0.72164   0.94666
   2   21220.1    471.3   0.046505981   0.72150  -0.59969  -0.48105   0.36120
   3   21938.3    455.8   0.692875931  10.39748   1.07385  -2.07863  -2.21892
   4   23158.8    431.8   0.357516965   5.08225   1.51141   1.23096  -1.13253
   5   23487.6    425.8   0.091527836   1.28289  -0.27117   0.00530   1.09970
   6   24038.4    416.0   0.140472822   1.92381  -0.09982   1.09060  -0.85114
   7   24443.8    409.1   0.035341269   0.47598  -0.26430  -0.63672   0.02662
   8   25759.7    388.2   0.000907810   0.01160  -0.05113   0.08019  -0.05057
   9   26166.8    382.2   0.815285569  10.25732   0.58886   2.51081  -1.89905
  10   27008.3    370.3   0.031653948   0.38584  -0.06101   0.45844  -0.41467
  11   27142.1    368.4   0.038984601   0.47285  -0.17458   0.05150   0.66312
  12   28321.5    353.1   0.041491525   0.48230  -0.01106  -0.47446  -0.50701
  13   28675.5    348.7   0.157175517   1.80447  -0.02322   0.74394   1.11825
  14   28986.6    345.0   0.270596161   3.07326  -0.56032  -1.36493  -0.94671
  15   29432.2    339.8   0.114182059   1.27718   0.14416   1.11942  -0.05736
  16   29935.5    334.1   0.045987394   0.50574   0.34342  -0.18505  -0.59461
  17   30309.1    329.9   0.050266598   0.54599   0.03115   0.54148   0.50181
  18   30771.4    325.0   0.195155700   2.08790  -0.42563   0.73767   1.16729
  19   31070.0    321.9   0.011247592   0.11918   0.23235  -0.22005   0.12949
  20   31451.4    318.0   0.030162513   0.31572  -0.13258  -0.11238  -0.53433
  21   31540.9    317.0   0.001089787   0.01137  -0.04299   0.08017   0.05567
  22   32286.2    309.7   0.327023730   3.33456   0.61412  -0.80781   1.51818
  23   32369.5    308.9   0.044828192   0.45592   0.65738  -0.09196   0.12379
  24   32605.5    306.7   0.209886149   2.11918   0.16581  -0.88318   1.14529
  25   32691.8    305.9   0.018632467   0.18763   0.06324   0.25823   0.34198
  26   32842.1    304.5   0.066593442   0.66754  -0.60404  -0.25768  -0.48607
  27   33369.4    299.7   0.078011330   0.76963   0.53338   0.42621   0.55090
  28   33559.3    298.0   0.285537024   2.80108  -0.20759  -1.59587  -0.45955
  29   33854.1    295.4   0.014414027   0.14017   0.08118   0.21187   0.29781
  30   33898.1    295.0   0.093258106   0.90571   0.21939   0.17338   0.90968
  31   34035.4    293.8   0.200204352   1.93650  -0.30100  -1.27988   0.45587
  32   34297.3    291.6   0.072743177   0.69825   0.79361  -0.22563  -0.13240
  33   34611.7    288.9   0.007949379   0.07561  -0.01108  -0.21193   0.17485
  34   34911.5    286.4   0.026973910   0.25436  -0.19882  -0.07380   0.45759
  35   35930.9    278.3   0.000825973   0.00757  -0.02423   0.03472   0.07600
  36   35960.2    278.1   0.085828044   0.78575  -0.28705  -0.10058   0.83260
  37   36369.5    275.0   0.019055201   0.17249  -0.22680  -0.11467   0.32847
  38   36621.1    273.1   0.062751140   0.56411   0.67402  -0.10832   0.31317
  39   36674.9    272.7   0.120911191   1.08536   0.90225  -0.47423   0.21543
  40   37052.6    269.9   0.097711139   0.86816  -0.24359   0.15466  -0.88595
  41   37104.5    269.5   0.013066064   0.11593   0.24361   0.00898  -0.23771
  42   37300.2    268.1   0.044475328   0.39254  -0.61625   0.04594   0.10326
  43   37595.5    266.0   0.014508276   0.12704   0.26734   0.09135  -0.21732
  44   37851.3    264.2   0.093703161   0.81498   0.47352   0.18771  -0.74534
  45   38128.0    262.3   0.022917441   0.19788  -0.43374   0.02991   0.09410
  46   38189.8    261.9   0.145367844   1.25313   0.93812  -0.58690   0.16915
  47   38370.6    260.6   0.019610492   0.16825  -0.02643  -0.05551   0.40555
  48   38590.2    259.1   0.082451134   0.70339   0.82377   0.15123   0.04387
  49   38722.8    258.2   0.008353506   0.07102  -0.10917   0.16708  -0.17660
  50   38872.1    257.3   0.128454811   1.08790   0.56706  -0.31755  -0.81578
  51   39115.9    255.7   0.019543508   0.16448   0.15547  -0.25373   0.27556
  52   39564.4    252.8   0.096020824   0.79898  -0.39300  -0.13452   0.79148

FINAL SINGLE POINT ENERGY     -6954.990439597656

DIPOLE MOMENT
-------------
                                X             Y             Z
Electronic contribution:      8.41966     -83.48518    -146.60218
Nuclear contribution   :    -12.10331      83.18430     150.57040
                        -----------------------------------------
Total Dipole Moment    :     -3.68365      -0.30087       3.96822
                        -----------------------------------------
Magnitude (a.u.)       :      5.42279
Magnitude (Debye)      :     13.78363

Rotational constants in cm-1:     0.001125     0.000513     0.000425
Rotational constants in MHz :    33.727396    15.370027    12.755714

                             ****ORCA TERMINATED NORMALLY****
TOTAL RUN TIME: 0 days 0 hours 13 minutes 6 seconds 785 msec
