                         Program Version 4.2.0 -  RELEASE  -
|  1> # ORCA input file
|  2> # SCF done       -190.411795818363          0.000316828724
|  3> ! CAM-B3LYP def2-SVP def2/J RIJCOSX Grid4 TightSCF
|  4> %maxcore 5000
|  5> %tddft
|  6>     Mode sTDDFT
|  7>     Ethresh 5.0
|  8>     maxcore 5000
|  9> end
| 10>
| 11> %pal
| 12>   nprocs 6
| 13>   end
| 14> * xyz 0 1
| 15>    C      -14.12140       -12.51426        -4.62211
| 16>    C      -14.37073       -12.03606        -3.35442
| 17>    C      -15.11016       -12.73268        -2.37923
| 18>    N      -15.70452       -13.24394        -1.53910
| 19>    C      -13.93091       -10.80235        -2.83703
| 20>    N      -13.61502        -9.81990        -2.33005
| 21>    C      -14.57504       -13.80700        -5.13449
| 22>    C      -14.10469       -13.95763        -6.46140
| 23>    C      -14.37209       -15.06822        -7.22212
| 24>    C      -15.14581       -16.08268        -6.64660
| 25>    C      -15.61072       -15.92443        -5.32106
| 26>    C      -15.33702       -14.79988        -4.55023
| 27>    S      -16.55133       -17.29254        -4.80619
| 28>    C      -16.31070       -18.04654        -6.35985
| 29>    C      -15.56433       -17.31489        -7.22017
| 30>   Br      -17.06931       -19.72866        -6.69987
| 31>    C      -13.33295       -12.75550        -6.84269
| 32>    O      -12.78587       -12.56465        -7.91224
| 33>    C      -13.38240       -11.86264        -5.66963
| 34>    C      -12.83727       -10.59137        -5.62885
| 35>    C      -12.15394        -9.98733        -6.67466
| 36>    C      -11.68923        -8.68272        -6.62330
| 37>    C      -11.03865        -7.98164        -7.65724
| 38>    C      -10.74771        -6.67958        -7.35065
| 39>    C      -11.14861        -6.30421        -6.05700
| 40>    S      -11.89330        -7.64707        -5.22800
| 41>    C      -11.04588        -5.04848        -5.46270
| 42>    C      -10.57914        -3.85552        -6.03830
| 43>    C      -10.68987        -2.77087        -5.21087
| 44>    C      -11.22156        -3.06403        -3.93943
| 45>    S      -11.58504        -4.76969        -3.82785
| 46>    C      -11.49742        -2.10910        -2.97238
| 47>    C      -11.92369        -2.25332        -1.66106
| 48>    S      -12.49419        -0.80130        -0.83102
| 49>    C      -11.97737        -3.32360        -0.75622
| 50>    S      -11.54711        -4.99763        -0.78137
| 51>    C      -12.02237        -5.07916         0.90278
| 52>    N      -12.44609        -3.99555         1.43269
| 53>    C      -12.42927        -2.97898         0.53730
| 54>    C      -12.79502        -1.62579         0.68104
| 55>    C      -13.34390        -0.96941         1.77171
| 56>    C      -13.49431        -1.54012         3.02479
| 57>    C      -14.13524        -0.89325         4.06553
| 58>    C      -14.22045        -1.36473         5.36962
| 59>    C      -14.96131        -0.79210         6.41773
| 60>    C      -14.83373        -1.44665         7.61430
| 61>    C      -13.95902        -2.54512         7.56272
| 62>    S      -13.34485        -2.76465         5.94563
| 63>    C      -13.54783        -3.34086         8.63111
| 64>    C      -14.02824        -3.30679         9.95174
| 65>    C      -13.37512        -4.16305        10.79571
| 66>    C      -12.34136        -4.89491        10.17992
| 67>    S      -12.25039        -4.49812         8.48115
| 68>    C      -11.45051        -5.74290        10.81728
| 69>    C      -10.39828        -6.38775        10.18341
| 70>    C       -9.37748        -7.10711        10.77371
| 71>    C       -8.92584        -7.18054        12.13371
| 72>    C       -9.08447        -6.22897        13.11803
| 73>    C       -8.58770        -6.36322        14.42830
| 74>    N       -8.22912        -6.42526        15.51819
| 75>    C       -9.65228        -4.95630        12.91707
| 76>    N      -10.05587        -3.88577        12.80950
| 77>    C       -8.05024        -8.34864        12.24210
| 78>    C       -7.81535        -8.85904        10.94103
| 79>    C       -8.59490        -8.06662         9.96507
| 80>    O       -8.61768        -8.19460         8.75944
| 81>    C       -6.98760        -9.92835        10.70608
| 82>    C       -6.36976       -10.53082        11.80842
| 83>    C       -6.62384       -10.02417        13.10355
| 84>    C       -7.45626        -8.93574        13.34115
| 85>    S       -5.76683       -10.92069        14.32078
| 86>    C       -5.08323       -11.94695        13.08787
| 87>    C       -5.47714       -11.63792        11.83019
| 88>   Br       -3.91382       -13.32944        13.57886
| 89>    H      -13.99956       -15.15218        -8.23104
| 90>    H      -15.71711       -14.72827        -3.54506
| 91>    H      -15.31877       -17.62828        -8.21846
| 92>    H      -12.96639       -10.00688        -4.72609
| 93>    H      -11.99307       -10.54305        -7.58727
| 94>    H      -10.81366        -8.45106        -8.59815
| 95>    H      -10.26011        -5.99567        -8.02163
| 96>    H      -10.19229        -3.81303        -7.04000
| 97>    H      -10.39901        -1.77129        -5.48138
| 98>    H      -11.39124        -1.08319        -3.30518
| 99>    H      -11.94820        -6.00811         1.43283
|100>    H      -13.65834         0.05538         1.62202
|101>    H      -13.09451        -2.53194         3.18705
|102>    H      -14.62013         0.05467         3.86602
|103>    H      -15.57118         0.08118         6.26777
|104>    H      -15.32452        -1.14511         8.52153
|105>    H      -14.83703        -2.66578        10.25215
|106>    H      -13.59011        -4.26742        11.84388
|107>    H      -11.60463        -5.88486        11.87737
|108>    H      -10.39002        -6.39117         9.09733
|109>    H       -6.81828       -10.28948         9.70384
|110>    H       -7.62030        -8.58756        14.34735
|111>    H       -5.15291       -12.16662        10.95248
|112> *
|113>
|114>                          ****END OF INPUT****

CARTESIAN COORDINATES (ANGSTROEM)
---------------------------------
  C    -14.121400  -12.514260   -4.622110
  C    -14.370730  -12.036060   -3.354420
  C    -15.110160  -12.732680   -2.379230
  N    -15.704520  -13.243940   -1.539100
  C    -13.930910  -10.802350   -2.837030
  N    -13.615020   -9.819900   -2.330050
  C    -14.575040  -13.807000   -5.134490
  C    -14.104690  -13.957630   -6.461400
  C    -14.372090  -15.068220   -7.222120
  C    -15.145810  -16.082680   -6.646600
  C    -15.610720  -15.924430   -5.321060
  C    -15.337020  -14.799880   -4.550230
  S    -16.551330  -17.292540   -4.806190
  C    -16.310700  -18.046540   -6.359850
  C    -15.564330  -17.314890   -7.220170
  Br   -17.069310  -19.728660   -6.699870
  C    -13.332950  -12.755500   -6.842690
  O    -12.785870  -12.564650   -7.912240
  C    -13.382400  -11.862640   -5.669630
  C    -12.837270  -10.591370   -5.628850
  C    -12.153940   -9.987330   -6.674660
  C    -11.689230   -8.682720   -6.623300
  C    -11.038650   -7.981640   -7.657240
  C    -10.747710   -6.679580   -7.350650
  C    -11.148610   -6.304210   -6.057000
  S    -11.893300   -7.647070   -5.228000
  C    -11.045880   -5.048480   -5.462700
  C    -10.579140   -3.855520   -6.038300
  C    -10.689870   -2.770870   -5.210870
  C    -11.221560   -3.064030   -3.939430
  S    -11.585040   -4.769690   -3.827850
  C    -11.497420   -2.109100   -2.972380
  C    -11.923690   -2.253320   -1.661060
  S    -12.494190   -0.801300   -0.831020
  C    -11.977370   -3.323600   -0.756220
  S    -11.547110   -4.997630   -0.781370
  C    -12.022370   -5.079160    0.902780
  N    -12.446090   -3.995550    1.432690
  C    -12.429270   -2.978980    0.537300
  C    -12.795020   -1.625790    0.681040
  C    -13.343900   -0.969410    1.771710
  C    -13.494310   -1.540120    3.024790
  C    -14.135240   -0.893250    4.065530
  C    -14.220450   -1.364730    5.369620
  C    -14.961310   -0.792100    6.417730
  C    -14.833730   -1.446650    7.614300
  C    -13.959020   -2.545120    7.562720
  S    -13.344850   -2.764650    5.945630
  C    -13.547830   -3.340860    8.631110
  C    -14.028240   -3.306790    9.951740
  C    -13.375120   -4.163050   10.795710
  C    -12.341360   -4.894910   10.179920
  S    -12.250390   -4.498120    8.481150
  C    -11.450510   -5.742900   10.817280
  C    -10.398280   -6.387750   10.183410
  C     -9.377480   -7.107110   10.773710
  C     -8.925840   -7.180540   12.133710
  C     -9.084470   -6.228970   13.118030
  C     -8.587700   -6.363220   14.428300
  N     -8.229120   -6.425260   15.518190
  C     -9.652280   -4.956300   12.917070
  N    -10.055870   -3.885770   12.809500
  C     -8.050240   -8.348640   12.242100
  C     -7.815350   -8.859040   10.941030
  C     -8.594900   -8.066620    9.965070
  O     -8.617680   -8.194600    8.759440
  C     -6.987600   -9.928350   10.706080
  C     -6.369760  -10.530820   11.808420
  C     -6.623840  -10.024170   13.103550
  C     -7.456260   -8.935740   13.341150
  S     -5.766830  -10.920690   14.320780
  C     -5.083230  -11.946950   13.087870
  C     -5.477140  -11.637920   11.830190
  Br    -3.913820  -13.329440   13.578860
  H    -13.999560  -15.152180   -8.231040
  H    -15.717110  -14.728270   -3.545060
  H    -15.318770  -17.628280   -8.218460
  H    -12.966390  -10.006880   -4.726090
  H    -11.993070  -10.543050   -7.587270
  H    -10.813660   -8.451060   -8.598150
  H    -10.260110   -5.995670   -8.021630
  H    -10.192290   -3.813030   -7.040000
  H    -10.399010   -1.771290   -5.481380
  H    -11.391240   -1.083190   -3.305180
  H    -11.948200   -6.008110    1.432830
  H    -13.658340    0.055380    1.622020
  H    -13.094510   -2.531940    3.187050
  H    -14.620130    0.054670    3.866020
  H    -15.571180    0.081180    6.267770
  H    -15.324520   -1.145110    8.521530
  H    -14.837030   -2.665780   10.252150
  H    -13.590110   -4.267420   11.843880
  H    -11.604630   -5.884860   11.877370
  H    -10.390020   -6.391170    9.097330
  H     -6.818280  -10.289480    9.703840
  H     -7.620300   -8.587560   14.347350
  H     -5.152910  -12.166620   10.952480

 Total Charge           Charge          ....    0
 Multiplicity           Mult            ....    1
 Number of Electrons    NEL             ....  614
 Basis Dimension        Dim             .... 1219

ORBITAL ENERGIES
----------------

  NO   OCC          E(Eh)            E(eV)
   0   2.0000    -482.876511    -13139.7379
   1   2.0000    -482.876147    -13139.7280
   2   2.0000     -88.981250     -2421.3029
   3   2.0000     -88.980471     -2421.2817
   4   2.0000     -88.971115     -2421.0271
   5   2.0000     -88.967241     -2420.9217
   6   2.0000     -88.964288     -2420.8413
   7   2.0000     -88.963887     -2420.8305
   8   2.0000     -88.962834     -2420.8018
   9   2.0000     -88.960727     -2420.7444
  10   2.0000     -62.554200     -1702.1863
  11   2.0000     -62.553878     -1702.1776
  12   2.0000     -56.388138     -1534.3993
  13   2.0000     -56.387817     -1534.3905
  14   2.0000     -56.385447     -1534.3260
  15   2.0000     -56.385410     -1534.3250
  16   2.0000     -56.385122     -1534.3172
  17   2.0000     -56.385085     -1534.3162
  18   2.0000     -19.198908      -522.4288
  19   2.0000     -19.197226      -522.3831
  20   2.0000     -14.432410      -392.7258
  21   2.0000     -14.400551      -391.8589
  22   2.0000     -14.400324      -391.8527
  23   2.0000     -14.398469      -391.8023
  24   2.0000     -14.397117      -391.7655
  25   2.0000     -10.352296      -281.7003
  26   2.0000     -10.349007      -281.6108
  27   2.0000     -10.347910      -281.5809
  28   2.0000     -10.347505      -281.5699
  29   2.0000     -10.347376      -281.5664
  30   2.0000     -10.337767      -281.3049
  31   2.0000     -10.337341      -281.2934
  32   2.0000     -10.336001      -281.2569
  33   2.0000     -10.332626      -281.1651
  34   2.0000     -10.330289      -281.1015
  35   2.0000     -10.329756      -281.0869
  36   2.0000     -10.328716      -281.0587
  37   2.0000     -10.327582      -281.0278
  38   2.0000     -10.326618      -281.0016
  39   2.0000     -10.326490      -280.9981
  40   2.0000     -10.325612      -280.9742
  41   2.0000     -10.325278      -280.9651
  42   2.0000     -10.324517      -280.9444
  43   2.0000     -10.323526      -280.9174
  44   2.0000     -10.322530      -280.8903
  45   2.0000     -10.320285      -280.8292
  46   2.0000     -10.319086      -280.7966
  47   2.0000     -10.312904      -280.6284
  48   2.0000     -10.312040      -280.6049
  49   2.0000     -10.308558      -280.5101
  50   2.0000     -10.305764      -280.4341
  51   2.0000     -10.305413      -280.4246
  52   2.0000     -10.304872      -280.4098
  53   2.0000     -10.304852      -280.4093
  54   2.0000     -10.304733      -280.4060
  55   2.0000     -10.304334      -280.3952
  56   2.0000     -10.304243      -280.3927
  57   2.0000     -10.304100      -280.3888
  58   2.0000     -10.303395      -280.3696
  59   2.0000     -10.302304      -280.3399
  60   2.0000     -10.301630      -280.3216
  61   2.0000     -10.299199      -280.2554
  62   2.0000     -10.295936      -280.1667
  63   2.0000     -10.295337      -280.1504
  64   2.0000     -10.294274      -280.1214
  65   2.0000     -10.294205      -280.1195
  66   2.0000     -10.294012      -280.1143
  67   2.0000     -10.293535      -280.1013
  68   2.0000     -10.292765      -280.0804
  69   2.0000     -10.292141      -280.0634
  70   2.0000     -10.291493      -280.0458
  71   2.0000     -10.290603      -280.0216
  72   2.0000     -10.287678      -279.9420
  73   2.0000     -10.286730      -279.9162
  74   2.0000     -10.285866      -279.8927
  75   2.0000     -10.285822      -279.8914
  76   2.0000     -10.283793      -279.8362
  77   2.0000     -10.277881      -279.6754
  78   2.0000     -10.277041      -279.6525
  79   2.0000     -10.276518      -279.6383
  80   2.0000     -10.275203      -279.6025
  81   2.0000     -10.273326      -279.5514
  82   2.0000      -8.783603      -239.0140
  83   2.0000      -8.783314      -239.0061
  84   2.0000      -8.076491      -219.7725
  85   2.0000      -8.076169      -219.7637
  86   2.0000      -8.067279      -219.5218
  87   2.0000      -8.063498      -219.4189
  88   2.0000      -8.060256      -219.3307
  89   2.0000      -8.059904      -219.3211
  90   2.0000      -8.059103      -219.2993
  91   2.0000      -8.056674      -219.2333
  92   2.0000      -6.619840      -180.1350
  93   2.0000      -6.619581      -180.1280
  94   2.0000      -6.605365      -179.7411
  95   2.0000      -6.605188      -179.7363
  96   2.0000      -6.605057      -179.7327
  97   2.0000      -6.604886      -179.7281
  98   2.0000      -6.045897      -164.5172
  99   2.0000      -6.045655      -164.5106
 100   2.0000      -6.041939      -164.4095
 101   2.0000      -6.041268      -164.3913
 102   2.0000      -6.038211      -164.3081
 103   2.0000      -6.037860      -164.2985
 104   2.0000      -6.036902      -164.2724
 105   2.0000      -6.033076      -164.1683
 106   2.0000      -6.032766      -164.1599
 107   2.0000      -6.029977      -164.0840
 108   2.0000      -6.029584      -164.0733
 109   2.0000      -6.029029      -164.0582
 110   2.0000      -6.028674      -164.0486
 111   2.0000      -6.028436      -164.0421
 112   2.0000      -6.026246      -163.9825
 113   2.0000      -6.025657      -163.9665
 114   2.0000      -6.025344      -163.9579
 115   2.0000      -6.024688      -163.9401
 116   2.0000      -6.024637      -163.9387
 117   2.0000      -6.022183      -163.8719
 118   2.0000      -6.021484      -163.8529
 119   2.0000      -6.021114      -163.8428
 120   2.0000      -6.020314      -163.8211
 121   2.0000      -6.017958      -163.7570
 122   2.0000      -2.735730       -74.4430
 123   2.0000      -2.735414       -74.4344
 124   2.0000      -2.731641       -74.3317
 125   2.0000      -2.731534       -74.3288
 126   2.0000      -2.731371       -74.3244
 127   2.0000      -2.731294       -74.3223
 128   2.0000      -2.720016       -74.0154
 129   2.0000      -2.720007       -74.0151
 130   2.0000      -2.719718       -74.0073
 131   2.0000      -2.719700       -74.0068
 132   2.0000      -1.112218       -30.2650
 133   2.0000      -1.111386       -30.2423
 134   2.0000      -1.088699       -29.6250
 135   2.0000      -1.016789       -27.6682
 136   2.0000      -1.014933       -27.6177
 137   2.0000      -1.009245       -27.4629
 138   2.0000      -1.008449       -27.4413
 139   2.0000      -0.999131       -27.1877
 140   2.0000      -0.998918       -27.1820
 141   2.0000      -0.998173       -27.1617
 142   2.0000      -0.992356       -27.0034
 143   2.0000      -0.989742       -26.9323
 144   2.0000      -0.978327       -26.6216
 145   2.0000      -0.978139       -26.6165
 146   2.0000      -0.974659       -26.5218
 147   2.0000      -0.973429       -26.4884
 148   2.0000      -0.940764       -25.5995
 149   2.0000      -0.930824       -25.3290
 150   2.0000      -0.929704       -25.2985
 151   2.0000      -0.918010       -24.9803
 152   2.0000      -0.911275       -24.7970
 153   2.0000      -0.904692       -24.6179
 154   2.0000      -0.897719       -24.4282
 155   2.0000      -0.894721       -24.3466
 156   2.0000      -0.893699       -24.3188
 157   2.0000      -0.880962       -23.9722
 158   2.0000      -0.872885       -23.7524
 159   2.0000      -0.872494       -23.7418
 160   2.0000      -0.871472       -23.7140
 161   2.0000      -0.863994       -23.5105
 162   2.0000      -0.863382       -23.4938
 163   2.0000      -0.861935       -23.4544
 164   2.0000      -0.848772       -23.0963
 165   2.0000      -0.840937       -22.8831
 166   2.0000      -0.839777       -22.8515
 167   2.0000      -0.839009       -22.8306
 168   2.0000      -0.832180       -22.6448
 169   2.0000      -0.817646       -22.2493
 170   2.0000      -0.816074       -22.2065
 171   2.0000      -0.814416       -22.1614
 172   2.0000      -0.799051       -21.7433
 173   2.0000      -0.781949       -21.2779
 174   2.0000      -0.768897       -20.9227
 175   2.0000      -0.754478       -20.5304
 176   2.0000      -0.746345       -20.3091
 177   2.0000      -0.742813       -20.2130
 178   2.0000      -0.734489       -19.9865
 179   2.0000      -0.727408       -19.7938
 180   2.0000      -0.715663       -19.4742
 181   2.0000      -0.708160       -19.2700
 182   2.0000      -0.702932       -19.1278
 183   2.0000      -0.690352       -18.7854
 184   2.0000      -0.686102       -18.6698
 185   2.0000      -0.683126       -18.5888
 186   2.0000      -0.679263       -18.4837
 187   2.0000      -0.674942       -18.3661
 188   2.0000      -0.673700       -18.3323
 189   2.0000      -0.660224       -17.9656
 190   2.0000      -0.658107       -17.9080
 191   2.0000      -0.649301       -17.6684
 192   2.0000      -0.648721       -17.6526
 193   2.0000      -0.643840       -17.5198
 194   2.0000      -0.641963       -17.4687
 195   2.0000      -0.637875       -17.3575
 196   2.0000      -0.634405       -17.2630
 197   2.0000      -0.630164       -17.1476
 198   2.0000      -0.623139       -16.9565
 199   2.0000      -0.620178       -16.8759
 200   2.0000      -0.619457       -16.8563
 201   2.0000      -0.609263       -16.5789
 202   2.0000      -0.609070       -16.5736
 203   2.0000      -0.607111       -16.5203
 204   2.0000      -0.588378       -16.0106
 205   2.0000      -0.586558       -15.9611
 206   2.0000      -0.583503       -15.8779
 207   2.0000      -0.582101       -15.8398
 208   2.0000      -0.579063       -15.7571
 209   2.0000      -0.576193       -15.6790
 210   2.0000      -0.569886       -15.5074
 211   2.0000      -0.558880       -15.2079
 212   2.0000      -0.556151       -15.1336
 213   2.0000      -0.546788       -14.8788
 214   2.0000      -0.545743       -14.8504
 215   2.0000      -0.543791       -14.7973
 216   2.0000      -0.540667       -14.7123
 217   2.0000      -0.535142       -14.5620
 218   2.0000      -0.533102       -14.5064
 219   2.0000      -0.529675       -14.4132
 220   2.0000      -0.529062       -14.3965
 221   2.0000      -0.524207       -14.2644
 222   2.0000      -0.523543       -14.2463
 223   2.0000      -0.521382       -14.1875
 224   2.0000      -0.518900       -14.1200
 225   2.0000      -0.516097       -14.0437
 226   2.0000      -0.515110       -14.0169
 227   2.0000      -0.514694       -14.0055
 228   2.0000      -0.512584       -13.9481
 229   2.0000      -0.511408       -13.9161
 230   2.0000      -0.507847       -13.8192
 231   2.0000      -0.502751       -13.6806
 232   2.0000      -0.501706       -13.6521
 233   2.0000      -0.495994       -13.4967
 234   2.0000      -0.495812       -13.4917
 235   2.0000      -0.494534       -13.4570
 236   2.0000      -0.493271       -13.4226
 237   2.0000      -0.487568       -13.2674
 238   2.0000      -0.486244       -13.2314
 239   2.0000      -0.485792       -13.2191
 240   2.0000      -0.483713       -13.1625
 241   2.0000      -0.482460       -13.1284
 242   2.0000      -0.479862       -13.0577
 243   2.0000      -0.479245       -13.0409
 244   2.0000      -0.478617       -13.0238
 245   2.0000      -0.477159       -12.9842
 246   2.0000      -0.476881       -12.9766
 247   2.0000      -0.471285       -12.8243
 248   2.0000      -0.469590       -12.7782
 249   2.0000      -0.461774       -12.5655
 250   2.0000      -0.458011       -12.4631
 251   2.0000      -0.457921       -12.4607
 252   2.0000      -0.456179       -12.4133
 253   2.0000      -0.452411       -12.3107
 254   2.0000      -0.451379       -12.2827
 255   2.0000      -0.447220       -12.1695
 256   2.0000      -0.445405       -12.1201
 257   2.0000      -0.444013       -12.0822
 258   2.0000      -0.441245       -12.0069
 259   2.0000      -0.437318       -11.9000
 260   2.0000      -0.436143       -11.8680
 261   2.0000      -0.434654       -11.8275
 262   2.0000      -0.434496       -11.8232
 263   2.0000      -0.433691       -11.8013
 264   2.0000      -0.432600       -11.7717
 265   2.0000      -0.429416       -11.6850
 266   2.0000      -0.428594       -11.6626
 267   2.0000      -0.427874       -11.6431
 268   2.0000      -0.426068       -11.5939
 269   2.0000      -0.423456       -11.5228
 270   2.0000      -0.417211       -11.3529
 271   2.0000      -0.416372       -11.3301
 272   2.0000      -0.413739       -11.2584
 273   2.0000      -0.411440       -11.1958
 274   2.0000      -0.410351       -11.1662
 275   2.0000      -0.408277       -11.1098
 276   2.0000      -0.406145       -11.0518
 277   2.0000      -0.401169       -10.9164
 278   2.0000      -0.394794       -10.7429
 279   2.0000      -0.393592       -10.7102
 280   2.0000      -0.392067       -10.6687
 281   2.0000      -0.381346       -10.3770
 282   2.0000      -0.377171       -10.2633
 283   2.0000      -0.374332       -10.1861
 284   2.0000      -0.370286       -10.0760
 285   2.0000      -0.367529       -10.0010
 286   2.0000      -0.366081        -9.9616
 287   2.0000      -0.365842        -9.9551
 288   2.0000      -0.360168        -9.8007
 289   2.0000      -0.353048        -9.6069
 290   2.0000      -0.351978        -9.5778
 291   2.0000      -0.349226        -9.5029
 292   2.0000      -0.343296        -9.3416
 293   2.0000      -0.338071        -9.1994
 294   2.0000      -0.335188        -9.1209
 295   2.0000      -0.332286        -9.0420
 296   2.0000      -0.324016        -8.8169
 297   2.0000      -0.319257        -8.6874
 298   2.0000      -0.317410        -8.6372
 299   2.0000      -0.302831        -8.2404
 300   2.0000      -0.302542        -8.2326
 301   2.0000      -0.299915        -8.1611
 302   2.0000      -0.282508        -7.6874
 303   2.0000      -0.281236        -7.6528
 304   2.0000      -0.273323        -7.4375
 305   2.0000      -0.236025        -6.4226
 306   2.0000      -0.209115        -5.6903
 307   0.0000      -0.132298        -3.6000
 308   0.0000      -0.100097        -2.7238
 309   0.0000      -0.068946        -1.8761
 310   0.0000      -0.055606        -1.5131
 311   0.0000      -0.047417        -1.2903

MULLIKEN ATOMIC CHARGES
-----------------------
   0 C :    0.333630
   1 C :   -0.369223
   2 C :   -0.189820
   3 N :    0.133522
   4 C :   -0.189404
   5 N :    0.126201
   6 C :    0.010798
   7 C :   -0.005869
   8 C :   -0.078446
   9 C :    0.116326
  10 C :   -0.092729
  11 C :   -0.023784
  12 S :    0.178353
  13 C :   -0.125139
  14 C :    0.039732
  15 Br:    0.013647
  16 C :    0.136025
  17 O :   -0.167591
  18 C :   -0.091202
  19 C :   -0.044179
  20 C :   -0.022588
  21 C :    0.002591
  22 C :    0.026428
  23 C :    0.037559
  24 C :   -0.051661
  25 S :    0.110524
  26 C :   -0.028665
  27 C :    0.025554
  28 C :    0.038790
  29 C :   -0.046543
  30 S :    0.111565
  31 C :    0.033097
  32 C :   -0.198604
  33 S :    0.146823
  34 C :   -0.004230
  35 S :    0.139754
  36 C :    0.031876
  37 N :   -0.049005
  38 C :    0.054915
  39 C :   -0.098851
  40 C :   -0.000930
  41 C :    0.018532
  42 C :    0.006065
  43 C :   -0.030967
  44 C :    0.043492
  45 C :    0.023079
  46 C :   -0.036225
  47 S :    0.125169
  48 C :   -0.056848
  49 C :    0.036144
  50 C :    0.041427
  51 C :   -0.017672
  52 S :    0.119281
  53 C :    0.000220
  54 C :    0.019434
  55 C :   -0.125366
  56 C :    0.287360
  57 C :   -0.351090
  58 C :   -0.175280
  59 N :    0.133390
  60 C :   -0.221015
  61 N :    0.155276
  62 C :    0.007279
  63 C :   -0.005765
  64 C :    0.135148
  65 O :   -0.156205
  66 C :   -0.073143
  67 C :    0.113270
  68 C :   -0.089966
  69 C :   -0.025512
  70 S :    0.178342
  71 C :   -0.125776
  72 C :    0.040043
  73 Br:    0.014415
  74 H :   -0.017049
  75 H :   -0.011212
  76 H :   -0.007275
  77 H :    0.012250
  78 H :    0.016533
  79 H :   -0.001087
  80 H :   -0.006525
  81 H :   -0.006735
  82 H :   -0.003045
  83 H :   -0.002003
  84 H :    0.059118
  85 H :   -0.018163
  86 H :    0.025154
  87 H :   -0.006856
  88 H :   -0.003402
  89 H :   -0.004476
  90 H :   -0.004205
  91 H :    0.003269
  92 H :    0.012382
  93 H :    0.015776
  94 H :   -0.013839
  95 H :   -0.007939
  96 H :   -0.006455
Sum of atomic charges:    0.0000000

LOEWDIN ATOMIC CHARGES
----------------------
   0 C :    0.072410
   1 C :   -0.159825
   2 C :   -0.019308
   3 N :   -0.071262
   4 C :   -0.019386
   5 N :   -0.074362
   6 C :   -0.017728
   7 C :   -0.048368
   8 C :    0.016625
   9 C :   -0.036485
  10 C :   -0.146044
  11 C :   -0.014116
  12 S :    0.426747
  13 C :   -0.275274
  14 C :   -0.071032
  15 Br:    0.129039
  16 C :    0.081557
  17 O :   -0.160123
  18 C :   -0.108586
  19 C :    0.044265
  20 C :   -0.070240
  21 C :   -0.107113
  22 C :   -0.042801
  23 C :   -0.012440
  24 C :   -0.193898
  25 S :    0.413931
  26 C :   -0.151682
  27 C :   -0.042108
  28 C :   -0.016182
  29 C :   -0.165167
  30 S :    0.406824
  31 C :   -0.054328
  32 C :   -0.187455
  33 S :    0.445813
  34 C :   -0.201996
  35 S :    0.420825
  36 C :   -0.086334
  37 N :   -0.082859
  38 C :   -0.060815
  39 C :   -0.158449
  40 C :   -0.033799
  41 C :   -0.010199
  42 C :   -0.033375
  43 C :   -0.148290
  44 C :   -0.020926
  45 C :   -0.032330
  46 C :   -0.155652
  47 S :    0.412253
  48 C :   -0.184508
  49 C :   -0.012093
  50 C :   -0.030288
  51 C :   -0.105266
  52 S :    0.410608
  53 C :   -0.060799
  54 C :    0.047550
  55 C :   -0.104008
  56 C :    0.067663
  57 C :   -0.155413
  58 C :   -0.020070
  59 N :   -0.066074
  60 C :   -0.023718
  61 N :   -0.065596
  62 C :   -0.015695
  63 C :   -0.050967
  64 C :    0.077605
  65 O :   -0.156165
  66 C :    0.018593
  67 C :   -0.036951
  68 C :   -0.144879
  69 C :   -0.016617
  70 S :    0.426981
  71 C :   -0.275295
  72 C :   -0.070324
  73 Br:    0.129675
  74 H :    0.038398
  75 H :    0.039797
  76 H :    0.037227
  77 H :    0.030812
  78 H :    0.038561
  79 H :    0.038501
  80 H :    0.034556
  81 H :    0.034913
  82 H :    0.036936
  83 H :    0.039974
  84 H :    0.028348
  85 H :    0.031164
  86 H :    0.030145
  87 H :    0.035949
  88 H :    0.037421
  89 H :    0.035347
  90 H :    0.035738
  91 H :    0.040751
  92 H :    0.039023
  93 H :    0.035719
  94 H :    0.039512
  95 H :    0.039660
  96 H :    0.037647

  Mayer bond orders larger than 0.100000
B(  0-C ,  1-C ) :   1.5719 B(  0-C ,  6-C ) :   0.9868 B(  0-C , 18-C ) :   1.1223
B(  1-C ,  2-C ) :   1.1505 B(  1-C ,  4-C ) :   1.1590 B(  2-C ,  3-N ) :   2.9603
B(  4-C ,  5-N ) :   2.9549 B(  6-C ,  7-C ) :   1.2809 B(  6-C , 11-C ) :   1.4222
B(  7-C ,  8-C ) :   1.4306 B(  7-C , 16-C ) :   0.9353 B(  8-C ,  9-C ) :   1.2379
B(  8-C , 74-H ) :   1.0158 B(  9-C , 10-C ) :   1.3200 B(  9-C , 14-C ) :   1.1604
B( 10-C , 11-C ) :   1.3186 B( 10-C , 12-S ) :   1.0824 B( 11-C , 75-H ) :   0.9787
B( 12-S , 13-C ) :   1.0864 B( 13-C , 14-C ) :   1.6187 B( 13-C , 15-Br) :   1.0130
B( 14-C , 76-H ) :   1.0002 B( 16-C , 17-O ) :   2.1808 B( 16-C , 18-C ) :   0.9687
B( 18-C , 19-C ) :   1.4586 B( 19-C , 20-C ) :   1.2828 B( 19-C , 77-H ) :   0.9435
B( 20-C , 21-C ) :   1.3882 B( 20-C , 78-H ) :   0.9771 B( 21-C , 22-C ) :   1.2042
B( 21-C , 25-S ) :   1.0874 B( 22-C , 23-C ) :   1.5085 B( 22-C , 79-H ) :   1.0021
B( 23-C , 24-C ) :   1.2477 B( 23-C , 80-H ) :   0.9948 B( 24-C , 25-S ) :   1.0559
B( 24-C , 26-C ) :   1.4103 B( 26-C , 27-C ) :   1.2351 B( 26-C , 30-S ) :   1.0924
B( 27-C , 28-C ) :   1.5292 B( 27-C , 81-H ) :   0.9932 B( 28-C , 29-C ) :   1.1980
B( 28-C , 82-H ) :   1.0002 B( 29-C , 30-S ) :   1.0390 B( 29-C , 31-C ) :   1.5075
B( 31-C , 32-C ) :   1.2716 B( 31-C , 83-H ) :   0.9435 B( 32-C , 33-S ) :   1.1000
B( 32-C , 34-C ) :   1.3762 B( 33-S , 39-C ) :   1.1125 B( 34-C , 35-S ) :   1.0771
B( 34-C , 38-C ) :   1.3074 B( 35-S , 36-C ) :   1.1065 B( 36-C , 37-N ) :   1.7453
B( 36-C , 84-H ) :   0.9642 B( 37-N , 38-C ) :   1.3280 B( 38-C , 39-C ) :   1.3085
B( 39-C , 40-C ) :   1.2484 B( 40-C , 41-C ) :   1.5088 B( 40-C , 85-H ) :   0.9606
B( 41-C , 42-C ) :   1.2494 B( 41-C , 86-H ) :   0.9559 B( 42-C , 43-C ) :   1.4545
B( 42-C , 87-H ) :   0.9827 B( 43-C , 44-C ) :   1.1945 B( 43-C , 47-S ) :   1.0530
B( 44-C , 45-C ) :   1.5287 B( 44-C , 88-H ) :   1.0010 B( 45-C , 46-C ) :   1.2349
B( 45-C , 89-H ) :   0.9954 B( 46-C , 47-S ) :   1.0837 B( 46-C , 48-C ) :   1.4147
B( 48-C , 49-C ) :   1.2403 B( 48-C , 52-S ) :   1.0590 B( 49-C , 50-C ) :   1.5216
B( 49-C , 90-H ) :   0.9958 B( 50-C , 51-C ) :   1.2004 B( 50-C , 91-H ) :   0.9999
B( 51-C , 52-S ) :   1.0828 B( 51-C , 53-C ) :   1.4792 B( 53-C , 54-C ) :   1.2350
B( 53-C , 92-H ) :   0.9604 B( 54-C , 55-C ) :   1.5123 B( 54-C , 93-H ) :   0.9427
B( 55-C , 56-C ) :   1.1005 B( 55-C , 64-C ) :   0.9658 B( 56-C , 57-C ) :   1.5841
B( 56-C , 62-C ) :   1.0047 B( 57-C , 58-C ) :   1.1346 B( 57-C , 60-C ) :   1.1702
B( 58-C , 59-N ) :   2.9723 B( 60-C , 61-N ) :   3.0110 B( 62-C , 63-C ) :   1.2773
B( 62-C , 69-C ) :   1.4211 B( 63-C , 64-C ) :   0.9179 B( 63-C , 66-C ) :   1.4362
B( 64-C , 65-O ) :   2.2486 B( 66-C , 67-C ) :   1.2418 B( 66-C , 94-H ) :   1.0165
B( 67-C , 68-C ) :   1.3178 B( 67-C , 72-C ) :   1.1615 B( 68-C , 69-C ) :   1.3191
B( 68-C , 70-S ) :   1.0827 B( 69-C , 95-H ) :   0.9822 B( 70-S , 71-C ) :   1.0856
B( 71-C , 72-C ) :   1.6202 B( 71-C , 73-Br) :   1.0129 B( 72-C , 96-H ) :   1.0004

-----------------------------------------------------------------------------
         ABSORPTION SPECTRUM VIA TRANSITION ELECTRIC DIPOLE MOMENTS
-----------------------------------------------------------------------------
State   Energy  Wavelength   fosc         T2         TX        TY        TZ
        (cm-1)    (nm)                  (au**2)     (au)      (au)      (au)
-----------------------------------------------------------------------------
   0    5561.7   1798.0   0.985598028  58.33989   1.28961   2.03556   7.24798
   1   11445.1    873.7   0.019737702   0.56774  -0.16660   0.68222  -0.27306
   2   12178.3    821.1   1.458977699  39.44002   0.82654  -5.80348   2.25309
   3   17334.4    576.9   0.086231531   1.63769   1.21083  -0.02367  -0.41355
   4   19420.0    514.9   0.588624127   9.97847  -2.65192  -0.14318   1.71034
   5   20139.5    496.5   0.165062784   2.69821  -1.45583  -0.01765   0.76057
   6   20872.3    479.1   0.093308024   1.47172   0.62550  -0.01636  -1.03932
   7   21907.2    456.5   0.003288083   0.04941   0.14817   0.12615  -0.10744
   8   22551.3    443.4   0.177996590   2.59846   0.29948  -1.20257  -1.03083
   9   23405.6    427.2   0.178301774   2.50791   1.56965   0.00372  -0.21002
  10   23667.0    422.5   0.001373391   0.01910  -0.01371   0.02549  -0.13515
  11   25357.7    394.4   0.076795736   0.99702   0.16630  -0.77721   0.60440
  12   25640.4    390.0   0.009610879   0.12340   0.21453   0.26024  -0.09826
  13   26032.3    384.1   0.004802466   0.06073   0.07275  -0.22074   0.08195
  14   26230.8    381.2   0.109889155   1.37917   0.22143  -1.01621   0.54539
  15   26424.0    378.4   0.043937617   0.54741  -0.06245   0.73286  -0.08015
  16   26680.6    374.8   0.019406719   0.23946   0.21753  -0.43565  -0.04849
  17   26831.3    372.7   0.006112601   0.07500   0.03043  -0.23045  -0.14480
  18   27544.6    363.0   0.031197800   0.37288   0.09877  -0.54264  -0.26204
  19   28746.3    347.9   0.040903467   0.46844   0.47213  -0.44997   0.20751
  20   28967.3    345.2   0.012538008   0.14249  -0.30321  -0.22458  -0.01082
  21   29127.5    343.3   0.045339405   0.51245  -0.13518   0.64015  -0.29048
  22   29366.4    340.5   0.024117397   0.27037   0.49121   0.12285  -0.11829
  23   29762.2    336.0   0.179241553   1.98267   0.54823   1.27421   0.24187
  24   29907.7    334.4   0.018472896   0.20334  -0.04949   0.09463   0.43811
  25   30465.9    328.2   0.183582141   1.98377   0.56773  -1.28788   0.05319
  26   30863.2    324.0   0.274206896   2.92491   0.45528  -1.56174  -0.52783
  27   31428.2    318.2   0.148283420   1.55328   0.04571   1.23399  -0.16868
  28   31771.3    314.7   0.055498144   0.57507  -0.55099  -0.18234  -0.48809
  29   32174.5    310.8   0.047519467   0.48622  -0.13112  -0.44479  -0.52076
  30   32266.6    309.9   0.075055946   0.76579  -0.70657  -0.51569   0.02453
  31   32404.7    308.6   0.157221281   1.59727  -0.04288   1.17617   0.46050
  32   32553.3    307.2   0.073948552   0.74784  -0.66584   0.54807  -0.06416
  33   32695.9    305.8   0.013199529   0.13290  -0.05370   0.28207   0.22463
  34   32780.8    305.1   0.003789601   0.03806   0.11249  -0.15303  -0.04458
  35   32896.5    304.0   0.030929342   0.30953   0.52039  -0.16870  -0.10127
  36   33018.4    302.9   0.039110029   0.38995  -0.00679  -0.62123   0.06305
  37   33224.9    301.0   0.022684205   0.22477   0.39619  -0.11820   0.23201
  38   33772.3    296.1   0.003472463   0.03385  -0.12246   0.13729   0.00232
  39   34367.0    291.0   0.001215197   0.01164  -0.10140   0.00260  -0.03678
  40   34516.9    289.7   0.179662892   1.71357  -0.00679   0.99371   0.85209
  41   34628.2    288.8   0.198425436   1.88644   0.05524   1.06454   0.86611
  42   34821.1    287.2   0.173369171   1.63910   0.69992  -0.89948  -0.58321
  43   34882.3    286.7   0.128735905   1.21498  -0.47442   0.98855   0.11258
  44   35254.6    283.7   0.019921837   0.18603  -0.21552   0.27229   0.25581
  45   35587.3    281.0   0.024791240   0.22934  -0.22409  -0.41811   0.06562
  46   35670.9    280.3   0.004525692   0.04177  -0.10703  -0.07941  -0.15494
  47   35885.9    278.7   0.033028932   0.30300  -0.01217  -0.11862  -0.53738
  48   36058.7    277.3   0.011689488   0.10672   0.18117  -0.13669  -0.23498
  49   36365.8    275.0   0.016624873   0.15050   0.14916   0.25816  -0.24821
  50   36380.1    274.9   0.019177996   0.17355  -0.17102  -0.27540   0.26164
  51   36792.1    271.8   0.012759400   0.11417   0.20268  -0.05118   0.26547
  52   36849.4    271.4   0.010388788   0.09281   0.02652  -0.19502  -0.23254
  53   37049.9    269.9   0.005859532   0.05207  -0.07842  -0.02507  -0.21281
  54   37198.6    268.8   0.035249213   0.31196   0.08439  -0.53733  -0.12693
  55   37552.5    266.3   0.003014104   0.02642  -0.09764  -0.10807   0.07219
  56   37769.3    264.8   0.015492567   0.13504  -0.11474   0.34901   0.00812
  57   38536.2    259.5   0.093661592   0.80014  -0.07207   0.62433   0.63652
  58   38792.6    257.8   0.012993120   0.11027   0.22826   0.24108   0.00663
  59   38882.7    257.2   0.418296786   3.54164   0.46670  -0.66569  -1.69726
  60   39133.0    255.5   0.029255961   0.24612   0.29064   0.05349  -0.39848
  61   39479.3    253.3   0.011686333   0.09745  -0.04389   0.15061   0.26989
  62   39638.6    252.3   0.073260945   0.60846   0.21040   0.01507  -0.75097
  63   39913.1    250.5   0.014927343   0.12312   0.33888  -0.00880  -0.09059
  64   40101.4    249.4   0.006698398   0.05499  -0.04609  -0.11558  -0.19877

FINAL SINGLE POINT ENERGY    -10939.129197285585

DIPOLE MOMENT
-------------
                                X             Y             Z
Electronic contribution:     29.42046    -188.93456      31.05359
Nuclear contribution   :    -30.18117     192.82450     -35.01789
                        -----------------------------------------
Total Dipole Moment    :     -0.76071       3.88995      -3.96431
                        -----------------------------------------
Magnitude (a.u.)       :      5.60590
Magnitude (Debye)      :     14.24906

Rotational constants in cm-1:     0.000430     0.000173     0.000136
Rotational constants in MHz :    12.887696     5.184865     4.091450

                             ****ORCA TERMINATED NORMALLY****
TOTAL RUN TIME: 0 days 0 hours 11 minutes 7 seconds 738 msec
