                         Program Version 4.2.0 -  RELEASE  -
|  1> # ORCA input file
|  2> # SCF done       -210.153572715283          0.000411799723
|  3> ! CAM-B3LYP def2-SVP def2/J RIJCOSX Grid4 TightSCF
|  4> %maxcore 5000
|  5> %tddft
|  6>     Mode sTDDFT
|  7>     Ethresh 5.0
|  8>     maxcore 5000
|  9> end
| 10>
| 11> %pal
| 12>   nprocs 6
| 13>   end
| 14> * xyz 0 1
| 15>    C       -5.46772        -0.43706        -4.45633
| 16>    C       -5.21124         0.23771        -5.62443
| 17>    C       -4.61952        -0.34641        -6.76326
| 18>    N       -4.14144        -0.75915        -7.72240
| 19>    C       -5.49206         1.59709        -5.87147
| 20>    N       -5.68665         2.69163        -6.16161
| 21>    C       -5.17052        -1.84756        -4.22124
| 22>    C       -5.57364        -2.18496        -2.90689
| 23>    C       -5.42704        -3.44709        -2.38617
| 24>    C       -4.85259        -4.42738        -3.20201
| 25>    C       -4.45110        -4.08174        -4.51377
| 26>    C       -4.60051        -2.80468        -5.04036
| 27>    S       -3.76461        -5.44167        -5.35109
| 28>    C       -4.02302        -6.44109        -3.94591
| 29>    C       -4.59379        -5.79327        -2.90300
| 30>   Br       -3.51619        -8.24671        -3.98873
| 31>    C       -6.14563        -0.99228        -2.24688
| 32>    O       -6.58426        -0.94391        -1.11703
| 33>    C       -6.06566         0.09527        -3.24973
| 34>    C       -6.49261         1.38244        -3.04581
| 35>    C       -7.05604         1.87241        -1.85354
| 36>    C       -7.45210         3.17480        -1.74598
| 37>    C       -8.00858         3.73900        -0.58366
| 38>    O       -8.37810         5.04857        -0.58255
| 39>    C       -8.87947         5.35954         0.64314
| 40>    C       -8.81220         4.23137         1.46475
| 41>    C       -8.26736         3.19432         0.67695
| 42>    O       -8.04166         1.93584         1.07490
| 43>    O       -9.16942         4.03137         2.74338
| 44>    C       -9.37736         6.66114         0.89715
| 45>    C       -9.31374         7.65673        -0.02809
| 46>    C       -9.76188         8.99999         0.10384
| 47>    C      -10.46306         9.49879         1.14755
| 48>    N      -10.88156        10.79308         1.33273
| 49>    C      -10.62515        11.92710         0.64816
| 50>    S       -9.53397        12.02092        -0.69214
| 51>    C       -9.77892        13.74327        -0.76924
| 52>    N       -9.08871        14.43401        -1.77542
| 53>    O       -9.24706        15.63649        -1.84782
| 54>    O       -8.39281        13.75705        -2.51039
| 55>    C      -10.66084        14.21258         0.15670
| 56>    C      -11.18379        13.19131         0.98128
| 57>    C      -12.16491        13.35372         1.99050
| 58>    C      -12.78393        14.50899         2.38065
| 59>    C      -13.74350        14.60421         3.40513
| 60>    C      -14.13097        13.64844         4.32194
| 61>    C      -15.10360        13.80326         5.33857
| 62>    C      -15.25951        12.72102         6.16217
| 63>    C      -14.40585        11.64918         5.84833
| 64>    S      -13.43165        12.04701         4.46228
| 65>    C      -14.17166        10.42349         6.45862
| 66>    C      -14.69778         9.80255         7.60106
| 67>    C      -14.04414         8.64515         7.94323
| 68>    C      -12.95021         8.32666         7.11403
| 69>    S      -12.86463         9.46253         5.80727
| 70>    C      -12.05952         7.25845         7.23234
| 71>    C      -10.88331         7.05923         6.53400
| 72>    C      -10.09112         7.93414         5.77644
| 73>    C       -9.25459         7.39084         4.70687
| 74>    O       -9.15535         6.21595         4.37082
| 75>    C       -8.65464         8.54771         4.01002
| 76>    C       -7.80842         8.58630         2.94111
| 77>    C       -7.47237         9.84020         2.37656
| 78>    C       -8.01600        11.02803         2.94151
| 79>    C       -7.71238        12.26895         2.35167
| 80>    C       -6.89427        12.33054         1.25689
| 81>    C       -6.34486        11.15721         0.70613
| 82>    C       -6.63019         9.93613         1.25423
| 83>    F       -5.54491        11.24257        -0.36179
| 84>    F       -6.62708        13.51635         0.69295
| 85>    C       -8.84322        10.95812         4.08871
| 86>    C       -9.14300         9.73672         4.62195
| 87>    C       -9.91450         9.35165         5.80323
| 88>    C      -10.26666        10.22586         6.81306
| 89>    C      -10.71652         9.80895         8.07727
| 90>    N      -11.06664         9.50810         9.12912
| 91>    C      -10.18591        11.62483         6.70966
| 92>    N      -10.21080        12.77285         6.65604
| 93>    H       -5.74556        -3.67083        -1.38008
| 94>    H       -4.27832        -2.59438        -6.04624
| 95>    H       -4.82373        -6.25716        -1.96121
| 96>    H       -6.39122         2.09274        -3.85666
| 97>    H       -7.16991         1.20333        -1.01462
| 98>    H       -7.34457         3.84699        -2.58801
| 99>    H       -8.30797         1.85609         2.00251
|100>    H       -9.23100         4.86100         3.25655
|101>    H       -9.81089         6.81555         1.87308
|102>    H       -8.84780         7.41204        -0.97210
|103>    H       -9.51521         9.64374        -0.72588
|104>    H      -10.76781         8.85188         1.95653
|105>    H      -11.46132        10.93025         2.15265
|106>    H      -10.92211        15.25206         0.22711
|107>    H      -12.48720        12.44238         2.46795
|108>    H      -12.54668        15.43049         1.86913
|109>    H      -14.23040        15.56487         3.51650
|110>    H      -15.65936        14.71880         5.44159
|111>    H      -15.94493        12.68121         6.98947
|112>    H      -15.51956        10.22048         8.15420
|113>    H      -14.28505         8.04871         8.80460
|114>    H      -12.36440         6.47559         7.91474
|115>    H      -10.51369         6.03793         6.51920
|116>    H       -7.40061         7.68180         2.51766
|117>    H       -8.11867        13.17892         2.76584
|118>    H       -6.20778         9.04564         0.81651
|119>    H       -9.21848        11.87589         4.51197
|120> *
|121>
|122>                          ****END OF INPUT****

CARTESIAN COORDINATES (ANGSTROEM)
---------------------------------
  C     -5.467720   -0.437060   -4.456330
  C     -5.211240    0.237710   -5.624430
  C     -4.619520   -0.346410   -6.763260
  N     -4.141440   -0.759150   -7.722400
  C     -5.492060    1.597090   -5.871470
  N     -5.686650    2.691630   -6.161610
  C     -5.170520   -1.847560   -4.221240
  C     -5.573640   -2.184960   -2.906890
  C     -5.427040   -3.447090   -2.386170
  C     -4.852590   -4.427380   -3.202010
  C     -4.451100   -4.081740   -4.513770
  C     -4.600510   -2.804680   -5.040360
  S     -3.764610   -5.441670   -5.351090
  C     -4.023020   -6.441090   -3.945910
  C     -4.593790   -5.793270   -2.903000
  Br    -3.516190   -8.246710   -3.988730
  C     -6.145630   -0.992280   -2.246880
  O     -6.584260   -0.943910   -1.117030
  C     -6.065660    0.095270   -3.249730
  C     -6.492610    1.382440   -3.045810
  C     -7.056040    1.872410   -1.853540
  C     -7.452100    3.174800   -1.745980
  C     -8.008580    3.739000   -0.583660
  O     -8.378100    5.048570   -0.582550
  C     -8.879470    5.359540    0.643140
  C     -8.812200    4.231370    1.464750
  C     -8.267360    3.194320    0.676950
  O     -8.041660    1.935840    1.074900
  O     -9.169420    4.031370    2.743380
  C     -9.377360    6.661140    0.897150
  C     -9.313740    7.656730   -0.028090
  C     -9.761880    8.999990    0.103840
  C    -10.463060    9.498790    1.147550
  N    -10.881560   10.793080    1.332730
  C    -10.625150   11.927100    0.648160
  S     -9.533970   12.020920   -0.692140
  C     -9.778920   13.743270   -0.769240
  N     -9.088710   14.434010   -1.775420
  O     -9.247060   15.636490   -1.847820
  O     -8.392810   13.757050   -2.510390
  C    -10.660840   14.212580    0.156700
  C    -11.183790   13.191310    0.981280
  C    -12.164910   13.353720    1.990500
  C    -12.783930   14.508990    2.380650
  C    -13.743500   14.604210    3.405130
  C    -14.130970   13.648440    4.321940
  C    -15.103600   13.803260    5.338570
  C    -15.259510   12.721020    6.162170
  C    -14.405850   11.649180    5.848330
  S    -13.431650   12.047010    4.462280
  C    -14.171660   10.423490    6.458620
  C    -14.697780    9.802550    7.601060
  C    -14.044140    8.645150    7.943230
  C    -12.950210    8.326660    7.114030
  S    -12.864630    9.462530    5.807270
  C    -12.059520    7.258450    7.232340
  C    -10.883310    7.059230    6.534000
  C    -10.091120    7.934140    5.776440
  C     -9.254590    7.390840    4.706870
  O     -9.155350    6.215950    4.370820
  C     -8.654640    8.547710    4.010020
  C     -7.808420    8.586300    2.941110
  C     -7.472370    9.840200    2.376560
  C     -8.016000   11.028030    2.941510
  C     -7.712380   12.268950    2.351670
  C     -6.894270   12.330540    1.256890
  C     -6.344860   11.157210    0.706130
  C     -6.630190    9.936130    1.254230
  F     -5.544910   11.242570   -0.361790
  F     -6.627080   13.516350    0.692950
  C     -8.843220   10.958120    4.088710
  C     -9.143000    9.736720    4.621950
  C     -9.914500    9.351650    5.803230
  C    -10.266660   10.225860    6.813060
  C    -10.716520    9.808950    8.077270
  N    -11.066640    9.508100    9.129120
  C    -10.185910   11.624830    6.709660
  N    -10.210800   12.772850    6.656040
  H     -5.745560   -3.670830   -1.380080
  H     -4.278320   -2.594380   -6.046240
  H     -4.823730   -6.257160   -1.961210
  H     -6.391220    2.092740   -3.856660
  H     -7.169910    1.203330   -1.014620
  H     -7.344570    3.846990   -2.588010
  H     -8.307970    1.856090    2.002510
  H     -9.231000    4.861000    3.256550
  H     -9.810890    6.815550    1.873080
  H     -8.847800    7.412040   -0.972100
  H     -9.515210    9.643740   -0.725880
  H    -10.767810    8.851880    1.956530
  H    -11.461320   10.930250    2.152650
  H    -10.922110   15.252060    0.227110
  H    -12.487200   12.442380    2.467950
  H    -12.546680   15.430490    1.869130
  H    -14.230400   15.564870    3.516500
  H    -15.659360   14.718800    5.441590
  H    -15.944930   12.681210    6.989470
  H    -15.519560   10.220480    8.154200
  H    -14.285050    8.048710    8.804600
  H    -12.364400    6.475590    7.914740
  H    -10.513690    6.037930    6.519200
  H     -7.400610    7.681800    2.517660
  H     -8.118670   13.178920    2.765840
  H     -6.207780    9.045640    0.816510
  H     -9.218480   11.875890    4.511970

 Total Charge           Charge          ....    0
 Multiplicity           Mult            ....    1
 Number of Electrons    NEL             ....  590
 Basis Dimension        Dim             .... 1261

ORBITAL ENERGIES
----------------

  NO   OCC          E(Eh)            E(eV)
   0   2.0000    -482.877491    -13139.7645
   1   2.0000     -89.004144     -2421.9259
   2   2.0000     -88.988944     -2421.5123
   3   2.0000     -88.983559     -2421.3657
   4   2.0000     -88.965324     -2420.8695
   5   2.0000     -62.555221     -1702.2141
   6   2.0000     -56.389161     -1534.4271
   7   2.0000     -56.386462     -1534.3536
   8   2.0000     -56.386427     -1534.3527
   9   2.0000     -24.801570      -674.8850
  10   2.0000     -24.797691      -674.7795
  11   2.0000     -19.288957      -524.8792
  12   2.0000     -19.264341      -524.2094
  13   2.0000     -19.247653      -523.7553
  14   2.0000     -19.246875      -523.7341
  15   2.0000     -19.246730      -523.7302
  16   2.0000     -19.228499      -523.2341
  17   2.0000     -19.199596      -522.4476
  18   2.0000     -14.659013      -398.8920
  19   2.0000     -14.509025      -394.8106
  20   2.0000     -14.413908      -392.2224
  21   2.0000     -14.412177      -392.1753
  22   2.0000     -14.401648      -391.8888
  23   2.0000     -14.399938      -391.8422
  24   2.0000     -10.393419      -282.8193
  25   2.0000     -10.382631      -282.5257
  26   2.0000     -10.380955      -282.4802
  27   2.0000     -10.377738      -282.3926
  28   2.0000     -10.360324      -281.9187
  29   2.0000     -10.356160      -281.8054
  30   2.0000     -10.350274      -281.6453
  31   2.0000     -10.349197      -281.6160
  32   2.0000     -10.343935      -281.4728
  33   2.0000     -10.343717      -281.4668
  34   2.0000     -10.342260      -281.4272
  35   2.0000     -10.340599      -281.3820
  36   2.0000     -10.340415      -281.3770
  37   2.0000     -10.339049      -281.3398
  38   2.0000     -10.335968      -281.2560
  39   2.0000     -10.335861      -281.2531
  40   2.0000     -10.333413      -281.1865
  41   2.0000     -10.332040      -281.1491
  42   2.0000     -10.331653      -281.1386
  43   2.0000     -10.330041      -281.0947
  44   2.0000     -10.329140      -281.0702
  45   2.0000     -10.326759      -281.0054
  46   2.0000     -10.325733      -280.9775
  47   2.0000     -10.324275      -280.9378
  48   2.0000     -10.320851      -280.8446
  49   2.0000     -10.318594      -280.7832
  50   2.0000     -10.318042      -280.7682
  51   2.0000     -10.316206      -280.7182
  52   2.0000     -10.314119      -280.6614
  53   2.0000     -10.313860      -280.6544
  54   2.0000     -10.312465      -280.6164
  55   2.0000     -10.311067      -280.5784
  56   2.0000     -10.311056      -280.5781
  57   2.0000     -10.310697      -280.5683
  58   2.0000     -10.309660      -280.5401
  59   2.0000     -10.305924      -280.4384
  60   2.0000     -10.305370      -280.4234
  61   2.0000     -10.303911      -280.3837
  62   2.0000     -10.303886      -280.3830
  63   2.0000     -10.302508      -280.3455
  64   2.0000     -10.302309      -280.3401
  65   2.0000     -10.302001      -280.3317
  66   2.0000     -10.297864      -280.2191
  67   2.0000     -10.297372      -280.2057
  68   2.0000     -10.297134      -280.1993
  69   2.0000     -10.296921      -280.1935
  70   2.0000     -10.295979      -280.1678
  71   2.0000     -10.294624      -280.1309
  72   2.0000     -10.294487      -280.1272
  73   2.0000     -10.294281      -280.1216
  74   2.0000     -10.293061      -280.0884
  75   2.0000     -10.292752      -280.0800
  76   2.0000     -10.288640      -279.9681
  77   2.0000     -10.288317      -279.9593
  78   2.0000     -10.287210      -279.9292
  79   2.0000     -10.278201      -279.6841
  80   2.0000     -10.276691      -279.6430
  81   2.0000     -10.266497      -279.3656
  82   2.0000      -8.784658      -239.0427
  83   2.0000      -8.098050      -220.3592
  84   2.0000      -8.084797      -219.9985
  85   2.0000      -8.078628      -219.8306
  86   2.0000      -8.061297      -219.3591
  87   2.0000      -6.620924      -180.1645
  88   2.0000      -6.606405      -179.7694
  89   2.0000      -6.606220      -179.7644
  90   2.0000      -6.067840      -165.1143
  91   2.0000      -6.063307      -164.9910
  92   2.0000      -6.059549      -164.8887
  93   2.0000      -6.054415      -164.7490
  94   2.0000      -6.050321      -164.6376
  95   2.0000      -6.048007      -164.5746
  96   2.0000      -6.046064      -164.5218
  97   2.0000      -6.043796      -164.4600
  98   2.0000      -6.040573      -164.3723
  99   2.0000      -6.031007      -164.1120
 100   2.0000      -6.026714      -163.9952
 101   2.0000      -6.022509      -163.8808
 102   2.0000      -2.736784       -74.4717
 103   2.0000      -2.732706       -74.3607
 104   2.0000      -2.732627       -74.3586
 105   2.0000      -2.721057       -74.0437
 106   2.0000      -2.721043       -74.0433
 107   2.0000      -1.329136       -36.1676
 108   2.0000      -1.322605       -35.9899
 109   2.0000      -1.307874       -35.5891
 110   2.0000      -1.209566       -32.9140
 111   2.0000      -1.162440       -31.6316
 112   2.0000      -1.149082       -31.2681
 113   2.0000      -1.141751       -31.0686
 114   2.0000      -1.133267       -30.8378
 115   2.0000      -1.114323       -30.3223
 116   2.0000      -1.109295       -30.1855
 117   2.0000      -1.034969       -28.1629
 118   2.0000      -1.020725       -27.7754
 119   2.0000      -1.019566       -27.7438
 120   2.0000      -1.010188       -27.4886
 121   2.0000      -1.008213       -27.4349
 122   2.0000      -1.003750       -27.3134
 123   2.0000      -1.000162       -27.2158
 124   2.0000      -0.991703       -26.9856
 125   2.0000      -0.981786       -26.7158
 126   2.0000      -0.979998       -26.6671
 127   2.0000      -0.975154       -26.5353
 128   2.0000      -0.953409       -25.9436
 129   2.0000      -0.934828       -25.4380
 130   2.0000      -0.933970       -25.4146
 131   2.0000      -0.930792       -25.3281
 132   2.0000      -0.921978       -25.0883
 133   2.0000      -0.914477       -24.8842
 134   2.0000      -0.909367       -24.7451
 135   2.0000      -0.899670       -24.4813
 136   2.0000      -0.896052       -24.3828
 137   2.0000      -0.894707       -24.3462
 138   2.0000      -0.891038       -24.2464
 139   2.0000      -0.888294       -24.1717
 140   2.0000      -0.884499       -24.0684
 141   2.0000      -0.882812       -24.0225
 142   2.0000      -0.873847       -23.7786
 143   2.0000      -0.865553       -23.5529
 144   2.0000      -0.863512       -23.4973
 145   2.0000      -0.854149       -23.2426
 146   2.0000      -0.846251       -23.0276
 147   2.0000      -0.842337       -22.9212
 148   2.0000      -0.840893       -22.8819
 149   2.0000      -0.825688       -22.4681
 150   2.0000      -0.817678       -22.2501
 151   2.0000      -0.813251       -22.1297
 152   2.0000      -0.797955       -21.7134
 153   2.0000      -0.785403       -21.3719
 154   2.0000      -0.769355       -20.9352
 155   2.0000      -0.765434       -20.8285
 156   2.0000      -0.756712       -20.5912
 157   2.0000      -0.746105       -20.3026
 158   2.0000      -0.743544       -20.2329
 159   2.0000      -0.732902       -19.9433
 160   2.0000      -0.730496       -19.8778
 161   2.0000      -0.721883       -19.6434
 162   2.0000      -0.718312       -19.5463
 163   2.0000      -0.716696       -19.5023
 164   2.0000      -0.704938       -19.1823
 165   2.0000      -0.700379       -19.0583
 166   2.0000      -0.693786       -18.8789
 167   2.0000      -0.690914       -18.8007
 168   2.0000      -0.683575       -18.6010
 169   2.0000      -0.677980       -18.4488
 170   2.0000      -0.677120       -18.4254
 171   2.0000      -0.670846       -18.2547
 172   2.0000      -0.665429       -18.1072
 173   2.0000      -0.661596       -18.0029
 174   2.0000      -0.656069       -17.8525
 175   2.0000      -0.652832       -17.7645
 176   2.0000      -0.649864       -17.6837
 177   2.0000      -0.645386       -17.5619
 178   2.0000      -0.644106       -17.5270
 179   2.0000      -0.642577       -17.4854
 180   2.0000      -0.641796       -17.4642
 181   2.0000      -0.640296       -17.4233
 182   2.0000      -0.632035       -17.1985
 183   2.0000      -0.626607       -17.0508
 184   2.0000      -0.623951       -16.9786
 185   2.0000      -0.616889       -16.7864
 186   2.0000      -0.614201       -16.7133
 187   2.0000      -0.612968       -16.6797
 188   2.0000      -0.608782       -16.5658
 189   2.0000      -0.604415       -16.4470
 190   2.0000      -0.594059       -16.1652
 191   2.0000      -0.590370       -16.0648
 192   2.0000      -0.589595       -16.0437
 193   2.0000      -0.588462       -16.0129
 194   2.0000      -0.585671       -15.9369
 195   2.0000      -0.581532       -15.8243
 196   2.0000      -0.580196       -15.7879
 197   2.0000      -0.575334       -15.6556
 198   2.0000      -0.570372       -15.5206
 199   2.0000      -0.566874       -15.4254
 200   2.0000      -0.566116       -15.4048
 201   2.0000      -0.560926       -15.2636
 202   2.0000      -0.558365       -15.1939
 203   2.0000      -0.555272       -15.1097
 204   2.0000      -0.552448       -15.0329
 205   2.0000      -0.549499       -14.9526
 206   2.0000      -0.547499       -14.8982
 207   2.0000      -0.545052       -14.8316
 208   2.0000      -0.540457       -14.7066
 209   2.0000      -0.539676       -14.6853
 210   2.0000      -0.537709       -14.6318
 211   2.0000      -0.535031       -14.5589
 212   2.0000      -0.534549       -14.5458
 213   2.0000      -0.532691       -14.4953
 214   2.0000      -0.530361       -14.4319
 215   2.0000      -0.525423       -14.2975
 216   2.0000      -0.523542       -14.2463
 217   2.0000      -0.523102       -14.2343
 218   2.0000      -0.520510       -14.1638
 219   2.0000      -0.516226       -14.0472
 220   2.0000      -0.513251       -13.9663
 221   2.0000      -0.511527       -13.9194
 222   2.0000      -0.509184       -13.8556
 223   2.0000      -0.506520       -13.7831
 224   2.0000      -0.499643       -13.5960
 225   2.0000      -0.498675       -13.5696
 226   2.0000      -0.496966       -13.5231
 227   2.0000      -0.495462       -13.4822
 228   2.0000      -0.494745       -13.4627
 229   2.0000      -0.494115       -13.4456
 230   2.0000      -0.490810       -13.3556
 231   2.0000      -0.488885       -13.3032
 232   2.0000      -0.486736       -13.2448
 233   2.0000      -0.483026       -13.1438
 234   2.0000      -0.482301       -13.1241
 235   2.0000      -0.479750       -13.0547
 236   2.0000      -0.479176       -13.0390
 237   2.0000      -0.476947       -12.9784
 238   2.0000      -0.476410       -12.9638
 239   2.0000      -0.468738       -12.7550
 240   2.0000      -0.467749       -12.7281
 241   2.0000      -0.464470       -12.6389
 242   2.0000      -0.463640       -12.6163
 243   2.0000      -0.460737       -12.5373
 244   2.0000      -0.457892       -12.4599
 245   2.0000      -0.455169       -12.3858
 246   2.0000      -0.453605       -12.3432
 247   2.0000      -0.451383       -12.2828
 248   2.0000      -0.449613       -12.2346
 249   2.0000      -0.449103       -12.2207
 250   2.0000      -0.446722       -12.1559
 251   2.0000      -0.444731       -12.1017
 252   2.0000      -0.442925       -12.0526
 253   2.0000      -0.436490       -11.8775
 254   2.0000      -0.435906       -11.8616
 255   2.0000      -0.435336       -11.8461
 256   2.0000      -0.430621       -11.7178
 257   2.0000      -0.430292       -11.7088
 258   2.0000      -0.429096       -11.6763
 259   2.0000      -0.427346       -11.6287
 260   2.0000      -0.425715       -11.5843
 261   2.0000      -0.422370       -11.4933
 262   2.0000      -0.416640       -11.3373
 263   2.0000      -0.415117       -11.2959
 264   2.0000      -0.414394       -11.2762
 265   2.0000      -0.412710       -11.2304
 266   2.0000      -0.409070       -11.1314
 267   2.0000      -0.402333       -10.9480
 268   2.0000      -0.397150       -10.8070
 269   2.0000      -0.394378       -10.7316
 270   2.0000      -0.393348       -10.7035
 271   2.0000      -0.393203       -10.6996
 272   2.0000      -0.386481       -10.5167
 273   2.0000      -0.383243       -10.4286
 274   2.0000      -0.376183       -10.2365
 275   2.0000      -0.375898       -10.2287
 276   2.0000      -0.372893       -10.1469
 277   2.0000      -0.369409       -10.0521
 278   2.0000      -0.367116        -9.9897
 279   2.0000      -0.362442        -9.8626
 280   2.0000      -0.356098        -9.6899
 281   2.0000      -0.353566        -9.6210
 282   2.0000      -0.349318        -9.5054
 283   2.0000      -0.341003        -9.2792
 284   2.0000      -0.323103        -8.7921
 285   2.0000      -0.319271        -8.6878
 286   2.0000      -0.316774        -8.6199
 287   2.0000      -0.316062        -8.6005
 288   2.0000      -0.303827        -8.2676
 289   2.0000      -0.299395        -8.1469
 290   2.0000      -0.296499        -8.0682
 291   2.0000      -0.284086        -7.7304
 292   2.0000      -0.277549        -7.5525
 293   2.0000      -0.251444        -6.8421
 294   2.0000      -0.233193        -6.3455
 295   0.0000      -0.130069        -3.5394
 296   0.0000      -0.088905        -2.4192
 297   0.0000      -0.076300        -2.0762
 298   0.0000      -0.069059        -1.8792
 299   0.0000      -0.064758        -1.7622

MULLIKEN ATOMIC CHARGES
-----------------------
   0 C :    0.339248
   1 C :   -0.370110
   2 C :   -0.186847
   3 N :    0.141537
   4 C :   -0.188872
   5 N :    0.136095
   6 C :    0.011873
   7 C :   -0.010759
   8 C :   -0.076557
   9 C :    0.120243
  10 C :   -0.092232
  11 C :   -0.023194
  12 S :    0.180532
  13 C :   -0.124326
  14 C :    0.038432
  15 Br:    0.015478
  16 C :    0.137769
  17 O :   -0.151663
  18 C :   -0.072452
  19 C :   -0.039175
  20 C :   -0.032950
  21 C :    0.010925
  22 C :    0.122958
  23 O :   -0.222188
  24 C :    0.072176
  25 C :    0.112103
  26 C :    0.069413
  27 O :   -0.142865
  28 O :   -0.216907
  29 C :   -0.038839
  30 C :   -0.000061
  31 C :   -0.003276
  32 C :    0.040760
  33 N :    0.005027
  34 C :   -0.087555
  35 S :    0.148287
  36 C :    0.008762
  37 N :    0.278057
  38 O :   -0.244345
  39 O :   -0.254729
  40 C :    0.018606
  41 C :    0.112638
  42 C :   -0.014151
  43 C :   -0.002500
  44 C :    0.047365
  45 C :   -0.036437
  46 C :    0.066073
  47 C :    0.018490
  48 C :    0.026961
  49 S :    0.032591
  50 C :   -0.059010
  51 C :    0.043455
  52 C :    0.069773
  53 C :   -0.064746
  54 S :    0.096991
  55 C :    0.027929
  56 C :    0.014791
  57 C :   -0.145780
  58 C :    0.190175
  59 O :   -0.239444
  60 C :    0.004164
  61 C :   -0.102213
  62 C :    0.123286
  63 C :    0.123415
  64 C :   -0.122746
  65 C :    0.250667
  66 C :    0.233717
  67 C :   -0.111977
  68 F :   -0.166544
  69 F :   -0.172795
  70 C :   -0.138799
  71 C :    0.039150
  72 C :    0.275898
  73 C :   -0.342699
  74 C :   -0.209265
  75 N :    0.159851
  76 C :   -0.174475
  77 N :    0.127277
  78 H :   -0.015420
  79 H :   -0.010612
  80 H :   -0.006355
  81 H :    0.004829
  82 H :    0.040645
  83 H :    0.007730
  84 H :    0.199163
  85 H :    0.200866
  86 H :   -0.025526
  87 H :    0.005855
  88 H :    0.014291
  89 H :    0.021778
  90 H :    0.148215
  91 H :    0.013958
  92 H :   -0.019422
  93 H :   -0.005213
  94 H :    0.006602
  95 H :    0.006963
  96 H :    0.002118
  97 H :   -0.002221
  98 H :   -0.000746
  99 H :    0.003570
 100 H :    0.023306
 101 H :   -0.008518
 102 H :    0.000784
 103 H :   -0.000251
 104 H :   -0.015840
Sum of atomic charges:   -0.0000000

LOEWDIN ATOMIC CHARGES
----------------------
   0 C :    0.076568
   1 C :   -0.151923
   2 C :   -0.018215
   3 N :   -0.064805
   4 C :   -0.019631
   5 N :   -0.063423
   6 C :   -0.019572
   7 C :   -0.048638
   8 C :    0.017873
   9 C :   -0.034684
  10 C :   -0.145358
  11 C :   -0.012132
  12 S :    0.427758
  13 C :   -0.273913
  14 C :   -0.071187
  15 Br:    0.130816
  16 C :    0.081445
  17 O :   -0.148028
  18 C :   -0.109675
  19 C :    0.066139
  20 C :   -0.040668
  21 C :    0.023440
  22 C :   -0.010322
  23 O :   -0.003667
  24 C :    0.000229
  25 C :   -0.013273
  26 C :    0.019692
  27 O :   -0.017543
  28 O :   -0.061400
  29 C :   -0.039086
  30 C :   -0.028267
  31 C :   -0.076967
  32 C :    0.018250
  33 N :    0.066960
  34 C :   -0.083926
  35 S :    0.498428
  36 C :   -0.204125
  37 N :    0.273693
  38 O :   -0.210077
  39 O :   -0.221233
  40 C :    0.008920
  41 C :   -0.113279
  42 C :    0.009389
  43 C :   -0.053310
  44 C :    0.007193
  45 C :   -0.166922
  46 C :    0.012747
  47 C :   -0.051599
  48 C :   -0.122923
  49 S :    0.406918
  50 C :   -0.203061
  51 C :   -0.010273
  52 C :   -0.033216
  53 C :   -0.110895
  54 S :    0.466557
  55 C :   -0.071383
  56 C :    0.036496
  57 C :   -0.136095
  58 C :    0.102312
  59 O :   -0.191036
  60 C :   -0.062696
  61 C :    0.030229
  62 C :   -0.014018
  63 C :   -0.010565
  64 C :   -0.041208
  65 C :    0.056505
  66 C :    0.058729
  67 C :   -0.029879
  68 F :   -0.045261
  69 F :   -0.049347
  70 C :   -0.010322
  71 C :   -0.017340
  72 C :    0.034675
  73 C :   -0.172214
  74 C :   -0.022105
  75 N :   -0.057568
  76 C :   -0.022770
  77 N :   -0.074952
  78 H :    0.038910
  79 H :    0.039975
  80 H :    0.037568
  81 H :    0.039958
  82 H :    0.034561
  83 H :    0.043265
  84 H :    0.109110
  85 H :    0.068759
  86 H :    0.027095
  87 H :    0.034968
  88 H :    0.016422
  89 H :    0.030282
  90 H :    0.096614
  91 H :    0.047012
  92 H :   -0.000202
  93 H :    0.034586
  94 H :    0.045514
  95 H :    0.041929
  96 H :    0.039191
  97 H :    0.038281
  98 H :    0.039828
  99 H :    0.042369
 100 H :    0.044499
 101 H :    0.038258
 102 H :    0.044026
 103 H :    0.045169
 104 H :    0.036065

  Mayer bond orders larger than 0.100000
B(  0-C ,  1-C ) :   1.5990 B(  0-C ,  6-C ) :   0.9952 B(  0-C , 18-C ) :   1.0921
B(  1-C ,  2-C ) :   1.1469 B(  1-C ,  4-C ) :   1.1537 B(  2-C ,  3-N ) :   2.9648
B(  4-C ,  5-N ) :   2.9577 B(  6-C ,  7-C ) :   1.2808 B(  6-C , 11-C ) :   1.4121
B(  7-C ,  8-C ) :   1.4283 B(  7-C , 16-C ) :   0.9354 B(  8-C ,  9-C ) :   1.2420
B(  8-C , 78-H ) :   1.0156 B(  9-C , 10-C ) :   1.3126 B(  9-C , 14-C ) :   1.1598
B( 10-C , 11-C ) :   1.3292 B( 10-C , 12-S ) :   1.0821 B( 11-C , 79-H ) :   0.9783
B( 12-S , 13-C ) :   1.0862 B( 13-C , 14-C ) :   1.6197 B( 13-C , 15-Br) :   1.0141
B( 14-C , 80-H ) :   1.0000 B( 16-C , 17-O ) :   2.2029 B( 16-C , 18-C ) :   0.9568
B( 18-C , 19-C ) :   1.4750 B( 19-C , 20-C ) :   1.2065 B( 19-C , 81-H ) :   0.9622
B( 20-C , 21-C ) :   1.4827 B( 20-C , 82-H ) :   0.9765 B( 21-C , 22-C ) :   1.1776
B( 21-C , 83-H ) :   0.9739 B( 22-C , 23-O ) :   1.0899 B( 22-C , 24-C ) :   0.1019
B( 22-C , 26-C ) :   1.3619 B( 23-O , 24-C ) :   1.1246 B( 24-C , 25-C ) :   1.2778
B( 24-C , 29-C ) :   1.1975 B( 25-C , 26-C ) :   1.2409 B( 25-C , 28-O ) :   1.2857
B( 26-C , 27-O ) :   1.2844 B( 27-O , 84-H ) :   0.9401 B( 28-O , 85-H ) :   0.8946
B( 29-C , 30-C ) :   1.6505 B( 29-C , 86-H ) :   0.9462 B( 30-C , 31-C ) :   1.1649
B( 30-C , 87-H ) :   0.9729 B( 31-C , 32-C ) :   1.6869 B( 31-C , 88-H ) :   0.9480
B( 32-C , 33-N ) :   1.1193 B( 32-C , 89-H ) :   0.9492 B( 33-N , 34-C ) :   1.2840
B( 33-N , 90-H ) :   0.9008 B( 34-C , 35-S ) :   1.1467 B( 34-C , 41-C ) :   1.2649
B( 35-S , 36-C ) :   1.0589 B( 36-C , 37-N ) :   0.9629 B( 36-C , 40-C ) :   1.5303
B( 37-N , 38-O ) :   1.5351 B( 37-N , 39-O ) :   1.5167 B( 38-O , 39-O ) :   0.2625
B( 40-C , 41-C ) :   1.2092 B( 40-C , 91-H ) :   0.9980 B( 41-C , 42-C ) :   1.1896
B( 42-C , 43-C ) :   1.5737 B( 42-C , 92-H ) :   0.9305 B( 43-C , 44-C ) :   1.2481
B( 43-C , 93-H ) :   0.9704 B( 44-C , 45-C ) :   1.5125 B( 44-C , 94-H ) :   0.9620
B( 45-C , 46-C ) :   1.1969 B( 45-C , 49-S ) :   1.0248 B( 46-C , 47-C ) :   1.5268
B( 46-C , 95-H ) :   0.9968 B( 47-C , 48-C ) :   1.2423 B( 47-C , 96-H ) :   0.9965
B( 48-C , 49-S ) :   1.1009 B( 48-C , 50-C ) :   1.3866 B( 50-C , 51-C ) :   1.2607
B( 50-C , 54-S ) :   1.0487 B( 51-C , 52-C ) :   1.5017 B( 51-C , 97-H ) :   0.9947
B( 52-C , 53-C ) :   1.2360 B( 52-C , 98-H ) :   0.9961 B( 53-C , 54-S ) :   1.1566
B( 53-C , 55-C ) :   1.3218 B( 55-C , 56-C ) :   1.4608 B( 55-C , 99-H ) :   0.9581
B( 56-C , 57-C ) :   1.3101 B( 56-C ,100-H ) :   0.9419 B( 57-C , 58-C ) :   1.0568
B( 57-C , 72-C ) :   1.1663 B( 58-C , 59-O ) :   1.9926 B( 58-C , 60-C ) :   0.9373
B( 59-O , 85-H ) :   0.1283 B( 60-C , 61-C ) :   1.4658 B( 60-C , 71-C ) :   1.2139
B( 61-C , 62-C ) :   1.1766 B( 61-C ,101-H ) :   1.0096 B( 62-C , 63-C ) :   1.2732
B( 62-C , 67-C ) :   1.1947 B( 63-C , 64-C ) :   1.1948 B( 63-C , 70-C ) :   1.1691
B( 64-C , 65-C ) :   1.4251 B( 64-C , 67-C ) :   0.1066 B( 64-C ,102-H ) :   1.0105
B( 65-C , 66-C ) :   1.1995 B( 65-C , 69-F ) :   1.1238 B( 66-C , 67-C ) :   1.4259
B( 66-C , 68-F ) :   1.1431 B( 67-C ,103-H ) :   1.0113 B( 70-C , 71-C ) :   1.4718
B( 70-C ,104-H ) :   1.0012 B( 71-C , 72-C ) :   0.9820 B( 72-C , 73-C ) :   1.5325
B( 73-C , 74-C ) :   1.1814 B( 73-C , 76-C ) :   1.1421 B( 74-C , 75-N ) :   2.9844
B( 76-C , 77-N ) :   2.9547

-----------------------------------------------------------------------------
         ABSORPTION SPECTRUM VIA TRANSITION ELECTRIC DIPOLE MOMENTS
-----------------------------------------------------------------------------
State   Energy  Wavelength   fosc         T2         TX        TY        TZ
        (cm-1)    (nm)                  (au**2)     (au)      (au)      (au)
-----------------------------------------------------------------------------
   0    8740.4   1144.1   0.195904893   7.37883   0.24784  -0.09076  -2.70355
   1   12681.4    788.6   0.411040515  10.67068  -1.89697   2.65657  -0.12184
   2   16700.8    598.8   1.717035090  33.84680   2.45550  -4.77534  -2.23907
   3   18759.0    533.1   0.024116816   0.42324   0.18016  -0.28832  -0.55466
   4   19605.7    510.1   0.115933802   1.94672  -1.25651  -0.01367   0.60640
   5   19790.9    505.3   0.042517735   0.70726  -0.03979  -0.77515  -0.32375
   6   20510.1    487.6   0.074925285   1.20264   0.77730   0.62213   0.45978
   7   21907.2    456.5   0.085740331   1.28847  -0.76141  -0.57359   0.61621
   8   22650.1    441.5   0.064022704   0.93055   0.40534  -0.87341  -0.05830
   9   23108.9    432.7   0.188220617   2.68141  -0.69639  -0.68110   1.31627
  10   23864.9    419.0   0.437132983   6.03017   1.61232   0.77667  -1.68148
  11   24774.6    403.6   0.053643240   0.71283  -0.12144  -0.75052   0.36715
  12   25099.0    398.4   0.230694449   3.02591  -1.23823   0.33546   1.17480
  13   25525.5    391.8   0.070207461   0.90549  -0.45737  -0.68092   0.48233
  14   26902.9    371.7   0.127834451   1.56432   0.47388  -1.10473   0.34544
  15   27008.7    370.3   0.208805839   2.54515   0.51638   1.29851  -0.76966
  16   27253.4    366.9   0.154133377   1.86188   0.37778   0.70919  -1.10282
  17   27652.5    361.6   0.018407220   0.21914  -0.24534   0.39869  -0.00026
  18   28291.2    353.5   0.000048348   0.00056   0.00163   0.01928  -0.01372
  19   28582.3    349.9   0.163492664   1.88312  -0.01423   1.34498  -0.27193
  20   28703.6    348.4   0.110146772   1.26331   0.44289  -1.01509  -0.19170
  21   28866.1    346.4   0.012172721   0.13883   0.33330  -0.12469  -0.11041
  22   29385.0    340.3   0.037533188   0.42050   0.40525  -0.02914  -0.50539
  23   29561.8    338.3   0.014564339   0.16219  -0.08698  -0.37658   0.11320
  24   29902.3    334.4   0.093142924   1.02546   0.14981  -0.99405   0.12198
  25   30262.0    330.4   0.006672313   0.07259  -0.06434  -0.10842   0.23810
  26   30679.4    326.0   0.088819665   0.95310   0.57493  -0.37658  -0.69336
  27   30868.5    324.0   0.064016589   0.68274  -0.47302   0.01342   0.67735
  28   31057.2    322.0   0.340216638   3.60636   1.12567   0.30738  -1.49825
  29   31552.3    316.9   0.176361637   1.84013   0.40547   0.84561  -0.98014
  30   31603.7    316.4   0.070550767   0.73492  -0.37536   0.64607   0.42025
  31   31767.8    314.8   0.000062559   0.00065  -0.01138  -0.02152  -0.00747
  32   32087.3    311.7   0.017579185   0.18036  -0.05134  -0.29593   0.30025
  33   32200.8    310.6   0.020615633   0.21077  -0.07426   0.45298   0.00814
  34   32473.9    307.9   0.034256572   0.34728  -0.26935   0.51070   0.11797
  35   32764.9    305.2   0.157367085   1.58118   0.61182  -0.02373  -1.09831
  36   33093.9    302.2   0.025001341   0.24871   0.01423  -0.42772   0.25605
  37   33456.7    298.9   0.042076607   0.41403   0.40103  -0.11177  -0.49062
  38   33607.7    297.6   0.086777387   0.85005  -0.39282   0.82204  -0.14138
  39   33891.9    295.1   0.401710605   3.90205   0.08036   1.63652  -1.10336
  40   33948.6    294.6   0.039712788   0.38511  -0.23525   0.37696   0.43320
  41   34184.9    292.5   0.000013142   0.00013  -0.00193   0.01033  -0.00401
  42   34378.9    290.9   0.009345082   0.08949  -0.05574  -0.18885   0.22521
  43   34430.5    290.4   0.178619436   1.70789  -0.51498   1.19801  -0.08643
  44   34682.6    288.3   0.001702674   0.01616  -0.02090  -0.09700   0.07947
  45   34944.2    286.2   0.131762967   1.24135  -0.22869   1.08648  -0.09281
  46   35316.5    283.2   0.129915839   1.21105   0.28384  -1.05630  -0.12128
  47   35474.2    281.9   0.082477141   0.76541   0.32720   0.37862  -0.71763
  48   35574.4    281.1   0.029188379   0.27011   0.07070  -0.48765  -0.16527
  49   35967.8    278.0   0.067526588   0.61807   0.41366  -0.44742  -0.49675
  50   36175.9    276.4   0.036154492   0.32902  -0.38537   0.38955   0.16958
  51   36493.1    274.0   0.102447136   0.92420  -0.42579   0.81207   0.28886
  52   36695.6    272.5   0.096094214   0.86210   0.21572   0.63393  -0.64319
  53   36829.9    271.5   0.011081700   0.09906  -0.12974   0.21555   0.18911
  54   37055.6    269.9   0.014820674   0.13167  -0.12953   0.24919   0.22978
  55   37368.4    267.6   0.094457538   0.83216   0.19038  -0.86911  -0.20138
  56   37786.7    264.6   0.075593775   0.65860  -0.23424  -0.60210   0.49113
  57   37855.3    264.2   0.027498481   0.23914   0.06531   0.15285  -0.45991
  58   38075.9    262.6   0.007133084   0.06167   0.22578   0.06178   0.08295
  59   38507.8    259.7   0.019633475   0.16785  -0.25419   0.30061   0.11345
  60   38940.7    256.8   0.010754608   0.09092   0.12553   0.24695  -0.11908
  61   39100.3    255.8   0.051603274   0.43448  -0.09469  -0.27918   0.58955
  62   39287.7    254.5   0.099648152   0.83500  -0.14083   0.76157   0.48495
  63   39426.1    253.6   0.206848273   1.72720   0.44561   0.46667  -1.14493
  64   39538.3    252.9   0.076899106   0.64029  -0.06910  -0.77053  -0.20445
  65   39814.8    251.2   0.052561009   0.43461   0.38184   0.33461  -0.42053
  66   39826.9    251.1   0.208130862   1.72042   0.58682   0.72277  -0.92394
  67   39994.2    250.0   0.020369805   0.16767  -0.17652  -0.36604  -0.05032
  68   40189.2    248.8   0.008999351   0.07372   0.23812   0.11949  -0.05237

FINAL SINGLE POINT ENERGY     -7443.104272583121

DIPOLE MOMENT
-------------
                                X             Y             Z
Electronic contribution:     81.76004    -157.94785     -73.35513
Nuclear contribution   :    -86.86180     159.99489      77.82002
                        -----------------------------------------
Total Dipole Moment    :     -5.10176       2.04703       4.46489
                        -----------------------------------------
Magnitude (a.u.)       :      7.08192
Magnitude (Debye)      :     18.00080

Rotational constants in cm-1:     0.001298     0.000214     0.000193
Rotational constants in MHz :    38.920894     6.409086     5.771557

                             ****ORCA TERMINATED NORMALLY****
TOTAL RUN TIME: 0 days 0 hours 17 minutes 54 seconds 171 msec
