                         Program Version 4.2.0 -  RELEASE  -
|  1> # ORCA input file
|  2> # SCF done       -198.781024311199          0.000381126698
|  3> ! CAM-B3LYP def2-SVP def2/J RIJCOSX Grid4 TightSCF
|  4> %maxcore 5000
|  5> %tddft
|  6>     Mode sTDDFT
|  7>     Ethresh 5.0
|  8>     maxcore 5000
|  9> end
| 10>
| 11> %pal
| 12>   nprocs 6
| 13>   end
| 14> * xyz 0 1
| 15>    C        0.75169         1.37604        -0.01344
| 16>    C        1.61748         1.90547        -0.92894
| 17>    C        2.69612         1.19047        -1.49268
| 18>    N        3.58099         0.64534        -1.97834
| 19>    C        1.59106         3.25083        -1.36081
| 20>    N        1.65575         4.34423        -1.70239
| 21>    C        0.83281         0.05502         0.59354
| 22>    C       -0.10081        -0.01273         1.65969
| 23>    C       -0.25759        -1.13509         2.43750
| 24>    C        0.53724        -2.24721         2.14315
| 25>    C        1.46343        -2.17292         1.07327
| 26>    C        1.62776        -1.03526         0.29244
| 27>    S        2.33455        -3.66206         0.87903
| 28>    C        1.45756        -4.35600         2.21726
| 29>    C        0.55757        -3.51600         2.78303
| 30>   Br        1.81052        -6.12114         2.73947
| 31>    C       -0.82497         1.26403         1.75576
| 32>    O       -1.63912         1.57748         2.60319
| 33>    C       -0.37117         2.06904         0.60571
| 34>    C       -1.01407         3.14333         0.07232
| 35>    C       -2.16990         3.81356         0.54303
| 36>    C       -2.91926         4.69238        -0.23251
| 37>    C       -2.57669         4.98259        -1.65187
| 38>    O       -2.28130         4.13687        -2.44794
| 39>    O       -2.61482         6.28128        -1.99725
| 40>    C       -4.07662         5.18841         0.43685
| 41>    C       -4.09585         4.74430         1.75121
| 42>    S       -2.83435         3.68773         2.15088
| 43>    C       -5.12023         5.90535        -0.22913
| 44>    C       -6.41847         6.04424         0.16493
| 45>    C       -7.45678         6.58458        -0.65071
| 46>    C       -8.70832         6.41225        -0.15383
| 47>    C       -8.73736         5.76476         1.10493
| 48>    S       -7.11610         5.42744         1.65795
| 49>    C       -9.85092         5.33939         1.80391
| 50>    C       -9.89464         4.73407         3.07449
| 51>    C      -11.14268         4.30334         3.41161
| 52>    C      -12.12208         4.49446         2.40317
| 53>    S      -11.44451         5.37097         1.06289
| 54>    C      -13.37576         3.91158         2.48997
| 55>    C      -14.37323         3.72062         1.53339
| 56>    C      -14.40146         4.26779         0.21710
| 57>    C      -15.33221         3.80897        -0.78476
| 58>    N      -15.34367         4.39017        -1.99488
| 59>    C      -14.47202         5.33107        -2.26578
| 60>    C      -13.48979         5.72142        -1.31090
| 61>    N      -13.50970         5.19831        -0.09620
| 62>    C      -12.46677         6.64017        -1.62952
| 63>    N      -11.61685         7.36002        -1.90519
| 64>    C      -14.51254         5.97466        -3.53039
| 65>    N      -14.50687         6.52267        -4.53560
| 66>    C      -16.18244         2.70398        -0.55706
| 67>    C      -16.25187         2.24311         0.77999
| 68>    C      -15.40757         2.78169         1.81433
| 69>    N      -15.64477         2.22184         2.99382
| 70>    S      -16.82062         1.13416         2.83580
| 71>    N      -17.07397         1.30928         1.25318
| 72>    C      -16.90089         2.12627        -1.63699
| 73>    C      -17.30343         0.83224        -1.77604
| 74>    C      -16.93754        -0.36743        -1.06046
| 75>    C      -15.75935        -0.59909        -0.39474
| 76>    C      -15.45291        -1.79735         0.27908
| 77>    N      -15.15854        -2.73121         0.87941
| 78>    C      -14.67805         0.30063        -0.34917
| 79>    N      -13.74170         0.96546        -0.30017
| 80>    C      -17.92815        -1.38773        -1.38204
| 81>    C      -18.75091        -0.90727        -2.43194
| 82>    C      -18.35248         0.47699        -2.76811
| 83>    O      -18.80545         1.18570        -3.63642
| 84>    C      -19.74167        -1.67061        -2.99892
| 85>    C      -19.93584        -2.96411        -2.50101
| 86>    C      -19.12135        -3.42639        -1.44010
| 87>    C      -18.11414        -2.65750        -0.87033
| 88>    S      -19.53568        -5.04859        -0.97558
| 89>    C      -20.77498        -5.08688        -2.20171
| 90>    C      -20.87798        -3.94349        -2.91968
| 91>   Br      -21.81408        -6.63301        -2.41703
| 92>    H       -0.97364        -1.15601         3.24398
| 93>    H        2.34127        -1.02698        -0.51471
| 94>    H       -0.06799        -3.77997         3.61605
| 95>    H       -0.66827         3.49636        -0.89199
| 96>    H       -2.75508         6.87054        -1.24371
| 97>    H       -4.82340         4.99355         2.49739
| 98>    H       -4.90489         6.26883        -1.22566
| 99>    H       -7.23744         7.04488        -1.59743
|100>    H       -9.61433         6.72015        -0.64774
|101>    H       -9.01855         4.63058         3.69156
|102>    H      -11.38475         3.80719         4.33489
|103>    H      -13.57318         3.39858         3.42472
|104>    H      -17.16884         2.80140        -2.44317
|105>    H      -20.34575        -1.28577        -3.80548
|106>    H      -17.51947        -3.05000        -0.06215
|107>    H      -21.58706        -3.79524        -3.71350
|108> *
|109>
|110>                          ****END OF INPUT****

CARTESIAN COORDINATES (ANGSTROEM)
---------------------------------
  C      0.751690    1.376040   -0.013440
  C      1.617480    1.905470   -0.928940
  C      2.696120    1.190470   -1.492680
  N      3.580990    0.645340   -1.978340
  C      1.591060    3.250830   -1.360810
  N      1.655750    4.344230   -1.702390
  C      0.832810    0.055020    0.593540
  C     -0.100810   -0.012730    1.659690
  C     -0.257590   -1.135090    2.437500
  C      0.537240   -2.247210    2.143150
  C      1.463430   -2.172920    1.073270
  C      1.627760   -1.035260    0.292440
  S      2.334550   -3.662060    0.879030
  C      1.457560   -4.356000    2.217260
  C      0.557570   -3.516000    2.783030
  Br     1.810520   -6.121140    2.739470
  C     -0.824970    1.264030    1.755760
  O     -1.639120    1.577480    2.603190
  C     -0.371170    2.069040    0.605710
  C     -1.014070    3.143330    0.072320
  C     -2.169900    3.813560    0.543030
  C     -2.919260    4.692380   -0.232510
  C     -2.576690    4.982590   -1.651870
  O     -2.281300    4.136870   -2.447940
  O     -2.614820    6.281280   -1.997250
  C     -4.076620    5.188410    0.436850
  C     -4.095850    4.744300    1.751210
  S     -2.834350    3.687730    2.150880
  C     -5.120230    5.905350   -0.229130
  C     -6.418470    6.044240    0.164930
  C     -7.456780    6.584580   -0.650710
  C     -8.708320    6.412250   -0.153830
  C     -8.737360    5.764760    1.104930
  S     -7.116100    5.427440    1.657950
  C     -9.850920    5.339390    1.803910
  C     -9.894640    4.734070    3.074490
  C    -11.142680    4.303340    3.411610
  C    -12.122080    4.494460    2.403170
  S    -11.444510    5.370970    1.062890
  C    -13.375760    3.911580    2.489970
  C    -14.373230    3.720620    1.533390
  C    -14.401460    4.267790    0.217100
  C    -15.332210    3.808970   -0.784760
  N    -15.343670    4.390170   -1.994880
  C    -14.472020    5.331070   -2.265780
  C    -13.489790    5.721420   -1.310900
  N    -13.509700    5.198310   -0.096200
  C    -12.466770    6.640170   -1.629520
  N    -11.616850    7.360020   -1.905190
  C    -14.512540    5.974660   -3.530390
  N    -14.506870    6.522670   -4.535600
  C    -16.182440    2.703980   -0.557060
  C    -16.251870    2.243110    0.779990
  C    -15.407570    2.781690    1.814330
  N    -15.644770    2.221840    2.993820
  S    -16.820620    1.134160    2.835800
  N    -17.073970    1.309280    1.253180
  C    -16.900890    2.126270   -1.636990
  C    -17.303430    0.832240   -1.776040
  C    -16.937540   -0.367430   -1.060460
  C    -15.759350   -0.599090   -0.394740
  C    -15.452910   -1.797350    0.279080
  N    -15.158540   -2.731210    0.879410
  C    -14.678050    0.300630   -0.349170
  N    -13.741700    0.965460   -0.300170
  C    -17.928150   -1.387730   -1.382040
  C    -18.750910   -0.907270   -2.431940
  C    -18.352480    0.476990   -2.768110
  O    -18.805450    1.185700   -3.636420
  C    -19.741670   -1.670610   -2.998920
  C    -19.935840   -2.964110   -2.501010
  C    -19.121350   -3.426390   -1.440100
  C    -18.114140   -2.657500   -0.870330
  S    -19.535680   -5.048590   -0.975580
  C    -20.774980   -5.086880   -2.201710
  C    -20.877980   -3.943490   -2.919680
  Br   -21.814080   -6.633010   -2.417030
  H     -0.973640   -1.156010    3.243980
  H      2.341270   -1.026980   -0.514710
  H     -0.067990   -3.779970    3.616050
  H     -0.668270    3.496360   -0.891990
  H     -2.755080    6.870540   -1.243710
  H     -4.823400    4.993550    2.497390
  H     -4.904890    6.268830   -1.225660
  H     -7.237440    7.044880   -1.597430
  H     -9.614330    6.720150   -0.647740
  H     -9.018550    4.630580    3.691560
  H    -11.384750    3.807190    4.334890
  H    -13.573180    3.398580    3.424720
  H    -17.168840    2.801400   -2.443170
  H    -20.345750   -1.285770   -3.805480
  H    -17.519470   -3.050000   -0.062150
  H    -21.587060   -3.795240   -3.713500

 Total Charge           Charge          ....    0
 Multiplicity           Mult            ....    1
 Number of Electrons    NEL             ....  614
 Basis Dimension        Dim             .... 1218

ORBITAL ENERGIES
----------------

  NO   OCC          E(Eh)            E(eV)
   0   2.0000    -482.892947    -13140.1851
   1   2.0000    -482.879929    -13139.8309
   2   2.0000     -89.029127     -2422.6057
   3   2.0000     -88.995806     -2421.6990
   4   2.0000     -88.984540     -2421.3924
   5   2.0000     -88.983257     -2421.3575
   6   2.0000     -88.979428     -2421.2533
   7   2.0000     -88.968788     -2420.9638
   8   2.0000     -62.570633     -1702.6335
   9   2.0000     -62.557672     -1702.2808
  10   2.0000     -56.404595     -1534.8471
  11   2.0000     -56.401860     -1534.7726
  12   2.0000     -56.401830     -1534.7718
  13   2.0000     -56.391612     -1534.4938
  14   2.0000     -56.388916     -1534.4204
  15   2.0000     -56.388873     -1534.4192
  16   2.0000     -19.284328      -524.7532
  17   2.0000     -19.238351      -523.5021
  18   2.0000     -19.223423      -523.0959
  19   2.0000     -19.202203      -522.5185
  20   2.0000     -14.467925      -393.6923
  21   2.0000     -14.450259      -393.2115
  22   2.0000     -14.448645      -393.1676
  23   2.0000     -14.439065      -392.9069
  24   2.0000     -14.432744      -392.7349
  25   2.0000     -14.427329      -392.5876
  26   2.0000     -14.424903      -392.5216
  27   2.0000     -14.423340      -392.4790
  28   2.0000     -14.409755      -392.1094
  29   2.0000     -14.407205      -392.0400
  30   2.0000     -10.428576      -283.7760
  31   2.0000     -10.386616      -282.6342
  32   2.0000     -10.380899      -282.4786
  33   2.0000     -10.370119      -282.1853
  34   2.0000     -10.367777      -282.1216
  35   2.0000     -10.355050      -281.7752
  36   2.0000     -10.354122      -281.7500
  37   2.0000     -10.352889      -281.7164
  38   2.0000     -10.352286      -281.7000
  39   2.0000     -10.351891      -281.6893
  40   2.0000     -10.349782      -281.6319
  41   2.0000     -10.348161      -281.5878
  42   2.0000     -10.344440      -281.4865
  43   2.0000     -10.343506      -281.4611
  44   2.0000     -10.342661      -281.4381
  45   2.0000     -10.336485      -281.2701
  46   2.0000     -10.336219      -281.2628
  47   2.0000     -10.334678      -281.2209
  48   2.0000     -10.333216      -281.1811
  49   2.0000     -10.330699      -281.1126
  50   2.0000     -10.330305      -281.1019
  51   2.0000     -10.329456      -281.0788
  52   2.0000     -10.328642      -281.0566
  53   2.0000     -10.326937      -281.0102
  54   2.0000     -10.326859      -281.0081
  55   2.0000     -10.326159      -280.9891
  56   2.0000     -10.325396      -280.9683
  57   2.0000     -10.325250      -280.9643
  58   2.0000     -10.325028      -280.9583
  59   2.0000     -10.324093      -280.9329
  60   2.0000     -10.321136      -280.8524
  61   2.0000     -10.320218      -280.8274
  62   2.0000     -10.320102      -280.8242
  63   2.0000     -10.318173      -280.7718
  64   2.0000     -10.317844      -280.7628
  65   2.0000     -10.316576      -280.7283
  66   2.0000     -10.316051      -280.7140
  67   2.0000     -10.314304      -280.6665
  68   2.0000     -10.313824      -280.6534
  69   2.0000     -10.313346      -280.6404
  70   2.0000     -10.310972      -280.5758
  71   2.0000     -10.309713      -280.5416
  72   2.0000     -10.307342      -280.4770
  73   2.0000     -10.305561      -280.4286
  74   2.0000     -10.305358      -280.4230
  75   2.0000     -10.304367      -280.3961
  76   2.0000     -10.301260      -280.3115
  77   2.0000     -10.299154      -280.2542
  78   2.0000     -10.298664      -280.2409
  79   2.0000     -10.296609      -280.1850
  80   2.0000     -10.292860      -280.0830
  81   2.0000     -10.292200      -280.0650
  82   2.0000     -10.290034      -280.0061
  83   2.0000     -10.282740      -279.8076
  84   2.0000     -10.280870      -279.7567
  85   2.0000      -8.800053      -239.4616
  86   2.0000      -8.787121      -239.1097
  87   2.0000      -8.120635      -220.9737
  88   2.0000      -8.089778      -220.1340
  89   2.0000      -8.080636      -219.8853
  90   2.0000      -8.079198      -219.8462
  91   2.0000      -8.072070      -219.6522
  92   2.0000      -8.064689      -219.4513
  93   2.0000      -6.636388      -180.5853
  94   2.0000      -6.623391      -180.2316
  95   2.0000      -6.621775      -180.1877
  96   2.0000      -6.621551      -180.1816
  97   2.0000      -6.608846      -179.8358
  98   2.0000      -6.608703      -179.8320
  99   2.0000      -6.091911      -165.7693
 100   2.0000      -6.084257      -165.5611
 101   2.0000      -6.082852      -165.5228
 102   2.0000      -6.058866      -164.8701
 103   2.0000      -6.054225      -164.7438
 104   2.0000      -6.052648      -164.7009
 105   2.0000      -6.050318      -164.6375
 106   2.0000      -6.048890      -164.5987
 107   2.0000      -6.046028      -164.5208
 108   2.0000      -6.044808      -164.4876
 109   2.0000      -6.041977      -164.4106
 110   2.0000      -6.041835      -164.4067
 111   2.0000      -6.040256      -164.3637
 112   2.0000      -6.037177      -164.2799
 113   2.0000      -6.034386      -164.2040
 114   2.0000      -6.033676      -164.1847
 115   2.0000      -6.030119      -164.0879
 116   2.0000      -6.025952      -163.9745
 117   2.0000      -2.752281       -74.8934
 118   2.0000      -2.748155       -74.7811
 119   2.0000      -2.747969       -74.7760
 120   2.0000      -2.739255       -74.5389
 121   2.0000      -2.736358       -74.4601
 122   2.0000      -2.736357       -74.4601
 123   2.0000      -2.735222       -74.4292
 124   2.0000      -2.735035       -74.4241
 125   2.0000      -2.723506       -74.1104
 126   2.0000      -2.723499       -74.1102
 127   2.0000      -1.206842       -32.8398
 128   2.0000      -1.154179       -31.4068
 129   2.0000      -1.131179       -30.7809
 130   2.0000      -1.122018       -30.5317
 131   2.0000      -1.119102       -30.4523
 132   2.0000      -1.117384       -30.4056
 133   2.0000      -1.046429       -28.4748
 134   2.0000      -1.034036       -28.1375
 135   2.0000      -1.028975       -27.9998
 136   2.0000      -1.023074       -27.8393
 137   2.0000      -1.021007       -27.7830
 138   2.0000      -1.016128       -27.6502
 139   2.0000      -1.014778       -27.6135
 140   2.0000      -1.007146       -27.4058
 141   2.0000      -1.004129       -27.3237
 142   2.0000      -1.002810       -27.2879
 143   2.0000      -1.001996       -27.2657
 144   2.0000      -1.000841       -27.2343
 145   2.0000      -0.989052       -26.9135
 146   2.0000      -0.987281       -26.8653
 147   2.0000      -0.979706       -26.6592
 148   2.0000      -0.972246       -26.4562
 149   2.0000      -0.954720       -25.9793
 150   2.0000      -0.934741       -25.4356
 151   2.0000      -0.933114       -25.3913
 152   2.0000      -0.919393       -25.0180
 153   2.0000      -0.917469       -24.9656
 154   2.0000      -0.909273       -24.7426
 155   2.0000      -0.904378       -24.6094
 156   2.0000      -0.899880       -24.4870
 157   2.0000      -0.896479       -24.3944
 158   2.0000      -0.891719       -24.2649
 159   2.0000      -0.885449       -24.0943
 160   2.0000      -0.877806       -23.8863
 161   2.0000      -0.877159       -23.8687
 162   2.0000      -0.871797       -23.7228
 163   2.0000      -0.860582       -23.4176
 164   2.0000      -0.859232       -23.3809
 165   2.0000      -0.841164       -22.8892
 166   2.0000      -0.838579       -22.8189
 167   2.0000      -0.831108       -22.6156
 168   2.0000      -0.825211       -22.4551
 169   2.0000      -0.820712       -22.3327
 170   2.0000      -0.810584       -22.0571
 171   2.0000      -0.791614       -21.5409
 172   2.0000      -0.782579       -21.2951
 173   2.0000      -0.773378       -21.0447
 174   2.0000      -0.770787       -20.9742
 175   2.0000      -0.754014       -20.5178
 176   2.0000      -0.744928       -20.2705
 177   2.0000      -0.741944       -20.1893
 178   2.0000      -0.733668       -19.9641
 179   2.0000      -0.725323       -19.7370
 180   2.0000      -0.718152       -19.5419
 181   2.0000      -0.709035       -19.2938
 182   2.0000      -0.705276       -19.1915
 183   2.0000      -0.701612       -19.0918
 184   2.0000      -0.699881       -19.0447
 185   2.0000      -0.695449       -18.9241
 186   2.0000      -0.689509       -18.7625
 187   2.0000      -0.687549       -18.7091
 188   2.0000      -0.679150       -18.4806
 189   2.0000      -0.672758       -18.3067
 190   2.0000      -0.667945       -18.1757
 191   2.0000      -0.660577       -17.9752
 192   2.0000      -0.654747       -17.8166
 193   2.0000      -0.652024       -17.7425
 194   2.0000      -0.645119       -17.5546
 195   2.0000      -0.643724       -17.5166
 196   2.0000      -0.638685       -17.3795
 197   2.0000      -0.634043       -17.2532
 198   2.0000      -0.630891       -17.1674
 199   2.0000      -0.622662       -16.9435
 200   2.0000      -0.617346       -16.7988
 201   2.0000      -0.614208       -16.7135
 202   2.0000      -0.611200       -16.6316
 203   2.0000      -0.602405       -16.3923
 204   2.0000      -0.597646       -16.2628
 205   2.0000      -0.589144       -16.0314
 206   2.0000      -0.583602       -15.8806
 207   2.0000      -0.580394       -15.7933
 208   2.0000      -0.577626       -15.7180
 209   2.0000      -0.576485       -15.6870
 210   2.0000      -0.571387       -15.5482
 211   2.0000      -0.567487       -15.4421
 212   2.0000      -0.562338       -15.3020
 213   2.0000      -0.557102       -15.1595
 214   2.0000      -0.555844       -15.1253
 215   2.0000      -0.553549       -15.0628
 216   2.0000      -0.552613       -15.0374
 217   2.0000      -0.550874       -14.9901
 218   2.0000      -0.542578       -14.7643
 219   2.0000      -0.541157       -14.7256
 220   2.0000      -0.536877       -14.6092
 221   2.0000      -0.535258       -14.5651
 222   2.0000      -0.531895       -14.4736
 223   2.0000      -0.531066       -14.4510
 224   2.0000      -0.527684       -14.3590
 225   2.0000      -0.526119       -14.3164
 226   2.0000      -0.525000       -14.2860
 227   2.0000      -0.519704       -14.1419
 228   2.0000      -0.519269       -14.1300
 229   2.0000      -0.515010       -14.0141
 230   2.0000      -0.512109       -13.9352
 231   2.0000      -0.510146       -13.8818
 232   2.0000      -0.506950       -13.7948
 233   2.0000      -0.505056       -13.7433
 234   2.0000      -0.504604       -13.7310
 235   2.0000      -0.502554       -13.6752
 236   2.0000      -0.499576       -13.5941
 237   2.0000      -0.498940       -13.5768
 238   2.0000      -0.496776       -13.5180
 239   2.0000      -0.493357       -13.4249
 240   2.0000      -0.492650       -13.4057
 241   2.0000      -0.486950       -13.2506
 242   2.0000      -0.484369       -13.1804
 243   2.0000      -0.483163       -13.1475
 244   2.0000      -0.482313       -13.1244
 245   2.0000      -0.477679       -12.9983
 246   2.0000      -0.477174       -12.9846
 247   2.0000      -0.473477       -12.8840
 248   2.0000      -0.472392       -12.8544
 249   2.0000      -0.469017       -12.7626
 250   2.0000      -0.463796       -12.6205
 251   2.0000      -0.461812       -12.5665
 252   2.0000      -0.459110       -12.4930
 253   2.0000      -0.457711       -12.4550
 254   2.0000      -0.456541       -12.4231
 255   2.0000      -0.452173       -12.3042
 256   2.0000      -0.451938       -12.2979
 257   2.0000      -0.451160       -12.2767
 258   2.0000      -0.449565       -12.2333
 259   2.0000      -0.448754       -12.2112
 260   2.0000      -0.447387       -12.1740
 261   2.0000      -0.444952       -12.1078
 262   2.0000      -0.442994       -12.0545
 263   2.0000      -0.440230       -11.9793
 264   2.0000      -0.439009       -11.9460
 265   2.0000      -0.437424       -11.9029
 266   2.0000      -0.436347       -11.8736
 267   2.0000      -0.434139       -11.8135
 268   2.0000      -0.431780       -11.7493
 269   2.0000      -0.429873       -11.6974
 270   2.0000      -0.428760       -11.6671
 271   2.0000      -0.427058       -11.6209
 272   2.0000      -0.422081       -11.4854
 273   2.0000      -0.419292       -11.4095
 274   2.0000      -0.418424       -11.3859
 275   2.0000      -0.415311       -11.3012
 276   2.0000      -0.414028       -11.2663
 277   2.0000      -0.413851       -11.2615
 278   2.0000      -0.408917       -11.1272
 279   2.0000      -0.402428       -10.9506
 280   2.0000      -0.400126       -10.8880
 281   2.0000      -0.396422       -10.7872
 282   2.0000      -0.394281       -10.7289
 283   2.0000      -0.388132       -10.5616
 284   2.0000      -0.382089       -10.3972
 285   2.0000      -0.381487       -10.3808
 286   2.0000      -0.380080       -10.3425
 287   2.0000      -0.374370       -10.1871
 288   2.0000      -0.374170       -10.1817
 289   2.0000      -0.369495       -10.0545
 290   2.0000      -0.364587        -9.9209
 291   2.0000      -0.361599        -9.8396
 292   2.0000      -0.360407        -9.8072
 293   2.0000      -0.353946        -9.6314
 294   2.0000      -0.350831        -9.5466
 295   2.0000      -0.347182        -9.4473
 296   2.0000      -0.343345        -9.3429
 297   2.0000      -0.338646        -9.2150
 298   2.0000      -0.330598        -8.9960
 299   2.0000      -0.326380        -8.8812
 300   2.0000      -0.318694        -8.6721
 301   2.0000      -0.311181        -8.4677
 302   2.0000      -0.306541        -8.3414
 303   2.0000      -0.302012        -8.2182
 304   2.0000      -0.286756        -7.8030
 305   2.0000      -0.284596        -7.7442
 306   2.0000      -0.236612        -6.4385
 307   0.0000      -0.135504        -3.6873
 308   0.0000      -0.102521        -2.7897
 309   0.0000      -0.081205        -2.2097
 310   0.0000      -0.073267        -1.9937
 311   0.0000      -0.072310        -1.9676

MULLIKEN ATOMIC CHARGES
-----------------------
   0 C :    0.279484
   1 C :   -0.315439
   2 C :   -0.186782
   3 N :    0.157803
   4 C :   -0.203349
   5 N :    0.169013
   6 C :    0.023901
   7 C :   -0.011891
   8 C :   -0.070595
   9 C :    0.116939
  10 C :   -0.085411
  11 C :   -0.022920
  12 S :    0.193765
  13 C :   -0.122804
  14 C :    0.038811
  15 Br:    0.031672
  16 C :    0.161817
  17 O :   -0.174353
  18 C :   -0.084600
  19 C :   -0.013685
  20 C :   -0.123894
  21 C :   -0.027302
  22 C :    0.175635
  23 O :   -0.166166
  24 O :   -0.152596
  25 C :    0.069740
  26 C :   -0.119840
  27 S :    0.258098
  28 C :   -0.024447
  29 C :   -0.037218
  30 C :    0.058008
  31 C :    0.042281
  32 C :   -0.022290
  33 S :    0.077016
  34 C :   -0.042385
  35 C :    0.041705
  36 C :    0.029509
  37 C :    0.031298
  38 S :    0.145718
  39 C :   -0.102257
  40 C :    0.119421
  41 C :   -0.025417
  42 C :    0.006790
  43 N :    0.056231
  44 C :   -0.114700
  45 C :   -0.093911
  46 N :   -0.045443
  47 C :   -0.181521
  48 N :    0.180393
  49 C :   -0.219794
  50 N :    0.234597
  51 C :    0.043499
  52 C :   -0.062410
  53 C :    0.044461
  54 N :   -0.271123
  55 S :    0.515770
  56 N :   -0.279525
  57 C :   -0.031449
  58 C :   -0.107970
  59 C :    0.345460
  60 C :   -0.376576
  61 C :   -0.191398
  62 N :    0.142892
  63 C :   -0.179932
  64 N :    0.146021
  65 C :    0.001886
  66 C :    0.000555
  67 C :    0.130629
  68 O :   -0.142141
  69 C :   -0.075693
  70 C :    0.114692
  71 C :   -0.087836
  72 C :   -0.029443
  73 S :    0.178546
  74 C :   -0.124363
  75 C :    0.037964
  76 Br:    0.017728
  77 H :   -0.006445
  78 H :   -0.000442
  79 H :   -0.000967
  80 H :    0.049607
  81 H :    0.193579
  82 H :    0.049467
  83 H :    0.001303
  84 H :    0.015477
  85 H :    0.005447
  86 H :    0.004126
  87 H :    0.003696
  88 H :    0.007260
  89 H :    0.031476
  90 H :   -0.011046
  91 H :   -0.007981
  92 H :   -0.003435
Sum of atomic charges:   -0.0000000

LOEWDIN ATOMIC CHARGES
----------------------
   0 C :    0.074543
   1 C :   -0.126654
   2 C :   -0.017832
   3 N :   -0.043359
   4 C :   -0.025206
   5 N :   -0.038813
   6 C :   -0.019081
   7 C :   -0.052423
   8 C :    0.024983
   9 C :   -0.031154
  10 C :   -0.141573
  11 C :   -0.006752
  12 S :    0.439254
  13 C :   -0.269368
  14 C :   -0.069877
  15 Br:    0.143342
  16 C :    0.086324
  17 O :   -0.161947
  18 C :   -0.085927
  19 C :    0.059290
  20 C :   -0.167143
  21 C :   -0.079816
  22 C :    0.080578
  23 O :   -0.134230
  24 O :   -0.018344
  25 C :   -0.082070
  26 C :   -0.177707
  27 S :    0.569280
  28 C :   -0.031270
  29 C :   -0.144313
  30 C :    0.011261
  31 C :   -0.032260
  32 C :   -0.124795
  33 S :    0.403618
  34 C :   -0.205039
  35 C :   -0.014871
  36 C :   -0.027853
  37 C :   -0.109109
  38 S :    0.501570
  39 C :   -0.036769
  40 C :    0.005685
  41 C :   -0.002474
  42 C :    0.030667
  43 N :   -0.017787
  44 C :   -0.010600
  45 C :   -0.062191
  46 N :   -0.025501
  47 C :   -0.032255
  48 N :   -0.040255
  49 C :   -0.032113
  50 N :   -0.003951
  51 C :   -0.087674
  52 C :   -0.037743
  53 C :   -0.045149
  54 N :   -0.273383
  55 S :    0.644765
  56 N :   -0.286139
  57 C :    0.081452
  58 C :   -0.094654
  59 C :    0.083794
  60 C :   -0.153610
  61 C :   -0.021074
  62 N :   -0.066339
  63 C :   -0.008646
  64 N :   -0.075355
  65 C :   -0.013748
  66 C :   -0.050443
  67 C :    0.082910
  68 O :   -0.142700
  69 C :    0.020606
  70 C :   -0.035189
  71 C :   -0.144410
  72 C :   -0.015664
  73 S :    0.426854
  74 C :   -0.274535
  75 C :   -0.069927
  76 Br:    0.132191
  77 H :    0.042172
  78 H :    0.042633
  79 H :    0.039810
  80 H :    0.053981
  81 H :    0.098225
  82 H :    0.014959
  83 H :    0.036535
  84 H :    0.045319
  85 H :    0.038268
  86 H :    0.032527
  87 H :    0.038981
  88 H :    0.045718
  89 H :    0.048410
  90 H :    0.040616
  91 H :    0.039445
  92 H :    0.038500

  Mayer bond orders larger than 0.100000
B(  0-C ,  1-C ) :   1.6719 B(  0-C ,  6-C ) :   1.0136 B(  0-C , 18-C ) :   1.0370
B(  1-C ,  2-C ) :   1.1374 B(  1-C ,  4-C ) :   1.1324 B(  2-C ,  3-N ) :   2.9793
B(  4-C ,  5-N ) :   3.0060 B(  6-C ,  7-C ) :   1.2677 B(  6-C , 11-C ) :   1.4104
B(  7-C ,  8-C ) :   1.4160 B(  7-C , 16-C ) :   0.9624 B(  8-C ,  9-C ) :   1.2509
B(  8-C , 77-H ) :   1.0177 B(  9-C , 10-C ) :   1.2979 B(  9-C , 14-C ) :   1.1649
B( 10-C , 11-C ) :   1.3290 B( 10-C , 12-S ) :   1.0897 B( 11-C , 78-H ) :   0.9831
B( 12-S , 13-C ) :   1.0877 B( 13-C , 14-C ) :   1.6158 B( 13-C , 15-Br) :   1.0241
B( 14-C , 79-H ) :   1.0012 B( 16-C , 17-O ) :   2.1446 B( 16-C , 18-C ) :   0.9593
B( 18-C , 19-C ) :   1.6230 B( 19-C , 20-C ) :   1.2021 B( 19-C , 80-H ) :   0.9265
B( 20-C , 21-C ) :   1.4607 B( 20-C , 27-S ) :   1.1457 B( 21-C , 22-C ) :   0.9012
B( 21-C , 25-C ) :   1.2711 B( 22-C , 23-O ) :   2.1422 B( 22-C , 24-O ) :   1.2047
B( 24-O , 81-H ) :   0.9475 B( 25-C , 26-C ) :   1.4253 B( 25-C , 28-C ) :   1.0841
B( 26-C , 27-S ) :   1.2280 B( 26-C , 82-H ) :   0.9470 B( 28-C , 29-C ) :   1.6452
B( 28-C , 83-H ) :   0.9488 B( 29-C , 30-C ) :   1.1159 B( 29-C , 33-S ) :   1.0274
B( 30-C , 31-C ) :   1.6013 B( 30-C , 84-H ) :   1.0011 B( 31-C , 32-C ) :   1.1567
B( 31-C , 85-H ) :   0.9816 B( 32-C , 33-S ) :   1.0783 B( 32-C , 34-C ) :   1.5014
B( 34-C , 35-C ) :   1.1979 B( 34-C , 38-S ) :   1.0012 B( 35-C , 36-C ) :   1.5360
B( 35-C , 86-H ) :   0.9916 B( 36-C , 37-C ) :   1.1995 B( 36-C , 87-H ) :   1.0026
B( 37-C , 38-S ) :   1.1290 B( 37-C , 39-C ) :   1.3495 B( 38-S , 46-N ) :   0.1085
B( 39-C , 40-C ) :   1.4032 B( 39-C , 88-H ) :   0.9509 B( 40-C , 41-C ) :   1.1144
B( 40-C , 53-C ) :   1.1295 B( 41-C , 42-C ) :   1.1210 B( 41-C , 46-N ) :   1.4725
B( 42-C , 43-N ) :   1.4708 B( 42-C , 51-C ) :   1.2802 B( 43-N , 44-C ) :   1.7126
B( 44-C , 45-C ) :   1.2655 B( 44-C , 49-C ) :   1.1559 B( 45-C , 46-N ) :   1.5379
B( 45-C , 47-C ) :   1.1702 B( 47-C , 48-N ) :   2.8996 B( 49-C , 50-N ) :   3.0489
B( 51-C , 52-C ) :   1.1469 B( 51-C , 57-C ) :   1.1498 B( 52-C , 53-C ) :   1.1252
B( 52-C , 56-N ) :   1.5592 B( 53-C , 54-N ) :   1.5787 B( 54-N , 55-S ) :   1.2598
B( 54-N , 56-N ) :   0.1301 B( 55-S , 56-N ) :   1.2297 B( 57-C , 58-C ) :   1.5881
B( 57-C , 89-H ) :   0.9427 B( 58-C , 59-C ) :   1.0655 B( 58-C , 67-C ) :   0.9492
B( 59-C , 60-C ) :   1.6004 B( 59-C , 65-C ) :   1.0231 B( 60-C , 61-C ) :   1.1426
B( 60-C , 63-C ) :   1.1814 B( 61-C , 62-N ) :   2.9822 B( 63-C , 64-N ) :   2.9833
B( 65-C , 66-C ) :   1.2749 B( 65-C , 72-C ) :   1.4108 B( 66-C , 67-C ) :   0.9131
B( 66-C , 69-C ) :   1.4283 B( 67-C , 68-O ) :   2.2744 B( 69-C , 70-C ) :   1.2452
B( 69-C , 90-H ) :   1.0175 B( 70-C , 71-C ) :   1.3121 B( 70-C , 75-C ) :   1.1616
B( 71-C , 72-C ) :   1.3233 B( 71-C , 73-S ) :   1.0820 B( 72-C , 91-H ) :   0.9841
B( 73-S , 74-C ) :   1.0846 B( 74-C , 75-C ) :   1.6214 B( 74-C , 76-Br) :   1.0150
B( 75-C , 92-H ) :   1.0006

-----------------------------------------------------------------------------
         ABSORPTION SPECTRUM VIA TRANSITION ELECTRIC DIPOLE MOMENTS
-----------------------------------------------------------------------------
State   Energy  Wavelength   fosc         T2         TX        TY        TZ
        (cm-1)    (nm)                  (au**2)     (au)      (au)      (au)
-----------------------------------------------------------------------------
   0    7810.9   1280.3   0.713225733  30.06103   5.15580   1.63351   0.90023
   1   18053.2    553.9   0.311143718   5.67391  -2.35318   0.02562   0.36852
   2   18610.9    537.3   0.351663424   6.22064  -2.16141   1.02831   0.70108
   3   18942.6    527.9   0.303192741   5.26931   0.69421   2.18281   0.15083
   4   19348.3    516.8   0.024935450   0.42428  -0.54509  -0.33905  -0.11044
   5   20103.8    497.4   0.093906117   1.53777   0.91006  -0.50602  -0.67343
   6   24131.2    414.4   0.079849785   1.08936   0.98417   0.32338  -0.12723
   7   24181.0    413.5   0.005209780   0.07093   0.09249   0.23381   0.08780
   8   24881.0    401.9   0.078070036   1.03298   1.00518  -0.15004  -0.00922
   9   25297.9    395.3   0.089946207   1.17051  -0.60767   0.76458   0.46546
  10   25724.5    388.7   0.022668106   0.29010   0.28025   0.25953  -0.37974
  11   26093.2    383.2   0.012145295   0.15323   0.24451  -0.30399   0.03226
  12   26651.7    375.2   0.026631933   0.32897   0.49660   0.27418  -0.08474
  13   26760.4    373.7   0.144215534   1.77417  -1.16009  -0.10882   0.64538
  14   27199.6    367.7   0.453171523   5.48498  -1.21977   1.99873  -0.04719
  15   27631.4    361.9   0.038426592   0.45783  -0.09632  -0.23521  -0.62708
  16   27977.7    357.4   0.173924613   2.04656   0.92839   1.03790  -0.32776
  17   28733.8    348.0   0.061581865   0.70556   0.75998   0.20493  -0.29326
  18   29000.3    344.8   0.104442131   1.18563   0.04492   0.91183  -0.59344
  19   29511.8    338.8   0.014234636   0.15879   0.19277   0.29923  -0.17914
  20   29667.4    337.1   0.030732172   0.34103  -0.25801  -0.37675   0.36403
  21   29914.3    334.3   0.110199907   1.21277  -0.94163   0.12182   0.55791
  22   30079.8    332.4   0.044125991   0.48294  -0.24214   0.58609  -0.28426
  23   30313.2    329.9   0.291066664   3.16109   0.90559   1.19589   0.95437
  24   30515.5    327.7   0.223268697   2.40870   1.37940   0.70670  -0.08080
  25   30848.8    324.2   0.029289847   0.31258   0.53543  -0.10986   0.11755
  26   31115.9    321.4   0.084139288   0.89021   0.52007   0.78689   0.02311
  27   31364.5    318.8   0.136821800   1.43612   0.81418   0.52163  -0.70792
  28   31723.3    315.2   0.090767266   0.94195  -0.45097  -0.35562   0.78238
  29   31894.9    313.5   0.092781775   0.95767   0.14574   0.96470  -0.07603
  30   32460.6    308.1   0.743343755   7.53892   0.37798  -2.38584   1.30531
  31   32565.5    307.1   0.142142403   1.43695   0.20040  -1.09127   0.45378
  32   32755.9    305.3   0.045189726   0.45418   0.48769  -0.05062   0.46236
  33   32835.7    304.5   0.294677140   2.95445   0.87512   1.08924  -1.00108
  34   33013.9    302.9   0.014825559   0.14784  -0.03799  -0.37579   0.07197
  35   33466.0    298.8   0.017805814   0.17516  -0.25651  -0.23236   0.23532
  36   33698.0    296.8   0.002138672   0.02089  -0.00293   0.04007  -0.13885
  37   33880.5    295.2   0.002343190   0.02277  -0.03937   0.05265  -0.13582
  38   34006.3    294.1   0.014646109   0.14179  -0.21811  -0.27442  -0.13752
  39   34318.3    291.4   0.000893280   0.00857   0.02033   0.05489  -0.07172
  40   35052.7    285.3   0.107602386   1.01059   0.38253  -0.79371   0.48403
  41   35352.3    282.9   0.170395430   1.58678   1.06591  -0.04018   0.67008
  42   35437.5    282.2   0.316595050   2.94115   1.33180   0.84463   0.67384
  43   35773.4    279.5   0.031108416   0.28628   0.44142   0.09565  -0.28684
  44   36244.4    275.9   0.046086427   0.41861  -0.32467  -0.39286   0.39856
  45   36681.7    272.6   0.057081921   0.51230  -0.66892  -0.10102  -0.23375
  46   37119.2    269.4   0.040658420   0.36060   0.23211   0.28971  -0.47201
  47   37253.6    268.4   0.042421444   0.37488  -0.01283  -0.45068   0.41425
  48   37444.7    267.1   0.046520444   0.40901   0.14393   0.47001  -0.40912
  49   37712.1    265.2   0.042610729   0.37198   0.19174  -0.02618   0.57838
  50   37769.3    264.8   0.038182780   0.33282  -0.19110  -0.46923   0.27590
  51   38103.6    262.4   0.043864698   0.37899   0.54292   0.23684  -0.16772
  52   38129.9    262.3   0.033487672   0.28913  -0.05822  -0.26286   0.46545
  53   38332.1    260.9   0.109086000   0.93687  -0.53279   0.44325   0.67568
  54   38525.9    259.6   0.070478624   0.60226   0.47097  -0.54185  -0.29468
  55   38706.1    258.4   0.017084340   0.14531   0.06661  -0.34841   0.13959
  56   38909.5    257.0   0.042299863   0.35790  -0.54751   0.22718   0.08074
  57   39166.3    255.3   0.033436043   0.28105   0.16695  -0.47031   0.17883
  58   39275.1    254.6   0.033600543   0.28165  -0.22948   0.36122  -0.31386
  59   39662.4    252.1   0.013845245   0.11492   0.08537  -0.14299  -0.29527
  60   39871.8    250.8   0.021042645   0.17374  -0.39363   0.13194  -0.03728
  61   39938.3    250.4   0.044235701   0.36464   0.00921   0.55520  -0.23728
  62   40041.6    249.7   0.041556347   0.34167   0.55418  -0.01287   0.18542
  63   40156.1    249.0   0.004621690   0.03789  -0.12907   0.10978  -0.09581

FINAL SINGLE POINT ENERGY    -10486.371896725610

DIPOLE MOMENT
-------------
                                X             Y             Z
Electronic contribution:    -20.58851    -155.77126       3.46797
Nuclear contribution   :     21.39853     155.41052       1.13964
                        -----------------------------------------
Total Dipole Moment    :      0.81001      -0.36074       4.60762
                        -----------------------------------------
Magnitude (a.u.)       :      4.69216
Magnitude (Debye)      :     11.92653

Rotational constants in cm-1:     0.000656     0.000187     0.000156
Rotational constants in MHz :    19.665812     5.613051     4.669251

                             ****ORCA TERMINATED NORMALLY****
TOTAL RUN TIME: 0 days 0 hours 11 minutes 7 seconds 35 msec
