                         Program Version 4.2.0 -  RELEASE  -
|  1> # ORCA input file
|  2> # SCF done       -206.553466783191          0.000992134217
|  3> ! CAM-B3LYP def2-SVP def2/J RIJCOSX Grid4 TightSCF
|  4> %maxcore 5000
|  5> %tddft
|  6>     Mode sTDDFT
|  7>     Ethresh 5.0
|  8>     maxcore 5000
|  9> end
| 10>
| 11> %pal
| 12>   nprocs 6
| 13>   end
| 14> * xyz 0 1
| 15>    C       -8.25873        -2.78166        -5.55092
| 16>    C       -9.31917        -2.54944        -4.70716
| 17>    C      -10.31113        -3.50382        -4.40760
| 18>    N      -11.15592        -4.23443        -4.14046
| 19>    C       -9.51342        -1.35905        -3.97998
| 20>    N       -9.68455        -0.42746        -3.32814
| 21>    C       -7.90872        -4.07116        -6.13006
| 22>    C       -6.63774        -3.95170        -6.74139
| 23>    C       -6.00998        -5.00467        -7.35915
| 24>    C       -6.67170        -6.23750        -7.37621
| 25>    C       -7.94457        -6.34621        -6.76813
| 26>    C       -8.57783        -5.28032        -6.14038
| 27>    S       -8.58560        -7.95534        -6.91125
| 28>    C       -7.15300        -8.45332        -7.77136
| 29>    C       -6.24104        -7.46745        -7.94461
| 30>   Br       -6.99706       -10.22742        -8.36025
| 31>    C       -6.15965        -2.56152        -6.61608
| 32>    O       -5.12916        -2.12376        -7.10180
| 33>    C       -7.21599        -1.83700        -5.90033
| 34>    C       -7.37473        -0.48312        -5.70081
| 35>    N       -6.50417         0.52836        -5.72116
| 36>    C       -7.00250         1.84167        -5.68700
| 37>    C       -8.04818         2.27835        -6.44973
| 38>    S       -8.34270         3.95127        -6.24908
| 39>    C       -7.06856         4.08273        -5.10936
| 40>    C       -6.43601         2.88974        -4.89055
| 41>    N       -5.40123         2.68144        -3.98733
| 42>    C       -5.31711         1.38695        -3.34949
| 43>    C       -4.54380         0.40928        -4.22965
| 44>    O       -3.59634        -0.22085        -3.85740
| 45>    C       -5.06817         0.37275        -5.66058
| 46>    C       -4.43124         3.63627        -3.82613
| 47>    C       -3.29811         3.52971        -3.09445
| 48>    C       -2.30055         4.53218        -2.98518
| 49>    C       -2.26185         5.79834        -3.49987
| 50>    C       -1.16169         6.69196        -3.37518
| 51>    C       -1.32119         7.89201        -3.99026
| 52>    C       -2.57039         8.04669        -4.63762
| 53>    S       -3.53348         6.59511        -4.42476
| 54>    C       -3.03639         9.11643        -5.36112
| 55>    C       -2.36539        10.32067        -5.68734
| 56>    C       -3.08829        11.17156        -6.45533
| 57>    C       -4.40199        10.71555        -6.77979
| 58>    S       -4.64727         9.11853        -6.06177
| 59>    C       -5.27236        11.41652        -7.54844
| 60>    N       -6.58103        11.13466        -7.86651
| 61>    C       -7.13618        11.78031        -8.95171
| 62>    C       -6.41015        12.25790       -10.01335
| 63>    S       -7.38088        13.05707       -11.18426
| 64>    C       -8.79515        12.73678       -10.28096
| 65>    C       -8.53261        12.05917        -9.12758
| 66>    N       -9.54973        11.67501        -8.22839
| 67>    C       -9.71747        10.25815        -8.06035
| 68>    C       -8.45625         9.57875        -7.52146
| 69>    O       -8.29760         8.39356        -7.59845
| 70>    C       -7.45543        10.52472        -6.87784
| 71>    C      -10.21518        12.58733        -7.49542
| 72>    C       -9.89906        13.91124        -7.44787
| 73>    C      -10.55313        14.83474        -6.62051
| 74>    C      -10.10760        16.09693        -6.31840
| 75>    C       -8.82314        16.71215        -6.52430
| 76>    C       -7.60309        16.07688        -6.61584
| 77>    C       -6.37702        16.74002        -6.81236
| 78>    N       -5.34816        17.21354        -7.00661
| 79>    C       -7.40746        14.70012        -6.41590
| 80>    N       -7.17696        13.59149        -6.21276
| 81>    C       -9.00211        18.15477        -6.38386
| 82>    C      -10.31410        18.40321        -5.90771
| 83>    C      -11.03766        17.11695        -5.79055
| 84>    O      -12.16784        16.93995        -5.38904
| 85>    C      -10.77067        19.66799        -5.63322
| 86>    C       -9.89572        20.73989        -5.84729
| 87>    C       -8.59312        20.48165        -6.33348
| 88>    C       -8.12693        19.20049        -6.60380
| 89>    S       -7.68305        21.94884        -6.53490
| 90>    C       -9.04534        22.87585        -5.96468
| 91>    C      -10.12719        22.12804        -5.64299
| 92>   Br       -8.91169        24.74401        -5.85358
| 93>    H       -5.03873        -4.88302        -7.81248
| 94>    H       -9.54936        -5.41129        -5.69388
| 95>    H       -5.30305        -7.60002        -8.45221
| 96>    H       -8.38434        -0.15011        -5.48394
| 97>    H       -8.63087         1.70650        -7.14366
| 98>    H       -6.86314         5.03048        -4.65565
| 99>    H       -6.32834         0.99903        -3.18328
|100>    H       -4.82672         1.48260        -2.37949
|101>    H       -4.76205        -0.56238        -6.14394
|102>    H       -4.59190         1.19738        -6.20285
|103>    H       -4.62733         4.52817        -4.39631
|104>    H       -3.07820         2.61449        -2.56471
|105>    H       -1.42193         4.24706        -2.42017
|106>    H       -0.27733         6.40243        -2.83456
|107>    H       -0.58336         8.67428        -3.99499
|108>    H       -1.36292        10.51275        -5.34941
|109>    H       -2.73793        12.12808        -6.80039
|110>    H       -4.90214        12.33867        -7.97889
|111>    H       -5.35683        12.17664       -10.18260
|112>    H       -9.75256        13.06999       -10.62894
|113>    H       -9.97921         9.78578        -9.01549
|114>    H      -10.52928        10.05577        -7.35504
|115>    H       -6.83887         9.94451        -6.19072
|116>    H       -7.97291        11.31348        -6.31631
|117>    H      -11.00464        12.19350        -6.86912
|118>    H       -9.07677        14.26307        -8.05284
|119>    H      -11.52467        14.57033        -6.21862
|120>    H      -11.77070        19.82899        -5.26220
|121>    H       -7.12648        19.05242        -6.97572
|122>    H      -11.05154        22.53648        -5.27710
|123> *
|124>
|125>                          ****END OF INPUT****

CARTESIAN COORDINATES (ANGSTROEM)
---------------------------------
  C     -8.258730   -2.781660   -5.550920
  C     -9.319170   -2.549440   -4.707160
  C    -10.311130   -3.503820   -4.407600
  N    -11.155920   -4.234430   -4.140460
  C     -9.513420   -1.359050   -3.979980
  N     -9.684550   -0.427460   -3.328140
  C     -7.908720   -4.071160   -6.130060
  C     -6.637740   -3.951700   -6.741390
  C     -6.009980   -5.004670   -7.359150
  C     -6.671700   -6.237500   -7.376210
  C     -7.944570   -6.346210   -6.768130
  C     -8.577830   -5.280320   -6.140380
  S     -8.585600   -7.955340   -6.911250
  C     -7.153000   -8.453320   -7.771360
  C     -6.241040   -7.467450   -7.944610
  Br    -6.997060  -10.227420   -8.360250
  C     -6.159650   -2.561520   -6.616080
  O     -5.129160   -2.123760   -7.101800
  C     -7.215990   -1.837000   -5.900330
  C     -7.374730   -0.483120   -5.700810
  N     -6.504170    0.528360   -5.721160
  C     -7.002500    1.841670   -5.687000
  C     -8.048180    2.278350   -6.449730
  S     -8.342700    3.951270   -6.249080
  C     -7.068560    4.082730   -5.109360
  C     -6.436010    2.889740   -4.890550
  N     -5.401230    2.681440   -3.987330
  C     -5.317110    1.386950   -3.349490
  C     -4.543800    0.409280   -4.229650
  O     -3.596340   -0.220850   -3.857400
  C     -5.068170    0.372750   -5.660580
  C     -4.431240    3.636270   -3.826130
  C     -3.298110    3.529710   -3.094450
  C     -2.300550    4.532180   -2.985180
  C     -2.261850    5.798340   -3.499870
  C     -1.161690    6.691960   -3.375180
  C     -1.321190    7.892010   -3.990260
  C     -2.570390    8.046690   -4.637620
  S     -3.533480    6.595110   -4.424760
  C     -3.036390    9.116430   -5.361120
  C     -2.365390   10.320670   -5.687340
  C     -3.088290   11.171560   -6.455330
  C     -4.401990   10.715550   -6.779790
  S     -4.647270    9.118530   -6.061770
  C     -5.272360   11.416520   -7.548440
  N     -6.581030   11.134660   -7.866510
  C     -7.136180   11.780310   -8.951710
  C     -6.410150   12.257900  -10.013350
  S     -7.380880   13.057070  -11.184260
  C     -8.795150   12.736780  -10.280960
  C     -8.532610   12.059170   -9.127580
  N     -9.549730   11.675010   -8.228390
  C     -9.717470   10.258150   -8.060350
  C     -8.456250    9.578750   -7.521460
  O     -8.297600    8.393560   -7.598450
  C     -7.455430   10.524720   -6.877840
  C    -10.215180   12.587330   -7.495420
  C     -9.899060   13.911240   -7.447870
  C    -10.553130   14.834740   -6.620510
  C    -10.107600   16.096930   -6.318400
  C     -8.823140   16.712150   -6.524300
  C     -7.603090   16.076880   -6.615840
  C     -6.377020   16.740020   -6.812360
  N     -5.348160   17.213540   -7.006610
  C     -7.407460   14.700120   -6.415900
  N     -7.176960   13.591490   -6.212760
  C     -9.002110   18.154770   -6.383860
  C    -10.314100   18.403210   -5.907710
  C    -11.037660   17.116950   -5.790550
  O    -12.167840   16.939950   -5.389040
  C    -10.770670   19.667990   -5.633220
  C     -9.895720   20.739890   -5.847290
  C     -8.593120   20.481650   -6.333480
  C     -8.126930   19.200490   -6.603800
  S     -7.683050   21.948840   -6.534900
  C     -9.045340   22.875850   -5.964680
  C    -10.127190   22.128040   -5.642990
  Br    -8.911690   24.744010   -5.853580
  H     -5.038730   -4.883020   -7.812480
  H     -9.549360   -5.411290   -5.693880
  H     -5.303050   -7.600020   -8.452210
  H     -8.384340   -0.150110   -5.483940
  H     -8.630870    1.706500   -7.143660
  H     -6.863140    5.030480   -4.655650
  H     -6.328340    0.999030   -3.183280
  H     -4.826720    1.482600   -2.379490
  H     -4.762050   -0.562380   -6.143940
  H     -4.591900    1.197380   -6.202850
  H     -4.627330    4.528170   -4.396310
  H     -3.078200    2.614490   -2.564710
  H     -1.421930    4.247060   -2.420170
  H     -0.277330    6.402430   -2.834560
  H     -0.583360    8.674280   -3.994990
  H     -1.362920   10.512750   -5.349410
  H     -2.737930   12.128080   -6.800390
  H     -4.902140   12.338670   -7.978890
  H     -5.356830   12.176640  -10.182600
  H     -9.752560   13.069990  -10.628940
  H     -9.979210    9.785780   -9.015490
  H    -10.529280   10.055770   -7.355040
  H     -6.838870    9.944510   -6.190720
  H     -7.972910   11.313480   -6.316310
  H    -11.004640   12.193500   -6.869120
  H     -9.076770   14.263070   -8.052840
  H    -11.524670   14.570330   -6.218620
  H    -11.770700   19.828990   -5.262200
  H     -7.126480   19.052420   -6.975720
  H    -11.051540   22.536480   -5.277100

 Total Charge           Charge          ....    0
 Multiplicity           Mult            ....    1
 Number of Electrons    NEL             ....  632
 Basis Dimension        Dim             .... 1302

ORBITAL ENERGIES
----------------

  NO   OCC          E(Eh)            E(eV)
   0   2.0000    -482.883028    -13139.9152
   1   2.0000    -482.882812    -13139.9093
   2   2.0000     -88.972383     -2421.0616
   3   2.0000     -88.971681     -2421.0425
   4   2.0000     -88.971350     -2421.0335
   5   2.0000     -88.969515     -2420.9836
   6   2.0000     -88.934087     -2420.0195
   7   2.0000     -88.932000     -2419.9627
   8   2.0000     -62.560736     -1702.3642
   9   2.0000     -62.560530     -1702.3586
  10   2.0000     -56.394688     -1534.5775
  11   2.0000     -56.394475     -1534.5717
  12   2.0000     -56.391972     -1534.5036
  13   2.0000     -56.391939     -1534.5027
  14   2.0000     -56.391770     -1534.4981
  15   2.0000     -56.391732     -1534.4971
  16   2.0000     -19.234177      -523.3886
  17   2.0000     -19.226303      -523.1743
  18   2.0000     -19.212775      -522.8062
  19   2.0000     -19.205262      -522.6018
  20   2.0000     -14.499446      -394.5500
  21   2.0000     -14.487555      -394.2264
  22   2.0000     -14.460747      -393.4969
  23   2.0000     -14.459306      -393.4577
  24   2.0000     -14.414884      -392.2489
  25   2.0000     -14.413082      -392.1999
  26   2.0000     -14.410524      -392.1303
  27   2.0000     -14.408888      -392.0858
  28   2.0000     -10.380771      -282.4752
  29   2.0000     -10.371391      -282.2199
  30   2.0000     -10.367229      -282.1066
  31   2.0000     -10.361326      -281.9460
  32   2.0000     -10.356732      -281.8210
  33   2.0000     -10.356238      -281.8076
  34   2.0000     -10.355723      -281.7936
  35   2.0000     -10.355114      -281.7770
  36   2.0000     -10.340743      -281.3859
  37   2.0000     -10.339134      -281.3421
  38   2.0000     -10.336666      -281.2750
  39   2.0000     -10.334117      -281.2056
  40   2.0000     -10.333898      -281.1996
  41   2.0000     -10.332167      -281.1526
  42   2.0000     -10.331496      -281.1343
  43   2.0000     -10.330742      -281.1138
  44   2.0000     -10.329065      -281.0682
  45   2.0000     -10.321705      -280.8679
  46   2.0000     -10.320934      -280.8469
  47   2.0000     -10.320698      -280.8405
  48   2.0000     -10.320633      -280.8387
  49   2.0000     -10.317394      -280.7506
  50   2.0000     -10.315402      -280.6963
  51   2.0000     -10.314644      -280.6757
  52   2.0000     -10.314393      -280.6689
  53   2.0000     -10.314347      -280.6677
  54   2.0000     -10.313908      -280.6557
  55   2.0000     -10.312759      -280.6244
  56   2.0000     -10.311401      -280.5875
  57   2.0000     -10.310175      -280.5541
  58   2.0000     -10.309249      -280.5289
  59   2.0000     -10.303901      -280.3834
  60   2.0000     -10.303434      -280.3707
  61   2.0000     -10.302747      -280.3520
  62   2.0000     -10.302652      -280.3494
  63   2.0000     -10.302231      -280.3380
  64   2.0000     -10.300906      -280.3019
  65   2.0000     -10.299301      -280.2582
  66   2.0000     -10.297255      -280.2025
  67   2.0000     -10.296350      -280.1779
  68   2.0000     -10.296008      -280.1686
  69   2.0000     -10.295957      -280.1672
  70   2.0000     -10.293634      -280.1040
  71   2.0000     -10.293276      -280.0943
  72   2.0000     -10.292652      -280.0773
  73   2.0000     -10.292500      -280.0732
  74   2.0000     -10.289840      -280.0008
  75   2.0000     -10.288526      -279.9650
  76   2.0000     -10.287390      -279.9341
  77   2.0000     -10.286482      -279.9094
  78   2.0000     -10.281045      -279.7615
  79   2.0000     -10.280686      -279.7517
  80   2.0000     -10.275203      -279.6025
  81   2.0000     -10.271541      -279.5029
  82   2.0000     -10.269434      -279.4455
  83   2.0000     -10.268783      -279.4278
  84   2.0000     -10.266552      -279.3671
  85   2.0000     -10.258856      -279.1577
  86   2.0000      -8.790154      -239.1923
  87   2.0000      -8.789957      -239.1869
  88   2.0000      -8.068386      -219.5519
  89   2.0000      -8.067770      -219.5352
  90   2.0000      -8.067306      -219.5226
  91   2.0000      -8.065357      -219.4695
  92   2.0000      -8.029974      -218.5067
  93   2.0000      -8.027530      -218.4402
  94   2.0000      -6.626456      -180.3150
  95   2.0000      -6.626233      -180.3090
  96   2.0000      -6.611890      -179.9187
  97   2.0000      -6.611694      -179.9134
  98   2.0000      -6.611687      -179.9132
  99   2.0000      -6.611525      -179.9087
 100   2.0000      -6.038085      -164.3046
 101   2.0000      -6.037447      -164.2873
 102   2.0000      -6.036597      -164.2641
 103   2.0000      -6.034639      -164.2109
 104   2.0000      -6.033804      -164.1882
 105   2.0000      -6.033197      -164.1716
 106   2.0000      -6.032287      -164.1469
 107   2.0000      -6.030360      -164.0944
 108   2.0000      -6.029593      -164.0736
 109   2.0000      -6.029559      -164.0727
 110   2.0000      -6.028967      -164.0565
 111   2.0000      -6.027594      -164.0192
 112   2.0000      -5.999860      -163.2645
 113   2.0000      -5.997317      -163.1953
 114   2.0000      -5.995862      -163.1557
 115   2.0000      -5.993354      -163.0874
 116   2.0000      -5.990604      -163.0126
 117   2.0000      -5.988487      -162.9550
 118   2.0000      -2.742306       -74.6219
 119   2.0000      -2.742098       -74.6163
 120   2.0000      -2.738226       -74.5109
 121   2.0000      -2.738125       -74.5082
 122   2.0000      -2.738029       -74.5056
 123   2.0000      -2.737892       -74.5018
 124   2.0000      -2.726521       -74.1924
 125   2.0000      -2.726503       -74.1919
 126   2.0000      -2.726343       -74.1876
 127   2.0000      -2.726318       -74.1869
 128   2.0000      -1.154467       -31.4146
 129   2.0000      -1.146254       -31.1911
 130   2.0000      -1.128264       -30.7016
 131   2.0000      -1.119621       -30.4664
 132   2.0000      -1.108589       -30.1662
 133   2.0000      -1.105005       -30.0687
 134   2.0000      -1.070438       -29.1281
 135   2.0000      -1.068146       -29.0657
 136   2.0000      -1.019387       -27.7389
 137   2.0000      -1.018445       -27.7133
 138   2.0000      -1.010341       -27.4928
 139   2.0000      -1.009803       -27.4781
 140   2.0000      -0.991837       -26.9893
 141   2.0000      -0.990427       -26.9509
 142   2.0000      -0.989127       -26.9155
 143   2.0000      -0.988970       -26.9112
 144   2.0000      -0.984903       -26.8006
 145   2.0000      -0.984284       -26.7837
 146   2.0000      -0.978008       -26.6130
 147   2.0000      -0.955617       -26.0036
 148   2.0000      -0.940115       -25.5818
 149   2.0000      -0.939153       -25.5556
 150   2.0000      -0.919474       -25.0202
 151   2.0000      -0.904998       -24.6263
 152   2.0000      -0.903858       -24.5952
 153   2.0000      -0.898679       -24.4543
 154   2.0000      -0.889559       -24.2061
 155   2.0000      -0.885334       -24.0912
 156   2.0000      -0.882189       -24.0056
 157   2.0000      -0.881379       -23.9835
 158   2.0000      -0.874390       -23.7934
 159   2.0000      -0.868783       -23.6408
 160   2.0000      -0.868400       -23.6304
 161   2.0000      -0.858606       -23.3639
 162   2.0000      -0.850657       -23.1476
 163   2.0000      -0.849056       -23.1040
 164   2.0000      -0.848565       -23.0906
 165   2.0000      -0.836556       -22.7639
 166   2.0000      -0.828796       -22.5527
 167   2.0000      -0.825737       -22.4695
 168   2.0000      -0.824883       -22.4462
 169   2.0000      -0.812090       -22.0981
 170   2.0000      -0.808589       -22.0028
 171   2.0000      -0.802889       -21.8477
 172   2.0000      -0.796819       -21.6825
 173   2.0000      -0.783767       -21.3274
 174   2.0000      -0.762448       -20.7473
 175   2.0000      -0.758811       -20.6483
 176   2.0000      -0.755860       -20.5680
 177   2.0000      -0.753478       -20.5032
 178   2.0000      -0.750612       -20.4252
 179   2.0000      -0.725654       -19.7461
 180   2.0000      -0.721923       -19.6445
 181   2.0000      -0.713162       -19.4061
 182   2.0000      -0.699965       -19.0470
 183   2.0000      -0.698515       -19.0076
 184   2.0000      -0.693792       -18.8791
 185   2.0000      -0.685523       -18.6540
 186   2.0000      -0.683917       -18.6103
 187   2.0000      -0.679668       -18.4947
 188   2.0000      -0.673879       -18.3372
 189   2.0000      -0.671904       -18.2834
 190   2.0000      -0.667571       -18.1655
 191   2.0000      -0.661773       -18.0077
 192   2.0000      -0.658677       -17.9235
 193   2.0000      -0.656005       -17.8508
 194   2.0000      -0.652721       -17.7614
 195   2.0000      -0.650872       -17.7111
 196   2.0000      -0.638393       -17.3716
 197   2.0000      -0.636106       -17.3093
 198   2.0000      -0.633993       -17.2518
 199   2.0000      -0.629778       -17.1371
 200   2.0000      -0.619787       -16.8653
 201   2.0000      -0.618650       -16.8343
 202   2.0000      -0.617886       -16.8135
 203   2.0000      -0.609321       -16.5805
 204   2.0000      -0.606133       -16.4937
 205   2.0000      -0.600908       -16.3515
 206   2.0000      -0.598542       -16.2872
 207   2.0000      -0.592546       -16.1240
 208   2.0000      -0.591545       -16.0967
 209   2.0000      -0.587391       -15.9837
 210   2.0000      -0.585451       -15.9309
 211   2.0000      -0.584268       -15.8987
 212   2.0000      -0.582093       -15.8395
 213   2.0000      -0.579465       -15.7680
 214   2.0000      -0.569576       -15.4989
 215   2.0000      -0.566707       -15.4209
 216   2.0000      -0.564175       -15.3520
 217   2.0000      -0.557133       -15.1604
 218   2.0000      -0.549201       -14.9445
 219   2.0000      -0.546183       -14.8624
 220   2.0000      -0.543802       -14.7976
 221   2.0000      -0.542638       -14.7659
 222   2.0000      -0.539368       -14.6769
 223   2.0000      -0.538767       -14.6606
 224   2.0000      -0.535975       -14.5846
 225   2.0000      -0.532917       -14.5014
 226   2.0000      -0.532317       -14.4851
 227   2.0000      -0.529368       -14.4048
 228   2.0000      -0.526404       -14.3242
 229   2.0000      -0.524518       -14.2729
 230   2.0000      -0.521467       -14.1898
 231   2.0000      -0.520115       -14.1530
 232   2.0000      -0.516149       -14.0451
 233   2.0000      -0.514033       -13.9875
 234   2.0000      -0.509527       -13.8649
 235   2.0000      -0.506525       -13.7832
 236   2.0000      -0.505370       -13.7518
 237   2.0000      -0.504398       -13.7254
 238   2.0000      -0.502476       -13.6731
 239   2.0000      -0.502031       -13.6610
 240   2.0000      -0.500735       -13.6257
 241   2.0000      -0.495057       -13.4712
 242   2.0000      -0.493910       -13.4400
 243   2.0000      -0.493192       -13.4204
 244   2.0000      -0.491279       -13.3684
 245   2.0000      -0.491133       -13.3644
 246   2.0000      -0.487854       -13.2752
 247   2.0000      -0.486533       -13.2392
 248   2.0000      -0.485295       -13.2056
 249   2.0000      -0.483047       -13.1444
 250   2.0000      -0.482025       -13.1166
 251   2.0000      -0.479164       -13.0387
 252   2.0000      -0.476922       -12.9777
 253   2.0000      -0.474341       -12.9075
 254   2.0000      -0.474064       -12.8999
 255   2.0000      -0.472706       -12.8630
 256   2.0000      -0.470380       -12.7997
 257   2.0000      -0.461605       -12.5609
 258   2.0000      -0.458247       -12.4695
 259   2.0000      -0.455703       -12.4003
 260   2.0000      -0.455119       -12.3844
 261   2.0000      -0.453878       -12.3507
 262   2.0000      -0.451874       -12.2961
 263   2.0000      -0.450598       -12.2614
 264   2.0000      -0.448540       -12.2054
 265   2.0000      -0.447610       -12.1801
 266   2.0000      -0.446291       -12.1442
 267   2.0000      -0.443967       -12.0810
 268   2.0000      -0.441996       -12.0273
 269   2.0000      -0.440587       -11.9890
 270   2.0000      -0.440136       -11.9767
 271   2.0000      -0.439680       -11.9643
 272   2.0000      -0.439173       -11.9505
 273   2.0000      -0.437151       -11.8955
 274   2.0000      -0.435860       -11.8604
 275   2.0000      -0.434552       -11.8248
 276   2.0000      -0.432908       -11.7800
 277   2.0000      -0.425780       -11.5861
 278   2.0000      -0.423852       -11.5336
 279   2.0000      -0.421399       -11.4668
 280   2.0000      -0.420539       -11.4435
 281   2.0000      -0.416980       -11.3466
 282   2.0000      -0.414743       -11.2857
 283   2.0000      -0.412042       -11.2122
 284   2.0000      -0.409666       -11.1476
 285   2.0000      -0.407230       -11.0813
 286   2.0000      -0.405501       -11.0342
 287   2.0000      -0.403633       -10.9834
 288   2.0000      -0.385726       -10.4961
 289   2.0000      -0.384240       -10.4557
 290   2.0000      -0.383366       -10.4319
 291   2.0000      -0.381647       -10.3851
 292   2.0000      -0.376819       -10.2538
 293   2.0000      -0.372538       -10.1373
 294   2.0000      -0.372364       -10.1325
 295   2.0000      -0.364254        -9.9119
 296   2.0000      -0.353194        -9.6109
 297   2.0000      -0.350565        -9.5394
 298   2.0000      -0.345208        -9.3936
 299   2.0000      -0.342085        -9.3086
 300   2.0000      -0.336809        -9.1650
 301   2.0000      -0.331927        -9.0322
 302   2.0000      -0.328018        -8.9258
 303   2.0000      -0.326176        -8.8757
 304   2.0000      -0.325573        -8.8593
 305   2.0000      -0.317133        -8.6296
 306   2.0000      -0.312653        -8.5077
 307   2.0000      -0.311006        -8.4629
 308   2.0000      -0.310201        -8.4410
 309   2.0000      -0.292807        -7.9677
 310   2.0000      -0.290592        -7.9074
 311   2.0000      -0.288491        -7.8502
 312   2.0000      -0.280554        -7.6343
 313   2.0000      -0.269919        -7.3449
 314   2.0000      -0.253249        -6.8913
 315   2.0000      -0.195518        -5.3203
 316   0.0000      -0.080385        -2.1874
 317   0.0000      -0.073713        -2.0058
 318   0.0000      -0.049558        -1.3486
 319   0.0000      -0.049197        -1.3387
 320   0.0000      -0.046860        -1.2751

MULLIKEN ATOMIC CHARGES
-----------------------
   0 C :    0.295030
   1 C :   -0.354380
   2 C :   -0.175901
   3 N :    0.137784
   4 C :   -0.216872
   5 N :    0.140185
   6 C :    0.006668
   7 C :   -0.002403
   8 C :   -0.071685
   9 C :    0.116159
  10 C :   -0.091085
  11 C :   -0.017450
  12 S :    0.183980
  13 C :   -0.123995
  14 C :    0.039920
  15 Br:    0.020707
  16 C :    0.175458
  17 O :   -0.181341
  18 C :   -0.130542
  19 C :    0.031392
  20 N :   -0.182646
  21 C :    0.110695
  22 C :   -0.151520
  23 S :    0.162643
  24 C :   -0.179052
  25 C :    0.164758
  26 N :   -0.224778
  27 C :    0.194713
  28 C :   -0.059036
  29 O :   -0.131648
  30 C :    0.167891
  31 C :    0.071455
  32 C :   -0.027390
  33 C :   -0.018109
  34 C :   -0.023276
  35 C :    0.037118
  36 C :    0.018847
  37 C :   -0.038553
  38 S :    0.007330
  39 C :   -0.045091
  40 C :    0.022131
  41 C :    0.034560
  42 C :   -0.046674
  43 S :    0.054522
  44 C :    0.056304
  45 N :   -0.217406
  46 C :    0.238865
  47 C :   -0.220915
  48 S :    0.144932
  49 C :   -0.119630
  50 C :    0.032893
  51 N :   -0.212287
  52 C :    0.222854
  53 C :   -0.093341
  54 O :   -0.146100
  55 C :    0.226556
  56 C :    0.102939
  57 C :   -0.031567
  58 C :    0.039156
  59 C :   -0.137447
  60 C :    0.290290
  61 C :   -0.358252
  62 C :   -0.183190
  63 N :    0.139133
  64 C :   -0.188378
  65 N :    0.140853
  66 C :    0.001633
  67 C :   -0.006428
  68 C :    0.137287
  69 O :   -0.153910
  70 C :   -0.072130
  71 C :    0.113209
  72 C :   -0.090084
  73 C :   -0.020387
  74 S :    0.180910
  75 C :   -0.124870
  76 C :    0.038749
  77 Br:    0.019165
  78 H :   -0.010895
  79 H :   -0.007658
  80 H :   -0.004201
  81 H :    0.060320
  82 H :    0.025237
  83 H :    0.033800
  84 H :    0.056906
  85 H :    0.039783
  86 H :    0.081290
  87 H :    0.063423
  88 H :    0.023966
  89 H :   -0.013591
  90 H :   -0.018875
  91 H :   -0.019622
  92 H :   -0.019261
  93 H :   -0.018439
  94 H :   -0.014104
  95 H :    0.007679
  96 H :    0.027823
  97 H :    0.019031
  98 H :    0.048852
  99 H :    0.055978
 100 H :    0.045142
 101 H :    0.034413
 102 H :    0.021135
 103 H :    0.047704
 104 H :    0.008535
 105 H :   -0.012388
 106 H :   -0.007521
 107 H :   -0.004385
Sum of atomic charges:   -0.0000000

LOEWDIN ATOMIC CHARGES
----------------------
   0 C :    0.085529
   1 C :   -0.162166
   2 C :   -0.020001
   3 N :   -0.061871
   4 C :   -0.027919
   5 N :   -0.068102
   6 C :   -0.022732
   7 C :   -0.047386
   8 C :    0.021701
   9 C :   -0.033828
  10 C :   -0.145704
  11 C :   -0.009270
  12 S :    0.430875
  13 C :   -0.272592
  14 C :   -0.070091
  15 Br:    0.134593
  16 C :    0.086920
  17 O :   -0.160846
  18 C :   -0.165362
  19 C :    0.113194
  20 N :    0.053747
  21 C :   -0.046000
  22 C :   -0.196429
  23 S :    0.481510
  24 C :   -0.207833
  25 C :   -0.026630
  26 N :   -0.008123
  27 C :    0.019016
  28 C :    0.064385
  29 O :   -0.105073
  30 C :    0.010119
  31 C :    0.026294
  32 C :   -0.107483
  33 C :   -0.055657
  34 C :   -0.159670
  35 C :   -0.032507
  36 C :   -0.048190
  37 C :   -0.187054
  38 S :    0.351768
  39 C :   -0.178492
  40 C :   -0.047788
  41 C :   -0.024958
  42 C :   -0.187854
  43 S :    0.355104
  44 C :    0.005943
  45 N :   -0.001961
  46 C :   -0.013315
  47 C :   -0.231650
  48 S :    0.465464
  49 C :   -0.180703
  50 C :   -0.053730
  51 N :    0.011482
  52 C :    0.020208
  53 C :    0.065107
  54 O :   -0.105252
  55 C :    0.018070
  56 C :    0.089782
  57 C :   -0.105621
  58 C :    0.077175
  59 C :   -0.126271
  60 C :    0.078219
  61 C :   -0.162870
  62 C :   -0.021404
  63 N :   -0.066139
  64 C :   -0.002027
  65 N :   -0.071572
  66 C :   -0.019373
  67 C :   -0.050704
  68 C :    0.079817
  69 O :   -0.156636
  70 C :    0.019947
  71 C :   -0.035067
  72 C :   -0.145566
  73 C :   -0.013969
  74 S :    0.428305
  75 C :   -0.273519
  76 C :   -0.070359
  77 Br:    0.132982
  78 H :    0.040895
  79 H :    0.040773
  80 H :    0.038633
  81 H :    0.046952
  82 H :    0.028371
  83 H :    0.030131
  84 H :    0.047588
  85 H :    0.040819
  86 H :    0.043381
  87 H :    0.054968
  88 H :    0.010158
  89 H :    0.027809
  90 H :    0.033582
  91 H :    0.030729
  92 H :    0.029245
  93 H :    0.030502
  94 H :    0.032223
  95 H :    0.030995
  96 H :    0.025755
  97 H :    0.029416
  98 H :    0.045820
  99 H :    0.049772
 100 H :    0.023485
 101 H :    0.024818
 102 H :    0.035742
 103 H :    0.035792
 104 H :    0.041266
 105 H :    0.040206
 106 H :    0.039929
 107 H :    0.038305

  Mayer bond orders larger than 0.100000
B(  0-C ,  1-C ) :   1.6038 B(  0-C ,  6-C ) :   1.0041 B(  0-C , 18-C ) :   1.1244
B(  1-C ,  2-C ) :   1.1405 B(  1-C ,  4-C ) :   1.1464 B(  2-C ,  3-N ) :   2.9708
B(  4-C ,  5-N ) :   2.9822 B(  6-C ,  7-C ) :   1.2826 B(  6-C , 11-C ) :   1.4185
B(  7-C ,  8-C ) :   1.4298 B(  7-C , 16-C ) :   0.9562 B(  8-C ,  9-C ) :   1.2389
B(  8-C , 78-H ) :   1.0174 B(  9-C , 10-C ) :   1.3140 B(  9-C , 14-C ) :   1.1621
B( 10-C , 11-C ) :   1.3234 B( 10-C , 12-S ) :   1.0838 B( 11-C , 79-H ) :   0.9808
B( 12-S , 13-C ) :   1.0876 B( 13-C , 14-C ) :   1.6191 B( 13-C , 15-Br) :   1.0167
B( 14-C , 80-H ) :   0.9997 B( 16-C , 17-O ) :   2.1171 B( 16-C , 18-C ) :   0.9671
B( 17-O , 86-H ) :   0.1272 B( 18-C , 19-C ) :   1.4128 B( 19-C , 20-N ) :   1.3570
B( 19-C , 81-H ) :   0.9371 B( 20-N , 21-C ) :   0.9733 B( 20-N , 30-C ) :   0.9400
B( 21-C , 22-C ) :   1.5231 B( 21-C , 25-C ) :   1.2596 B( 22-C , 23-S ) :   1.1933
B( 22-C , 82-H ) :   0.9694 B( 23-S , 24-C ) :   1.1645 B( 24-C , 25-C ) :   1.5218
B( 24-C , 83-H ) :   0.9663 B( 25-C , 26-N ) :   1.0422 B( 26-N , 27-C ) :   0.9790
B( 26-N , 31-C ) :   1.1055 B( 27-C , 28-C ) :   0.9766 B( 27-C , 84-H ) :   0.9151
B( 27-C , 85-H ) :   0.9197 B( 28-C , 29-O ) :   2.2529 B( 28-C , 30-C ) :   0.9579
B( 30-C , 86-H ) :   0.8749 B( 30-C , 87-H ) :   0.9076 B( 31-C , 32-C ) :   1.6306
B( 31-C , 88-H ) :   0.9484 B( 32-C , 33-C ) :   1.1853 B( 32-C , 89-H ) :   0.9622
B( 33-C , 34-C ) :   1.6165 B( 33-C , 90-H ) :   0.9600 B( 34-C , 35-C ) :   1.1375
B( 34-C , 38-S ) :   1.0153 B( 35-C , 36-C ) :   1.6107 B( 35-C , 91-H ) :   0.9972
B( 36-C , 37-C ) :   1.1707 B( 36-C , 92-H ) :   0.9915 B( 37-C , 38-S ) :   1.0238
B( 37-C , 39-C ) :   1.5538 B( 39-C , 40-C ) :   1.1635 B( 39-C , 43-S ) :   1.0271
B( 40-C , 41-C ) :   1.6316 B( 40-C , 93-H ) :   0.9921 B( 41-C , 42-C ) :   1.1236
B( 41-C , 94-H ) :   0.9966 B( 42-C , 43-S ) :   0.9982 B( 42-C , 44-C ) :   1.6574
B( 44-C , 45-N ) :   1.1004 B( 44-C , 95-H ) :   0.9468 B( 45-N , 46-C ) :   1.0912
B( 45-N , 55-C ) :   0.9718 B( 46-C , 47-C ) :   1.4877 B( 46-C , 50-C ) :   1.2603
B( 47-C , 48-S ) :   1.1437 B( 47-C , 96-H ) :   0.9635 B( 48-S , 49-C ) :   1.2053
B( 49-C , 50-C ) :   1.5505 B( 49-C , 97-H ) :   0.9734 B( 50-C , 51-N ) :   0.9553
B( 51-N , 52-C ) :   0.9629 B( 51-N , 56-C ) :   1.2148 B( 52-C , 53-C ) :   0.9271
B( 52-C , 98-H ) :   0.9218 B( 52-C , 99-H ) :   0.9229 B( 53-C , 54-O ) :   2.2359
B( 53-C , 55-C ) :   0.9636 B( 55-C ,100-H ) :   0.9045 B( 55-C ,101-H ) :   0.9150
B( 56-C , 57-C ) :   1.5468 B( 56-C ,102-H ) :   0.9710 B( 57-C , 58-C ) :   1.2096
B( 57-C ,103-H ) :   0.9406 B( 58-C , 59-C ) :   1.5251 B( 58-C ,104-H ) :   0.9605
B( 59-C , 60-C ) :   1.0918 B( 59-C , 68-C ) :   0.9605 B( 60-C , 61-C ) :   1.5799
B( 60-C , 66-C ) :   1.0155 B( 61-C , 62-C ) :   1.1327 B( 61-C , 64-C ) :   1.1830
B( 62-C , 63-N ) :   2.9796 B( 64-C , 65-N ) :   2.9436 B( 66-C , 67-C ) :   1.2749
B( 66-C , 73-C ) :   1.4209 B( 67-C , 68-C ) :   0.9176 B( 67-C , 70-C ) :   1.4332
B( 68-C , 69-O ) :   2.2641 B( 70-C , 71-C ) :   1.2458 B( 70-C ,105-H ) :   1.0157
B( 71-C , 72-C ) :   1.3154 B( 71-C , 76-C ) :   1.1615 B( 72-C , 73-C ) :   1.3210
B( 72-C , 74-S ) :   1.0826 B( 73-C ,106-H ) :   0.9810 B( 74-S , 75-C ) :   1.0867
B( 75-C , 76-C ) :   1.6214 B( 75-C , 77-Br) :   1.0159 B( 76-C ,107-H ) :   0.9997

-----------------------------------------------------------------------------
         ABSORPTION SPECTRUM VIA TRANSITION ELECTRIC DIPOLE MOMENTS
-----------------------------------------------------------------------------
State   Energy  Wavelength   fosc         T2         TX        TY        TZ
        (cm-1)    (nm)                  (au**2)     (au)      (au)      (au)
-----------------------------------------------------------------------------
   0   13175.7    759.0   0.003359694   0.08395  -0.06896   0.27916   0.03553
   1   16287.0    614.0   0.087831229   1.77534  -0.19952  -1.29549   0.23925
   2   18503.3    540.4   1.328956345  23.64494   0.66998  -4.38961   1.98177
   3   20601.8    485.4   0.007041464   0.11252   0.17153   0.10771   0.26739
   4   21339.7    468.6   0.006313912   0.09741   0.07151  -0.29187  -0.08428
   5   22525.4    443.9   0.405190882   5.92191   0.84799   2.14076   0.78737
   6   23759.1    420.9   0.001618898   0.02243   0.02509   0.09871   0.10981
   7   25524.5    391.8   0.031769309   0.40976  -0.41716  -0.47612  -0.09511
   8   26036.6    384.1   0.251381754   3.17852   1.19257   1.31849  -0.13373
   9   27278.9    366.6   0.016098758   0.19429   0.11106  -0.39945   0.14964
  10   27813.1    359.5   0.039940742   0.47276   0.57581  -0.18422   0.32752
  11   28469.2    351.3   0.043296473   0.50067  -0.03716   0.25628  -0.65849
  12   28493.1    351.0   0.008112770   0.09374   0.29862  -0.06737   0.00476
  13   29338.1    340.9   0.277324784   3.11195   1.40727   0.19181   1.04631
  14   29699.5    336.7   0.335194153   3.71554   1.28290  -1.42358   0.20770
  15   29879.1    334.7   0.114890417   1.26588  -0.49215   0.57498   0.83251
  16   30086.8    332.4   0.582856228   6.37765   0.13158   2.37107   0.85928
  17   30852.0    324.1   0.517763691   5.52490   0.23886   2.28921   0.47683
  18   31229.7    320.2   0.272299428   2.87048   0.84042  -1.39857  -0.45625
  19   31701.3    315.4   0.014159300   0.14704  -0.26951   0.24791   0.11378
  20   31986.6    312.6   0.008957525   0.09219   0.19476   0.18816   0.13733
  21   32230.0    310.3   0.122074315   1.24692  -0.01947   0.77912   0.79969
  22   32370.6    308.9   0.079251672   0.80600  -0.61323   0.62874   0.18610
  23   32416.6    308.5   0.075407124   0.76581   0.25661  -0.76523  -0.33821
  24   32676.2    306.0   0.172065544   1.73356   1.10440   0.23007   0.67892
  25   32949.6    303.5   0.013397813   0.13386   0.20403  -0.04383  -0.30052
  26   33238.3    300.9   0.233985619   2.31753   1.33292   0.34524   0.64935
  27   33811.2    295.8   0.130149393   1.26723  -0.18846   1.01881   0.44016
  28   33905.4    294.9   0.562862717   5.46524  -0.89572   2.04061   0.70629
  29   34444.9    290.3   0.070486238   0.67368   0.60707  -0.53888  -0.12144
  30   34704.0    288.2   0.322042957   3.05499   0.76602  -1.53004  -0.35664
  31   34830.0    287.1   0.112415773   1.06255  -0.66622   0.66199   0.42483
  32   34908.7    286.5   0.004056008   0.03825  -0.18627  -0.01065   0.05865
  33   35145.6    284.5   0.025412276   0.23804   0.11907  -0.31399   0.35394
  34   35522.8    281.5   0.184241163   1.70748  -1.15064   0.09870   0.61136
  35   35573.4    281.1   0.031221680   0.28894  -0.29632  -0.24901   0.37300
  36   36390.0    274.8   0.014019362   0.12683   0.09171   0.34381   0.01470
  37   36626.9    273.0   0.037419305   0.33633   0.43677   0.27022  -0.26934
  38   36805.3    271.7   0.006044877   0.05407  -0.18556  -0.13752   0.02693
  39   36919.1    270.9   0.000678871   0.00605  -0.01366   0.06345   0.04291
  40   37243.3    268.5   0.006336254   0.05601   0.20578   0.06884  -0.09448
  41   37583.6    266.1   0.008962035   0.07850   0.18502   0.11846   0.17389
  42   37853.3    264.2   0.008508313   0.07400  -0.08731   0.11794  -0.22905
  43   38753.5    258.0   0.001030141   0.00875   0.07839  -0.01902  -0.04737
  44   38930.8    256.9   0.006388247   0.05402  -0.02782  -0.19269   0.12695
  45   39058.1    256.0   0.036836502   0.31049   0.30935  -0.45719   0.07594
  46   39268.8    254.7   0.000402422   0.00337   0.00175  -0.01132   0.05694
  47   39875.5    250.8   0.049287776   0.40692   0.29327   0.55809   0.09719
  48   39929.6    250.4   0.072238470   0.59559  -0.01235   0.76749  -0.08003
  49   40009.4    249.9   0.061741320   0.50803  -0.50914  -0.38075   0.32224

FINAL SINGLE POINT ENERGY    -10499.583863952435

DIPOLE MOMENT
-------------
                                X             Y             Z
Electronic contribution:    -33.52042      -2.62648     -24.48089
Nuclear contribution   :     33.01780       4.11280      22.11558
                        -----------------------------------------
Total Dipole Moment    :     -0.50263       1.48632      -2.36530
                        -----------------------------------------
Magnitude (a.u.)       :      2.83839
Magnitude (Debye)      :      7.21461

Rotational constants in cm-1:     0.001612     0.000127     0.000123
Rotational constants in MHz :    48.331674     3.799151     3.683078

                             ****ORCA TERMINATED NORMALLY****
TOTAL RUN TIME: 0 days 0 hours 11 minutes 36 seconds 281 msec
