                         Program Version 4.2.0 -  RELEASE  -
|  1> # ORCA input file
|  2> # SCF done       -199.424187122405          0.000971799529
|  3> ! CAM-B3LYP def2-SVP def2/J RIJCOSX Grid4 TightSCF
|  4> %maxcore 5000
|  5> %tddft
|  6>     Mode sTDDFT
|  7>     Ethresh 5.0
|  8>     maxcore 5000
|  9> end
| 10>
| 11> %pal
| 12>   nprocs 6
| 13>   end
| 14> * xyz 0 1
| 15>    C       -7.29751        -5.14212        -2.42796
| 16>    C       -7.45152        -5.84963        -1.26189
| 17>    C       -7.83127        -7.20643        -1.20086
| 18>    N       -8.14152        -8.30462        -1.07166
| 19>    C       -7.18701        -5.36967         0.03341
| 20>    N       -6.95079        -5.09089         1.12320
| 21>    C       -7.39279        -5.72254        -3.76414
| 22>    C       -6.97065        -4.75305        -4.70419
| 23>    C       -6.92017        -4.99749        -6.05413
| 24>    C       -7.31629        -6.26297        -6.50076
| 25>    C       -7.74590        -7.22405        -5.55550
| 26>    C       -7.78930        -6.97660        -4.18853
| 27>    S       -8.19755        -8.71677        -6.32221
| 28>    C       -7.80680        -8.03893        -7.88028
| 29>    C       -7.36152        -6.76095        -7.83167
| 30>   Br       -8.02484        -9.08171        -9.42401
| 31>    C       -6.63339        -3.50543        -3.99228
| 32>    O       -6.20318        -2.49063        -4.50824
| 33>    C       -6.93152        -3.74741        -2.57524
| 34>    C       -6.97972        -2.80481        -1.57188
| 35>    C       -6.73418        -1.42616        -1.60656
| 36>    S       -6.29972        -0.51975        -3.04391
| 37>    C       -6.47033         0.95182        -2.19863
| 38>    C       -6.83233         0.81218        -0.88947
| 39>    C       -7.02676         1.95889         0.04679
| 40>    C       -6.95277        -0.55060        -0.51817
| 41>    C       -7.26587        -0.90744         0.83644
| 42>    C       -6.80181        -1.96182         1.54163
| 43>    C       -7.16659        -2.19730         2.89911
| 44>    C       -6.72320        -3.25687         3.60914
| 45>    C       -7.12627        -3.52538         4.95464
| 46>    C       -6.81013        -4.63321         5.64648
| 47>    C       -5.96514        -5.74243         5.10188
| 48>    C       -7.30918        -4.82385         7.05813
| 49>    N       -6.21732        -4.99240         7.98644
| 50>    C       -5.85062        -6.16407         8.50569
| 51>    C       -4.74002        -6.32234         9.28007
| 52>    C       -4.29064        -7.49916         9.92264
| 53>    C       -3.18290        -7.39414        10.81086
| 54>    C       -2.39293        -6.20620        11.15774
| 55>    O       -2.47449        -5.06025        10.79003
| 56>    N       -1.41879        -6.63646        12.09210
| 57>    C       -1.54085        -8.00209        12.37336
| 58>    O       -0.87937        -8.62713        13.15836
| 59>    C       -2.66429        -8.46956        11.53145
| 60>    C       -3.17993        -9.74880        11.43293
| 61>    C       -4.24056        -9.88145        10.55305
| 62>    C       -4.79399        -8.82875         9.81370
| 63>    C       -5.86939        -9.42097         8.97946
| 64>    O       -6.61704        -8.93088         8.16575
| 65>    N       -5.89510       -10.77054         9.28999
| 66>    C       -4.95684       -11.14318        10.22989
| 67>    O       -4.79041       -12.25080        10.66224
| 68>    C       -0.46674        -5.76755        12.57206
| 69>    C        0.54797        -6.11129        13.38639
| 70>    C        1.52178        -5.17947        13.83120
| 71>    C        2.68988        -5.49740        14.44892
| 72>    C        3.32979        -6.78416        14.64158
| 73>    C        3.26999        -7.85750        13.79254
| 74>    C        3.96993        -9.06309        14.00920
| 75>    N        4.50941       -10.06536        14.15605
| 76>    C        2.61448        -7.84229        12.54193
| 77>    N        2.16143        -7.85324        11.48753
| 78>    C        4.24003        -6.64459        15.77332
| 79>    C        4.34466        -5.26929        16.10484
| 80>    C        3.44207        -4.48515        15.23539
| 81>    O        3.30105        -3.28448        15.20303
| 82>    C        5.16348        -4.81535        17.11030
| 83>    C        5.90127        -5.76141        17.82974
| 84>    C        5.77714        -7.13258        17.50048
| 85>    C        4.95807        -7.59255        16.47676
| 86>    S        6.76422        -8.12839        18.52623
| 87>    C        7.32664        -6.70911        19.36893
| 88>    C        6.80257        -5.54847        18.90895
| 89>   Br        8.54971        -6.89457        20.77842
| 90>    H       -6.58828        -4.23741        -6.74381
| 91>    H       -8.12686        -7.74258        -3.51082
| 92>    H       -7.07651        -6.19132        -8.69731
| 93>    H       -7.32262        -3.15968        -0.60666
| 94>    H       -6.29405         1.87742        -2.71334
| 95>    H       -6.81517         2.89663        -0.45972
| 96>    H       -6.36514         1.86687         0.90676
| 97>    H       -8.05401         1.98663         0.40983
| 98>    H       -7.88692        -0.18887         1.35856
| 99>    H       -6.10075        -2.65703         1.10218
|100>    H       -7.85186        -1.49248         3.35501
|101>    H       -6.05697        -3.95876         3.13331
|102>    H       -7.75806        -2.77860         5.42125
|103>    H       -5.99445        -6.60959         5.75664
|104>    H       -4.92659        -5.42481         5.00473
|105>    H       -6.31373        -6.04016         4.11522
|106>    H       -7.93226        -5.72223         7.10617
|107>    H       -7.91171        -3.96325         7.36640
|108>    H       -5.60085        -4.20030         8.11024
|109>    H       -6.51414        -6.98928         8.29740
|110>    H       -4.13624        -5.44487         9.46142
|111>    H       -2.78404       -10.58303        11.98703
|112>    H       -6.54134       -11.41179         8.85288
|113>    H       -0.58205        -4.76266        12.18281
|114>    H        0.62815        -7.13220        13.72602
|115>    H        1.29565        -4.12284        13.74325
|116>    H        5.23184        -3.76299        17.33730
|117>    H        4.88884        -8.64667        16.26438
|118>    H        7.03930        -4.58119        19.31306
|119> *
|120>
|121>                          ****END OF INPUT****

CARTESIAN COORDINATES (ANGSTROEM)
---------------------------------
  C     -7.297510   -5.142120   -2.427960
  C     -7.451520   -5.849630   -1.261890
  C     -7.831270   -7.206430   -1.200860
  N     -8.141520   -8.304620   -1.071660
  C     -7.187010   -5.369670    0.033410
  N     -6.950790   -5.090890    1.123200
  C     -7.392790   -5.722540   -3.764140
  C     -6.970650   -4.753050   -4.704190
  C     -6.920170   -4.997490   -6.054130
  C     -7.316290   -6.262970   -6.500760
  C     -7.745900   -7.224050   -5.555500
  C     -7.789300   -6.976600   -4.188530
  S     -8.197550   -8.716770   -6.322210
  C     -7.806800   -8.038930   -7.880280
  C     -7.361520   -6.760950   -7.831670
  Br    -8.024840   -9.081710   -9.424010
  C     -6.633390   -3.505430   -3.992280
  O     -6.203180   -2.490630   -4.508240
  C     -6.931520   -3.747410   -2.575240
  C     -6.979720   -2.804810   -1.571880
  C     -6.734180   -1.426160   -1.606560
  S     -6.299720   -0.519750   -3.043910
  C     -6.470330    0.951820   -2.198630
  C     -6.832330    0.812180   -0.889470
  C     -7.026760    1.958890    0.046790
  C     -6.952770   -0.550600   -0.518170
  C     -7.265870   -0.907440    0.836440
  C     -6.801810   -1.961820    1.541630
  C     -7.166590   -2.197300    2.899110
  C     -6.723200   -3.256870    3.609140
  C     -7.126270   -3.525380    4.954640
  C     -6.810130   -4.633210    5.646480
  C     -5.965140   -5.742430    5.101880
  C     -7.309180   -4.823850    7.058130
  N     -6.217320   -4.992400    7.986440
  C     -5.850620   -6.164070    8.505690
  C     -4.740020   -6.322340    9.280070
  C     -4.290640   -7.499160    9.922640
  C     -3.182900   -7.394140   10.810860
  C     -2.392930   -6.206200   11.157740
  O     -2.474490   -5.060250   10.790030
  N     -1.418790   -6.636460   12.092100
  C     -1.540850   -8.002090   12.373360
  O     -0.879370   -8.627130   13.158360
  C     -2.664290   -8.469560   11.531450
  C     -3.179930   -9.748800   11.432930
  C     -4.240560   -9.881450   10.553050
  C     -4.793990   -8.828750    9.813700
  C     -5.869390   -9.420970    8.979460
  O     -6.617040   -8.930880    8.165750
  N     -5.895100  -10.770540    9.289990
  C     -4.956840  -11.143180   10.229890
  O     -4.790410  -12.250800   10.662240
  C     -0.466740   -5.767550   12.572060
  C      0.547970   -6.111290   13.386390
  C      1.521780   -5.179470   13.831200
  C      2.689880   -5.497400   14.448920
  C      3.329790   -6.784160   14.641580
  C      3.269990   -7.857500   13.792540
  C      3.969930   -9.063090   14.009200
  N      4.509410  -10.065360   14.156050
  C      2.614480   -7.842290   12.541930
  N      2.161430   -7.853240   11.487530
  C      4.240030   -6.644590   15.773320
  C      4.344660   -5.269290   16.104840
  C      3.442070   -4.485150   15.235390
  O      3.301050   -3.284480   15.203030
  C      5.163480   -4.815350   17.110300
  C      5.901270   -5.761410   17.829740
  C      5.777140   -7.132580   17.500480
  C      4.958070   -7.592550   16.476760
  S      6.764220   -8.128390   18.526230
  C      7.326640   -6.709110   19.368930
  C      6.802570   -5.548470   18.908950
  Br     8.549710   -6.894570   20.778420
  H     -6.588280   -4.237410   -6.743810
  H     -8.126860   -7.742580   -3.510820
  H     -7.076510   -6.191320   -8.697310
  H     -7.322620   -3.159680   -0.606660
  H     -6.294050    1.877420   -2.713340
  H     -6.815170    2.896630   -0.459720
  H     -6.365140    1.866870    0.906760
  H     -8.054010    1.986630    0.409830
  H     -7.886920   -0.188870    1.358560
  H     -6.100750   -2.657030    1.102180
  H     -7.851860   -1.492480    3.355010
  H     -6.056970   -3.958760    3.133310
  H     -7.758060   -2.778600    5.421250
  H     -5.994450   -6.609590    5.756640
  H     -4.926590   -5.424810    5.004730
  H     -6.313730   -6.040160    4.115220
  H     -7.932260   -5.722230    7.106170
  H     -7.911710   -3.963250    7.366400
  H     -5.600850   -4.200300    8.110240
  H     -6.514140   -6.989280    8.297400
  H     -4.136240   -5.444870    9.461420
  H     -2.784040  -10.583030   11.987030
  H     -6.541340  -11.411790    8.852880
  H     -0.582050   -4.762660   12.182810
  H      0.628150   -7.132200   13.726020
  H      1.295650   -4.122840   13.743250
  H      5.231840   -3.762990   17.337300
  H      4.888840   -8.646670   16.264380
  H      7.039300   -4.581190   19.313060

 Total Charge           Charge          ....    0
 Multiplicity           Mult            ....    1
 Number of Electrons    NEL             ....  586
 Basis Dimension        Dim             .... 1243

ORBITAL ENERGIES
----------------

  NO   OCC          E(Eh)            E(eV)
   0   2.0000    -482.885501    -13139.9825
   1   2.0000    -482.881532    -13139.8745
   2   2.0000     -88.975254     -2421.1398
   3   2.0000     -88.970847     -2421.0198
   4   2.0000     -88.957255     -2420.6500
   5   2.0000     -62.563203     -1702.4313
   6   2.0000     -62.559245     -1702.3236
   7   2.0000     -56.397155     -1534.6446
   8   2.0000     -56.394440     -1534.5707
   9   2.0000     -56.394404     -1534.5698
  10   2.0000     -56.393189     -1534.5367
  11   2.0000     -56.390485     -1534.4631
  12   2.0000     -56.390450     -1534.4622
  13   2.0000     -19.230938      -523.3004
  14   2.0000     -19.229967      -523.2740
  15   2.0000     -19.222138      -523.0610
  16   2.0000     -19.217826      -522.9436
  17   2.0000     -19.216541      -522.9087
  18   2.0000     -19.207613      -522.6657
  19   2.0000     -14.482087      -394.0776
  20   2.0000     -14.458634      -393.4394
  21   2.0000     -14.451943      -393.2574
  22   2.0000     -14.420992      -392.4151
  23   2.0000     -14.413710      -392.2170
  24   2.0000     -14.409035      -392.0898
  25   2.0000     -14.405293      -391.9879
  26   2.0000     -10.408976      -283.2426
  27   2.0000     -10.407758      -283.2095
  28   2.0000     -10.406124      -283.1650
  29   2.0000     -10.397947      -282.9425
  30   2.0000     -10.366950      -282.0991
  31   2.0000     -10.358875      -281.8793
  32   2.0000     -10.358689      -281.8743
  33   2.0000     -10.354003      -281.7468
  34   2.0000     -10.342079      -281.4223
  35   2.0000     -10.339271      -281.3459
  36   2.0000     -10.336906      -281.2815
  37   2.0000     -10.336451      -281.2691
  38   2.0000     -10.334088      -281.2048
  39   2.0000     -10.325929      -280.9828
  40   2.0000     -10.324982      -280.9570
  41   2.0000     -10.324831      -280.9529
  42   2.0000     -10.322867      -280.8995
  43   2.0000     -10.322462      -280.8885
  44   2.0000     -10.320691      -280.8403
  45   2.0000     -10.318395      -280.7778
  46   2.0000     -10.317539      -280.7545
  47   2.0000     -10.311576      -280.5923
  48   2.0000     -10.311530      -280.5910
  49   2.0000     -10.310234      -280.5557
  50   2.0000     -10.308646      -280.5125
  51   2.0000     -10.308374      -280.5051
  52   2.0000     -10.308152      -280.4991
  53   2.0000     -10.307076      -280.4698
  54   2.0000     -10.306750      -280.4609
  55   2.0000     -10.304983      -280.4128
  56   2.0000     -10.304653      -280.4039
  57   2.0000     -10.302796      -280.3533
  58   2.0000     -10.302751      -280.3521
  59   2.0000     -10.302083      -280.3339
  60   2.0000     -10.300248      -280.2840
  61   2.0000     -10.299946      -280.2758
  62   2.0000     -10.299597      -280.2663
  63   2.0000     -10.298590      -280.2389
  64   2.0000     -10.298170      -280.2275
  65   2.0000     -10.296512      -280.1823
  66   2.0000     -10.295853      -280.1644
  67   2.0000     -10.294617      -280.1308
  68   2.0000     -10.292037      -280.0606
  69   2.0000     -10.291073      -280.0343
  70   2.0000     -10.286965      -279.9226
  71   2.0000     -10.286485      -279.9095
  72   2.0000     -10.284539      -279.8565
  73   2.0000     -10.283997      -279.8418
  74   2.0000     -10.283442      -279.8267
  75   2.0000     -10.280958      -279.7591
  76   2.0000     -10.279052      -279.7072
  77   2.0000     -10.275452      -279.6093
  78   2.0000     -10.271702      -279.5072
  79   2.0000     -10.270795      -279.4825
  80   2.0000     -10.268754      -279.4270
  81   2.0000     -10.262767      -279.2641
  82   2.0000     -10.254674      -279.0439
  83   2.0000      -8.792622      -239.2594
  84   2.0000      -8.788676      -239.1520
  85   2.0000      -8.071200      -219.6285
  86   2.0000      -8.066794      -219.5086
  87   2.0000      -8.051572      -219.0944
  88   2.0000      -6.628929      -180.3823
  89   2.0000      -6.624940      -180.2738
  90   2.0000      -6.614350      -179.9856
  91   2.0000      -6.614153      -179.9802
  92   2.0000      -6.610424      -179.8788
  93   2.0000      -6.610237      -179.8737
  94   2.0000      -6.040879      -164.3807
  95   2.0000      -6.036623      -164.2649
  96   2.0000      -6.036480      -164.2610
  97   2.0000      -6.032449      -164.1513
  98   2.0000      -6.032216      -164.1450
  99   2.0000      -6.028041      -164.0313
 100   2.0000      -6.020939      -163.8381
 101   2.0000      -6.016261      -163.7108
 102   2.0000      -6.013879      -163.6460
 103   2.0000      -2.744786       -74.6894
 104   2.0000      -2.740851       -74.5824
 105   2.0000      -2.740732       -74.5791
 106   2.0000      -2.740548       -74.5741
 107   2.0000      -2.736727       -74.4701
 108   2.0000      -2.736591       -74.4664
 109   2.0000      -2.728973       -74.2591
 110   2.0000      -2.728963       -74.2588
 111   2.0000      -2.725051       -74.1524
 112   2.0000      -2.725041       -74.1521
 113   2.0000      -1.176866       -32.0242
 114   2.0000      -1.165294       -31.7093
 115   2.0000      -1.152814       -31.3697
 116   2.0000      -1.142969       -31.1018
 117   2.0000      -1.134038       -30.8587
 118   2.0000      -1.122664       -30.5492
 119   2.0000      -1.070107       -29.1191
 120   2.0000      -1.051859       -28.6225
 121   2.0000      -1.050235       -28.5784
 122   2.0000      -1.023415       -27.8486
 123   2.0000      -1.016963       -27.6730
 124   2.0000      -1.015116       -27.6227
 125   2.0000      -1.006239       -27.3811
 126   2.0000      -0.996598       -27.1188
 127   2.0000      -0.994072       -27.0501
 128   2.0000      -0.988232       -26.8912
 129   2.0000      -0.986809       -26.8524
 130   2.0000      -0.985263       -26.8104
 131   2.0000      -0.982436       -26.7334
 132   2.0000      -0.942369       -25.6432
 133   2.0000      -0.939141       -25.5553
 134   2.0000      -0.926162       -25.2022
 135   2.0000      -0.923702       -25.1352
 136   2.0000      -0.908840       -24.7308
 137   2.0000      -0.907851       -24.7039
 138   2.0000      -0.903934       -24.5973
 139   2.0000      -0.902688       -24.5634
 140   2.0000      -0.897884       -24.4327
 141   2.0000      -0.896173       -24.3861
 142   2.0000      -0.885530       -24.0965
 143   2.0000      -0.880406       -23.9571
 144   2.0000      -0.874565       -23.7981
 145   2.0000      -0.869515       -23.6607
 146   2.0000      -0.868667       -23.6376
 147   2.0000      -0.844985       -22.9932
 148   2.0000      -0.838254       -22.8100
 149   2.0000      -0.830910       -22.6102
 150   2.0000      -0.828321       -22.5398
 151   2.0000      -0.823570       -22.4105
 152   2.0000      -0.810682       -22.0598
 153   2.0000      -0.797519       -21.7016
 154   2.0000      -0.784692       -21.3526
 155   2.0000      -0.781497       -21.2656
 156   2.0000      -0.776824       -21.1384
 157   2.0000      -0.762273       -20.7425
 158   2.0000      -0.761366       -20.7178
 159   2.0000      -0.759122       -20.6568
 160   2.0000      -0.750569       -20.4240
 161   2.0000      -0.748065       -20.3559
 162   2.0000      -0.745504       -20.2862
 163   2.0000      -0.722175       -19.6514
 164   2.0000      -0.715339       -19.4654
 165   2.0000      -0.714054       -19.4304
 166   2.0000      -0.705017       -19.1845
 167   2.0000      -0.696739       -18.9592
 168   2.0000      -0.694130       -18.8882
 169   2.0000      -0.691113       -18.8062
 170   2.0000      -0.684844       -18.6355
 171   2.0000      -0.681306       -18.5393
 172   2.0000      -0.662445       -18.0260
 173   2.0000      -0.660978       -17.9861
 174   2.0000      -0.659195       -17.9376
 175   2.0000      -0.650753       -17.7079
 176   2.0000      -0.646390       -17.5892
 177   2.0000      -0.645886       -17.5754
 178   2.0000      -0.640176       -17.4201
 179   2.0000      -0.626973       -17.0608
 180   2.0000      -0.625666       -17.0252
 181   2.0000      -0.622336       -16.9346
 182   2.0000      -0.617763       -16.8102
 183   2.0000      -0.613222       -16.6866
 184   2.0000      -0.606289       -16.4980
 185   2.0000      -0.603449       -16.4207
 186   2.0000      -0.597781       -16.2664
 187   2.0000      -0.592081       -16.1113
 188   2.0000      -0.589331       -16.0365
 189   2.0000      -0.586777       -15.9670
 190   2.0000      -0.584809       -15.9135
 191   2.0000      -0.583366       -15.8742
 192   2.0000      -0.579696       -15.7743
 193   2.0000      -0.576673       -15.6921
 194   2.0000      -0.573637       -15.6094
 195   2.0000      -0.570322       -15.5192
 196   2.0000      -0.566257       -15.4086
 197   2.0000      -0.560382       -15.2488
 198   2.0000      -0.557059       -15.1583
 199   2.0000      -0.546390       -14.8680
 200   2.0000      -0.544778       -14.8242
 201   2.0000      -0.542504       -14.7623
 202   2.0000      -0.541222       -14.7274
 203   2.0000      -0.539303       -14.6752
 204   2.0000      -0.537692       -14.6313
 205   2.0000      -0.532744       -14.4967
 206   2.0000      -0.530866       -14.4456
 207   2.0000      -0.530429       -14.4337
 208   2.0000      -0.529785       -14.4162
 209   2.0000      -0.527121       -14.3437
 210   2.0000      -0.525818       -14.3082
 211   2.0000      -0.524952       -14.2847
 212   2.0000      -0.518208       -14.1012
 213   2.0000      -0.517236       -14.0747
 214   2.0000      -0.516711       -14.0604
 215   2.0000      -0.515340       -14.0231
 216   2.0000      -0.511584       -13.9209
 217   2.0000      -0.508960       -13.8495
 218   2.0000      -0.508368       -13.8334
 219   2.0000      -0.502535       -13.6747
 220   2.0000      -0.502348       -13.6696
 221   2.0000      -0.500286       -13.6135
 222   2.0000      -0.499668       -13.5967
 223   2.0000      -0.497358       -13.5338
 224   2.0000      -0.496977       -13.5234
 225   2.0000      -0.494484       -13.4556
 226   2.0000      -0.490379       -13.3439
 227   2.0000      -0.488345       -13.2886
 228   2.0000      -0.487231       -13.2582
 229   2.0000      -0.486649       -13.2424
 230   2.0000      -0.485723       -13.2172
 231   2.0000      -0.478320       -13.0158
 232   2.0000      -0.477627       -12.9969
 233   2.0000      -0.474505       -12.9119
 234   2.0000      -0.472342       -12.8531
 235   2.0000      -0.469659       -12.7801
 236   2.0000      -0.466922       -12.7056
 237   2.0000      -0.464974       -12.6526
 238   2.0000      -0.459057       -12.4916
 239   2.0000      -0.457692       -12.4544
 240   2.0000      -0.457524       -12.4498
 241   2.0000      -0.456539       -12.4230
 242   2.0000      -0.452180       -12.3044
 243   2.0000      -0.451780       -12.2935
 244   2.0000      -0.448438       -12.2026
 245   2.0000      -0.445901       -12.1336
 246   2.0000      -0.444662       -12.0999
 247   2.0000      -0.443358       -12.0644
 248   2.0000      -0.441111       -12.0032
 249   2.0000      -0.440328       -11.9819
 250   2.0000      -0.439757       -11.9664
 251   2.0000      -0.438661       -11.9366
 252   2.0000      -0.436202       -11.8696
 253   2.0000      -0.433373       -11.7927
 254   2.0000      -0.431496       -11.7416
 255   2.0000      -0.430551       -11.7159
 256   2.0000      -0.426722       -11.6117
 257   2.0000      -0.419757       -11.4222
 258   2.0000      -0.417742       -11.3673
 259   2.0000      -0.415785       -11.3141
 260   2.0000      -0.415456       -11.3051
 261   2.0000      -0.410681       -11.1752
 262   2.0000      -0.408128       -11.1057
 263   2.0000      -0.407771       -11.0960
 264   2.0000      -0.404111       -10.9964
 265   2.0000      -0.402283       -10.9467
 266   2.0000      -0.388783       -10.5793
 267   2.0000      -0.384049       -10.4505
 268   2.0000      -0.381180       -10.3724
 269   2.0000      -0.376679       -10.2500
 270   2.0000      -0.375848       -10.2273
 271   2.0000      -0.374853       -10.2003
 272   2.0000      -0.374159       -10.1814
 273   2.0000      -0.370989       -10.0951
 274   2.0000      -0.370939       -10.0938
 275   2.0000      -0.370270       -10.0756
 276   2.0000      -0.367719       -10.0061
 277   2.0000      -0.357812        -9.7366
 278   2.0000      -0.355263        -9.6672
 279   2.0000      -0.349765        -9.5176
 280   2.0000      -0.347818        -9.4646
 281   2.0000      -0.345344        -9.3973
 282   2.0000      -0.331423        -9.0185
 283   2.0000      -0.328113        -8.9284
 284   2.0000      -0.319897        -8.7048
 285   2.0000      -0.314344        -8.5537
 286   2.0000      -0.309926        -8.4335
 287   2.0000      -0.295178        -8.0322
 288   2.0000      -0.289711        -7.8834
 289   2.0000      -0.287742        -7.8299
 290   2.0000      -0.284581        -7.7438
 291   2.0000      -0.263757        -7.1772
 292   2.0000      -0.253735        -6.9045
 293   0.0000      -0.091698        -2.4952
 294   0.0000      -0.080147        -2.1809
 295   0.0000      -0.079615        -2.1664
 296   0.0000      -0.060802        -1.6545
 297   0.0000      -0.051682        -1.4064

MULLIKEN ATOMIC CHARGES
-----------------------
   0 C :    0.312100
   1 C :   -0.357287
   2 C :   -0.189008
   3 N :    0.149089
   4 C :   -0.195947
   5 N :    0.147572
   6 C :    0.004384
   7 C :   -0.004748
   8 C :   -0.072826
   9 C :    0.116018
  10 C :   -0.093979
  11 C :   -0.016745
  12 S :    0.185677
  13 C :   -0.123097
  14 C :    0.040608
  15 Br:    0.022803
  16 C :    0.154682
  17 O :   -0.172377
  18 C :   -0.108989
  19 C :   -0.015150
  20 C :   -0.132495
  21 S :    0.187576
  22 C :   -0.090247
  23 C :   -0.093186
  24 C :    0.121869
  25 C :    0.147026
  26 C :   -0.079839
  27 C :    0.051561
  28 C :   -0.018510
  29 C :    0.047428
  30 C :   -0.004539
  31 C :   -0.209327
  32 C :    0.090302
  33 C :    0.219542
  34 N :   -0.127243
  35 C :    0.064448
  36 C :   -0.119894
  37 C :    0.128298
  38 C :   -0.060563
  39 C :    0.199701
  40 O :   -0.158563
  41 N :   -0.235868
  42 C :    0.228421
  43 O :   -0.135074
  44 C :    0.004761
  45 C :   -0.108831
  46 C :   -0.011943
  47 C :   -0.106121
  48 C :    0.180270
  49 O :   -0.171410
  50 N :   -0.130743
  51 C :    0.160506
  52 O :   -0.129156
  53 C :    0.105281
  54 C :   -0.007979
  55 C :    0.029381
  56 C :   -0.112869
  57 C :    0.264110
  58 C :   -0.319825
  59 C :   -0.177082
  60 N :    0.145180
  61 C :   -0.203440
  62 N :    0.159470
  63 C :    0.010032
  64 C :   -0.007949
  65 C :    0.141553
  66 O :   -0.145188
  67 C :   -0.071200
  68 C :    0.111631
  69 C :   -0.089424
  70 C :   -0.019897
  71 S :    0.184047
  72 C :   -0.125948
  73 C :    0.042462
  74 Br:    0.020675
  75 H :   -0.011213
  76 H :   -0.006370
  77 H :   -0.004240
  78 H :    0.011184
  79 H :    0.021580
  80 H :    0.009053
  81 H :    0.033672
  82 H :    0.031254
  83 H :   -0.008680
  84 H :    0.008063
  85 H :   -0.020878
  86 H :    0.006118
  87 H :   -0.032939
  88 H :    0.017324
  89 H :    0.034122
  90 H :    0.050269
  91 H :    0.036446
  92 H :    0.007070
  93 H :    0.126374
  94 H :    0.034191
  95 H :   -0.014350
  96 H :    0.011903
  97 H :    0.139771
  98 H :    0.038473
  99 H :    0.059173
 100 H :    0.015041
 101 H :   -0.009760
 102 H :   -0.002563
 103 H :   -0.004043
Sum of atomic charges:   -0.0000000

LOEWDIN ATOMIC CHARGES
----------------------
   0 C :    0.082649
   1 C :   -0.154847
   2 C :   -0.019466
   3 N :   -0.059152
   4 C :   -0.008270
   5 N :   -0.060812
   6 C :   -0.021828
   7 C :   -0.048573
   8 C :    0.020791
   9 C :   -0.032905
  10 C :   -0.144997
  11 C :   -0.009873
  12 S :    0.431958
  13 C :   -0.271928
  14 C :   -0.070337
  15 Br:    0.136141
  16 C :    0.080649
  17 O :   -0.163056
  18 C :   -0.118008
  19 C :    0.059877
  20 C :   -0.190515
  21 S :    0.504846
  22 C :   -0.167943
  23 C :   -0.068974
  24 C :   -0.044959
  25 C :   -0.013590
  26 C :   -0.045516
  27 C :    0.007275
  28 C :   -0.034536
  29 C :    0.004892
  30 C :   -0.051012
  31 C :   -0.032175
  32 C :   -0.054793
  33 C :    0.047070
  34 N :    0.033303
  35 C :    0.082830
  36 C :   -0.152653
  37 C :    0.049967
  38 C :   -0.065960
  39 C :    0.112734
  40 O :   -0.143425
  41 N :   -0.012484
  42 C :    0.109065
  43 O :   -0.122203
  44 C :   -0.022812
  45 C :    0.006603
  46 C :   -0.023939
  47 C :   -0.072891
  48 C :    0.099102
  49 O :   -0.165167
  50 N :    0.002777
  51 C :    0.082839
  52 O :   -0.142055
  53 C :    0.082330
  54 C :   -0.059660
  55 C :    0.074560
  56 C :   -0.096999
  57 C :    0.070829
  58 C :   -0.135332
  59 C :   -0.017645
  60 N :   -0.052738
  61 C :   -0.018385
  62 N :   -0.053670
  63 C :   -0.017265
  64 C :   -0.052430
  65 C :    0.082452
  66 O :   -0.145447
  67 C :    0.021400
  68 C :   -0.034512
  69 C :   -0.143497
  70 C :   -0.012534
  71 S :    0.431141
  72 C :   -0.273095
  73 C :   -0.070289
  74 Br:    0.134441
  75 H :    0.040676
  76 H :    0.040897
  77 H :    0.038639
  78 H :    0.049045
  79 H :    0.024828
  80 H :    0.033349
  81 H :    0.037538
  82 H :    0.035550
  83 H :    0.029579
  84 H :    0.030981
  85 H :    0.023609
  86 H :    0.028697
  87 H :    0.022181
  88 H :    0.031712
  89 H :    0.041275
  90 H :    0.045344
  91 H :    0.039985
  92 H :    0.026309
  93 H :    0.085419
  94 H :    0.024632
  95 H :    0.025720
  96 H :    0.048557
  97 H :    0.097647
  98 H :    0.039579
  99 H :    0.036552
 100 H :    0.043919
 101 H :    0.040866
 102 H :    0.041101
 103 H :    0.038447

  Mayer bond orders larger than 0.100000
B(  0-C ,  1-C ) :   1.5999 B(  0-C ,  6-C ) :   1.0025 B(  0-C , 18-C ) :   1.0895
B(  1-C ,  2-C ) :   1.1398 B(  1-C ,  4-C ) :   1.1540 B(  2-C ,  3-N ) :   2.9726
B(  4-C ,  5-N ) :   2.9676 B(  6-C ,  7-C ) :   1.2778 B(  6-C , 11-C ) :   1.4122
B(  7-C ,  8-C ) :   1.4303 B(  7-C , 16-C ) :   0.9501 B(  8-C ,  9-C ) :   1.2397
B(  8-C , 75-H ) :   1.0164 B(  9-C , 10-C ) :   1.3109 B(  9-C , 14-C ) :   1.1639
B( 10-C , 11-C ) :   1.3285 B( 10-C , 12-S ) :   1.0849 B( 11-C , 76-H ) :   0.9788
B( 12-S , 13-C ) :   1.0876 B( 13-C , 14-C ) :   1.6176 B( 13-C , 15-Br) :   1.0177
B( 14-C , 77-H ) :   1.0000 B( 16-C , 17-O ) :   2.1512 B( 16-C , 18-C ) :   0.9698
B( 18-C , 19-C ) :   1.5013 B( 19-C , 20-C ) :   1.3018 B( 19-C , 78-H ) :   0.9362
B( 20-C , 21-S ) :   1.0987 B( 20-C , 25-C ) :   1.3234 B( 21-S , 22-C ) :   1.1776
B( 22-C , 23-C ) :   1.5176 B( 22-C , 79-H ) :   0.9643 B( 23-C , 24-C ) :   1.0952
B( 23-C , 25-C ) :   1.2960 B( 24-C , 80-H ) :   0.9499 B( 24-C , 81-H ) :   0.9437
B( 24-C , 82-H ) :   0.9410 B( 25-C , 26-C ) :   1.0805 B( 26-C , 27-C ) :   1.6745
B( 26-C , 83-H ) :   0.9514 B( 27-C , 28-C ) :   1.1162 B( 27-C , 84-H ) :   0.9799
B( 28-C , 29-C ) :   1.6798 B( 28-C , 85-H ) :   0.9950 B( 29-C , 30-C ) :   1.1022
B( 29-C , 86-H ) :   0.9631 B( 30-C , 31-C ) :   1.7656 B( 30-C , 87-H ) :   0.9752
B( 31-C , 32-C ) :   1.0659 B( 31-C , 33-C ) :   1.0584 B( 32-C , 88-H ) :   0.9480
B( 32-C , 89-H ) :   0.9440 B( 32-C , 90-H ) :   0.9417 B( 33-C , 34-N ) :   0.9878
B( 33-C , 91-H ) :   0.9212 B( 33-C , 92-H ) :   0.9414 B( 34-N , 35-C ) :   1.3177
B( 34-N , 93-H ) :   0.9338 B( 35-C , 36-C ) :   1.4646 B( 35-C , 94-H ) :   0.9300
B( 36-C , 37-C ) :   1.2974 B( 36-C , 95-H ) :   0.9379 B( 37-C , 38-C ) :   1.2862
B( 37-C , 47-C ) :   1.2244 B( 38-C , 39-C ) :   0.9416 B( 38-C , 44-C ) :   1.3922
B( 39-C , 40-O ) :   2.1255 B( 39-C , 41-N ) :   1.0044 B( 41-N , 42-C ) :   1.0097
B( 41-N , 53-C ) :   1.0636 B( 42-C , 43-O ) :   2.2026 B( 42-C , 44-C ) :   0.8842
B( 44-C , 45-C ) :   1.3301 B( 45-C , 46-C ) :   1.3305 B( 45-C , 96-H ) :   1.0304
B( 46-C , 47-C ) :   1.4030 B( 46-C , 51-C ) :   0.8584 B( 47-C , 48-C ) :   0.9097
B( 48-C , 49-O ) :   2.1116 B( 48-C , 50-N ) :   1.1173 B( 49-O , 94-H ) :   0.1062
B( 50-N , 51-C ) :   1.0811 B( 50-N , 97-H ) :   0.9151 B( 51-C , 52-O ) :   2.2871
B( 53-C , 54-C ) :   1.6740 B( 53-C , 98-H ) :   0.9745 B( 54-C , 55-C ) :   1.1147
B( 54-C , 99-H ) :   0.9340 B( 55-C , 56-C ) :   1.6399 B( 55-C ,100-H ) :   0.9615
B( 56-C , 57-C ) :   1.0382 B( 56-C , 65-C ) :   0.9421 B( 57-C , 58-C ) :   1.6494
B( 57-C , 63-C ) :   1.0147 B( 58-C , 59-C ) :   1.1299 B( 58-C , 61-C ) :   1.1544
B( 59-C , 60-N ) :   2.9860 B( 61-C , 62-N ) :   3.0077 B( 63-C , 64-C ) :   1.2756
B( 63-C , 70-C ) :   1.4160 B( 64-C , 65-C ) :   0.9198 B( 64-C , 67-C ) :   1.4292
B( 65-C , 66-O ) :   2.2722 B( 67-C , 68-C ) :   1.2519 B( 67-C ,101-H ) :   1.0157
B( 68-C , 69-C ) :   1.3093 B( 68-C , 73-C ) :   1.1637 B( 69-C , 70-C ) :   1.3271
B( 69-C , 71-S ) :   1.0833 B( 70-C ,102-H ) :   0.9831 B( 71-S , 72-C ) :   1.0866
B( 72-C , 73-C ) :   1.6185 B( 72-C , 74-Br) :   1.0177 B( 73-C ,103-H ) :   1.0002

-----------------------------------------------------------------------------
         ABSORPTION SPECTRUM VIA TRANSITION ELECTRIC DIPOLE MOMENTS
-----------------------------------------------------------------------------
State   Energy  Wavelength   fosc         T2         TX        TY        TZ
        (cm-1)    (nm)                  (au**2)     (au)      (au)      (au)
-----------------------------------------------------------------------------
   0   18744.4    533.5   0.393250423   6.90673   0.41102   1.00017   2.39530
   1   19495.9    512.9   0.117537125   1.98476   1.01408   0.72401   0.65743
   2   25007.9    399.9   0.838662322  11.04043  -2.49718   1.24057  -1.80707
   3   25635.1    390.1   0.467285335   6.00099  -0.51482  -2.39341  -0.08693
   4   26044.2    384.0   0.101960946   1.28884  -0.34198  -0.33988   1.02780
   5   26706.6    374.4   0.015951428   0.19663   0.13679   0.37900  -0.18514
   6   27159.4    368.2   0.004622291   0.05603   0.00373   0.21243   0.10434
   7   27699.1    361.0   0.038408132   0.45649  -0.65298   0.09324   0.14633
   8   28282.0    353.6   0.568677244   6.61959  -0.32374  -0.65758  -2.46625
   9   28475.3    351.2   0.001785526   0.02064   0.09217   0.11008   0.00544
  10   28781.7    347.4   0.126930956   1.45187  -0.32979  -0.27887  -1.12487
  11   29060.6    344.1   0.001424558   0.01614   0.09071  -0.02615  -0.08500
  12   30086.4    332.4   0.054567880   0.59709   0.13195   0.75685   0.08287
  13   30327.5    329.7   0.156328062   1.69698  -0.82760   0.20453  -0.98500
  14   31226.2    320.2   0.572238993   6.03302   1.44899  -1.58197   1.19617
  15   31323.7    319.2   0.048069669   0.50521  -0.19195   0.64485  -0.22921
  16   31415.1    318.3   0.012719950   0.13330  -0.19223  -0.29510  -0.09623
  17   31500.3    317.5   0.666424091   6.96484  -1.35714   0.24913  -2.24965
  18   31841.2    314.1   0.013212424   0.13661   0.02723   0.21625   0.29850
  19   32394.4    308.7   0.004171250   0.04239  -0.19264   0.07102  -0.01540
  20   32646.2    306.3   0.165796252   1.67193  -0.80155  -1.01294   0.05834
  21   33057.9    302.5   0.344943650   3.43517  -1.14041  -1.20984  -0.81911
  22   33147.1    301.7   0.086956642   0.86364   0.06530   0.68366  -0.62609
  23   33629.5    297.4   0.496696713   4.86236   0.08410  -0.53077  -2.13859
  24   34102.8    293.2   0.002486313   0.02400   0.03360   0.00051   0.15124
  25   34327.7    291.3   0.049677202   0.47642   0.43702   0.18259   0.50208
  26   34422.2    290.5   0.476605532   4.55822  -0.99569  -1.05741  -1.56483
  27   34525.2    289.6   0.057586826   0.54911  -0.33672  -0.21253  -0.62495
  28   35231.0    283.8   0.423390971   3.95633  -0.18338   1.23969  -1.54462
  29   35376.5    282.7   0.051182859   0.47631   0.48325   0.41026  -0.27288
  30   35760.6    279.6   0.000740733   0.00682  -0.04980  -0.02565  -0.06067
  31   36831.9    271.5   0.017046476   0.15237   0.07008   0.29333  -0.24781
  32   36992.6    270.3   0.067547865   0.60114  -0.46376   0.49089  -0.38091
  33   37359.1    267.7   0.001413696   0.01246   0.07124  -0.00750   0.08559
  34   38269.0    261.3   0.041893490   0.36039  -0.09607  -0.56131  -0.18998
  35   38300.7    261.1   0.025954287   0.22309  -0.10212  -0.44058  -0.13619
  36   38462.4    260.0   0.061851641   0.52941   0.32515   0.64199   0.10739
  37   38554.8    259.4   0.000941908   0.00804  -0.04173   0.07300  -0.03119
  38   39183.7    255.2   0.066873012   0.56185  -0.23321   0.63881  -0.31525
  39   39236.9    254.9   0.090208004   0.75688   0.33291  -0.72492   0.34719
  40   39280.2    254.6   0.008505999   0.07129  -0.15201  -0.17927   0.12667
  41   39499.7    253.2   0.004942895   0.04120  -0.11784   0.15982  -0.04204
  42   39715.9    251.8   0.016859613   0.13975  -0.26018  -0.18977   0.18986
  43   39952.9    250.3   0.001888507   0.01556  -0.12040  -0.01028  -0.03096
  44   40023.4    249.9   0.003829035   0.03150  -0.02419   0.13140  -0.11681

FINAL SINGLE POINT ENERGY     -9362.452621161241

DIPOLE MOMENT
-------------
                                X             Y             Z
Electronic contribution:    103.65305     -82.34394       5.41604
Nuclear contribution   :   -106.14836      85.80518      -7.10450
                        -----------------------------------------
Total Dipole Moment    :     -2.49531       3.46125      -1.68846
                        -----------------------------------------
Magnitude (a.u.)       :      4.58887
Magnitude (Debye)      :     11.66397

Rotational constants in cm-1:     0.001080     0.000120     0.000117
Rotational constants in MHz :    32.390484     3.593551     3.518684

                             ****ORCA TERMINATED NORMALLY****
TOTAL RUN TIME: 0 days 0 hours 9 minutes 18 seconds 529 msec
