                         Program Version 4.2.0 -  RELEASE  -
|  1> # ORCA input file
|  2> # SCF done       -198.252779333395          0.000805144317
|  3> ! CAM-B3LYP def2-SVP def2/J RIJCOSX Grid4 TightSCF
|  4> %maxcore 5000
|  5> %tddft
|  6>     Mode sTDDFT
|  7>     Ethresh 5.0
|  8>     maxcore 5000
|  9> end
| 10>
| 11> %pal
| 12>   nprocs 6
| 13>   end
| 14> * xyz 0 1
| 15>    C       -8.36074        -1.75774         0.24434
| 16>    C       -7.56716        -2.38139        -0.68337
| 17>    C       -7.34547        -3.77315        -0.72433
| 18>    N       -7.14989        -4.90083        -0.81251
| 19>    C       -6.81521        -1.70587        -1.66571
| 20>    N       -6.13271        -1.22293        -2.45286
| 21>    C       -8.96945        -2.38759         1.40676
| 22>    C       -9.49671        -1.36989         2.23845
| 23>    C      -10.12251        -1.64051         3.43105
| 24>    C      -10.23181        -2.97937         3.82145
| 25>    C       -9.70712        -3.98984         2.98006
| 26>    C       -9.07368        -3.71593         1.77374
| 27>    S       -9.96158        -5.57294         3.64788
| 28>    C      -10.75543        -4.86687         5.03059
| 29>    C      -10.82814        -3.51488         4.99548
| 30>   Br      -11.41527        -5.97992         6.38757
| 31>    C       -9.29632        -0.05384         1.60262
| 32>    O       -9.73644         1.00016         2.01825
| 33>    C       -8.61158        -0.33066         0.31736
| 34>    C       -8.45701         0.53738        -0.72888
| 35>    C       -8.48650         1.95913        -0.70380
| 36>    C       -8.93140         2.66606        -1.78115
| 37>    C       -9.07212         4.07049        -1.75474
| 38>    C       -8.57747         4.83945        -0.74270
| 39>    C       -7.72169         4.20788         0.33894
| 40>    C       -7.99456         2.69284         0.52924
| 41>    N       -6.85436         1.94131         0.98950
| 42>    C       -5.69402         2.39267         0.82864
| 43>    C       -5.42644         3.72131         0.25557
| 44>    N       -6.34267         4.55605         0.03361
| 45>    F       -4.17013         4.03386        -0.02676
| 46>    F       -4.65006         1.66487         1.21027
| 47>    C       -8.87145         6.23347        -0.68529
| 48>    O       -9.93926         6.68190        -1.40361
| 49>    C      -10.13037         7.95333        -1.12252
| 50>    C       -9.20775         8.40844        -0.20571
| 51>    N       -9.27308         9.73535         0.29056
| 52>    O       -9.86335        10.53801        -0.40020
| 53>    O       -8.78103         9.98827         1.37415
| 54>    C       -8.34064         7.29124         0.07204
| 55>    N       -7.15737         7.21137         0.73440
| 56>    C       -6.60274         8.10265         1.58154
| 57>    C       -5.30354         8.01993         1.99245
| 58>    C       -4.59138         8.96293         2.77745
| 59>    C       -3.24772         8.74875         2.81428
| 60>    C       -2.82796         7.62766         2.05911
| 61>    S       -4.20428         6.76927         1.41901
| 62>    C       -1.55895         7.27592         1.64383
| 63>    C       -0.33665         7.96260         1.80854
| 64>    C        0.63788         7.53681         0.95720
| 65>    C        0.22844         6.51048         0.06686
| 66>    S       -1.37447         5.97856         0.47903
| 67>    C        0.98552         6.00370        -0.97315
| 68>    C        0.63654         5.11824        -1.98990
| 69>    C       -0.56036         4.64340        -2.49971
| 70>    C       -0.48163         3.37964        -3.28198
| 71>    O        0.52767         2.81885        -3.65091
| 72>    C       -1.87711         2.94797        -3.48677
| 73>    C       -2.35012         1.81522        -4.08035
| 74>    C       -3.74685         1.60901        -4.15624
| 75>    C       -4.62264         2.58824        -3.60665
| 76>    C       -6.01226         2.36852        -3.66727
| 77>    C       -6.48429         1.23484        -4.26632
| 78>    C       -5.64301         0.27235        -4.83322
| 79>    C       -4.29086         0.46249        -4.76785
| 80>    F       -7.82004         1.02563        -4.31775
| 81>    C       -4.10106         3.76610        -3.01969
| 82>    C       -2.74647         3.94249        -2.95796
| 83>    C       -1.93118         5.04836        -2.45191
| 84>    C       -2.42423         6.30756        -2.16513
| 85>    C       -1.59830         7.43855        -2.03524
| 86>    N       -0.95065         8.38412        -1.95260
| 87>    C       -3.79024         6.61804        -2.05099
| 88>    N       -4.88668         6.92852        -1.89153
| 89>    H      -10.51457        -0.84476         4.04478
| 90>    H       -8.69544        -4.51889         1.16315
| 91>    H      -11.28429        -2.91862         5.76448
| 92>    H       -8.33014         0.10756        -1.71662
| 93>    H       -9.27592         2.13267        -2.65411
| 94>    H       -9.61037         4.54703        -2.55944
| 95>    H       -7.93759         4.71383         1.29113
| 96>    H       -8.75880         2.55700         1.30822
| 97>    H      -10.94721         8.47517        -1.58346
| 98>    H       -6.57028         6.42487         0.43330
| 99>    H       -7.21463         8.92783         1.91920
|100>    H       -5.09283         9.79081         3.24571
|101>    H       -2.54331         9.38287         3.32104
|102>    H       -0.22735         8.77532         2.50353
|103>    H        1.61858         7.97237         0.88990
|104>    H        2.02261         6.31801        -0.96683
|105>    H        1.48747         4.64634        -2.47794
|106>    H       -1.66921         1.08385        -4.48907
|107>    H       -6.69296         3.09451        -3.24790
|108>    H       -6.07516        -0.60225        -5.29075
|109>    H       -3.61815        -0.27162        -5.18416
|110>    H       -4.79166         4.49849        -2.63148
|111> *
|112>
|113>                          ****END OF INPUT****

CARTESIAN COORDINATES (ANGSTROEM)
---------------------------------
  C     -8.360740   -1.757740    0.244340
  C     -7.567160   -2.381390   -0.683370
  C     -7.345470   -3.773150   -0.724330
  N     -7.149890   -4.900830   -0.812510
  C     -6.815210   -1.705870   -1.665710
  N     -6.132710   -1.222930   -2.452860
  C     -8.969450   -2.387590    1.406760
  C     -9.496710   -1.369890    2.238450
  C    -10.122510   -1.640510    3.431050
  C    -10.231810   -2.979370    3.821450
  C     -9.707120   -3.989840    2.980060
  C     -9.073680   -3.715930    1.773740
  S     -9.961580   -5.572940    3.647880
  C    -10.755430   -4.866870    5.030590
  C    -10.828140   -3.514880    4.995480
  Br   -11.415270   -5.979920    6.387570
  C     -9.296320   -0.053840    1.602620
  O     -9.736440    1.000160    2.018250
  C     -8.611580   -0.330660    0.317360
  C     -8.457010    0.537380   -0.728880
  C     -8.486500    1.959130   -0.703800
  C     -8.931400    2.666060   -1.781150
  C     -9.072120    4.070490   -1.754740
  C     -8.577470    4.839450   -0.742700
  C     -7.721690    4.207880    0.338940
  C     -7.994560    2.692840    0.529240
  N     -6.854360    1.941310    0.989500
  C     -5.694020    2.392670    0.828640
  C     -5.426440    3.721310    0.255570
  N     -6.342670    4.556050    0.033610
  F     -4.170130    4.033860   -0.026760
  F     -4.650060    1.664870    1.210270
  C     -8.871450    6.233470   -0.685290
  O     -9.939260    6.681900   -1.403610
  C    -10.130370    7.953330   -1.122520
  C     -9.207750    8.408440   -0.205710
  N     -9.273080    9.735350    0.290560
  O     -9.863350   10.538010   -0.400200
  O     -8.781030    9.988270    1.374150
  C     -8.340640    7.291240    0.072040
  N     -7.157370    7.211370    0.734400
  C     -6.602740    8.102650    1.581540
  C     -5.303540    8.019930    1.992450
  C     -4.591380    8.962930    2.777450
  C     -3.247720    8.748750    2.814280
  C     -2.827960    7.627660    2.059110
  S     -4.204280    6.769270    1.419010
  C     -1.558950    7.275920    1.643830
  C     -0.336650    7.962600    1.808540
  C      0.637880    7.536810    0.957200
  C      0.228440    6.510480    0.066860
  S     -1.374470    5.978560    0.479030
  C      0.985520    6.003700   -0.973150
  C      0.636540    5.118240   -1.989900
  C     -0.560360    4.643400   -2.499710
  C     -0.481630    3.379640   -3.281980
  O      0.527670    2.818850   -3.650910
  C     -1.877110    2.947970   -3.486770
  C     -2.350120    1.815220   -4.080350
  C     -3.746850    1.609010   -4.156240
  C     -4.622640    2.588240   -3.606650
  C     -6.012260    2.368520   -3.667270
  C     -6.484290    1.234840   -4.266320
  C     -5.643010    0.272350   -4.833220
  C     -4.290860    0.462490   -4.767850
  F     -7.820040    1.025630   -4.317750
  C     -4.101060    3.766100   -3.019690
  C     -2.746470    3.942490   -2.957960
  C     -1.931180    5.048360   -2.451910
  C     -2.424230    6.307560   -2.165130
  C     -1.598300    7.438550   -2.035240
  N     -0.950650    8.384120   -1.952600
  C     -3.790240    6.618040   -2.050990
  N     -4.886680    6.928520   -1.891530
  H    -10.514570   -0.844760    4.044780
  H     -8.695440   -4.518890    1.163150
  H    -11.284290   -2.918620    5.764480
  H     -8.330140    0.107560   -1.716620
  H     -9.275920    2.132670   -2.654110
  H     -9.610370    4.547030   -2.559440
  H     -7.937590    4.713830    1.291130
  H     -8.758800    2.557000    1.308220
  H    -10.947210    8.475170   -1.583460
  H     -6.570280    6.424870    0.433300
  H     -7.214630    8.927830    1.919200
  H     -5.092830    9.790810    3.245710
  H     -2.543310    9.382870    3.321040
  H     -0.227350    8.775320    2.503530
  H      1.618580    7.972370    0.889900
  H      2.022610    6.318010   -0.966830
  H      1.487470    4.646340   -2.477940
  H     -1.669210    1.083850   -4.489070
  H     -6.692960    3.094510   -3.247900
  H     -6.075160   -0.602250   -5.290750
  H     -3.618150   -0.271620   -5.184160
  H     -4.791660    4.498490   -2.631480

 Total Charge           Charge          ....    0
 Multiplicity           Mult            ....    1
 Number of Electrons    NEL             ....  552
 Basis Dimension        Dim             .... 1176

ORBITAL ENERGIES
----------------

  NO   OCC          E(Eh)            E(eV)
   0   2.0000    -482.889036    -13140.0787
   1   2.0000     -88.979477     -2421.2547
   2   2.0000     -88.957518     -2420.6571
   3   2.0000     -88.954300     -2420.5696
   4   2.0000     -62.566758     -1702.5280
   5   2.0000     -56.400715     -1534.7415
   6   2.0000     -56.397988     -1534.6673
   7   2.0000     -56.397955     -1534.6664
   8   2.0000     -24.828388      -675.6148
   9   2.0000     -24.813575      -675.2117
  10   2.0000     -24.784036      -674.4079
  11   2.0000     -19.339666      -526.2591
  12   2.0000     -19.267558      -524.2969
  13   2.0000     -19.265552      -524.2423
  14   2.0000     -19.225119      -523.1421
  15   2.0000     -19.188485      -522.1452
  16   2.0000     -14.678832      -399.4313
  17   2.0000     -14.486655      -394.2019
  18   2.0000     -14.459070      -393.4513
  19   2.0000     -14.446388      -393.1062
  20   2.0000     -14.419010      -392.3612
  21   2.0000     -14.418251      -392.3406
  22   2.0000     -14.396186      -391.7401
  23   2.0000     -14.387453      -391.5025
  24   2.0000     -10.444092      -284.1982
  25   2.0000     -10.430997      -283.8419
  26   2.0000     -10.384869      -282.5867
  27   2.0000     -10.376067      -282.3471
  28   2.0000     -10.372296      -282.2445
  29   2.0000     -10.364558      -282.0340
  30   2.0000     -10.362814      -281.9865
  31   2.0000     -10.355530      -281.7883
  32   2.0000     -10.355173      -281.7786
  33   2.0000     -10.353261      -281.7265
  34   2.0000     -10.345967      -281.5281
  35   2.0000     -10.344116      -281.4777
  36   2.0000     -10.344058      -281.4761
  37   2.0000     -10.338049      -281.3126
  38   2.0000     -10.335519      -281.2438
  39   2.0000     -10.332565      -281.1634
  40   2.0000     -10.330018      -281.0941
  41   2.0000     -10.329069      -281.0683
  42   2.0000     -10.322826      -280.8984
  43   2.0000     -10.322677      -280.8943
  44   2.0000     -10.321624      -280.8657
  45   2.0000     -10.316204      -280.7182
  46   2.0000     -10.313524      -280.6452
  47   2.0000     -10.312243      -280.6104
  48   2.0000     -10.312151      -280.6079
  49   2.0000     -10.312001      -280.6038
  50   2.0000     -10.311167      -280.5811
  51   2.0000     -10.309972      -280.5486
  52   2.0000     -10.309718      -280.5417
  53   2.0000     -10.309201      -280.5276
  54   2.0000     -10.305895      -280.4377
  55   2.0000     -10.305803      -280.4351
  56   2.0000     -10.305717      -280.4328
  57   2.0000     -10.303392      -280.3695
  58   2.0000     -10.302653      -280.3494
  59   2.0000     -10.302100      -280.3344
  60   2.0000     -10.300629      -280.2944
  61   2.0000     -10.297181      -280.2005
  62   2.0000     -10.292736      -280.0796
  63   2.0000     -10.291412      -280.0436
  64   2.0000     -10.289906      -280.0026
  65   2.0000     -10.286233      -279.9026
  66   2.0000     -10.284463      -279.8545
  67   2.0000     -10.282089      -279.7899
  68   2.0000     -10.279440      -279.7178
  69   2.0000     -10.277275      -279.6589
  70   2.0000     -10.277126      -279.6548
  71   2.0000     -10.275478      -279.6100
  72   2.0000     -10.274502      -279.5834
  73   2.0000     -10.274253      -279.5766
  74   2.0000     -10.274210      -279.5755
  75   2.0000     -10.270909      -279.4857
  76   2.0000     -10.266836      -279.3748
  77   2.0000     -10.265676      -279.3432
  78   2.0000      -8.796193      -239.3566
  79   2.0000      -8.075509      -219.7458
  80   2.0000      -8.053483      -219.1464
  81   2.0000      -8.049207      -219.0301
  82   2.0000      -6.632532      -180.4804
  83   2.0000      -6.617907      -180.0824
  84   2.0000      -6.617709      -180.0770
  85   2.0000      -6.045203      -164.4983
  86   2.0000      -6.040910      -164.3815
  87   2.0000      -6.036719      -164.2675
  88   2.0000      -6.023288      -163.9020
  89   2.0000      -6.019075      -163.7873
  90   2.0000      -6.018663      -163.7762
  91   2.0000      -6.014512      -163.6632
  92   2.0000      -6.014365      -163.6592
  93   2.0000      -6.010918      -163.5654
  94   2.0000      -2.748357       -74.7866
  95   2.0000      -2.744324       -74.6768
  96   2.0000      -2.744145       -74.6720
  97   2.0000      -2.732535       -74.3561
  98   2.0000      -2.732514       -74.3555
  99   2.0000      -1.353880       -36.8409
 100   2.0000      -1.348810       -36.7030
 101   2.0000      -1.333067       -36.2746
 102   2.0000      -1.294811       -35.2336
 103   2.0000      -1.262892       -34.3650
 104   2.0000      -1.166827       -31.7510
 105   2.0000      -1.139408       -31.0049
 106   2.0000      -1.103267       -30.0214
 107   2.0000      -1.103131       -30.0177
 108   2.0000      -1.091426       -29.6992
 109   2.0000      -1.036018       -28.1915
 110   2.0000      -1.027217       -27.9520
 111   2.0000      -1.017303       -27.6822
 112   2.0000      -1.005364       -27.3574
 113   2.0000      -0.997959       -27.1558
 114   2.0000      -0.994569       -27.0636
 115   2.0000      -0.994328       -27.0570
 116   2.0000      -0.980656       -26.6850
 117   2.0000      -0.979100       -26.6427
 118   2.0000      -0.978423       -26.6243
 119   2.0000      -0.969624       -26.3848
 120   2.0000      -0.965495       -26.2725
 121   2.0000      -0.952731       -25.9251
 122   2.0000      -0.948084       -25.7987
 123   2.0000      -0.930950       -25.3324
 124   2.0000      -0.912583       -24.8327
 125   2.0000      -0.907551       -24.6957
 126   2.0000      -0.902468       -24.5574
 127   2.0000      -0.892580       -24.2883
 128   2.0000      -0.890113       -24.2212
 129   2.0000      -0.882978       -24.0271
 130   2.0000      -0.882108       -24.0034
 131   2.0000      -0.872780       -23.7495
 132   2.0000      -0.866576       -23.5807
 133   2.0000      -0.860601       -23.4182
 134   2.0000      -0.856087       -23.2953
 135   2.0000      -0.844080       -22.9686
 136   2.0000      -0.833764       -22.6879
 137   2.0000      -0.830629       -22.6026
 138   2.0000      -0.828765       -22.5518
 139   2.0000      -0.824737       -22.4422
 140   2.0000      -0.814216       -22.1559
 141   2.0000      -0.799320       -21.7506
 142   2.0000      -0.795132       -21.6366
 143   2.0000      -0.788718       -21.4621
 144   2.0000      -0.775361       -21.0986
 145   2.0000      -0.770255       -20.9597
 146   2.0000      -0.763404       -20.7733
 147   2.0000      -0.744160       -20.2496
 148   2.0000      -0.742442       -20.2029
 149   2.0000      -0.734038       -19.9742
 150   2.0000      -0.723311       -19.6823
 151   2.0000      -0.709980       -19.3195
 152   2.0000      -0.703558       -19.1448
 153   2.0000      -0.697005       -18.9665
 154   2.0000      -0.694888       -18.9089
 155   2.0000      -0.691919       -18.8281
 156   2.0000      -0.689521       -18.7628
 157   2.0000      -0.685183       -18.6448
 158   2.0000      -0.682783       -18.5795
 159   2.0000      -0.677864       -18.4456
 160   2.0000      -0.669164       -18.2089
 161   2.0000      -0.666643       -18.1403
 162   2.0000      -0.661723       -18.0064
 163   2.0000      -0.659323       -17.9411
 164   2.0000      -0.656167       -17.8552
 165   2.0000      -0.655704       -17.8426
 166   2.0000      -0.649418       -17.6716
 167   2.0000      -0.641757       -17.4631
 168   2.0000      -0.636385       -17.3169
 169   2.0000      -0.631330       -17.1794
 170   2.0000      -0.627931       -17.0869
 171   2.0000      -0.623024       -16.9533
 172   2.0000      -0.620653       -16.8888
 173   2.0000      -0.617565       -16.8048
 174   2.0000      -0.613940       -16.7061
 175   2.0000      -0.610825       -16.6214
 176   2.0000      -0.609339       -16.5809
 177   2.0000      -0.606246       -16.4968
 178   2.0000      -0.601883       -16.3781
 179   2.0000      -0.599026       -16.3003
 180   2.0000      -0.594515       -16.1776
 181   2.0000      -0.589856       -16.0508
 182   2.0000      -0.583048       -15.8655
 183   2.0000      -0.579904       -15.7800
 184   2.0000      -0.574093       -15.6219
 185   2.0000      -0.573257       -15.5991
 186   2.0000      -0.569042       -15.4844
 187   2.0000      -0.564044       -15.3484
 188   2.0000      -0.559975       -15.2377
 189   2.0000      -0.557613       -15.1734
 190   2.0000      -0.553408       -15.0590
 191   2.0000      -0.550837       -14.9890
 192   2.0000      -0.550154       -14.9704
 193   2.0000      -0.547565       -14.9000
 194   2.0000      -0.544802       -14.8248
 195   2.0000      -0.540910       -14.7189
 196   2.0000      -0.538989       -14.6666
 197   2.0000      -0.531006       -14.4494
 198   2.0000      -0.528235       -14.3740
 199   2.0000      -0.527745       -14.3607
 200   2.0000      -0.526642       -14.3307
 201   2.0000      -0.523532       -14.2460
 202   2.0000      -0.521793       -14.1987
 203   2.0000      -0.519647       -14.1403
 204   2.0000      -0.515846       -14.0369
 205   2.0000      -0.513187       -13.9645
 206   2.0000      -0.511853       -13.9282
 207   2.0000      -0.511391       -13.9157
 208   2.0000      -0.506416       -13.7803
 209   2.0000      -0.504963       -13.7407
 210   2.0000      -0.503628       -13.7044
 211   2.0000      -0.500986       -13.6325
 212   2.0000      -0.498541       -13.5660
 213   2.0000      -0.497602       -13.5404
 214   2.0000      -0.495881       -13.4936
 215   2.0000      -0.493914       -13.4401
 216   2.0000      -0.487834       -13.2746
 217   2.0000      -0.486428       -13.2364
 218   2.0000      -0.478266       -13.0143
 219   2.0000      -0.477656       -12.9977
 220   2.0000      -0.473670       -12.8892
 221   2.0000      -0.472169       -12.8484
 222   2.0000      -0.467556       -12.7228
 223   2.0000      -0.466297       -12.6886
 224   2.0000      -0.461647       -12.5620
 225   2.0000      -0.460471       -12.5301
 226   2.0000      -0.458129       -12.4663
 227   2.0000      -0.453393       -12.3375
 228   2.0000      -0.452532       -12.3140
 229   2.0000      -0.448349       -12.2002
 230   2.0000      -0.445864       -12.1326
 231   2.0000      -0.443486       -12.0679
 232   2.0000      -0.441706       -12.0194
 233   2.0000      -0.439458       -11.9583
 234   2.0000      -0.438637       -11.9359
 235   2.0000      -0.436304       -11.8724
 236   2.0000      -0.433538       -11.7972
 237   2.0000      -0.431377       -11.7384
 238   2.0000      -0.431062       -11.7298
 239   2.0000      -0.429425       -11.6852
 240   2.0000      -0.424002       -11.5377
 241   2.0000      -0.420957       -11.4548
 242   2.0000      -0.419840       -11.4244
 243   2.0000      -0.416204       -11.3255
 244   2.0000      -0.414668       -11.2837
 245   2.0000      -0.413446       -11.2504
 246   2.0000      -0.412426       -11.2227
 247   2.0000      -0.411828       -11.2064
 248   2.0000      -0.405071       -11.0226
 249   2.0000      -0.403542       -10.9809
 250   2.0000      -0.400613       -10.9012
 251   2.0000      -0.399878       -10.8812
 252   2.0000      -0.394832       -10.7439
 253   2.0000      -0.394287       -10.7291
 254   2.0000      -0.388523       -10.5722
 255   2.0000      -0.383614       -10.4387
 256   2.0000      -0.378803       -10.3078
 257   2.0000      -0.378448       -10.2981
 258   2.0000      -0.375401       -10.2152
 259   2.0000      -0.369772       -10.0620
 260   2.0000      -0.366227        -9.9655
 261   2.0000      -0.362336        -9.8597
 262   2.0000      -0.356488        -9.7005
 263   2.0000      -0.345858        -9.4113
 264   2.0000      -0.343339        -9.3427
 265   2.0000      -0.337682        -9.1888
 266   2.0000      -0.325027        -8.8444
 267   2.0000      -0.320951        -8.7335
 268   2.0000      -0.319699        -8.6995
 269   2.0000      -0.311687        -8.4814
 270   2.0000      -0.298592        -8.1251
 271   2.0000      -0.291719        -7.9381
 272   2.0000      -0.288816        -7.8591
 273   2.0000      -0.273774        -7.4498
 274   2.0000      -0.269057        -7.3214
 275   2.0000      -0.222636        -6.0582
 276   0.0000      -0.108865        -2.9624
 277   0.0000      -0.085598        -2.3292
 278   0.0000      -0.071493        -1.9454
 279   0.0000      -0.061794        -1.6815
 280   0.0000      -0.055366        -1.5066

MULLIKEN ATOMIC CHARGES
-----------------------
   0 C :    0.283981
   1 C :   -0.329441
   2 C :   -0.184078
   3 N :    0.151206
   4 C :   -0.210970
   5 N :    0.163707
   6 C :    0.013698
   7 C :   -0.012413
   8 C :   -0.068128
   9 C :    0.115371
  10 C :   -0.088920
  11 C :   -0.017603
  12 S :    0.188807
  13 C :   -0.124239
  14 C :    0.040201
  15 Br:    0.025870
  16 C :    0.172042
  17 O :   -0.172334
  18 C :   -0.043395
  19 C :   -0.031062
  20 C :   -0.022351
  21 C :    0.006453
  22 C :   -0.027089
  23 C :    0.009222
  24 C :    0.097334
  25 C :    0.113983
  26 N :   -0.079921
  27 C :    0.114175
  28 C :    0.168129
  29 N :   -0.145497
  30 F :   -0.129475
  31 F :   -0.137529
  32 C :    0.061828
  33 O :   -0.155737
  34 C :    0.122636
  35 C :    0.067706
  36 N :    0.281572
  37 O :   -0.227949
  38 O :   -0.241126
  39 C :    0.065615
  40 N :   -0.037027
  41 C :    0.046008
  42 C :   -0.067281
  43 C :    0.059093
  44 C :    0.021445
  45 C :   -0.005047
  46 S :    0.069191
  47 C :   -0.072291
  48 C :    0.045197
  49 C :    0.058302
  50 C :   -0.050729
  51 S :    0.115813
  52 C :   -0.001476
  53 C :    0.020148
  54 C :   -0.144871
  55 C :    0.127517
  56 O :   -0.157181
  57 C :    0.017207
  58 C :   -0.090977
  59 C :    0.101576
  60 C :    0.111274
  61 C :   -0.113259
  62 C :    0.291861
  63 C :    0.037735
  64 C :   -0.016114
  65 F :   -0.207582
  66 C :   -0.128193
  67 C :    0.056371
  68 C :    0.295701
  69 C :   -0.379344
  70 C :   -0.210989
  71 N :    0.154796
  72 C :   -0.151751
  73 N :    0.103662
  74 H :   -0.011716
  75 H :   -0.005744
  76 H :   -0.002636
  77 H :    0.034806
  78 H :    0.006121
  79 H :    0.003121
  80 H :    0.035061
  81 H :    0.071406
  82 H :    0.038375
  83 H :    0.186040
  84 H :    0.037173
  85 H :    0.004909
  86 H :   -0.006901
  87 H :   -0.009272
  88 H :   -0.010692
  89 H :   -0.006582
  90 H :    0.022265
  91 H :   -0.018430
  92 H :   -0.036091
  93 H :   -0.008853
  94 H :   -0.015722
  95 H :   -0.019704
Sum of atomic charges:   -0.0000000

LOEWDIN ATOMIC CHARGES
----------------------
   0 C :    0.077540
   1 C :   -0.138800
   2 C :   -0.018533
   3 N :   -0.051460
   4 C :   -0.017130
   5 N :   -0.044347
   6 C :   -0.020088
   7 C :   -0.048559
   8 C :    0.022788
   9 C :   -0.032472
  10 C :   -0.143144
  11 C :   -0.009121
  12 S :    0.434937
  13 C :   -0.271051
  14 C :   -0.070416
  15 Br:    0.138780
  16 C :    0.095686
  17 O :   -0.148287
  18 C :   -0.084333
  19 C :    0.073888
  20 C :   -0.037597
  21 C :    0.023879
  22 C :   -0.034331
  23 C :   -0.009559
  24 C :    0.022396
  25 C :    0.013684
  26 N :   -0.050147
  27 C :    0.049147
  28 C :    0.068650
  29 N :   -0.083294
  30 F :   -0.008460
  31 F :   -0.027012
  32 C :    0.000739
  33 O :    0.055661
  34 C :    0.100660
  35 C :   -0.097292
  36 N :    0.293272
  37 O :   -0.189400
  38 O :   -0.201669
  39 C :    0.013351
  40 N :    0.068135
  41 C :    0.039845
  42 C :   -0.207606
  43 C :    0.006404
  44 C :   -0.056160
  45 C :   -0.127864
  46 S :    0.395016
  47 C :   -0.211734
  48 C :   -0.012149
  49 C :   -0.041604
  50 C :   -0.109854
  51 S :    0.467783
  52 C :   -0.081525
  53 C :    0.037781
  54 C :   -0.117466
  55 C :    0.081584
  56 O :   -0.156117
  57 C :   -0.057740
  58 C :    0.029004
  59 C :   -0.019368
  60 C :   -0.002008
  61 C :   -0.059989
  62 C :    0.088606
  63 C :   -0.025787
  64 C :    0.007302
  65 F :   -0.076247
  66 C :   -0.014663
  67 C :   -0.010415
  68 C :    0.041039
  69 C :   -0.176810
  70 C :   -0.032862
  71 N :   -0.072518
  72 C :   -0.012873
  73 N :   -0.103482
  74 H :    0.040537
  75 H :    0.041328
  76 H :    0.039035
  77 H :    0.046987
  78 H :    0.037892
  79 H :    0.037597
  80 H :    0.040056
  81 H :    0.046332
  82 H :    0.043059
  83 H :    0.073379
  84 H :    0.032643
  85 H :    0.039936
  86 H :    0.034642
  87 H :    0.033930
  88 H :    0.034727
  89 H :    0.038638
  90 H :    0.044649
  91 H :    0.037229
  92 H :    0.031701
  93 H :    0.037580
  94 H :    0.034029
  95 H :    0.029878

  Mayer bond orders larger than 0.100000
B(  0-C ,  1-C ) :   1.6413 B(  0-C ,  6-C ) :   1.0059 B(  0-C , 18-C ) :   1.0827
B(  1-C ,  2-C ) :   1.1368 B(  1-C ,  4-C ) :   1.1366 B(  2-C ,  3-N ) :   2.9758
B(  4-C ,  5-N ) :   2.9967 B(  6-C ,  7-C ) :   1.2740 B(  6-C , 11-C ) :   1.4112
B(  7-C ,  8-C ) :   1.4209 B(  7-C , 16-C ) :   0.9570 B(  8-C ,  9-C ) :   1.2463
B(  8-C , 74-H ) :   1.0170 B(  9-C , 10-C ) :   1.3056 B(  9-C , 14-C ) :   1.1634
B( 10-C , 11-C ) :   1.3266 B( 10-C , 12-S ) :   1.0869 B( 11-C , 75-H ) :   0.9823
B( 12-S , 13-C ) :   1.0879 B( 13-C , 14-C ) :   1.6177 B( 13-C , 15-Br) :   1.0194
B( 14-C , 76-H ) :   0.9999 B( 16-C , 17-O ) :   2.1401 B( 16-C , 18-C ) :   0.9533
B( 17-O , 81-H ) :   0.1026 B( 18-C , 19-C ) :   1.5586 B( 19-C , 20-C ) :   1.1841
B( 19-C , 77-H ) :   0.9538 B( 20-C , 21-C ) :   1.6103 B( 20-C , 25-C ) :   0.9580
B( 21-C , 22-C ) :   1.0898 B( 21-C , 78-H ) :   0.9871 B( 22-C , 23-C ) :   1.6414
B( 22-C , 79-H ) :   0.9887 B( 23-C , 24-C ) :   0.9840 B( 23-C , 32-C ) :   1.1615
B( 24-C , 25-C ) :   0.9656 B( 24-C , 29-N ) :   1.0204 B( 24-C , 80-H ) :   0.9010
B( 25-C , 26-N ) :   1.0178 B( 25-C , 81-H ) :   0.8321 B( 26-N , 27-C ) :   1.9488
B( 27-C , 28-C ) :   0.9380 B( 27-C , 31-F ) :   1.1757 B( 28-C , 29-N ) :   1.8826
B( 28-C , 30-F ) :   1.1415 B( 32-C , 33-O ) :   1.1097 B( 32-C , 39-C ) :   1.3724
B( 33-O , 34-C ) :   1.2300 B( 34-C , 35-C ) :   1.4609 B( 34-C , 82-H ) :   1.0079
B( 35-C , 36-N ) :   0.9218 B( 35-C , 39-C ) :   1.2355 B( 36-N , 37-O ) :   1.5577
B( 36-N , 38-O ) :   1.4885 B( 37-O , 38-O ) :   0.2610 B( 39-C , 40-N ) :   1.2086
B( 40-N , 41-C ) :   1.2228 B( 40-N , 83-H ) :   0.8442 B( 41-C , 42-C ) :   1.5416
B( 41-C , 84-H ) :   0.9430 B( 42-C , 43-C ) :   1.1723 B( 42-C , 46-S ) :   1.0077
B( 43-C , 44-C ) :   1.5873 B( 43-C , 85-H ) :   0.9941 B( 44-C , 45-C ) :   1.1994
B( 44-C , 86-H ) :   0.9938 B( 45-C , 46-S ) :   1.1086 B( 45-C , 47-C ) :   1.4498
B( 47-C , 48-C ) :   1.2135 B( 47-C , 51-S ) :   1.0339 B( 48-C , 49-C ) :   1.5591
B( 48-C , 87-H ) :   0.9907 B( 49-C , 50-C ) :   1.1769 B( 49-C , 88-H ) :   0.9958
B( 50-C , 51-S ) :   1.1277 B( 50-C , 52-C ) :   1.4225 B( 52-C , 53-C ) :   1.3643
B( 52-C , 89-H ) :   0.9534 B( 53-C , 54-C ) :   1.4378 B( 53-C , 90-H ) :   0.9235
B( 54-C , 55-C ) :   0.9636 B( 54-C , 68-C ) :   1.1496 B( 55-C , 56-O ) :   2.2416
B( 55-C , 57-C ) :   0.9176 B( 57-C , 58-C ) :   1.4764 B( 57-C , 67-C ) :   1.2234
B( 58-C , 59-C ) :   1.1772 B( 58-C , 91-H ) :   1.0158 B( 59-C , 60-C ) :   1.2649
B( 59-C , 64-C ) :   1.2379 B( 60-C , 61-C ) :   1.2048 B( 60-C , 66-C ) :   1.1927
B( 61-C , 62-C ) :   1.4395 B( 61-C , 92-H ) :   1.0004 B( 62-C , 63-C ) :   1.2737
B( 62-C , 65-F ) :   1.0281 B( 63-C , 64-C ) :   1.4637 B( 63-C , 93-H ) :   0.9833
B( 64-C , 94-H ) :   0.9974 B( 66-C , 67-C ) :   1.4707 B( 66-C , 95-H ) :   0.9861
B( 67-C , 68-C ) :   0.9938 B( 68-C , 69-C ) :   1.5231 B( 69-C , 70-C ) :   1.1648
B( 69-C , 72-C ) :   1.1604 B( 70-C , 71-N ) :   3.0074 B( 72-C , 73-N ) :   2.9265

-----------------------------------------------------------------------------
         ABSORPTION SPECTRUM VIA TRANSITION ELECTRIC DIPOLE MOMENTS
-----------------------------------------------------------------------------
State   Energy  Wavelength   fosc         T2         TX        TY        TZ
        (cm-1)    (nm)                  (au**2)     (au)      (au)      (au)
-----------------------------------------------------------------------------
   0   10817.5    924.4   0.283427014   8.62560  -2.43905  -1.05048   1.25425
   1   14495.8    689.9   0.294722784   6.69342  -0.77382   1.93679   1.53084
   2   19059.5    524.7   0.022040352   0.38070  -0.15417  -0.55253  -0.22726
   3   19731.2    506.8   0.109295310   1.82357   0.59639  -1.13272   0.42993
   4   19809.1    504.8   0.708226736  11.77020  -0.65724  -3.34901  -0.34979
   5   20699.2    483.1   0.030932585   0.49197   0.17858   0.65394  -0.18010
   6   21851.0    457.6   0.077898644   1.17364   1.06746   0.08976   0.16160
   7   22681.3    440.9   0.020228476   0.29361  -0.36128   0.28537   0.28574
   8   23939.7    417.7   0.126083249   1.73386  -0.51220   1.21174   0.05658
   9   24741.5    404.2   0.263982273   3.51256   1.66606  -0.60713   0.60680
  10   25372.4    394.1   0.061894888   0.80310  -0.24262   0.12185   0.85404
  11   25725.9    388.7   0.011224216   0.14364   0.22077   0.20060  -0.23378
  12   26274.7    380.6   0.144944558   1.81610  -0.75299  -1.11523  -0.07321
  13   26757.6    373.7   0.058799585   0.72344   0.82269   0.11603  -0.18208
  14   26931.0    371.3   0.474692236   5.80277  -1.66728   0.46355  -1.67573
  15   27255.7    366.9   0.047876527   0.57828   0.70478  -0.15539   0.23962
  16   28150.5    355.2   0.030611493   0.35799   0.16866   0.40159  -0.41021
  17   28314.5    353.2   0.085796833   0.99756   0.12062   0.63366  -0.76255
  18   28811.0    347.1   0.003637419   0.04156   0.00940  -0.17598   0.10250
  19   29091.3    343.7   0.028111580   0.31812  -0.41282   0.38252  -0.03713
  20   29272.9    341.6   0.006608818   0.07432  -0.24805   0.02137   0.11108
  21   29311.8    341.2   0.005519899   0.06200   0.20705   0.09900   0.09658
  22   29468.0    339.4   0.043358393   0.48439  -0.19913   0.63970  -0.18847
  23   30413.7    328.8   0.087674824   0.94903   0.96336  -0.14226   0.02709
  24   30861.6    324.0   0.071055921   0.75798   0.02605   0.14841  -0.85748
  25   31343.2    319.0   0.181452067   1.90588  -0.91261  -0.96546   0.37537
  26   31708.4    315.4   0.171200915   1.77749  -0.15662   1.04456  -0.81354
  27   31957.9    312.9   0.088846815   0.91525   0.92018   0.23734  -0.11041
  28   32177.6    310.8   0.598820370   6.12658   1.68480   0.82689  -1.61378
  29   32609.7    306.7   0.407457788   4.11350   0.95504   1.24988   1.28032
  30   32977.5    303.2   0.023328115   0.23288  -0.42809  -0.19555   0.10667
  31   33148.6    301.7   0.095392828   0.94738  -0.62927   0.62550   0.40019
  32   33258.8    300.7   0.005735513   0.05677   0.14981  -0.18064   0.04121
  33   33372.0    299.7   0.000574052   0.00566  -0.05186  -0.05438   0.00408
  34   33590.3    297.7   0.018332180   0.17967   0.28145   0.09290   0.30303
  35   33671.5    297.0   0.066580402   0.65097  -0.58241  -0.29103   0.47652
  36   33682.9    296.9   0.028028710   0.27395   0.07572   0.25043   0.45332
  37   34013.2    294.0   0.173856379   1.68275   0.35604   0.61150   1.08722
  38   34298.0    291.6   0.071280242   0.68419   0.02367  -0.40457   0.72108
  39   34545.3    289.5   0.240370618   2.29070  -0.85267  -1.04895  -0.68070
  40   34868.5    286.8   0.033879097   0.31987   0.07276   0.45586   0.32675
  41   34921.8    286.4   0.005523390   0.05207   0.20953  -0.08212  -0.03771
  42   35392.3    282.5   0.023482151   0.21843   0.20247  -0.09255   0.41093
  43   35673.7    280.3   0.064611128   0.59626   0.63545   0.36184  -0.24804
  44   35829.9    279.1   0.011793083   0.10836  -0.02878   0.32583  -0.03690
  45   36114.8    276.9   0.043104480   0.39293  -0.12820   0.39581   0.46886
  46   36253.7    275.8   0.061344967   0.55706   0.12853  -0.61977  -0.39550
  47   36332.6    275.2   0.213098168   1.93089   0.97832  -0.64416  -0.74755
  48   36634.3    273.0   0.013305549   0.11957  -0.13077   0.29623   0.12131
  49   36773.2    271.9   0.219610867   1.96606   0.37308  -1.13245  -0.73785
  50   37149.2    269.2   0.019930315   0.17662   0.35241  -0.04214  -0.22506
  51   37442.3    267.1   0.020867441   0.18348  -0.23817  -0.32210   0.15166
  52   37655.8    265.6   0.024632520   0.21535   0.23638  -0.35831  -0.17633
  53   37764.7    264.8   0.205067406   1.78766  -0.16304   1.18955   0.58826
  54   38023.4    263.0   0.010101816   0.08746  -0.29286  -0.03667   0.01879
  55   38174.8    262.0   0.000865207   0.00746   0.05060   0.06760   0.01819
  56   38250.8    261.4   0.043768729   0.37670  -0.48342   0.36850   0.08492
  57   38493.3    259.8   0.003670233   0.03139   0.13022   0.08241   0.08741
  58   38962.7    256.7   0.023681617   0.20010  -0.03940  -0.40755   0.18013
  59   39209.0    255.0   0.019748519   0.16582   0.39037   0.06110   0.09846
  60   39410.1    253.7   0.025702486   0.21471   0.15578  -0.37633  -0.22094
  61   39560.0    252.8   0.058115744   0.48363  -0.39771   0.41801   0.38824
  62   39845.6    251.0   0.015222542   0.12577   0.28672   0.00923  -0.20851
  63   40124.6    249.2   0.062652975   0.51405   0.20530   0.61597   0.30411
  64   40150.9    249.1   0.037333817   0.30611  -0.06610   0.53777   0.11203

FINAL SINGLE POINT ENERGY     -6948.638392488509

DIPOLE MOMENT
-------------
                                X             Y             Z
Electronic contribution:    -61.11013    -106.35234      67.91306
Nuclear contribution   :     57.79866     106.61162     -65.14939
                        -----------------------------------------
Total Dipole Moment    :     -3.31148       0.25928       2.76367
                        -----------------------------------------
Magnitude (a.u.)       :      4.32099
Magnitude (Debye)      :     10.98309

Rotational constants in cm-1:     0.001181     0.000438     0.000396
Rotational constants in MHz :    35.402330    13.130761    11.869179

                             ****ORCA TERMINATED NORMALLY****
TOTAL RUN TIME: 0 days 0 hours 19 minutes 52 seconds 738 msec
