                         Program Version 4.2.0 -  RELEASE  -
|  1> # ORCA input file
|  2> # SCF done       -170.347057404475          0.000489077113
|  3> ! CAM-B3LYP def2-SVP def2/J RIJCOSX Grid4 TightSCF
|  4> %maxcore 5000
|  5> %tddft
|  6>     Mode sTDDFT
|  7>     Ethresh 5.0
|  8>     maxcore 5000
|  9> end
| 10>
| 11> %pal
| 12>   nprocs 6
| 13>   end
| 14> * xyz 0 1
| 15>    C       -5.61046        -1.52580        -1.69212
| 16>    C       -4.78717        -2.52240        -1.22904
| 17>    C       -4.45315        -3.67602        -1.96734
| 18>    N       -4.13953        -4.63636        -2.51379
| 19>    C       -4.16224        -2.56331         0.03453
| 20>    N       -3.61805        -2.69274         1.03816
| 21>    C       -6.26034        -1.51602        -3.00148
| 22>    C       -7.05213        -0.34644        -3.10558
| 23>    C       -7.79158        -0.04380        -4.22204
| 24>    C       -7.74578        -0.94034        -5.29513
| 25>    C       -6.95193        -2.10555        -5.18485
| 26>    C       -6.20587        -2.41166        -4.05226
| 27>    S       -7.03547        -3.07380        -6.62556
| 28>    C       -8.12031        -1.91432        -7.34619
| 29>    C       -8.40746        -0.85693        -6.55108
| 30>   Br       -8.77142        -2.20956        -9.08034
| 31>    C       -6.92460         0.43165        -1.86024
| 32>    O       -7.48288         1.48839        -1.61530
| 33>    C       -6.00713        -0.31823        -1.00164
| 34>    C       -5.58677         0.07585         0.24790
| 35>    C       -5.90202         1.22758         0.97126
| 36>    S       -6.96403         2.53273         0.51678
| 37>    C       -6.64503         3.37549         2.00250
| 38>    C       -5.76034         2.66680         2.82287
| 39>    C       -5.34256         1.47013         2.24542
| 40>    O       -4.53450         0.53532         2.79129
| 41>    S       -3.38416         1.00726         3.90168
| 42>    C       -4.51979         1.77585         5.08438
| 43>    S       -5.26195         3.28910         4.39217
| 44>    C       -7.23735         4.61347         2.31230
| 45>    C       -8.11623         5.25112         1.48981
| 46>    C       -8.73417         6.47949         1.77167
| 47>    S       -8.46494         7.37211         3.24918
| 48>    C       -9.61295         8.61843         2.79845
| 49>    C      -10.09052         8.37173         1.50309
| 50>    C       -9.63424         7.16796         0.96026
| 51>    S      -10.22621         6.43803        -0.52754
| 52>    C      -11.70347         7.33698        -0.93564
| 53>    O      -12.57004         6.77427        -1.54600
| 54>    C      -11.76869         8.83131        -0.71865
| 55>    O      -12.43631         9.50284        -1.46102
| 56>    S      -10.82655         9.63727         0.52613
| 57>    C       -9.96061         9.60246         3.73550
| 58>    C      -11.18428        10.23510         3.82491
| 59>    C      -11.55775        11.27813         4.70369
| 60>    C      -12.86084        11.68075         4.58394
| 61>    C      -13.58390        10.96957         3.61165
| 62>    S      -12.57704         9.73152         2.89950
| 63>    C      -14.85790        11.13767         3.08910
| 64>    C      -15.90205        12.01124         3.44306
| 65>    C      -16.99851        11.90619         2.63189
| 66>    C      -16.86844        10.95484         1.59622
| 67>    S      -15.30948        10.17083         1.70577
| 68>    C      -17.78318        10.65713         0.60731
| 69>    C      -17.59876         9.76851        -0.44941
| 70>    S      -16.11585         8.87102        -0.75896
| 71>    C      -16.71924         8.09495        -2.18985
| 72>    C      -18.03232         8.50790        -2.43077
| 73>    C      -18.50607         9.43496        -1.46277
| 74>    N      -19.77281         9.74556        -1.81722
| 75>    N      -20.13999         9.09067        -2.93247
| 76>    C      -19.13121         8.35262        -3.31736
| 77>    C      -15.86379         7.19824        -2.89528
| 78>    C      -16.21106         6.52032        -3.99386
| 79>    H       -8.38453         0.85614        -4.26732
| 80>    H       -5.61721        -3.31292        -4.02048
| 81>    H       -9.05775        -0.05007        -6.83594
| 82>    H       -4.89876        -0.57661         0.77246
| 83>    H       -5.30256         1.06659         5.34546
| 84>    H       -3.94654         2.07128         5.95757
| 85>    H       -6.96834         5.06364         3.26031
| 86>    H       -8.37522         4.79399         0.54294
| 87>    H       -9.24152         9.80185         4.51846
| 88>    H      -10.84715        11.72033         5.37934
| 89>    H      -13.30208        12.48066         5.15157
| 90>    H      -15.82310        12.68914         4.27397
| 91>    H      -17.89051        12.49813         2.74141
| 92>    H      -18.73394        11.17438         0.64526
| 93>    H      -20.42439        10.36869        -1.37067
| 94>    H      -19.21883         7.74666        -4.19543
| 95>    H      -14.86994         7.08694        -2.48206
| 96>    H      -17.18928         6.60407        -4.43357
| 97>    H      -15.51417         5.86028        -4.47818
| 98> *
| 99>
|100>                          ****END OF INPUT****

CARTESIAN COORDINATES (ANGSTROEM)
---------------------------------
  C     -5.610460   -1.525800   -1.692120
  C     -4.787170   -2.522400   -1.229040
  C     -4.453150   -3.676020   -1.967340
  N     -4.139530   -4.636360   -2.513790
  C     -4.162240   -2.563310    0.034530
  N     -3.618050   -2.692740    1.038160
  C     -6.260340   -1.516020   -3.001480
  C     -7.052130   -0.346440   -3.105580
  C     -7.791580   -0.043800   -4.222040
  C     -7.745780   -0.940340   -5.295130
  C     -6.951930   -2.105550   -5.184850
  C     -6.205870   -2.411660   -4.052260
  S     -7.035470   -3.073800   -6.625560
  C     -8.120310   -1.914320   -7.346190
  C     -8.407460   -0.856930   -6.551080
  Br    -8.771420   -2.209560   -9.080340
  C     -6.924600    0.431650   -1.860240
  O     -7.482880    1.488390   -1.615300
  C     -6.007130   -0.318230   -1.001640
  C     -5.586770    0.075850    0.247900
  C     -5.902020    1.227580    0.971260
  S     -6.964030    2.532730    0.516780
  C     -6.645030    3.375490    2.002500
  C     -5.760340    2.666800    2.822870
  C     -5.342560    1.470130    2.245420
  O     -4.534500    0.535320    2.791290
  S     -3.384160    1.007260    3.901680
  C     -4.519790    1.775850    5.084380
  S     -5.261950    3.289100    4.392170
  C     -7.237350    4.613470    2.312300
  C     -8.116230    5.251120    1.489810
  C     -8.734170    6.479490    1.771670
  S     -8.464940    7.372110    3.249180
  C     -9.612950    8.618430    2.798450
  C    -10.090520    8.371730    1.503090
  C     -9.634240    7.167960    0.960260
  S    -10.226210    6.438030   -0.527540
  C    -11.703470    7.336980   -0.935640
  O    -12.570040    6.774270   -1.546000
  C    -11.768690    8.831310   -0.718650
  O    -12.436310    9.502840   -1.461020
  S    -10.826550    9.637270    0.526130
  C     -9.960610    9.602460    3.735500
  C    -11.184280   10.235100    3.824910
  C    -11.557750   11.278130    4.703690
  C    -12.860840   11.680750    4.583940
  C    -13.583900   10.969570    3.611650
  S    -12.577040    9.731520    2.899500
  C    -14.857900   11.137670    3.089100
  C    -15.902050   12.011240    3.443060
  C    -16.998510   11.906190    2.631890
  C    -16.868440   10.954840    1.596220
  S    -15.309480   10.170830    1.705770
  C    -17.783180   10.657130    0.607310
  C    -17.598760    9.768510   -0.449410
  S    -16.115850    8.871020   -0.758960
  C    -16.719240    8.094950   -2.189850
  C    -18.032320    8.507900   -2.430770
  C    -18.506070    9.434960   -1.462770
  N    -19.772810    9.745560   -1.817220
  N    -20.139990    9.090670   -2.932470
  C    -19.131210    8.352620   -3.317360
  C    -15.863790    7.198240   -2.895280
  C    -16.211060    6.520320   -3.993860
  H     -8.384530    0.856140   -4.267320
  H     -5.617210   -3.312920   -4.020480
  H     -9.057750   -0.050070   -6.835940
  H     -4.898760   -0.576610    0.772460
  H     -5.302560    1.066590    5.345460
  H     -3.946540    2.071280    5.957570
  H     -6.968340    5.063640    3.260310
  H     -8.375220    4.793990    0.542940
  H     -9.241520    9.801850    4.518460
  H    -10.847150   11.720330    5.379340
  H    -13.302080   12.480660    5.151570
  H    -15.823100   12.689140    4.273970
  H    -17.890510   12.498130    2.741410
  H    -18.733940   11.174380    0.645260
  H    -20.424390   10.368690   -1.370670
  H    -19.218830    7.746660   -4.195430
  H    -14.869940    7.086940   -2.482060
  H    -17.189280    6.604070   -4.433570
  H    -15.514170    5.860280   -4.478180

 Total Charge           Charge          ....    0
 Multiplicity           Mult            ....    1
 Number of Electrons    NEL             ....  544
 Basis Dimension        Dim             .... 1049

ORBITAL ENERGIES
----------------

  NO   OCC          E(Eh)            E(eV)
   0   2.0000    -482.879660    -13139.8236
   1   2.0000     -88.983303     -2421.3588
   2   2.0000     -88.968174     -2420.9471
   3   2.0000     -88.967756     -2420.9357
   4   2.0000     -88.967565     -2420.9305
   5   2.0000     -88.965168     -2420.8653
   6   2.0000     -88.962498     -2420.7926
   7   2.0000     -88.959325     -2420.7063
   8   2.0000     -88.952911     -2420.5318
   9   2.0000     -88.947158     -2420.3752
  10   2.0000     -88.945076     -2420.3186
  11   2.0000     -62.557359     -1702.2723
  12   2.0000     -56.391301     -1534.4853
  13   2.0000     -56.388603     -1534.4119
  14   2.0000     -56.388565     -1534.4109
  15   2.0000     -19.283562      -524.7324
  16   2.0000     -19.249193      -523.7972
  17   2.0000     -19.234736      -523.4038
  18   2.0000     -19.210795      -522.7523
  19   2.0000     -14.488728      -394.2583
  20   2.0000     -14.439387      -392.9157
  21   2.0000     -14.403822      -391.9479
  22   2.0000     -14.402771      -391.9193
  23   2.0000     -10.407864      -283.2124
  24   2.0000     -10.398602      -282.9603
  25   2.0000     -10.360093      -281.9125
  26   2.0000     -10.358505      -281.8693
  27   2.0000     -10.351659      -281.6830
  28   2.0000     -10.339087      -281.3409
  29   2.0000     -10.329685      -281.0850
  30   2.0000     -10.328903      -281.0637
  31   2.0000     -10.328010      -281.0395
  32   2.0000     -10.326579      -281.0005
  33   2.0000     -10.322994      -280.9029
  34   2.0000     -10.321769      -280.8696
  35   2.0000     -10.319002      -280.7943
  36   2.0000     -10.318095      -280.7697
  37   2.0000     -10.317158      -280.7441
  38   2.0000     -10.316461      -280.7252
  39   2.0000     -10.316303      -280.7209
  40   2.0000     -10.314871      -280.6819
  41   2.0000     -10.311896      -280.6009
  42   2.0000     -10.311158      -280.5809
  43   2.0000     -10.310317      -280.5580
  44   2.0000     -10.309855      -280.5454
  45   2.0000     -10.307945      -280.4934
  46   2.0000     -10.307368      -280.4778
  47   2.0000     -10.306992      -280.4675
  48   2.0000     -10.306850      -280.4636
  49   2.0000     -10.306630      -280.4577
  50   2.0000     -10.300234      -280.2836
  51   2.0000     -10.299822      -280.2724
  52   2.0000     -10.299126      -280.2535
  53   2.0000     -10.298432      -280.2346
  54   2.0000     -10.297008      -280.1958
  55   2.0000     -10.296145      -280.1724
  56   2.0000     -10.292718      -280.0791
  57   2.0000     -10.292284      -280.0673
  58   2.0000     -10.290716      -280.0246
  59   2.0000     -10.289849      -280.0010
  60   2.0000     -10.289656      -279.9958
  61   2.0000     -10.284481      -279.8550
  62   2.0000     -10.283478      -279.8277
  63   2.0000     -10.282878      -279.8113
  64   2.0000     -10.282753      -279.8079
  65   2.0000     -10.281063      -279.7619
  66   2.0000     -10.279771      -279.7268
  67   2.0000     -10.271626      -279.5051
  68   2.0000      -8.786775      -239.1003
  69   2.0000      -8.075263      -219.7391
  70   2.0000      -8.064403      -219.4436
  71   2.0000      -8.064149      -219.4366
  72   2.0000      -8.062085      -219.3805
  73   2.0000      -8.060752      -219.3442
  74   2.0000      -8.058722      -219.2890
  75   2.0000      -8.052506      -219.1198
  76   2.0000      -8.049238      -219.0309
  77   2.0000      -8.043503      -218.8748
  78   2.0000      -8.040419      -218.7909
  79   2.0000      -6.623035      -180.2220
  80   2.0000      -6.608527      -179.8272
  81   2.0000      -6.608341      -179.8221
  82   2.0000      -6.049335      -164.6108
  83   2.0000      -6.041566      -164.3994
  84   2.0000      -6.034197      -164.1988
  85   2.0000      -6.033838      -164.1891
  86   2.0000      -6.031437      -164.1237
  87   2.0000      -6.031409      -164.1230
  88   2.0000      -6.030131      -164.0882
  89   2.0000      -6.029952      -164.0833
  90   2.0000      -6.029563      -164.0728
  91   2.0000      -6.028523      -164.0445
  92   2.0000      -6.027045      -164.0042
  93   2.0000      -6.026313      -163.9843
  94   2.0000      -6.025383      -163.9590
  95   2.0000      -6.025073      -163.9506
  96   2.0000      -6.024358      -163.9311
  97   2.0000      -6.024069      -163.9232
  98   2.0000      -6.022285      -163.8747
  99   2.0000      -6.022038      -163.8680
 100   2.0000      -6.019556      -163.8005
 101   2.0000      -6.018954      -163.7841
 102   2.0000      -6.017781      -163.7521
 103   2.0000      -6.014757      -163.6699
 104   2.0000      -6.014195      -163.6546
 105   2.0000      -6.013138      -163.6258
 106   2.0000      -6.010890      -163.5646
 107   2.0000      -6.010241      -163.5470
 108   2.0000      -6.008954      -163.5120
 109   2.0000      -6.006996      -163.4587
 110   2.0000      -6.004611      -163.3938
 111   2.0000      -5.999750      -163.2615
 112   2.0000      -2.738926       -74.5300
 113   2.0000      -2.734827       -74.4184
 114   2.0000      -2.734706       -74.4151
 115   2.0000      -2.723165       -74.1011
 116   2.0000      -2.723154       -74.1008
 117   2.0000      -1.182036       -32.1648
 118   2.0000      -1.178559       -32.0702
 119   2.0000      -1.147942       -31.2371
 120   2.0000      -1.144564       -31.1452
 121   2.0000      -1.125880       -30.6368
 122   2.0000      -1.014138       -27.5961
 123   2.0000      -1.013748       -27.5855
 124   2.0000      -1.003556       -27.3081
 125   2.0000      -1.003019       -27.2935
 126   2.0000      -0.996160       -27.1069
 127   2.0000      -0.989334       -26.9212
 128   2.0000      -0.982128       -26.7251
 129   2.0000      -0.979696       -26.6589
 130   2.0000      -0.976268       -26.5656
 131   2.0000      -0.939930       -25.5768
 132   2.0000      -0.932946       -25.3867
 133   2.0000      -0.931204       -25.3393
 134   2.0000      -0.928123       -25.2555
 135   2.0000      -0.924847       -25.1664
 136   2.0000      -0.901756       -24.5380
 137   2.0000      -0.899631       -24.4802
 138   2.0000      -0.897846       -24.4316
 139   2.0000      -0.886707       -24.1285
 140   2.0000      -0.880776       -23.9671
 141   2.0000      -0.877210       -23.8701
 142   2.0000      -0.870415       -23.6852
 143   2.0000      -0.869012       -23.6470
 144   2.0000      -0.858814       -23.3695
 145   2.0000      -0.854170       -23.2431
 146   2.0000      -0.845813       -23.0158
 147   2.0000      -0.832291       -22.6478
 148   2.0000      -0.826991       -22.5036
 149   2.0000      -0.825837       -22.4722
 150   2.0000      -0.820932       -22.3387
 151   2.0000      -0.813128       -22.1263
 152   2.0000      -0.796264       -21.6675
 153   2.0000      -0.780556       -21.2400
 154   2.0000      -0.775682       -21.1074
 155   2.0000      -0.763762       -20.7830
 156   2.0000      -0.750933       -20.4339
 157   2.0000      -0.749717       -20.4008
 158   2.0000      -0.745033       -20.2734
 159   2.0000      -0.728522       -19.8241
 160   2.0000      -0.718105       -19.5406
 161   2.0000      -0.707821       -19.2608
 162   2.0000      -0.703500       -19.1432
 163   2.0000      -0.701310       -19.0836
 164   2.0000      -0.691451       -18.8153
 165   2.0000      -0.685160       -18.6442
 166   2.0000      -0.681213       -18.5368
 167   2.0000      -0.672634       -18.3033
 168   2.0000      -0.667454       -18.1623
 169   2.0000      -0.652554       -17.7569
 170   2.0000      -0.648279       -17.6406
 171   2.0000      -0.645347       -17.5608
 172   2.0000      -0.634307       -17.2604
 173   2.0000      -0.633830       -17.2474
 174   2.0000      -0.625371       -17.0172
 175   2.0000      -0.621738       -16.9183
 176   2.0000      -0.617054       -16.7909
 177   2.0000      -0.614247       -16.7145
 178   2.0000      -0.613255       -16.6875
 179   2.0000      -0.608788       -16.5660
 180   2.0000      -0.600844       -16.3498
 181   2.0000      -0.595922       -16.2159
 182   2.0000      -0.590887       -16.0788
 183   2.0000      -0.588370       -16.0104
 184   2.0000      -0.580856       -15.8059
 185   2.0000      -0.568463       -15.4687
 186   2.0000      -0.563199       -15.3254
 187   2.0000      -0.559794       -15.2328
 188   2.0000      -0.554785       -15.0965
 189   2.0000      -0.553857       -15.0712
 190   2.0000      -0.549646       -14.9566
 191   2.0000      -0.549270       -14.9464
 192   2.0000      -0.544223       -14.8091
 193   2.0000      -0.540085       -14.6965
 194   2.0000      -0.539241       -14.6735
 195   2.0000      -0.534939       -14.5564
 196   2.0000      -0.533763       -14.5244
 197   2.0000      -0.532378       -14.4868
 198   2.0000      -0.530168       -14.4266
 199   2.0000      -0.526943       -14.3388
 200   2.0000      -0.525083       -14.2882
 201   2.0000      -0.520452       -14.1622
 202   2.0000      -0.518517       -14.1096
 203   2.0000      -0.512462       -13.9448
 204   2.0000      -0.508127       -13.8268
 205   2.0000      -0.507132       -13.7998
 206   2.0000      -0.504055       -13.7160
 207   2.0000      -0.502479       -13.6731
 208   2.0000      -0.500917       -13.6307
 209   2.0000      -0.497703       -13.5432
 210   2.0000      -0.495007       -13.4698
 211   2.0000      -0.488668       -13.2973
 212   2.0000      -0.487482       -13.2651
 213   2.0000      -0.485953       -13.2234
 214   2.0000      -0.483235       -13.1495
 215   2.0000      -0.478548       -13.0220
 216   2.0000      -0.477842       -13.0028
 217   2.0000      -0.476183       -12.9576
 218   2.0000      -0.471606       -12.8331
 219   2.0000      -0.470189       -12.7945
 220   2.0000      -0.467891       -12.7320
 221   2.0000      -0.466033       -12.6814
 222   2.0000      -0.461684       -12.5630
 223   2.0000      -0.459028       -12.4908
 224   2.0000      -0.457751       -12.4560
 225   2.0000      -0.450679       -12.2636
 226   2.0000      -0.449392       -12.2286
 227   2.0000      -0.448819       -12.2130
 228   2.0000      -0.441109       -12.0032
 229   2.0000      -0.439281       -11.9534
 230   2.0000      -0.437904       -11.9160
 231   2.0000      -0.437294       -11.8994
 232   2.0000      -0.435126       -11.8404
 233   2.0000      -0.432782       -11.7766
 234   2.0000      -0.430530       -11.7153
 235   2.0000      -0.427561       -11.6345
 236   2.0000      -0.422940       -11.5088
 237   2.0000      -0.422022       -11.4838
 238   2.0000      -0.418074       -11.3764
 239   2.0000      -0.416016       -11.3204
 240   2.0000      -0.414964       -11.2917
 241   2.0000      -0.409495       -11.1429
 242   2.0000      -0.403129       -10.9697
 243   2.0000      -0.400261       -10.8917
 244   2.0000      -0.399331       -10.8663
 245   2.0000      -0.396482       -10.7888
 246   2.0000      -0.394400       -10.7322
 247   2.0000      -0.392727       -10.6866
 248   2.0000      -0.384824       -10.4716
 249   2.0000      -0.378375       -10.2961
 250   2.0000      -0.374918       -10.2020
 251   2.0000      -0.369120       -10.0443
 252   2.0000      -0.365033        -9.9330
 253   2.0000      -0.360649        -9.8138
 254   2.0000      -0.359728        -9.7887
 255   2.0000      -0.347715        -9.4618
 256   2.0000      -0.346467        -9.4278
 257   2.0000      -0.340269        -9.2592
 258   2.0000      -0.337790        -9.1917
 259   2.0000      -0.329034        -8.9535
 260   2.0000      -0.325421        -8.8552
 261   2.0000      -0.321043        -8.7360
 262   2.0000      -0.318961        -8.6794
 263   2.0000      -0.314239        -8.5509
 264   2.0000      -0.308113        -8.3842
 265   2.0000      -0.300920        -8.1885
 266   2.0000      -0.291284        -7.9262
 267   2.0000      -0.285996        -7.7824
 268   2.0000      -0.281803        -7.6683
 269   2.0000      -0.271215        -7.3801
 270   2.0000      -0.244254        -6.6465
 271   2.0000      -0.206501        -5.6192
 272   0.0000      -0.101092        -2.7508
 273   0.0000      -0.082342        -2.2406
 274   0.0000      -0.057434        -1.5629
 275   0.0000      -0.052927        -1.4402
 276   0.0000      -0.037577        -1.0225

MULLIKEN ATOMIC CHARGES
-----------------------
   0 C :    0.331808
   1 C :   -0.361176
   2 C :   -0.188823
   3 N :    0.140909
   4 C :   -0.194717
   5 N :    0.146940
   6 C :    0.010552
   7 C :   -0.008092
   8 C :   -0.076918
   9 C :    0.118367
  10 C :   -0.092981
  11 C :   -0.022234
  12 S :    0.182716
  13 C :   -0.123309
  14 C :    0.038105
  15 Br:    0.017704
  16 C :    0.164533
  17 O :   -0.189505
  18 C :   -0.099108
  19 C :   -0.034187
  20 C :   -0.116128
  21 S :    0.181055
  22 C :   -0.085152
  23 C :   -0.023139
  24 C :    0.226924
  25 O :   -0.392369
  26 S :    0.274810
  27 C :   -0.151667
  28 S :    0.037193
  29 C :   -0.038783
  30 C :    0.001967
  31 C :   -0.097000
  32 S :    0.133260
  33 C :   -0.109730
  34 C :   -0.102064
  35 C :    0.002076
  36 S :    0.088253
  37 C :    0.072457
  38 O :   -0.126145
  39 C :    0.081692
  40 O :   -0.151260
  41 S :    0.123650
  42 C :   -0.009743
  43 C :   -0.030752
  44 C :    0.023159
  45 C :    0.042413
  46 C :   -0.069723
  47 S :    0.086855
  48 C :   -0.002606
  49 C :    0.014721
  50 C :    0.045082
  51 C :   -0.050797
  52 S :    0.057694
  53 C :    0.005978
  54 C :   -0.155385
  55 S :    0.145773
  56 C :   -0.103950
  57 C :    0.016225
  58 C :    0.138293
  59 N :   -0.039138
  60 N :   -0.064154
  61 C :   -0.007441
  62 C :    0.043504
  63 C :   -0.013436
  64 H :   -0.013292
  65 H :   -0.008758
  66 H :   -0.005427
  67 H :    0.027268
  68 H :    0.114856
  69 H :    0.095453
  70 H :    0.002889
  71 H :    0.022641
  72 H :   -0.008919
  73 H :   -0.013764
  74 H :   -0.013265
  75 H :   -0.012983
  76 H :   -0.010568
  77 H :   -0.021119
  78 H :    0.136125
  79 H :    0.004173
  80 H :   -0.005552
  81 H :    0.010859
  82 H :    0.036325
Sum of atomic charges:   -0.0000000

LOEWDIN ATOMIC CHARGES
----------------------
   0 C :    0.076553
   1 C :   -0.149608
   2 C :   -0.017854
   3 N :   -0.063448
   4 C :   -0.024095
   5 N :   -0.054468
   6 C :   -0.018503
   7 C :   -0.049552
   8 C :    0.019542
   9 C :   -0.035136
  10 C :   -0.144915
  11 C :   -0.011354
  12 S :    0.429953
  13 C :   -0.273765
  14 C :   -0.070676
  15 Br:    0.132359
  16 C :    0.083811
  17 O :   -0.175302
  18 C :   -0.120067
  19 C :    0.057785
  20 C :   -0.211655
  21 S :    0.505178
  22 C :   -0.162619
  23 C :   -0.235737
  24 C :    0.009258
  25 O :   -0.223240
  26 S :    0.396749
  27 C :   -0.257836
  28 S :    0.286972
  29 C :   -0.063118
  30 C :   -0.021455
  31 C :   -0.198238
  32 S :    0.434122
  33 C :   -0.161229
  34 C :   -0.262373
  35 C :   -0.195404
  36 S :    0.378771
  37 C :   -0.097763
  38 O :   -0.103204
  39 C :   -0.120193
  40 O :   -0.118840
  41 S :    0.405164
  42 C :   -0.121673
  43 C :   -0.133747
  44 C :   -0.051915
  45 C :   -0.023778
  46 C :   -0.202123
  47 S :    0.393903
  48 C :   -0.151817
  49 C :   -0.055172
  50 C :   -0.015659
  51 C :   -0.179747
  52 S :    0.382623
  53 C :   -0.041678
  54 C :   -0.222373
  55 S :    0.476690
  56 C :   -0.144073
  57 C :   -0.099183
  58 C :   -0.007983
  59 N :    0.092383
  60 N :   -0.057396
  61 C :   -0.032411
  62 C :   -0.041158
  63 C :   -0.023282
  64 H :    0.039781
  65 H :    0.040554
  66 H :    0.037981
  67 H :    0.050740
  68 H :    0.030352
  69 H :    0.037305
  70 H :    0.022627
  71 H :    0.027920
  72 H :    0.033270
  73 H :    0.032091
  74 H :    0.032866
  75 H :    0.032424
  76 H :    0.033935
  77 H :    0.037146
  78 H :    0.086805
  79 H :    0.022689
  80 H :    0.033873
  81 H :    0.021436
  82 H :    0.031197

  Mayer bond orders larger than 0.100000
B(  0-C ,  1-C ) :   1.6045 B(  0-C ,  6-C ) :   0.9906 B(  0-C , 18-C ) :   1.1005
B(  1-C ,  2-C ) :   1.1486 B(  1-C ,  4-C ) :   1.1486 B(  2-C ,  3-N ) :   2.9632
B(  4-C ,  5-N ) :   2.9572 B(  6-C ,  7-C ) :   1.2794 B(  6-C , 11-C ) :   1.4174
B(  7-C ,  8-C ) :   1.4247 B(  7-C , 16-C ) :   0.9546 B(  8-C ,  9-C ) :   1.2391
B(  8-C , 64-H ) :   1.0172 B(  9-C , 10-C ) :   1.3143 B(  9-C , 14-C ) :   1.1613
B( 10-C , 11-C ) :   1.3221 B( 10-C , 12-S ) :   1.0848 B( 11-C , 65-H ) :   0.9793
B( 12-S , 13-C ) :   1.0860 B( 13-C , 14-C ) :   1.6191 B( 13-C , 15-Br) :   1.0151
B( 14-C , 66-H ) :   1.0005 B( 16-C , 17-O ) :   2.1174 B( 16-C , 18-C ) :   0.9896
B( 18-C , 19-C ) :   1.4429 B( 19-C , 20-C ) :   1.3217 B( 19-C , 67-H ) :   0.9315
B( 20-C , 21-S ) :   1.0643 B( 20-C , 24-C ) :   1.3677 B( 21-S , 22-C ) :   1.1104
B( 22-C , 23-C ) :   1.4081 B( 22-C , 29-C ) :   1.2143 B( 23-C , 24-C ) :   1.3364
B( 23-C , 28-S ) :   0.9868 B( 24-C , 25-O ) :   1.0954 B( 25-O , 26-S ) :   0.8645
B( 26-S , 27-C ) :   0.9914 B( 27-C , 28-S ) :   0.9818 B( 27-C , 68-H ) :   0.9379
B( 27-C , 69-H ) :   0.9500 B( 29-C , 30-C ) :   1.5967 B( 29-C , 70-H ) :   0.9696
B( 30-C , 31-C ) :   1.2149 B( 30-C , 71-H ) :   0.9624 B( 31-C , 32-S ) :   1.0811
B( 31-C , 35-C ) :   1.5183 B( 32-S , 33-C ) :   1.1152 B( 33-C , 34-C ) :   1.4586
B( 33-C , 42-C ) :   1.2028 B( 34-C , 35-C ) :   1.2882 B( 34-C , 41-S ) :   0.9840
B( 35-C , 36-S ) :   0.9898 B( 36-S , 37-C ) :   1.0464 B( 36-S , 38-O ) :   0.1237
B( 37-C , 38-O ) :   2.1202 B( 37-C , 39-C ) :   0.7753 B( 39-C , 40-O ) :   2.1226
B( 39-C , 41-S ) :   1.0666 B( 40-O , 41-S ) :   0.1392 B( 42-C , 43-C ) :   1.5259
B( 42-C , 72-H ) :   0.9515 B( 43-C , 44-C ) :   1.1772 B( 43-C , 47-S ) :   1.0795
B( 44-C , 45-C ) :   1.5501 B( 44-C , 73-H ) :   0.9975 B( 45-C , 46-C ) :   1.2259
B( 45-C , 74-H ) :   0.9946 B( 46-C , 47-S ) :   1.0470 B( 46-C , 48-C ) :   1.4422
B( 48-C , 49-C ) :   1.2190 B( 48-C , 52-S ) :   1.0739 B( 49-C , 50-C ) :   1.5463
B( 49-C , 75-H ) :   0.9963 B( 50-C , 51-C ) :   1.1797 B( 50-C , 76-H ) :   0.9981
B( 51-C , 52-S ) :   1.0330 B( 51-C , 53-C ) :   1.5095 B( 53-C , 54-C ) :   1.2600
B( 53-C , 77-H ) :   0.9718 B( 54-C , 55-S ) :   1.0593 B( 54-C , 58-C ) :   1.3200
B( 55-S , 56-C ) :   1.1855 B( 56-C , 57-C ) :   1.2961 B( 56-C , 62-C ) :   1.1478
B( 57-C , 58-C ) :   1.2761 B( 57-C , 61-C ) :   1.1550 B( 58-C , 59-N ) :   1.1779
B( 59-N , 60-N ) :   1.1274 B( 59-N , 78-H ) :   0.9486 B( 60-N , 61-C ) :   1.7470
B( 61-C , 79-H ) :   0.9976 B( 62-C , 63-C ) :   1.8976 B( 62-C , 80-H ) :   0.9391
B( 63-C , 81-H ) :   0.9544 B( 63-C , 82-H ) :   0.9488

-----------------------------------------------------------------------------
         ABSORPTION SPECTRUM VIA TRANSITION ELECTRIC DIPOLE MOMENTS
-----------------------------------------------------------------------------
State   Energy  Wavelength   fosc         T2         TX        TY        TZ
        (cm-1)    (nm)                  (au**2)     (au)      (au)      (au)
-----------------------------------------------------------------------------
   0    9808.1   1019.6   0.906252300  30.41874   4.73271  -2.67481   0.93037
   1   15379.6    650.2   0.421738143   9.02764  -0.73702  -2.08629  -2.03269
   2   16038.3    623.5   0.364991397   7.49203   0.26950  -2.23906  -1.55113
   3   17888.2    559.0   0.718859310  13.22981  -0.54374   2.96774   2.03143
   4   21503.0    465.1   0.083317084   1.27559  -0.30583   0.95624   0.51736
   5   22272.8    449.0   0.058224872   0.86061  -0.28791   0.65530   0.59017
   6   23545.6    424.7   0.061935742   0.86598   0.28067  -0.56748  -0.68203
   7   24056.5    415.7   0.060390457   0.82644  -0.32135  -0.23860  -0.81624
   8   24797.6    403.3   0.287681942   3.81925   1.28624  -1.32882  -0.63171
   9   25129.1    397.9   0.003347005   0.04385   0.06514  -0.19006   0.05900
  10   25277.3    395.6   0.091217628   1.18802  -0.10834   0.54864   0.93556
  11   26625.6    375.6   0.041711961   0.51575   0.17856  -0.16428  -0.67593
  12   27251.1    367.0   0.070140182   0.84734   0.61167  -0.25926   0.63717
  13   28149.2    355.2   0.046621754   0.54525  -0.61573   0.19787  -0.35634
  14   28640.8    349.2   0.006323767   0.07269  -0.15247  -0.08989  -0.20337
  15   28898.3    346.0   0.338244030   3.85331   0.13258   0.42272   1.91234
  16   29042.6    344.3   0.055427513   0.62830  -0.67597   0.12706  -0.39398
  17   29635.1    337.4   0.086994868   0.96641   0.22525  -0.47646  -0.82986
  18   30080.6    332.4   0.019849144   0.21724  -0.22168   0.10209   0.39708
  19   30229.6    330.8   0.073444104   0.79984   0.35030  -0.47342  -0.67305
  20   30392.1    329.0   0.001779611   0.01928   0.08074   0.02647  -0.10981
  21   30865.3    324.0   0.031603325   0.33708   0.26631  -0.50386   0.11084
  22   30988.4    322.7   0.128014410   1.35999  -0.77763   0.10083  -0.86320
  23   31193.9    320.6   0.034622812   0.36540  -0.15779  -0.11333  -0.57241
  24   31731.5    315.1   0.002159095   0.02240  -0.04688   0.11843   0.07860
  25   31948.1    313.0   0.109080104   1.12402   0.49108  -0.18015   0.92218
  26   32191.5    310.6   0.030753620   0.31451  -0.42693  -0.06713  -0.35740
  27   32394.0    308.7   0.014385973   0.14620  -0.13128  -0.21344  -0.28881
  28   32840.6    304.5   0.003871840   0.03881   0.05326   0.03872   0.18568
  29   32916.8    303.8   0.019550873   0.19553   0.36374   0.13206   0.21398
  30   33077.0    302.3   0.582632582   5.79888  -1.16853   0.46048  -2.05460
  31   34066.0    293.5   0.105976348   1.02415   0.57937  -0.19773   0.80584
  32   34092.3    293.3   0.060485134   0.58407  -0.07852  -0.36984  -0.66417
  33   34657.2    288.5   0.308405952   2.92958  -1.32788   0.46988  -0.97238
  34   34839.6    287.0   0.011821585   0.11171  -0.17870   0.09026  -0.26763
  35   35053.0    285.3   0.006782847   0.06370  -0.16845   0.18716   0.01727
  36   35403.5    282.5   0.013520012   0.12572   0.34152  -0.08078   0.05060
  37   35540.9    281.4   0.145237987   1.34532   1.04938  -0.09956   0.48395
  38   35901.8    278.5   0.011398744   0.10452   0.19885  -0.11382  -0.22809
  39   36233.5    276.0   0.030704868   0.27898   0.07762  -0.23300  -0.46762
  40   36441.1    274.4   0.028358462   0.25619  -0.09343  -0.22711  -0.44259
  41   36836.6    271.5   0.084204637   0.75254   0.62440   0.07902   0.59701
  42   37071.7    269.7   0.020892395   0.18553   0.21904  -0.32243  -0.18329
  43   37152.2    269.2   0.000870145   0.00771   0.03394   0.05885  -0.05563
  44   37540.6    266.4   0.142363039   1.24845  -0.56183   0.92133   0.28973
  45   37850.4    264.2   0.034561729   0.30061  -0.14426   0.49406   0.18894
  46   38036.8    262.9   0.039806695   0.34453  -0.50200   0.10531  -0.28538
  47   38138.4    262.2   0.058393714   0.50406   0.37147  -0.53913   0.27461
  48   38812.4    257.6   0.070100115   0.59460  -0.43046   0.61955   0.15955
  49   38891.9    257.1   0.060332088   0.51070  -0.34030   0.58619   0.22642
  50   38963.3    256.7   0.060042006   0.50731  -0.59149   0.39556  -0.03136
  51   39399.4    253.8   0.051733905   0.43228  -0.48903   0.12243  -0.42206
  52   39633.3    252.3   0.147013915   1.22116  -0.35512  -0.10996  -1.04065
  53   39699.0    251.9   0.047984830   0.39792   0.21196  -0.49344  -0.33092
  54   39874.0    250.8   0.011263948   0.09300   0.20613  -0.13002  -0.18332
  55   39931.5    250.4   0.002003485   0.01652  -0.02090   0.11893   0.04402
  56   40039.8    249.8   0.016705410   0.13735  -0.24457  -0.08579  -0.26491
  57   40103.6    249.4   0.004308501   0.03537  -0.07572   0.00115   0.17215

FINAL SINGLE POINT ENERGY     -8797.794549870508

DIPOLE MOMENT
-------------
                                X             Y             Z
Electronic contribution:     41.82408     -89.03376     -93.11788
Nuclear contribution   :    -44.52131      93.03713      95.05177
                        -----------------------------------------
Total Dipole Moment    :     -2.69723       4.00337       1.93390
                        -----------------------------------------
Magnitude (a.u.)       :      5.20019
Magnitude (Debye)      :     13.21784

Rotational constants in cm-1:     0.000897     0.000352     0.000261
Rotational constants in MHz :    26.879634    10.564033     7.816197

                             ****ORCA TERMINATED NORMALLY****
TOTAL RUN TIME: 0 days 0 hours 7 minutes 47 seconds 183 msec
