                         Program Version 4.2.0 -  RELEASE  -
|  1> # ORCA input file
|  2> # SCF done       -204.130983290787          0.000928746146
|  3> ! CAM-B3LYP def2-SVP def2/J RIJCOSX Grid4 TightSCF
|  4> %maxcore 5000
|  5> %tddft
|  6>     Mode sTDDFT
|  7>     Ethresh 5.0
|  8>     maxcore 5000
|  9> end
| 10>
| 11> %pal
| 12>   nprocs 6
| 13>   end
| 14> * xyz 0 1
| 15>    C        7.10746        -6.74337        -0.75788
| 16>    C        5.78821        -6.57019        -0.44999
| 17>    C        4.90843        -7.62133        -0.10906
| 18>    N        4.14704        -8.43139         0.17523
| 19>    C        5.10690        -5.33271        -0.45289
| 20>    N        4.47229        -4.37670        -0.43766
| 21>    C        7.81824        -8.01284        -0.80389
| 22>    C        9.13309        -7.79426        -1.28687
| 23>    C       10.04099        -8.81291        -1.44915
| 24>    C        9.63882       -10.10809        -1.10937
| 25>    C        8.32518       -10.31721        -0.62170
| 26>    C        7.40493        -9.29026        -0.46428
| 27>    S        8.03738       -11.99248        -0.26080
| 28>    C        9.66049       -12.38374        -0.76351
| 29>    C       10.38339       -11.31667        -1.18019
| 30>   Br       10.24778       -14.16226        -0.69035
| 31>    C        9.31998        -6.36010        -1.58129
| 32>    O       10.25726        -5.84944        -2.14372
| 33>    C        8.06216        -5.69567        -1.11679
| 34>    C        7.90828        -4.36412        -1.04392
| 35>    C        9.01844        -3.43644        -1.30278
| 36>    N       10.08876        -3.55874        -0.52007
| 37>    C       11.10013        -2.74470        -0.78270
| 38>    C       11.06262        -1.81979        -1.80651
| 39>    C        9.86789        -1.72781        -2.54075
| 40>    N        8.84376        -2.54639        -2.25886
| 41>    C        9.70697        -0.77762        -3.60283
| 42>    C        8.53104        -0.59078        -4.25599
| 43>    C        8.35989         0.30881        -5.32346
| 44>    C        7.16645         0.54809        -5.95363
| 45>    C        6.95240         1.40570        -7.06445
| 46>    C        5.66242         1.46162        -7.48840
| 47>    C        4.77348         0.66512        -6.72724
| 48>    S        5.64653        -0.18137        -5.46517
| 49>    C        3.40926         0.55068        -6.88435
| 50>    C        2.59918         1.16299        -7.87169
| 51>    C        1.27796         0.88268        -7.74874
| 52>    C        0.94397         0.03749        -6.64978
| 53>    S        2.42105        -0.40588        -5.80244
| 54>    C       -0.33610        -0.31088        -6.32947
| 55>    C       -0.85886        -1.09635        -5.25639
| 56>    C       -2.26212        -1.16603        -5.12858
| 57>    C       -2.82290        -1.88019        -4.10421
| 58>    C       -2.01023        -2.56286        -3.17803
| 59>    C       -0.62631        -2.51657        -3.29837
| 60>    C       -0.06516        -1.78843        -4.32521
| 61>    C       -2.86316        -3.21806        -2.21532
| 62>    C       -4.20462        -2.93212        -2.53690
| 63>    C       -4.28430        -2.07012        -3.77404
| 64>    C       -4.97493        -0.72517        -3.48169
| 65>    C       -4.30094         0.05437        -2.35888
| 66>    C       -5.02742        -2.79620        -4.91168
| 67>    C       -4.42106        -4.15372        -5.24483
| 68>    C       -5.23082        -3.42090        -1.77199
| 69>    C       -4.93948        -4.23091        -0.66110
| 70>    C       -3.59866        -4.52893        -0.36808
| 71>    C       -2.56219        -4.02504        -1.12458
| 72>    C       -5.97662        -4.79045         0.16000
| 73>    C       -7.26316        -4.36843         0.21362
| 74>    C       -8.26586        -4.91694         1.05241
| 75>    C       -8.38007        -6.16244         1.59656
| 76>    C       -7.73119        -7.42919         1.33725
| 77>    C       -7.18759        -7.85485         0.15147
| 78>    C       -6.67587        -9.15150        -0.05610
| 79>    N       -6.23779       -10.19081        -0.27160
| 80>    C       -7.14748        -7.08535        -1.02748
| 81>    N       -7.11387        -6.52352        -2.02815
| 82>    C       -7.99005        -8.29240         2.48791
| 83>    C       -8.95348        -7.66827         3.31874
| 84>    C       -9.29715        -6.34890         2.75217
| 85>    O      -10.11985        -5.55984         3.15975
| 86>    C       -9.43243        -8.25485         4.46451
| 87>    C       -8.92824        -9.51221         4.81343
| 88>    C       -7.95369       -10.11958         3.98669
| 89>    C       -7.47452        -9.52960         2.82320
| 90>    S       -7.45860       -11.66370         4.61101
| 91>    C       -8.55721       -11.47769         5.95237
| 92>    C       -9.25721       -10.31898         5.93742
| 93>   Br       -8.67394       -12.83004         7.24691
| 94>    H       11.03232        -8.61441        -1.82521
| 95>    H        6.41728        -9.50025        -0.08890
| 96>    H       11.39995       -11.37778        -1.52342
| 97>    H        6.96443        -3.90927        -0.77778
| 98>    H       11.96487        -2.85342        -0.14023
| 99>    H       11.90284        -1.18132        -2.02671
|100>    H       10.57932        -0.19661        -3.87058
|101>    H        7.67561        -1.17211        -3.93752
|102>    H        9.22711         0.84780        -5.68343
|103>    H        7.76548         1.94860        -7.51333
|104>    H        5.32301         2.05803        -8.31620
|105>    H        3.01656         1.78829        -8.64020
|106>    H        0.51473         1.25995        -8.40650
|107>    H       -1.08855         0.10405        -6.99137
|108>    H       -2.88358        -0.64218        -5.84115
|109>    H        0.00516        -3.04049        -2.59703
|110>    H        1.00843        -1.75777        -4.41556
|111>    H       -6.01616        -0.91788        -3.21536
|112>    H       -4.97048        -0.12426        -4.39348
|113>    H       -4.31313        -0.51679        -1.43320
|114>    H       -4.82193         0.99405        -2.19041
|115>    H       -3.26606         0.27500        -2.61100
|116>    H       -5.00840        -2.16062        -5.79980
|117>    H       -6.07013        -2.93111        -4.61831
|118>    H       -3.37732        -4.05039        -5.53370
|119>    H       -4.96303        -4.61060        -6.06918
|120>    H       -4.47825        -4.82044        -4.38795
|121>    H       -6.25668        -3.21849        -2.03554
|122>    H       -3.38069        -5.16163         0.48075
|123>    H       -1.53767        -4.25883        -0.87783
|124>    H       -5.66494        -5.58140         0.83255
|125>    H       -7.55392        -3.48698        -0.34063
|126>    H       -9.04566        -4.22943         1.36930
|127>    H      -10.17299        -7.76016         5.07308
|128>    H       -6.72671       -10.02810         2.22906
|129>    H       -9.97610       -10.04201         6.68666
|130> *
|131>
|132>                          ****END OF INPUT****

CARTESIAN COORDINATES (ANGSTROEM)
---------------------------------
  C      7.107460   -6.743370   -0.757880
  C      5.788210   -6.570190   -0.449990
  C      4.908430   -7.621330   -0.109060
  N      4.147040   -8.431390    0.175230
  C      5.106900   -5.332710   -0.452890
  N      4.472290   -4.376700   -0.437660
  C      7.818240   -8.012840   -0.803890
  C      9.133090   -7.794260   -1.286870
  C     10.040990   -8.812910   -1.449150
  C      9.638820  -10.108090   -1.109370
  C      8.325180  -10.317210   -0.621700
  C      7.404930   -9.290260   -0.464280
  S      8.037380  -11.992480   -0.260800
  C      9.660490  -12.383740   -0.763510
  C     10.383390  -11.316670   -1.180190
  Br    10.247780  -14.162260   -0.690350
  C      9.319980   -6.360100   -1.581290
  O     10.257260   -5.849440   -2.143720
  C      8.062160   -5.695670   -1.116790
  C      7.908280   -4.364120   -1.043920
  C      9.018440   -3.436440   -1.302780
  N     10.088760   -3.558740   -0.520070
  C     11.100130   -2.744700   -0.782700
  C     11.062620   -1.819790   -1.806510
  C      9.867890   -1.727810   -2.540750
  N      8.843760   -2.546390   -2.258860
  C      9.706970   -0.777620   -3.602830
  C      8.531040   -0.590780   -4.255990
  C      8.359890    0.308810   -5.323460
  C      7.166450    0.548090   -5.953630
  C      6.952400    1.405700   -7.064450
  C      5.662420    1.461620   -7.488400
  C      4.773480    0.665120   -6.727240
  S      5.646530   -0.181370   -5.465170
  C      3.409260    0.550680   -6.884350
  C      2.599180    1.162990   -7.871690
  C      1.277960    0.882680   -7.748740
  C      0.943970    0.037490   -6.649780
  S      2.421050   -0.405880   -5.802440
  C     -0.336100   -0.310880   -6.329470
  C     -0.858860   -1.096350   -5.256390
  C     -2.262120   -1.166030   -5.128580
  C     -2.822900   -1.880190   -4.104210
  C     -2.010230   -2.562860   -3.178030
  C     -0.626310   -2.516570   -3.298370
  C     -0.065160   -1.788430   -4.325210
  C     -2.863160   -3.218060   -2.215320
  C     -4.204620   -2.932120   -2.536900
  C     -4.284300   -2.070120   -3.774040
  C     -4.974930   -0.725170   -3.481690
  C     -4.300940    0.054370   -2.358880
  C     -5.027420   -2.796200   -4.911680
  C     -4.421060   -4.153720   -5.244830
  C     -5.230820   -3.420900   -1.771990
  C     -4.939480   -4.230910   -0.661100
  C     -3.598660   -4.528930   -0.368080
  C     -2.562190   -4.025040   -1.124580
  C     -5.976620   -4.790450    0.160000
  C     -7.263160   -4.368430    0.213620
  C     -8.265860   -4.916940    1.052410
  C     -8.380070   -6.162440    1.596560
  C     -7.731190   -7.429190    1.337250
  C     -7.187590   -7.854850    0.151470
  C     -6.675870   -9.151500   -0.056100
  N     -6.237790  -10.190810   -0.271600
  C     -7.147480   -7.085350   -1.027480
  N     -7.113870   -6.523520   -2.028150
  C     -7.990050   -8.292400    2.487910
  C     -8.953480   -7.668270    3.318740
  C     -9.297150   -6.348900    2.752170
  O    -10.119850   -5.559840    3.159750
  C     -9.432430   -8.254850    4.464510
  C     -8.928240   -9.512210    4.813430
  C     -7.953690  -10.119580    3.986690
  C     -7.474520   -9.529600    2.823200
  S     -7.458600  -11.663700    4.611010
  C     -8.557210  -11.477690    5.952370
  C     -9.257210  -10.318980    5.937420
  Br    -8.673940  -12.830040    7.246910
  H     11.032320   -8.614410   -1.825210
  H      6.417280   -9.500250   -0.088900
  H     11.399950  -11.377780   -1.523420
  H      6.964430   -3.909270   -0.777780
  H     11.964870   -2.853420   -0.140230
  H     11.902840   -1.181320   -2.026710
  H     10.579320   -0.196610   -3.870580
  H      7.675610   -1.172110   -3.937520
  H      9.227110    0.847800   -5.683430
  H      7.765480    1.948600   -7.513330
  H      5.323010    2.058030   -8.316200
  H      3.016560    1.788290   -8.640200
  H      0.514730    1.259950   -8.406500
  H     -1.088550    0.104050   -6.991370
  H     -2.883580   -0.642180   -5.841150
  H      0.005160   -3.040490   -2.597030
  H      1.008430   -1.757770   -4.415560
  H     -6.016160   -0.917880   -3.215360
  H     -4.970480   -0.124260   -4.393480
  H     -4.313130   -0.516790   -1.433200
  H     -4.821930    0.994050   -2.190410
  H     -3.266060    0.275000   -2.611000
  H     -5.008400   -2.160620   -5.799800
  H     -6.070130   -2.931110   -4.618310
  H     -3.377320   -4.050390   -5.533700
  H     -4.963030   -4.610600   -6.069180
  H     -4.478250   -4.820440   -4.387950
  H     -6.256680   -3.218490   -2.035540
  H     -3.380690   -5.161630    0.480750
  H     -1.537670   -4.258830   -0.877830
  H     -5.664940   -5.581400    0.832550
  H     -7.553920   -3.486980   -0.340630
  H     -9.045660   -4.229430    1.369300
  H    -10.172990   -7.760160    5.073080
  H     -6.726710  -10.028100    2.229060
  H     -9.976100  -10.042010    6.686660

 Total Charge           Charge          ....    0
 Multiplicity           Mult            ....    1
 Number of Electrons    NEL             ....  618
 Basis Dimension        Dim             .... 1338

ORBITAL ENERGIES
----------------

  NO   OCC          E(Eh)            E(eV)
   0   2.0000    -482.886437    -13140.0080
   1   2.0000    -482.882241    -13139.8938
   2   2.0000     -88.976583     -2421.1759
   3   2.0000     -88.971610     -2421.0406
   4   2.0000     -88.946452     -2420.3560
   5   2.0000     -88.943055     -2420.2636
   6   2.0000     -62.564174     -1702.4577
   7   2.0000     -62.559943     -1702.3426
   8   2.0000     -56.398127     -1534.6710
   9   2.0000     -56.395403     -1534.5969
  10   2.0000     -56.395374     -1534.5961
  11   2.0000     -56.393888     -1534.5557
  12   2.0000     -56.391182     -1534.4821
  13   2.0000     -56.391147     -1534.4811
  14   2.0000     -19.215253      -522.8736
  15   2.0000     -19.207787      -522.6705
  16   2.0000     -14.418009      -392.3340
  17   2.0000     -14.417408      -392.3176
  18   2.0000     -14.409612      -392.1055
  19   2.0000     -14.409537      -392.1034
  20   2.0000     -14.402126      -391.9018
  21   2.0000     -14.398304      -391.7978
  22   2.0000     -10.365553      -282.0610
  23   2.0000     -10.360381      -281.9203
  24   2.0000     -10.358692      -281.8743
  25   2.0000     -10.354946      -281.7724
  26   2.0000     -10.346061      -281.5306
  27   2.0000     -10.343423      -281.4588
  28   2.0000     -10.340217      -281.3716
  29   2.0000     -10.336930      -281.2822
  30   2.0000     -10.335822      -281.2520
  31   2.0000     -10.327112      -281.0150
  32   2.0000     -10.321484      -280.8619
  33   2.0000     -10.320358      -280.8312
  34   2.0000     -10.320030      -280.8223
  35   2.0000     -10.319541      -280.8090
  36   2.0000     -10.312783      -280.6251
  37   2.0000     -10.312671      -280.6220
  38   2.0000     -10.311407      -280.5876
  39   2.0000     -10.310942      -280.5750
  40   2.0000     -10.309983      -280.5489
  41   2.0000     -10.309565      -280.5375
  42   2.0000     -10.309308      -280.5305
  43   2.0000     -10.309158      -280.5265
  44   2.0000     -10.308799      -280.5167
  45   2.0000     -10.307646      -280.4853
  46   2.0000     -10.307195      -280.4730
  47   2.0000     -10.306910      -280.4653
  48   2.0000     -10.303771      -280.3799
  49   2.0000     -10.302994      -280.3587
  50   2.0000     -10.301504      -280.3182
  51   2.0000     -10.301087      -280.3068
  52   2.0000     -10.299936      -280.2755
  53   2.0000     -10.297591      -280.2117
  54   2.0000     -10.296655      -280.1862
  55   2.0000     -10.296112      -280.1714
  56   2.0000     -10.293224      -280.0929
  57   2.0000     -10.292779      -280.0807
  58   2.0000     -10.290522      -280.0193
  59   2.0000     -10.288393      -279.9614
  60   2.0000     -10.287473      -279.9364
  61   2.0000     -10.286928      -279.9215
  62   2.0000     -10.286366      -279.9062
  63   2.0000     -10.283871      -279.8384
  64   2.0000     -10.280825      -279.7555
  65   2.0000     -10.280149      -279.7371
  66   2.0000     -10.280068      -279.7349
  67   2.0000     -10.279724      -279.7255
  68   2.0000     -10.276657      -279.6421
  69   2.0000     -10.276536      -279.6388
  70   2.0000     -10.275094      -279.5995
  71   2.0000     -10.274408      -279.5808
  72   2.0000     -10.274341      -279.5790
  73   2.0000     -10.273479      -279.5556
  74   2.0000     -10.271583      -279.5040
  75   2.0000     -10.271122      -279.4914
  76   2.0000     -10.270112      -279.4639
  77   2.0000     -10.269569      -279.4492
  78   2.0000     -10.268806      -279.4284
  79   2.0000     -10.268054      -279.4079
  80   2.0000     -10.267886      -279.4034
  81   2.0000     -10.266492      -279.3655
  82   2.0000     -10.266479      -279.3651
  83   2.0000     -10.261114      -279.2191
  84   2.0000     -10.257923      -279.1323
  85   2.0000     -10.244249      -278.7602
  86   2.0000     -10.238218      -278.5961
  87   2.0000      -8.793620      -239.2866
  88   2.0000      -8.789372      -239.1710
  89   2.0000      -8.072520      -219.6644
  90   2.0000      -8.067562      -219.5295
  91   2.0000      -8.042150      -218.8380
  92   2.0000      -8.039354      -218.7619
  93   2.0000      -6.629952      -180.4102
  94   2.0000      -6.625628      -180.2925
  95   2.0000      -6.615344      -180.0127
  96   2.0000      -6.615131      -180.0069
  97   2.0000      -6.611120      -179.8977
  98   2.0000      -6.610933      -179.8926
  99   2.0000      -6.042218      -164.4171
 100   2.0000      -6.037937      -164.3006
 101   2.0000      -6.037258      -164.2821
 102   2.0000      -6.033748      -164.1866
 103   2.0000      -6.032979      -164.1657
 104   2.0000      -6.028804      -164.0521
 105   2.0000      -6.011958      -163.5937
 106   2.0000      -6.009110      -163.5162
 107   2.0000      -6.007875      -163.4826
 108   2.0000      -6.005088      -163.4068
 109   2.0000      -6.003036      -163.3509
 110   2.0000      -6.000176      -163.2731
 111   2.0000      -2.745790       -74.7168
 112   2.0000      -2.741757       -74.6070
 113   2.0000      -2.741555       -74.6015
 114   2.0000      -2.741555       -74.6015
 115   2.0000      -2.737408       -74.4887
 116   2.0000      -2.737279       -74.4851
 117   2.0000      -2.729966       -74.2862
 118   2.0000      -2.729946       -74.2856
 119   2.0000      -2.725735       -74.1710
 120   2.0000      -2.725734       -74.1710
 121   2.0000      -1.131387       -30.7866
 122   2.0000      -1.122797       -30.5528
 123   2.0000      -1.075350       -29.2618
 124   2.0000      -1.024001       -27.8645
 125   2.0000      -1.018094       -27.7037
 126   2.0000      -1.014956       -27.6184
 127   2.0000      -1.007926       -27.4271
 128   2.0000      -0.996021       -27.1031
 129   2.0000      -0.995018       -27.0758
 130   2.0000      -0.990148       -26.9433
 131   2.0000      -0.988310       -26.8933
 132   2.0000      -0.986953       -26.8563
 133   2.0000      -0.983979       -26.7754
 134   2.0000      -0.973872       -26.5004
 135   2.0000      -0.971909       -26.4470
 136   2.0000      -0.948094       -25.7989
 137   2.0000      -0.943830       -25.6829
 138   2.0000      -0.938527       -25.5386
 139   2.0000      -0.923154       -25.1203
 140   2.0000      -0.913901       -24.8685
 141   2.0000      -0.909746       -24.7554
 142   2.0000      -0.906164       -24.6580
 143   2.0000      -0.903526       -24.5862
 144   2.0000      -0.899787       -24.4845
 145   2.0000      -0.887448       -24.1487
 146   2.0000      -0.887124       -24.1399
 147   2.0000      -0.881404       -23.9842
 148   2.0000      -0.880884       -23.9701
 149   2.0000      -0.874852       -23.8059
 150   2.0000      -0.862413       -23.4675
 151   2.0000      -0.848677       -23.0937
 152   2.0000      -0.845653       -23.0114
 153   2.0000      -0.837579       -22.7917
 154   2.0000      -0.833579       -22.6828
 155   2.0000      -0.832131       -22.6434
 156   2.0000      -0.830421       -22.5969
 157   2.0000      -0.829987       -22.5851
 158   2.0000      -0.826471       -22.4894
 159   2.0000      -0.824149       -22.4262
 160   2.0000      -0.818571       -22.2745
 161   2.0000      -0.801585       -21.8122
 162   2.0000      -0.782469       -21.2921
 163   2.0000      -0.779864       -21.2212
 164   2.0000      -0.765954       -20.8427
 165   2.0000      -0.759485       -20.6666
 166   2.0000      -0.758087       -20.6286
 167   2.0000      -0.754000       -20.5174
 168   2.0000      -0.743738       -20.2381
 169   2.0000      -0.731584       -19.9074
 170   2.0000      -0.728901       -19.8344
 171   2.0000      -0.714730       -19.4488
 172   2.0000      -0.709849       -19.3160
 173   2.0000      -0.699055       -19.0222
 174   2.0000      -0.693824       -18.8799
 175   2.0000      -0.690873       -18.7996
 176   2.0000      -0.686359       -18.6768
 177   2.0000      -0.682678       -18.5766
 178   2.0000      -0.676309       -18.4033
 179   2.0000      -0.672667       -18.3042
 180   2.0000      -0.669755       -18.2250
 181   2.0000      -0.669553       -18.2195
 182   2.0000      -0.660810       -17.9816
 183   2.0000      -0.658944       -17.9308
 184   2.0000      -0.653870       -17.7927
 185   2.0000      -0.650250       -17.6942
 186   2.0000      -0.642726       -17.4895
 187   2.0000      -0.633769       -17.2457
 188   2.0000      -0.627790       -17.0830
 189   2.0000      -0.624787       -17.0013
 190   2.0000      -0.620748       -16.8914
 191   2.0000      -0.618436       -16.8285
 192   2.0000      -0.617636       -16.8067
 193   2.0000      -0.604859       -16.4590
 194   2.0000      -0.602685       -16.3999
 195   2.0000      -0.598896       -16.2968
 196   2.0000      -0.594506       -16.1773
 197   2.0000      -0.593690       -16.1551
 198   2.0000      -0.591384       -16.0924
 199   2.0000      -0.584691       -15.9102
 200   2.0000      -0.583134       -15.8679
 201   2.0000      -0.581009       -15.8101
 202   2.0000      -0.568918       -15.4811
 203   2.0000      -0.563817       -15.3422
 204   2.0000      -0.558404       -15.1949
 205   2.0000      -0.549308       -14.9474
 206   2.0000      -0.548693       -14.9307
 207   2.0000      -0.543923       -14.8009
 208   2.0000      -0.539768       -14.6878
 209   2.0000      -0.539637       -14.6843
 210   2.0000      -0.539037       -14.6680
 211   2.0000      -0.538611       -14.6563
 212   2.0000      -0.534497       -14.5444
 213   2.0000      -0.532267       -14.4837
 214   2.0000      -0.529931       -14.4202
 215   2.0000      -0.528062       -14.3693
 216   2.0000      -0.526743       -14.3334
 217   2.0000      -0.525237       -14.2924
 218   2.0000      -0.519398       -14.1336
 219   2.0000      -0.517051       -14.0697
 220   2.0000      -0.516568       -14.0565
 221   2.0000      -0.513426       -13.9710
 222   2.0000      -0.510695       -13.8967
 223   2.0000      -0.509343       -13.8599
 224   2.0000      -0.509055       -13.8521
 225   2.0000      -0.507062       -13.7978
 226   2.0000      -0.503008       -13.6876
 227   2.0000      -0.502378       -13.6704
 228   2.0000      -0.500737       -13.6258
 229   2.0000      -0.497219       -13.5300
 230   2.0000      -0.495969       -13.4960
 231   2.0000      -0.495495       -13.4831
 232   2.0000      -0.494340       -13.4517
 233   2.0000      -0.492855       -13.4113
 234   2.0000      -0.490321       -13.3423
 235   2.0000      -0.486793       -13.2463
 236   2.0000      -0.484580       -13.1861
 237   2.0000      -0.481304       -13.0969
 238   2.0000      -0.478737       -13.0271
 239   2.0000      -0.476385       -12.9631
 240   2.0000      -0.471548       -12.8315
 241   2.0000      -0.471076       -12.8186
 242   2.0000      -0.467588       -12.7237
 243   2.0000      -0.466015       -12.6809
 244   2.0000      -0.465539       -12.6680
 245   2.0000      -0.464106       -12.6290
 246   2.0000      -0.459471       -12.5028
 247   2.0000      -0.458292       -12.4708
 248   2.0000      -0.455743       -12.4014
 249   2.0000      -0.452556       -12.3147
 250   2.0000      -0.450645       -12.2627
 251   2.0000      -0.450272       -12.2525
 252   2.0000      -0.449156       -12.2222
 253   2.0000      -0.447685       -12.1821
 254   2.0000      -0.445394       -12.1198
 255   2.0000      -0.444330       -12.0908
 256   2.0000      -0.441951       -12.0261
 257   2.0000      -0.441659       -12.0182
 258   2.0000      -0.440378       -11.9833
 259   2.0000      -0.438018       -11.9191
 260   2.0000      -0.437409       -11.9025
 261   2.0000      -0.435437       -11.8489
 262   2.0000      -0.430636       -11.7182
 263   2.0000      -0.429640       -11.6911
 264   2.0000      -0.428903       -11.6710
 265   2.0000      -0.425406       -11.5759
 266   2.0000      -0.425083       -11.5671
 267   2.0000      -0.420763       -11.4495
 268   2.0000      -0.420061       -11.4304
 269   2.0000      -0.419837       -11.4243
 270   2.0000      -0.417178       -11.3520
 271   2.0000      -0.415056       -11.2943
 272   2.0000      -0.413848       -11.2614
 273   2.0000      -0.413153       -11.2425
 274   2.0000      -0.411223       -11.1900
 275   2.0000      -0.404421       -11.0049
 276   2.0000      -0.402567       -10.9544
 277   2.0000      -0.397990       -10.8299
 278   2.0000      -0.394806       -10.7432
 279   2.0000      -0.389504       -10.5989
 280   2.0000      -0.388117       -10.5612
 281   2.0000      -0.386397       -10.5144
 282   2.0000      -0.383951       -10.4478
 283   2.0000      -0.380769       -10.3613
 284   2.0000      -0.379474       -10.3260
 285   2.0000      -0.376678       -10.2499
 286   2.0000      -0.375738       -10.2243
 287   2.0000      -0.371630       -10.1126
 288   2.0000      -0.371513       -10.1094
 289   2.0000      -0.370632       -10.0854
 290   2.0000      -0.360407        -9.8072
 291   2.0000      -0.353419        -9.6170
 292   2.0000      -0.344176        -9.3655
 293   2.0000      -0.337655        -9.1881
 294   2.0000      -0.333187        -9.0665
 295   2.0000      -0.329501        -8.9662
 296   2.0000      -0.326828        -8.8934
 297   2.0000      -0.323602        -8.8057
 298   2.0000      -0.319874        -8.7042
 299   2.0000      -0.316587        -8.6148
 300   2.0000      -0.314538        -8.5590
 301   2.0000      -0.313740        -8.5373
 302   2.0000      -0.310812        -8.4576
 303   2.0000      -0.309583        -8.4242
 304   2.0000      -0.294377        -8.0104
 305   2.0000      -0.290406        -7.9024
 306   2.0000      -0.285015        -7.7556
 307   2.0000      -0.259274        -7.0552
 308   2.0000      -0.212186        -5.7739
 309   0.0000      -0.089132        -2.4254
 310   0.0000      -0.085251        -2.3198
 311   0.0000      -0.077624        -2.1123
 312   0.0000      -0.053484        -1.4554
 313   0.0000      -0.051382        -1.3982

MULLIKEN ATOMIC CHARGES
-----------------------
   0 C :    0.312164
   1 C :   -0.342434
   2 C :   -0.187342
   3 N :    0.154434
   4 C :   -0.189368
   5 N :    0.160739
   6 C :    0.013140
   7 C :   -0.011926
   8 C :   -0.065105
   9 C :    0.116058
  10 C :   -0.090869
  11 C :   -0.017066
  12 S :    0.188241
  13 C :   -0.123593
  14 C :    0.042853
  15 Br:    0.026424
  16 C :    0.153851
  17 O :   -0.128264
  18 C :   -0.064624
  19 C :    0.025909
  20 C :   -0.042303
  21 N :   -0.089245
  22 C :    0.087461
  23 C :   -0.037713
  24 C :    0.065391
  25 N :   -0.069210
  26 C :   -0.032540
  27 C :    0.056960
  28 C :   -0.025140
  29 C :   -0.006297
  30 C :    0.035008
  31 C :    0.030438
  32 C :   -0.053683
  33 S :    0.090204
  34 C :   -0.033672
  35 C :    0.027994
  36 C :    0.036907
  37 C :   -0.007175
  38 S :    0.068197
  39 C :   -0.037913
  40 C :    0.121865
  41 C :   -0.113142
  42 C :    0.025880
  43 C :    0.101442
  44 C :   -0.044032
  45 C :   -0.023907
  46 C :    0.112144
  47 C :    0.005893
  48 C :   -0.140854
  49 C :    0.067383
  50 C :    0.026444
  51 C :    0.068553
  52 C :    0.022626
  53 C :   -0.061258
  54 C :    0.098059
  55 C :   -0.009675
  56 C :   -0.046434
  57 C :    0.021262
  58 C :    0.010532
  59 C :    0.049012
  60 C :   -0.127171
  61 C :    0.273097
  62 C :   -0.343854
  63 C :   -0.180895
  64 N :    0.154832
  65 C :   -0.199472
  66 N :    0.173245
  67 C :   -0.002900
  68 C :    0.007365
  69 C :    0.133428
  70 O :   -0.149404
  71 C :   -0.075089
  72 C :    0.113603
  73 C :   -0.088831
  74 C :   -0.023405
  75 S :    0.184093
  76 C :   -0.124148
  77 C :    0.039510
  78 Br:    0.021384
  79 H :   -0.009459
  80 H :   -0.005627
  81 H :   -0.003262
  82 H :    0.047527
  83 H :    0.003192
  84 H :   -0.009403
  85 H :   -0.027784
  86 H :    0.017852
  87 H :   -0.018857
  88 H :   -0.012913
  89 H :   -0.012047
  90 H :   -0.014325
  91 H :   -0.011435
  92 H :   -0.022723
  93 H :   -0.040906
  94 H :   -0.023974
  95 H :   -0.010968
  96 H :   -0.004195
  97 H :   -0.002713
  98 H :    0.019816
  99 H :    0.008360
 100 H :    0.022281
 101 H :   -0.005222
 102 H :    0.003999
 103 H :    0.018669
 104 H :    0.011192
 105 H :    0.033121
 106 H :   -0.030549
 107 H :   -0.023293
 108 H :   -0.025325
 109 H :    0.004091
 110 H :    0.001350
 111 H :    0.025649
 112 H :   -0.009782
 113 H :   -0.003006
 114 H :   -0.003407
Sum of atomic charges:   -0.0000000

LOEWDIN ATOMIC CHARGES
----------------------
   0 C :    0.077732
   1 C :   -0.130435
   2 C :   -0.017422
   3 N :   -0.048671
   4 C :   -0.019604
   5 N :   -0.044774
   6 C :   -0.022045
   7 C :   -0.048705
   8 C :    0.023207
   9 C :   -0.029937
  10 C :   -0.143058
  11 C :   -0.008112
  12 S :    0.433432
  13 C :   -0.269962
  14 C :   -0.070022
  15 Br:    0.139347
  16 C :    0.087335
  17 O :   -0.122220
  18 C :   -0.066608
  19 C :    0.082617
  20 C :    0.019517
  21 N :   -0.093668
  22 C :    0.052646
  23 C :   -0.060964
  24 C :    0.040245
  25 N :   -0.085698
  26 C :   -0.057148
  27 C :    0.016590
  28 C :   -0.070362
  29 C :   -0.128875
  30 C :   -0.038794
  31 C :   -0.022549
  32 C :   -0.184118
  33 S :    0.377488
  34 C :   -0.169566
  35 C :   -0.039812
  36 C :   -0.022503
  37 C :   -0.147638
  38 S :    0.385993
  39 C :   -0.041710
  40 C :   -0.026089
  41 C :   -0.018082
  42 C :    0.004678
  43 C :   -0.018109
  44 C :   -0.008830
  45 C :   -0.021222
  46 C :   -0.002164
  47 C :    0.005555
  48 C :   -0.035973
  49 C :   -0.011883
  50 C :   -0.058021
  51 C :   -0.010753
  52 C :   -0.057155
  53 C :    0.001638
  54 C :   -0.034254
  55 C :   -0.004185
  56 C :   -0.017793
  57 C :    0.050899
  58 C :   -0.049132
  59 C :    0.071392
  60 C :   -0.100097
  61 C :    0.066653
  62 C :   -0.144351
  63 C :   -0.020595
  64 N :   -0.055588
  65 C :   -0.014371
  66 N :   -0.045999
  67 C :   -0.018264
  68 C :   -0.052234
  69 C :    0.082940
  70 O :   -0.147059
  71 C :    0.021678
  72 C :   -0.034164
  73 C :   -0.143525
  74 C :   -0.013012
  75 S :    0.431005
  76 C :   -0.272428
  77 C :   -0.070428
  78 Br:    0.134938
  79 H :    0.041633
  80 H :    0.041202
  81 H :    0.039205
  82 H :    0.050442
  83 H :    0.025624
  84 H :    0.032377
  85 H :    0.025059
  86 H :    0.029294
  87 H :    0.030749
  88 H :    0.033362
  89 H :    0.032375
  90 H :    0.031593
  91 H :    0.033665
  92 H :    0.033551
  93 H :    0.023417
  94 H :    0.031991
  95 H :    0.014179
  96 H :    0.019401
  97 H :    0.019697
  98 H :    0.024724
  99 H :    0.023789
 100 H :    0.025868
 101 H :    0.018609
 102 H :    0.022167
 103 H :    0.024161
 104 H :    0.025584
 105 H :    0.029457
 106 H :    0.027188
 107 H :    0.028826
 108 H :    0.031024
 109 H :    0.032960
 110 H :    0.033104
 111 H :    0.046477
 112 H :    0.041059
 113 H :    0.040713
 114 H :    0.038681

  Mayer bond orders larger than 0.100000
B(  0-C ,  1-C ) :   1.6643 B(  0-C ,  6-C ) :   1.0211 B(  0-C , 18-C ) :   1.0194
B(  1-C ,  2-C ) :   1.1350 B(  1-C ,  4-C ) :   1.1420 B(  2-C ,  3-N ) :   2.9754
B(  4-C ,  5-N ) :   2.9831 B(  6-C ,  7-C ) :   1.2718 B(  6-C , 11-C ) :   1.3962
B(  7-C ,  8-C ) :   1.4242 B(  7-C , 16-C ) :   0.9360 B(  8-C ,  9-C ) :   1.2518
B(  8-C , 79-H ) :   1.0154 B(  9-C , 10-C ) :   1.2965 B(  9-C , 14-C ) :   1.1658
B( 10-C , 11-C ) :   1.3458 B( 10-C , 12-S ) :   1.0849 B( 11-C , 80-H ) :   0.9788
B( 12-S , 13-C ) :   1.0867 B( 13-C , 14-C ) :   1.6178 B( 13-C , 15-Br) :   1.0198
B( 14-C , 81-H ) :   0.9993 B( 16-C , 17-O ) :   2.2503 B( 16-C , 18-C ) :   0.9123
B( 18-C , 19-C ) :   1.8402 B( 19-C , 20-C ) :   0.9405 B( 19-C , 82-H ) :   0.9325
B( 20-C , 21-N ) :   1.4859 B( 20-C , 25-N ) :   1.5421 B( 21-N , 22-C ) :   1.5240
B( 22-C , 23-C ) :   1.3888 B( 22-C , 83-H ) :   0.9793 B( 23-C , 24-C ) :   1.3211
B( 23-C , 84-H ) :   0.9742 B( 24-C , 25-N ) :   1.4819 B( 24-C , 26-C ) :   1.0901
B( 26-C , 27-C ) :   1.6503 B( 26-C , 85-H ) :   0.9812 B( 27-C , 28-C ) :   1.1352
B( 27-C , 86-H ) :   0.9645 B( 28-C , 29-C ) :   1.5651 B( 28-C , 87-H ) :   0.9822
B( 29-C , 30-C ) :   1.1335 B( 29-C , 33-S ) :   1.0438 B( 30-C , 31-C ) :   1.5969
B( 30-C , 88-H ) :   1.0001 B( 31-C , 32-C ) :   1.1813 B( 31-C , 89-H ) :   0.9938
B( 32-C , 33-S ) :   1.0366 B( 32-C , 34-C ) :   1.5245 B( 34-C , 35-C ) :   1.1723
B( 34-C , 38-S ) :   1.0438 B( 35-C , 36-C ) :   1.6091 B( 35-C , 90-H ) :   0.9923
B( 36-C , 37-C ) :   1.1250 B( 36-C , 91-H ) :   0.9992 B( 37-C , 38-S ) :   1.0231
B( 37-C , 39-C ) :   1.5975 B( 39-C , 40-C ) :   1.1088 B( 39-C , 92-H ) :   0.9703
B( 40-C , 41-C ) :   1.2618 B( 40-C , 45-C ) :   1.3144 B( 41-C , 42-C ) :   1.3940
B( 41-C , 93-H ) :   1.0133 B( 42-C , 43-C ) :   1.3528 B( 42-C , 48-C ) :   0.9159
B( 43-C , 44-C ) :   1.3288 B( 43-C , 46-C ) :   1.0054 B( 44-C , 45-C ) :   1.4225
B( 44-C , 94-H ) :   0.9911 B( 45-C , 95-H ) :   0.9718 B( 46-C , 47-C ) :   1.3452
B( 46-C , 56-C ) :   1.3417 B( 47-C , 48-C ) :   0.9133 B( 47-C , 53-C ) :   1.4203
B( 48-C , 49-C ) :   1.0397 B( 48-C , 51-C ) :   1.0367 B( 49-C , 50-C ) :   1.1010
B( 49-C , 96-H ) :   0.9385 B( 49-C , 97-H ) :   0.9392 B( 50-C , 98-H ) :   0.9639
B( 50-C , 99-H ) :   0.9636 B( 50-C ,100-H ) :   0.9645 B( 51-C , 52-C ) :   1.1028
B( 51-C ,101-H ) :   0.9395 B( 51-C ,102-H ) :   0.9388 B( 52-C ,103-H ) :   0.9651
B( 52-C ,104-H ) :   0.9630 B( 52-C ,105-H ) :   0.9631 B( 53-C , 54-C ) :   1.2926
B( 53-C ,106-H ) :   0.9970 B( 54-C , 55-C ) :   1.3220 B( 54-C , 57-C ) :   1.1041
B( 55-C , 56-C ) :   1.3796 B( 55-C ,107-H ) :   0.9946 B( 56-C ,108-H ) :   0.9926
B( 57-C , 58-C ) :   1.6341 B( 57-C ,109-H ) :   0.9743 B( 58-C , 59-C ) :   1.1607
B( 58-C ,110-H ) :   0.9550 B( 59-C , 60-C ) :   1.6481 B( 59-C ,111-H ) :   0.9282
B( 60-C , 61-C ) :   1.0435 B( 60-C , 69-C ) :   0.9497 B( 61-C , 62-C ) :   1.6403
B( 61-C , 67-C ) :   1.0063 B( 62-C , 63-C ) :   1.1307 B( 62-C , 65-C ) :   1.1694
B( 63-C , 64-N ) :   2.9877 B( 65-C , 66-N ) :   2.9998 B( 67-C , 68-C ) :   1.2774
B( 67-C , 74-C ) :   1.4152 B( 68-C , 69-C ) :   0.9181 B( 68-C , 71-C ) :   1.4256
B( 69-C , 70-O ) :   2.2583 B( 71-C , 72-C ) :   1.2499 B( 71-C ,112-H ) :   1.0167
B( 72-C , 73-C ) :   1.3093 B( 72-C , 77-C ) :   1.1619 B( 73-C , 74-C ) :   1.3266
B( 73-C , 75-S ) :   1.0835 B( 74-C ,113-H ) :   0.9835 B( 75-S , 76-C ) :   1.0860
B( 76-C , 77-C ) :   1.6209 B( 76-C , 78-Br) :   1.0182 B( 77-C ,114-H ) :   1.0002

-----------------------------------------------------------------------------
         ABSORPTION SPECTRUM VIA TRANSITION ELECTRIC DIPOLE MOMENTS
-----------------------------------------------------------------------------
State   Energy  Wavelength   fosc         T2         TX        TY        TZ
        (cm-1)    (nm)                  (au**2)     (au)      (au)      (au)
-----------------------------------------------------------------------------
   0   14937.6    669.5   1.689394494  37.23291  -6.00018  -1.03877   0.38946
   1   15981.7    625.7   0.000332119   0.00684   0.03779  -0.04640  -0.05710
   2   18175.1    550.2   0.371786571   6.73429   0.67375  -1.72510   1.81780
   3   22231.6    449.8   0.240902282   3.56736   0.65776   1.54747  -0.86026
   4   23299.8    429.2   0.003165689   0.04473   0.08667   0.10305  -0.16309
   5   24739.5    404.2   0.277010193   3.68621  -1.10104  -1.06838   1.15434
   6   26108.5    383.0   0.320214922   4.03772   0.45997   0.89486  -1.73936
   7   27473.8    364.0   0.085643988   1.02625  -0.32380  -0.71569   0.63969
   8   27663.3    361.5   0.913989056  10.87711   0.43556   1.67408  -2.80800
   9   27947.9    357.8   0.007328417   0.08632  -0.03572  -0.28607  -0.05669
  10   28619.2    349.4   0.398582847   4.58498  -1.26598   1.72692   0.00457
  11   29199.0    342.5   0.062350914   0.70299  -0.41343   0.71821   0.12745
  12   29662.3    337.1   0.032155561   0.35688   0.29465   0.47601   0.20852
  13   29864.1    334.9   0.035058890   0.38648   0.05363   0.59897  -0.15760
  14   30509.0    327.8   0.071508945   0.77163   0.80449  -0.11223  -0.33439
  15   30717.4    325.5   0.080104137   0.85851   0.86932  -0.27680  -0.16178
  16   30896.2    323.7   0.072421774   0.77168   0.70677   0.12823  -0.50569
  17   31286.1    319.6   0.057253940   0.60246   0.11532   0.18894  -0.74395
  18   31551.5    316.9   0.011220915   0.11708  -0.09599   0.32662   0.03446
  19   32333.0    309.3   0.078421676   0.79848  -0.20063   0.65981  -0.56822
  20   32603.2    306.7   0.069080959   0.69755  -0.38938  -0.71539   0.18479
  21   32752.1    305.3   0.035939494   0.36125  -0.04313  -0.00616   0.59946
  22   32965.0    303.4   0.046417523   0.46356   0.44544   0.42792  -0.28640
  23   33125.7    301.9   0.217337717   2.15996   0.72638   0.41527  -1.20826
  24   33801.0    295.8   0.024847735   0.24201   0.22472  -0.43599   0.03770
  25   33932.8    294.7   0.022426335   0.21758   0.03999  -0.04449  -0.46260
  26   34003.3    294.1   0.410933312   3.97855   0.65601   0.80794  -1.70160
  27   34262.5    291.9   0.026100863   0.25079  -0.28294  -0.20046   0.36132
  28   34508.6    289.8   0.252083092   2.40487  -1.32737  -0.00268   0.80185
  29   34659.3    288.5   0.582353824   5.53150   1.24230  -1.94539   0.45126
  30   34912.6    286.4   0.058135743   0.54820  -0.32439  -0.01471  -0.66540
  31   35023.6    285.5   0.008597083   0.08081  -0.22917   0.09110  -0.14139
  32   35645.5    280.5   0.002621037   0.02421  -0.09588   0.07755  -0.09487
  33   35870.0    278.8   0.039314059   0.36082  -0.58062   0.10428  -0.11326
  34   36321.7    275.3   0.001196875   0.01085   0.07798  -0.05031   0.04729
  35   36621.4    273.1   0.061854683   0.55605   0.25767  -0.38104   0.58691
  36   36878.7    271.2   0.127071167   1.13435   0.50963   0.93367   0.05379
  37   37313.9    268.0   0.002840381   0.02506   0.03903   0.09278   0.12218
  38   37468.8    266.9   0.013520802   0.11880  -0.31039  -0.14069  -0.05158
  39   37682.8    265.4   0.011810246   0.10318   0.20763   0.13243   0.20623
  40   37878.5    264.0   0.004055034   0.03524   0.08591   0.14089  -0.08952
  41   38096.7    262.5   0.076538211   0.66140  -0.79710   0.15906   0.02717
  42   38498.5    259.8   0.013318043   0.11389  -0.00004  -0.27197   0.19980
  43   38754.5    258.0   0.008286111   0.07039   0.22147  -0.07925  -0.12272
  44   38901.2    257.1   0.069772358   0.59047   0.51319  -0.18337  -0.54173
  45   38999.0    256.4   0.001997970   0.01687   0.04746   0.11399   0.04026
  46   39283.0    254.6   0.103530869   0.86764  -0.31494  -0.75548   0.44464
  47   39403.2    253.8   0.010702740   0.08942   0.03552  -0.27130   0.12064
  48   39620.2    252.4   0.038401792   0.31909  -0.17650   0.51414   0.15360
  49   39682.1    252.0   0.018451069   0.15307   0.12992   0.36638  -0.04432
  50   39957.0    250.3   0.055591438   0.45803  -0.36351   0.56719  -0.06468
  51   40076.9    249.5   0.017188094   0.14119   0.07687   0.30425   0.20668

FINAL SINGLE POINT ENERGY     -9713.845551150094

DIPOLE MOMENT
-------------
                                X             Y             Z
Electronic contribution:     35.01974    -238.36928     138.79741
Nuclear contribution   :    -32.89832     239.97025    -139.46394
                        -----------------------------------------
Total Dipole Moment    :      2.12142       1.60096      -0.66653
                        -----------------------------------------
Magnitude (a.u.)       :      2.74003
Magnitude (Debye)      :      6.96460

Rotational constants in cm-1:     0.000446     0.000220     0.000155
Rotational constants in MHz :    13.384646     6.594475     4.655986

                             ****ORCA TERMINATED NORMALLY****
TOTAL RUN TIME: 0 days 0 hours 12 minutes 9 seconds 489 msec
