                         Program Version 4.2.0 -  RELEASE  -
|  1> # ORCA input file
|  2> # SCF done       -196.262666262838          0.000996108591
|  3> ! CAM-B3LYP def2-SVP def2/J RIJCOSX Grid4 TightSCF
|  4> %maxcore 5000
|  5> %tddft
|  6>     Mode sTDDFT
|  7>     Ethresh 5.0
|  8>     maxcore 5000
|  9> end
| 10>
| 11> %pal
| 12>   nprocs 6
| 13>   end
| 14> * xyz 0 1
| 15>    C       -6.43131         1.86481         1.28422
| 16>    C       -7.72790         1.71402         0.86446
| 17>    C       -8.80084         2.50691         1.31814
| 18>    N       -9.70797         3.12438         1.65623
| 19>    C       -8.15256         0.69457        -0.01289
| 20>    N       -8.56302        -0.14049        -0.68567
| 21>    C       -5.96125         2.77908         2.31613
| 22>    C       -4.61733         2.45361         2.62403
| 23>    C       -3.88999         3.14066         3.56461
| 24>    C       -4.51721         4.20138         4.22831
| 25>    C       -5.85834         4.52084         3.90938
| 26>    C       -6.59673         3.82237         2.96130
| 27>    S       -6.43107         5.87401         4.83655
| 28>    C       -4.88363         5.98937         5.63160
| 29>    C       -3.98286         5.06356         5.22463
| 30>   Br       -4.60257         7.32292         6.92013
| 31>    C       -4.17383         1.32696         1.77554
| 32>    O       -3.08128         0.79821         1.79664
| 33>    C       -5.30779         1.05302         0.86806
| 34>    C       -5.23362         0.35418        -0.30717
| 35>    C       -4.18033        -0.47681        -0.74528
| 36>    S       -3.79943        -0.44961        -2.45154
| 37>    C       -2.41404        -1.42308        -2.18937
| 38>    C       -2.25327        -1.80127        -0.89211
| 39>    C       -1.14147        -2.67276        -0.41422
| 40>    C       -3.28887        -1.29759        -0.04825
| 41>    C       -3.44701        -1.73296         1.30462
| 42>    C       -4.63934        -1.87198         1.93888
| 43>    C       -4.76623        -2.37296         3.25248
| 44>    C       -5.98256        -2.53986         3.85052
| 45>    C       -6.28655        -3.06803         5.11790
| 46>    S       -7.93203        -2.89557         5.65564
| 47>    C       -7.64427        -3.69764         7.17049
| 48>    C       -6.28849        -4.10448         7.24614
| 49>    C       -5.52671        -3.76069         6.08998
| 50>    C       -4.18325        -4.16610         6.01524
| 51>    C       -3.62728        -4.84702         7.06376
| 52>    F       -2.34497        -5.23690         6.98933
| 53>    C       -4.37489        -5.15516         8.21633
| 54>    F       -3.78803        -5.81983         9.21964
| 55>    C       -5.69309        -4.79753         8.30996
| 56>    C       -8.64267        -3.90045         8.11841
| 57>    C       -9.95244        -3.49412         7.96411
| 58>    C      -11.00664        -3.69002         8.85014
| 59>    C      -11.03555        -4.33284        10.07874
| 60>    C      -12.19512        -4.48274        10.86796
| 61>    C      -12.00472        -5.16409        12.03819
| 62>    C      -10.67773        -5.58450        12.23601
| 63>    S       -9.68214        -5.09004        10.89208
| 64>    C      -10.15427        -6.29300        13.31111
| 65>    C      -10.84008        -6.76766        14.44431
| 66>    C      -10.04015        -7.43593        15.32893
| 67>    C       -8.68791        -7.51182        14.93747
| 68>    S       -8.46222        -6.72067        13.39734
| 69>    C       -7.66207        -8.12749        15.63373
| 70>    C       -6.33854        -8.12444        15.21578
| 71>    C       -5.25547        -8.73717        15.81308
| 72>    C       -5.15932        -9.75066        16.82444
| 73>    C       -6.09364       -10.71632        17.12744
| 74>    C       -5.91335       -11.70123        18.11679
| 75>    N       -5.83300       -12.51363        18.92526
| 76>    C       -7.29248       -10.91557        16.41632
| 77>    N       -8.26426       -11.15911        15.85381
| 78>    C       -3.78964        -9.72492        17.34080
| 79>    C       -3.01767        -8.85519        16.53116
| 80>    C       -3.89366        -8.24646        15.50680
| 81>    O       -3.57660        -7.47265        14.62924
| 82>    C       -1.67762        -8.64558        16.74066
| 83>    C       -1.07110        -9.31754        17.80834
| 84>    C       -1.85295       -10.17227        18.61875
| 85>    C       -3.20886       -10.39181        18.40082
| 86>    S       -0.90761       -10.89118        19.88768
| 87>    C        0.50719       -10.04707        19.31620
| 88>    C        0.28536        -9.26617        18.23311
| 89>   Br        2.14299       -10.27461        20.20645
| 90>    H       -2.86768         2.87250         3.78026
| 91>    H       -7.61336         4.10580         2.74434
| 92>    H       -2.98148         4.99205         5.60814
| 93>    H       -6.00664         0.53605        -1.04654
| 94>    H       -1.78362        -1.66950        -3.02186
| 95>    H       -0.46360        -2.90348        -1.23160
| 96>    H       -1.53461        -3.60585        -0.01249
| 97>    H       -0.58244        -2.16992         0.37356
| 98>    H       -2.54605        -2.05141         1.81002
| 99>    H       -5.55344        -1.62608         1.41368
|100>    H       -3.85180        -2.60259         3.77558
|101>    H       -6.84972        -2.20854         3.28902
|102>    H       -3.57914        -3.97728         5.14612
|103>    H       -6.25009        -5.05971         9.19436
|104>    H       -8.34853        -4.41622         9.01898
|105>    H      -10.19479        -2.96942         7.04778
|106>    H      -11.96536        -3.29240         8.53989
|107>    H      -13.14334        -4.08601        10.55029
|108>    H      -12.78253        -5.36737        12.75136
|109>    H      -11.89460        -6.61162        14.58304
|110>    H      -10.38362        -7.87940        16.24620
|111>    H       -7.93284        -8.59868        16.56729
|112>    H       -6.08589        -7.49413        14.36755
|113>    H       -1.11309        -7.98411        16.10246
|114>    H       -3.76323       -11.05030        19.04869
|115>    H        1.04432        -8.67679        17.75180
|116> *
|117>
|118>                          ****END OF INPUT****

CARTESIAN COORDINATES (ANGSTROEM)
---------------------------------
  C     -6.431310    1.864810    1.284220
  C     -7.727900    1.714020    0.864460
  C     -8.800840    2.506910    1.318140
  N     -9.707970    3.124380    1.656230
  C     -8.152560    0.694570   -0.012890
  N     -8.563020   -0.140490   -0.685670
  C     -5.961250    2.779080    2.316130
  C     -4.617330    2.453610    2.624030
  C     -3.889990    3.140660    3.564610
  C     -4.517210    4.201380    4.228310
  C     -5.858340    4.520840    3.909380
  C     -6.596730    3.822370    2.961300
  S     -6.431070    5.874010    4.836550
  C     -4.883630    5.989370    5.631600
  C     -3.982860    5.063560    5.224630
  Br    -4.602570    7.322920    6.920130
  C     -4.173830    1.326960    1.775540
  O     -3.081280    0.798210    1.796640
  C     -5.307790    1.053020    0.868060
  C     -5.233620    0.354180   -0.307170
  C     -4.180330   -0.476810   -0.745280
  S     -3.799430   -0.449610   -2.451540
  C     -2.414040   -1.423080   -2.189370
  C     -2.253270   -1.801270   -0.892110
  C     -1.141470   -2.672760   -0.414220
  C     -3.288870   -1.297590   -0.048250
  C     -3.447010   -1.732960    1.304620
  C     -4.639340   -1.871980    1.938880
  C     -4.766230   -2.372960    3.252480
  C     -5.982560   -2.539860    3.850520
  C     -6.286550   -3.068030    5.117900
  S     -7.932030   -2.895570    5.655640
  C     -7.644270   -3.697640    7.170490
  C     -6.288490   -4.104480    7.246140
  C     -5.526710   -3.760690    6.089980
  C     -4.183250   -4.166100    6.015240
  C     -3.627280   -4.847020    7.063760
  F     -2.344970   -5.236900    6.989330
  C     -4.374890   -5.155160    8.216330
  F     -3.788030   -5.819830    9.219640
  C     -5.693090   -4.797530    8.309960
  C     -8.642670   -3.900450    8.118410
  C     -9.952440   -3.494120    7.964110
  C    -11.006640   -3.690020    8.850140
  C    -11.035550   -4.332840   10.078740
  C    -12.195120   -4.482740   10.867960
  C    -12.004720   -5.164090   12.038190
  C    -10.677730   -5.584500   12.236010
  S     -9.682140   -5.090040   10.892080
  C    -10.154270   -6.293000   13.311110
  C    -10.840080   -6.767660   14.444310
  C    -10.040150   -7.435930   15.328930
  C     -8.687910   -7.511820   14.937470
  S     -8.462220   -6.720670   13.397340
  C     -7.662070   -8.127490   15.633730
  C     -6.338540   -8.124440   15.215780
  C     -5.255470   -8.737170   15.813080
  C     -5.159320   -9.750660   16.824440
  C     -6.093640  -10.716320   17.127440
  C     -5.913350  -11.701230   18.116790
  N     -5.833000  -12.513630   18.925260
  C     -7.292480  -10.915570   16.416320
  N     -8.264260  -11.159110   15.853810
  C     -3.789640   -9.724920   17.340800
  C     -3.017670   -8.855190   16.531160
  C     -3.893660   -8.246460   15.506800
  O     -3.576600   -7.472650   14.629240
  C     -1.677620   -8.645580   16.740660
  C     -1.071100   -9.317540   17.808340
  C     -1.852950  -10.172270   18.618750
  C     -3.208860  -10.391810   18.400820
  S     -0.907610  -10.891180   19.887680
  C      0.507190  -10.047070   19.316200
  C      0.285360   -9.266170   18.233110
  Br     2.142990  -10.274610   20.206450
  H     -2.867680    2.872500    3.780260
  H     -7.613360    4.105800    2.744340
  H     -2.981480    4.992050    5.608140
  H     -6.006640    0.536050   -1.046540
  H     -1.783620   -1.669500   -3.021860
  H     -0.463600   -2.903480   -1.231600
  H     -1.534610   -3.605850   -0.012490
  H     -0.582440   -2.169920    0.373560
  H     -2.546050   -2.051410    1.810020
  H     -5.553440   -1.626080    1.413680
  H     -3.851800   -2.602590    3.775580
  H     -6.849720   -2.208540    3.289020
  H     -3.579140   -3.977280    5.146120
  H     -6.250090   -5.059710    9.194360
  H     -8.348530   -4.416220    9.018980
  H    -10.194790   -2.969420    7.047780
  H    -11.965360   -3.292400    8.539890
  H    -13.143340   -4.086010   10.550290
  H    -12.782530   -5.367370   12.751360
  H    -11.894600   -6.611620   14.583040
  H    -10.383620   -7.879400   16.246200
  H     -7.932840   -8.598680   16.567290
  H     -6.085890   -7.494130   14.367550
  H     -1.113090   -7.984110   16.102460
  H     -3.763230  -11.050300   19.048690
  H      1.044320   -8.676790   17.751800

 Total Charge           Charge          ....    0
 Multiplicity           Mult            ....    1
 Number of Electrons    NEL             ....  608
 Basis Dimension        Dim             .... 1240

ORBITAL ENERGIES
----------------

  NO   OCC          E(Eh)            E(eV)
   0   2.0000    -482.888622    -13140.0674
   1   2.0000    -482.874970    -13139.6959
   2   2.0000     -88.979839     -2421.2645
   3   2.0000     -88.978479     -2421.2275
   4   2.0000     -88.969296     -2420.9776
   5   2.0000     -88.968267     -2420.9496
   6   2.0000     -88.962312     -2420.7876
   7   2.0000     -88.959347     -2420.7069
   8   2.0000     -62.566308     -1702.5158
   9   2.0000     -62.552697     -1702.1454
  10   2.0000     -56.400261     -1534.7291
  11   2.0000     -56.397542     -1534.6551
  12   2.0000     -56.397511     -1534.6543
  13   2.0000     -56.386632     -1534.3583
  14   2.0000     -56.383948     -1534.2852
  15   2.0000     -56.383904     -1534.2840
  16   2.0000     -24.794815      -674.7012
  17   2.0000     -24.793829      -674.6744
  18   2.0000     -19.219411      -522.9868
  19   2.0000     -19.193677      -522.2865
  20   2.0000     -14.418512      -392.3477
  21   2.0000     -14.417940      -392.3321
  22   2.0000     -14.396902      -391.7596
  23   2.0000     -14.394480      -391.6937
  24   2.0000     -10.378216      -282.4056
  25   2.0000     -10.377325      -282.3814
  26   2.0000     -10.368956      -282.1536
  27   2.0000     -10.361963      -281.9634
  28   2.0000     -10.345755      -281.5223
  29   2.0000     -10.344744      -281.4948
  30   2.0000     -10.344409      -281.4857
  31   2.0000     -10.343620      -281.4642
  32   2.0000     -10.333737      -281.1953
  33   2.0000     -10.328451      -281.0514
  34   2.0000     -10.328292      -281.0471
  35   2.0000     -10.328020      -281.0397
  36   2.0000     -10.324605      -280.9468
  37   2.0000     -10.321833      -280.8713
  38   2.0000     -10.321460      -280.8612
  39   2.0000     -10.321444      -280.8608
  40   2.0000     -10.321260      -280.8558
  41   2.0000     -10.321187      -280.8538
  42   2.0000     -10.321113      -280.8518
  43   2.0000     -10.320474      -280.8344
  44   2.0000     -10.315730      -280.7053
  45   2.0000     -10.310759      -280.5700
  46   2.0000     -10.310753      -280.5699
  47   2.0000     -10.310687      -280.5680
  48   2.0000     -10.310668      -280.5675
  49   2.0000     -10.309288      -280.5300
  50   2.0000     -10.308278      -280.5025
  51   2.0000     -10.307450      -280.4800
  52   2.0000     -10.304510      -280.4000
  53   2.0000     -10.303891      -280.3831
  54   2.0000     -10.303463      -280.3715
  55   2.0000     -10.303201      -280.3644
  56   2.0000     -10.302857      -280.3550
  57   2.0000     -10.301875      -280.3283
  58   2.0000     -10.300868      -280.3009
  59   2.0000     -10.300665      -280.2953
  60   2.0000     -10.300393      -280.2879
  61   2.0000     -10.300370      -280.2873
  62   2.0000     -10.299835      -280.2728
  63   2.0000     -10.299744      -280.2703
  64   2.0000     -10.298191      -280.2280
  65   2.0000     -10.297850      -280.2187
  66   2.0000     -10.295730      -280.1611
  67   2.0000     -10.295024      -280.1418
  68   2.0000     -10.294540      -280.1287
  69   2.0000     -10.294406      -280.1250
  70   2.0000     -10.292329      -280.0685
  71   2.0000     -10.292138      -280.0633
  72   2.0000     -10.291658      -280.0502
  73   2.0000     -10.291454      -280.0447
  74   2.0000     -10.289675      -279.9963
  75   2.0000     -10.289139      -279.9817
  76   2.0000     -10.287150      -279.9276
  77   2.0000     -10.285360      -279.8789
  78   2.0000     -10.284384      -279.8523
  79   2.0000     -10.280560      -279.7483
  80   2.0000     -10.278137      -279.6823
  81   2.0000     -10.275171      -279.6016
  82   2.0000     -10.271924      -279.5133
  83   2.0000      -8.795715      -239.3436
  84   2.0000      -8.782126      -238.9738
  85   2.0000      -8.075143      -219.7358
  86   2.0000      -8.074571      -219.7202
  87   2.0000      -8.065435      -219.4716
  88   2.0000      -8.063820      -219.4277
  89   2.0000      -8.058360      -219.2791
  90   2.0000      -8.055648      -219.2053
  91   2.0000      -6.632016      -180.4663
  92   2.0000      -6.618373      -180.0951
  93   2.0000      -6.617457      -180.0702
  94   2.0000      -6.617242      -180.0643
  95   2.0000      -6.603859      -179.7001
  96   2.0000      -6.603731      -179.6967
  97   2.0000      -6.044254      -164.4725
  98   2.0000      -6.044063      -164.4673
  99   2.0000      -6.040131      -164.3603
 100   2.0000      -6.039986      -164.3564
 101   2.0000      -6.037810      -164.2972
 102   2.0000      -6.035766      -164.2415
 103   2.0000      -6.034713      -164.2129
 104   2.0000      -6.033452      -164.1786
 105   2.0000      -6.030455      -164.0970
 106   2.0000      -6.029391      -164.0681
 107   2.0000      -6.028069      -164.0321
 108   2.0000      -6.027588      -164.0190
 109   2.0000      -6.025213      -163.9544
 110   2.0000      -6.025106      -163.9515
 111   2.0000      -6.023777      -163.9153
 112   2.0000      -6.021214      -163.8456
 113   2.0000      -6.019558      -163.8005
 114   2.0000      -6.016836      -163.7264
 115   2.0000      -2.747921       -74.7747
 116   2.0000      -2.743779       -74.6620
 117   2.0000      -2.743635       -74.6581
 118   2.0000      -2.734234       -74.4023
 119   2.0000      -2.732065       -74.3433
 120   2.0000      -2.732061       -74.3432
 121   2.0000      -2.730208       -74.2927
 122   2.0000      -2.730044       -74.2883
 123   2.0000      -2.718545       -73.9754
 124   2.0000      -2.718528       -73.9749
 125   2.0000      -1.317027       -35.8381
 126   2.0000      -1.302173       -35.4339
 127   2.0000      -1.133498       -30.8441
 128   2.0000      -1.108321       -30.1589
 129   2.0000      -1.026153       -27.9230
 130   2.0000      -1.016422       -27.6582
 131   2.0000      -1.016339       -27.6560
 132   2.0000      -1.011502       -27.5244
 133   2.0000      -1.006768       -27.3955
 134   2.0000      -1.002816       -27.2880
 135   2.0000      -0.996971       -27.1290
 136   2.0000      -0.995622       -27.0922
 137   2.0000      -0.992116       -26.9969
 138   2.0000      -0.988605       -26.9013
 139   2.0000      -0.974742       -26.5241
 140   2.0000      -0.971475       -26.4352
 141   2.0000      -0.956462       -26.0266
 142   2.0000      -0.946302       -25.7502
 143   2.0000      -0.936510       -25.4837
 144   2.0000      -0.928101       -25.2549
 145   2.0000      -0.920938       -25.0600
 146   2.0000      -0.911466       -24.8023
 147   2.0000      -0.909414       -24.7464
 148   2.0000      -0.906556       -24.6686
 149   2.0000      -0.896371       -24.3915
 150   2.0000      -0.892040       -24.2736
 151   2.0000      -0.889007       -24.1911
 152   2.0000      -0.880685       -23.9647
 153   2.0000      -0.875440       -23.8219
 154   2.0000      -0.871415       -23.7124
 155   2.0000      -0.870271       -23.6813
 156   2.0000      -0.861360       -23.4388
 157   2.0000      -0.855411       -23.2769
 158   2.0000      -0.851001       -23.1569
 159   2.0000      -0.844531       -22.9809
 160   2.0000      -0.837001       -22.7760
 161   2.0000      -0.835295       -22.7295
 162   2.0000      -0.832153       -22.6440
 163   2.0000      -0.819768       -22.3070
 164   2.0000      -0.814189       -22.1552
 165   2.0000      -0.804008       -21.8782
 166   2.0000      -0.792094       -21.5540
 167   2.0000      -0.778547       -21.1853
 168   2.0000      -0.764005       -20.7896
 169   2.0000      -0.761354       -20.7175
 170   2.0000      -0.755227       -20.5508
 171   2.0000      -0.746842       -20.3226
 172   2.0000      -0.745286       -20.2803
 173   2.0000      -0.736793       -20.0492
 174   2.0000      -0.726225       -19.7616
 175   2.0000      -0.712947       -19.4003
 176   2.0000      -0.706183       -19.2162
 177   2.0000      -0.696148       -18.9432
 178   2.0000      -0.691237       -18.8095
 179   2.0000      -0.689085       -18.7509
 180   2.0000      -0.684183       -18.6176
 181   2.0000      -0.678040       -18.4504
 182   2.0000      -0.674269       -18.3478
 183   2.0000      -0.670926       -18.2568
 184   2.0000      -0.665759       -18.1162
 185   2.0000      -0.661911       -18.0115
 186   2.0000      -0.654348       -17.8057
 187   2.0000      -0.649222       -17.6662
 188   2.0000      -0.645200       -17.5568
 189   2.0000      -0.642419       -17.4811
 190   2.0000      -0.638215       -17.3667
 191   2.0000      -0.631233       -17.1767
 192   2.0000      -0.628059       -17.0904
 193   2.0000      -0.623997       -16.9798
 194   2.0000      -0.620369       -16.8811
 195   2.0000      -0.617874       -16.8132
 196   2.0000      -0.617023       -16.7900
 197   2.0000      -0.606653       -16.5079
 198   2.0000      -0.604759       -16.4563
 199   2.0000      -0.601237       -16.3605
 200   2.0000      -0.596263       -16.2251
 201   2.0000      -0.585269       -15.9260
 202   2.0000      -0.584262       -15.8986
 203   2.0000      -0.582057       -15.8386
 204   2.0000      -0.579384       -15.7658
 205   2.0000      -0.574506       -15.6331
 206   2.0000      -0.569421       -15.4947
 207   2.0000      -0.564828       -15.3697
 208   2.0000      -0.558791       -15.2055
 209   2.0000      -0.552224       -15.0268
 210   2.0000      -0.552068       -15.0225
 211   2.0000      -0.546068       -14.8593
 212   2.0000      -0.544045       -14.8042
 213   2.0000      -0.543372       -14.7859
 214   2.0000      -0.541343       -14.7307
 215   2.0000      -0.539153       -14.6711
 216   2.0000      -0.537701       -14.6316
 217   2.0000      -0.532304       -14.4847
 218   2.0000      -0.529447       -14.4070
 219   2.0000      -0.525575       -14.3016
 220   2.0000      -0.524081       -14.2610
 221   2.0000      -0.521716       -14.1966
 222   2.0000      -0.520537       -14.1645
 223   2.0000      -0.517569       -14.0838
 224   2.0000      -0.515566       -14.0293
 225   2.0000      -0.514477       -13.9996
 226   2.0000      -0.514268       -13.9940
 227   2.0000      -0.512117       -13.9354
 228   2.0000      -0.511000       -13.9050
 229   2.0000      -0.507957       -13.8222
 230   2.0000      -0.505062       -13.7434
 231   2.0000      -0.501870       -13.6566
 232   2.0000      -0.499339       -13.5877
 233   2.0000      -0.497830       -13.5466
 234   2.0000      -0.496095       -13.4994
 235   2.0000      -0.492915       -13.4129
 236   2.0000      -0.491778       -13.3820
 237   2.0000      -0.486727       -13.2445
 238   2.0000      -0.483707       -13.1623
 239   2.0000      -0.482744       -13.1361
 240   2.0000      -0.480946       -13.0872
 241   2.0000      -0.480308       -13.0699
 242   2.0000      -0.478697       -13.0260
 243   2.0000      -0.476156       -12.9569
 244   2.0000      -0.474769       -12.9191
 245   2.0000      -0.471426       -12.8282
 246   2.0000      -0.468808       -12.7569
 247   2.0000      -0.464444       -12.6382
 248   2.0000      -0.463115       -12.6020
 249   2.0000      -0.461179       -12.5493
 250   2.0000      -0.458720       -12.4824
 251   2.0000      -0.455005       -12.3813
 252   2.0000      -0.452990       -12.3265
 253   2.0000      -0.452123       -12.3029
 254   2.0000      -0.450237       -12.2516
 255   2.0000      -0.447412       -12.1747
 256   2.0000      -0.446666       -12.1544
 257   2.0000      -0.445139       -12.1129
 258   2.0000      -0.442845       -12.0504
 259   2.0000      -0.442063       -12.0292
 260   2.0000      -0.440299       -11.9812
 261   2.0000      -0.435885       -11.8610
 262   2.0000      -0.433761       -11.8032
 263   2.0000      -0.432180       -11.7602
 264   2.0000      -0.431369       -11.7381
 265   2.0000      -0.431215       -11.7340
 266   2.0000      -0.430322       -11.7097
 267   2.0000      -0.427549       -11.6342
 268   2.0000      -0.426533       -11.6066
 269   2.0000      -0.426249       -11.5988
 270   2.0000      -0.423412       -11.5216
 271   2.0000      -0.419361       -11.4114
 272   2.0000      -0.416662       -11.3379
 273   2.0000      -0.412283       -11.2188
 274   2.0000      -0.411534       -11.1984
 275   2.0000      -0.407778       -11.0962
 276   2.0000      -0.404903       -11.0180
 277   2.0000      -0.402301       -10.9472
 278   2.0000      -0.394108       -10.7242
 279   2.0000      -0.391638       -10.6570
 280   2.0000      -0.390147       -10.6164
 281   2.0000      -0.380177       -10.3451
 282   2.0000      -0.378179       -10.2908
 283   2.0000      -0.377848       -10.2818
 284   2.0000      -0.371484       -10.1086
 285   2.0000      -0.364655        -9.9228
 286   2.0000      -0.358213        -9.7475
 287   2.0000      -0.355123        -9.6634
 288   2.0000      -0.350283        -9.5317
 289   2.0000      -0.349294        -9.5048
 290   2.0000      -0.339210        -9.2304
 291   2.0000      -0.334191        -9.0938
 292   2.0000      -0.331668        -9.0252
 293   2.0000      -0.325178        -8.8485
 294   2.0000      -0.319415        -8.6917
 295   2.0000      -0.318595        -8.6694
 296   2.0000      -0.310574        -8.4512
 297   2.0000      -0.300729        -8.1833
 298   2.0000      -0.299587        -8.1522
 299   2.0000      -0.295685        -8.0460
 300   2.0000      -0.284523        -7.7423
 301   2.0000      -0.279149        -7.5960
 302   2.0000      -0.252592        -6.8734
 303   2.0000      -0.213021        -5.7966
 304   0.0000      -0.120967        -3.2917
 305   0.0000      -0.094516        -2.5719
 306   0.0000      -0.075600        -2.0572
 307   0.0000      -0.061990        -1.6868
 308   0.0000      -0.049192        -1.3386

MULLIKEN ATOMIC CHARGES
-----------------------
   0 C :    0.285907
   1 C :   -0.337462
   2 C :   -0.183907
   3 N :    0.149399
   4 C :   -0.217055
   5 N :    0.161343
   6 C :    0.018324
   7 C :   -0.016809
   8 C :   -0.071015
   9 C :    0.116047
  10 C :   -0.091251
  11 C :   -0.021337
  12 S :    0.185214
  13 C :   -0.123123
  14 C :    0.038710
  15 Br:    0.024624
  16 C :    0.164120
  17 O :   -0.148791
  18 C :   -0.119260
  19 C :    0.016932
  20 C :   -0.196428
  21 S :    0.142024
  22 C :   -0.103805
  23 C :   -0.096571
  24 C :    0.117550
  25 C :    0.185829
  26 C :   -0.009492
  27 C :    0.021538
  28 C :   -0.009811
  29 C :    0.039822
  30 C :   -0.104529
  31 S :    0.157937
  32 C :   -0.092365
  33 C :    0.119960
  34 C :    0.142540
  35 C :   -0.123442
  36 C :    0.225261
  37 F :   -0.174439
  38 C :    0.229835
  39 F :   -0.166610
  40 C :   -0.119213
  41 C :    0.007834
  42 C :   -0.006565
  43 C :    0.020633
  44 C :   -0.037755
  45 C :    0.047858
  46 C :    0.015987
  47 C :   -0.010229
  48 S :    0.061431
  49 C :   -0.055260
  50 C :    0.036319
  51 C :    0.035341
  52 C :   -0.016898
  53 S :    0.107546
  54 C :    0.001354
  55 C :    0.017287
  56 C :   -0.127465
  57 C :    0.287577
  58 C :   -0.348963
  59 C :   -0.179929
  60 N :    0.134303
  61 C :   -0.220428
  62 N :    0.154152
  63 C :    0.007120
  64 C :   -0.004687
  65 C :    0.135663
  66 O :   -0.158169
  67 C :   -0.077679
  68 C :    0.112203
  69 C :   -0.088215
  70 C :   -0.027699
  71 S :    0.176693
  72 C :   -0.125314
  73 C :    0.039496
  74 Br:    0.012054
  75 H :   -0.012617
  76 H :   -0.005234
  77 H :   -0.003916
  78 H :    0.030617
  79 H :    0.027155
  80 H :    0.012139
  81 H :    0.033824
  82 H :    0.040093
  83 H :   -0.014459
  84 H :    0.010085
  85 H :   -0.005763
  86 H :   -0.007213
  87 H :   -0.018512
  88 H :   -0.000042
  89 H :    0.006952
  90 H :   -0.006636
  91 H :   -0.004772
  92 H :   -0.004330
  93 H :   -0.007330
  94 H :   -0.004715
  95 H :    0.000948
  96 H :    0.008233
  97 H :    0.012488
  98 H :   -0.014543
  99 H :   -0.006968
 100 H :   -0.007279
Sum of atomic charges:   -0.0000000

LOEWDIN ATOMIC CHARGES
----------------------
   0 C :    0.075689
   1 C :   -0.146443
   2 C :   -0.020008
   3 N :   -0.054911
   4 C :   -0.029012
   5 N :   -0.054628
   6 C :   -0.022584
   7 C :   -0.046976
   8 C :    0.019544
   9 C :   -0.032576
  10 C :   -0.145614
  11 C :   -0.009986
  12 S :    0.431956
  13 C :   -0.271568
  14 C :   -0.070316
  15 Br:    0.137464
  16 C :    0.082053
  17 O :   -0.132995
  18 C :   -0.101446
  19 C :    0.048285
  20 C :   -0.183891
  21 S :    0.451995
  22 C :   -0.166405
  23 C :   -0.054556
  24 C :   -0.043232
  25 C :   -0.014743
  26 C :   -0.002239
  27 C :   -0.011248
  28 C :   -0.015085
  29 C :   -0.047471
  30 C :   -0.155813
  31 S :    0.484128
  32 C :   -0.175323
  33 C :   -0.032619
  34 C :   -0.044966
  35 C :   -0.038150
  36 C :    0.064550
  37 F :   -0.053857
  38 C :    0.067010
  39 F :   -0.046043
  40 C :   -0.035638
  41 C :   -0.024837
  42 C :   -0.053017
  43 C :   -0.028344
  44 C :   -0.160525
  45 C :   -0.011704
  46 C :   -0.048961
  47 C :   -0.150237
  48 S :    0.403996
  49 C :   -0.191650
  50 C :   -0.010117
  51 C :   -0.037277
  52 C :   -0.103204
  53 S :    0.403485
  54 C :   -0.067097
  55 C :    0.047504
  56 C :   -0.108949
  57 C :    0.067562
  58 C :   -0.156830
  59 C :   -0.020194
  60 N :   -0.068136
  61 C :   -0.024223
  62 N :   -0.065074
  63 C :   -0.015112
  64 C :   -0.050549
  65 C :    0.077311
  66 O :   -0.158169
  67 C :    0.017409
  68 C :   -0.037689
  69 C :   -0.145361
  70 C :   -0.017186
  71 S :    0.425702
  72 C :   -0.276223
  73 C :   -0.070605
  74 Br:    0.127935
  75 H :    0.040026
  76 H :    0.040967
  77 H :    0.038759
  78 H :    0.045384
  79 H :    0.027025
  80 H :    0.035074
  81 H :    0.038589
  82 H :    0.039445
  83 H :    0.030523
  84 H :    0.032028
  85 H :    0.027425
  86 H :    0.032175
  87 H :    0.038401
  88 H :    0.043719
  89 H :    0.017505
  90 H :    0.025549
  91 H :    0.040889
  92 H :    0.037195
  93 H :    0.034312
  94 H :    0.035620
  95 H :    0.039800
  96 H :    0.038079
  97 H :    0.033572
  98 H :    0.039076
  99 H :    0.039690
 100 H :    0.037211

  Mayer bond orders larger than 0.100000
B(  0-C ,  1-C ) :   1.6391 B(  0-C ,  6-C ) :   1.0078 B(  0-C , 18-C ) :   1.0627
B(  1-C ,  2-C ) :   1.1358 B(  1-C ,  4-C ) :   1.1451 B(  2-C ,  3-N ) :   2.9784
B(  4-C ,  5-N ) :   3.0015 B(  6-C ,  7-C ) :   1.2687 B(  6-C , 11-C ) :   1.4142
B(  7-C ,  8-C ) :   1.4322 B(  7-C , 16-C ) :   0.9429 B(  8-C ,  9-C ) :   1.2436
B(  8-C , 75-H ) :   1.0160 B(  9-C , 10-C ) :   1.3070 B(  9-C , 14-C ) :   1.1637
B( 10-C , 11-C ) :   1.3263 B( 10-C , 12-S ) :   1.0845 B( 11-C , 76-H ) :   0.9813
B( 12-S , 13-C ) :   1.0867 B( 13-C , 14-C ) :   1.6193 B( 13-C , 15-Br) :   1.0191
B( 14-C , 77-H ) :   0.9999 B( 16-C , 17-O ) :   2.1906 B( 16-C , 18-C ) :   0.9590
B( 18-C , 19-C ) :   1.5876 B( 19-C , 20-C ) :   1.1967 B( 19-C , 78-H ) :   0.9375
B( 20-C , 21-S ) :   1.1103 B( 20-C , 25-C ) :   1.3928 B( 21-S , 22-C ) :   1.1695
B( 22-C , 23-C ) :   1.5641 B( 22-C , 79-H ) :   0.9657 B( 23-C , 24-C ) :   1.0957
B( 23-C , 25-C ) :   1.2562 B( 24-C , 80-H ) :   0.9491 B( 24-C , 81-H ) :   0.9422
B( 24-C , 82-H ) :   0.9439 B( 25-C , 26-C ) :   1.0960 B( 26-C , 27-C ) :   1.6460
B( 26-C , 83-H ) :   0.9544 B( 27-C , 28-C ) :   1.1771 B( 27-C , 84-H ) :   0.9796
B( 28-C , 29-C ) :   1.5821 B( 28-C , 85-H ) :   0.9854 B( 29-C , 30-C ) :   1.1769
B( 29-C , 86-H ) :   0.9522 B( 30-C , 31-S ) :   1.1621 B( 30-C , 34-C ) :   1.3004
B( 31-S , 32-C ) :   1.1156 B( 32-C , 33-C ) :   1.2554 B( 32-C , 41-C ) :   1.3221
B( 33-C , 34-C ) :   1.2340 B( 33-C , 40-C ) :   1.1971 B( 34-C , 35-C ) :   1.1691
B( 35-C , 36-C ) :   1.4912 B( 35-C , 40-C ) :   0.1108 B( 35-C , 87-H ) :   0.9982
B( 36-C , 37-F ) :   1.1370 B( 36-C , 38-C ) :   1.1708 B( 38-C , 39-F ) :   1.1453
B( 38-C , 40-C ) :   1.4748 B( 40-C , 88-H ) :   0.9979 B( 41-C , 42-C ) :   1.4849
B( 41-C , 89-H ) :   0.9434 B( 42-C , 43-C ) :   1.2954 B( 42-C , 90-H ) :   0.9656
B( 43-C , 44-C ) :   1.4826 B( 43-C , 91-H ) :   0.9611 B( 44-C , 45-C ) :   1.1984
B( 44-C , 48-S ) :   1.0399 B( 45-C , 46-C ) :   1.5325 B( 45-C , 92-H ) :   0.9995
B( 46-C , 47-C ) :   1.2310 B( 46-C , 93-H ) :   0.9938 B( 47-C , 48-S ) :   1.0779
B( 47-C , 49-C ) :   1.4286 B( 49-C , 50-C ) :   1.2387 B( 49-C , 53-S ) :   1.0486
B( 50-C , 51-C ) :   1.5216 B( 50-C , 94-H ) :   0.9950 B( 51-C , 52-C ) :   1.1998
B( 51-C , 95-H ) :   1.0007 B( 52-C , 53-S ) :   1.0859 B( 52-C , 54-C ) :   1.4752
B( 54-C , 55-C ) :   1.2426 B( 54-C , 96-H ) :   0.9621 B( 55-C , 56-C ) :   1.5079
B( 55-C , 97-H ) :   0.9397 B( 56-C , 57-C ) :   1.0996 B( 56-C , 65-C ) :   0.9686
B( 57-C , 58-C ) :   1.5889 B( 57-C , 63-C ) :   1.0021 B( 58-C , 59-C ) :   1.1351
B( 58-C , 61-C ) :   1.1691 B( 59-C , 60-N ) :   2.9745 B( 61-C , 62-N ) :   3.0095
B( 63-C , 64-C ) :   1.2773 B( 63-C , 70-C ) :   1.4229 B( 64-C , 65-C ) :   0.9188
B( 64-C , 67-C ) :   1.4337 B( 65-C , 66-O ) :   2.2423 B( 67-C , 68-C ) :   1.2412
B( 67-C , 98-H ) :   1.0169 B( 68-C , 69-C ) :   1.3198 B( 68-C , 73-C ) :   1.1617
B( 69-C , 70-C ) :   1.3156 B( 69-C , 71-S ) :   1.0813 B( 70-C , 99-H ) :   0.9823
B( 71-S , 72-C ) :   1.0859 B( 72-C , 73-C ) :   1.6202 B( 72-C , 74-Br) :   1.0116
B( 73-C ,100-H ) :   1.0003

-----------------------------------------------------------------------------
         ABSORPTION SPECTRUM VIA TRANSITION ELECTRIC DIPOLE MOMENTS
-----------------------------------------------------------------------------
State   Energy  Wavelength   fosc         T2         TX        TY        TZ
        (cm-1)    (nm)                  (au**2)     (au)      (au)      (au)
-----------------------------------------------------------------------------
   0    7674.6   1303.0   1.193457975  51.19464   0.22066   3.61835  -6.16875
   1   13894.4    719.7   0.051749103   1.22614  -1.00490  -0.46455  -0.02233
   2   15489.7    645.6   0.081985323   1.74248  -1.28755  -0.28245   0.07011
   3   17884.0    559.2   0.554003183  10.19819  -3.10616   0.55184   0.49538
   4   20404.6    490.1   0.105358380   1.69988   0.86805  -0.95694   0.17498
   5   21400.6    467.3   0.450015639   6.92272   1.97891  -1.67985  -0.42983
   6   21968.8    455.2   0.187200919   2.80528  -1.48202   0.68057   0.38176
   7   23310.5    429.0   0.022135705   0.31262  -0.54189  -0.12448  -0.05899
   8   23553.0    424.6   0.211120919   2.95094   1.70190  -0.07933  -0.21955
   9   24237.4    412.6   0.044265390   0.60125   0.24994   0.02156  -0.73370
  10   25700.8    389.1   0.099366863   1.27283  -0.44884   0.16543  -1.02176
  11   25967.4    385.1   0.074828584   0.94867  -0.63130   0.71015   0.21404
  12   26379.8    379.1   0.004036338   0.05037  -0.21031  -0.04495  -0.06418
  13   26601.8    375.9   0.100375520   1.24220  -0.18626  -0.84264  -0.70531
  14   27579.2    362.6   0.005746439   0.06859  -0.23671  -0.10439  -0.04083
  15   27732.7    360.6   0.066881465   0.79394  -0.84971   0.17987  -0.19896
  16   27931.1    358.0   0.062246194   0.73367  -0.82191  -0.08311  -0.22633
  17   28289.1    353.5   0.029828955   0.34713  -0.56842  -0.01710  -0.15409
  18   28972.9    345.1   0.135492924   1.53957  -0.55370   0.41666   1.02926
  19   29404.8    340.1   0.109565705   1.22668  -0.64404   0.79838   0.41771
  20   29560.9    338.3   0.073262623   0.81591  -0.47117   0.01399  -0.77053
  21   29750.1    336.1   0.141669253   1.56770   1.13100  -0.06016  -0.53377
  22   30025.3    333.1   0.101714412   1.11525  -0.48058  -0.61782   0.70894
  23   30415.4    328.8   0.098097371   1.06179   0.17112   0.53319   0.86500
  24   30650.6    326.3   0.028438149   0.30545  -0.50123  -0.02471  -0.23152
  25   31164.5    320.9   0.304458073   3.21620   1.37815  -0.40824   1.07249
  26   31413.9    318.3   0.544694855   5.70830   0.79407   1.21069   1.90052
  27   31768.6    314.8   0.282936962   2.93202   1.64309   0.43522   0.20702
  28   32072.2    311.8   0.018993489   0.19496   0.42638   0.06061  -0.09739
  29   32381.7    308.8   0.079262287   0.80583  -0.80583  -0.10637  -0.38100
  30   32786.5    305.0   0.030550505   0.30676   0.41941   0.30506   0.19441
  31   32818.3    304.7   0.108832226   1.09173   0.31905   0.32321   0.94100
  32   33158.7    301.6   0.038261181   0.37987   0.57807  -0.21245  -0.02389
  33   33407.0    299.3   0.024346944   0.23993  -0.17349  -0.45331   0.06585
  34   33627.6    297.4   0.039492526   0.38663  -0.38066  -0.48311  -0.09128
  35   33849.7    295.4   0.005725025   0.05568   0.22995  -0.01330   0.05126
  36   34202.4    292.4   0.023221837   0.22352   0.28273   0.03693  -0.37712
  37   34543.8    289.5   0.222529568   2.12077   1.23053   0.32433   0.70808
  38   34874.5    286.7   0.050082600   0.47277   0.07963  -0.63612  -0.24857
  39   35070.4    285.1   0.084372802   0.79202   0.58308   0.16989   0.65052
  40   35495.5    281.7   0.096774063   0.89755   0.63951   0.33061  -0.61585
  41   35526.3    281.5   0.081728291   0.75735   0.72068   0.32600  -0.36290
  42   36118.2    276.9   0.003846505   0.03506   0.08814   0.06483  -0.15195
  43   36238.3    276.0   0.046307845   0.42069  -0.62619   0.16089  -0.05191
  44   36442.4    274.4   0.030665557   0.27702  -0.12502  -0.34184  -0.38019
  45   36882.4    271.1   0.165699388   1.47903   1.02438   0.63546   0.16079
  46   37107.1    269.5   0.044205209   0.39219  -0.62325  -0.04230   0.04427
  47   37378.3    267.5   0.028103385   0.24752   0.39333  -0.11978  -0.28012
  48   37607.7    265.9   0.001404253   0.01229   0.04357  -0.08721  -0.05282
  49   37741.0    265.0   0.047553705   0.41481  -0.60245   0.15120   0.17030
  50   38255.0    261.4   0.030226848   0.26012  -0.27057  -0.19505  -0.38584
  51   38438.5    260.2   0.036967664   0.31661  -0.00441  -0.31136   0.46867
  52   38657.7    258.7   0.026279992   0.22380   0.28419   0.12078   0.35840
  53   38894.8    257.1   0.006552797   0.05546  -0.18553  -0.14468  -0.01055
  54   39054.3    256.1   0.035639604   0.30043   0.05354   0.42453  -0.34254
  55   39141.2    255.5   0.028255318   0.23765  -0.01778  -0.24712   0.41984
  56   39384.0    253.9   0.174374638   1.45760   0.54660  -0.56485  -0.91639
  57   39675.2    252.0   0.019263371   0.15984  -0.38390   0.09875   0.05202
  58   39862.4    250.9   0.038827157   0.32066  -0.52505   0.18101  -0.11052
  59   40078.5    249.5   0.037612170   0.30895   0.49153   0.22737  -0.12513
  60   40250.6    248.4   0.025622525   0.20957  -0.32995  -0.09723   0.30207

FINAL SINGLE POINT ENERGY    -10365.692627552718

DIPOLE MOMENT
-------------
                                X             Y             Z
Electronic contribution:     91.28900      40.18485     118.17593
Nuclear contribution   :    -90.56716     -36.58071    -120.80833
                        -----------------------------------------
Total Dipole Moment    :      0.72183       3.60414      -2.63240
                        -----------------------------------------
Magnitude (a.u.)       :      4.52111
Magnitude (Debye)      :     11.49174

Rotational constants in cm-1:     0.000738     0.000173     0.000168
Rotational constants in MHz :    22.126333     5.196642     5.022678

                             ****ORCA TERMINATED NORMALLY****
TOTAL RUN TIME: 0 days 0 hours 11 minutes 54 seconds 459 msec
