                         Program Version 4.2.0 -  RELEASE  -
|  1> # ORCA input file
|  2> # SCF done       -183.447368811378          0.000759326381
|  3> ! CAM-B3LYP def2-SVP def2/J RIJCOSX Grid4 TightSCF
|  4> %maxcore 5000
|  5> %tddft
|  6>     Mode sTDDFT
|  7>     Ethresh 5.0
|  8>     maxcore 5000
|  9> end
| 10>
| 11> %pal
| 12>   nprocs 6
| 13>   end
| 14> * xyz 0 1
| 15>    C       -4.08214         9.18379        12.24698
| 16>    C       -3.14534         8.24535        12.59435
| 17>    C       -2.46513         8.22723        13.83094
| 18>    N       -1.87626         8.15637        14.81361
| 19>    C       -2.71706         7.16735        11.79131
| 20>    N       -2.31295         6.26772        11.20242
| 21>    C       -4.51597        10.29179        13.09179
| 22>    C       -5.49745        11.04028        12.39575
| 23>    C       -6.10004        12.15460        12.92711
| 24>    C       -5.71475        12.55311        14.21106
| 25>    C       -4.73419        11.80027        14.90117
| 26>    C       -4.12645        10.67262        14.36270
| 27>    S       -4.40397        12.46786        16.47031
| 28>    C       -5.57107        13.73113        16.18324
| 29>    C       -6.17829        13.65871        14.97448
| 30>   Br       -5.87519        15.02766        17.50308
| 31>    C       -5.72494        10.42889        11.07688
| 32>    O       -6.50693        10.81674        10.22725
| 33>    C       -4.82022         9.27342        10.99805
| 34>    C       -4.68270         8.44247         9.91957
| 35>    C       -5.32707         8.46402         8.66855
| 36>    S       -6.56130         9.57159         8.12073
| 37>    C       -6.63292         8.81163         6.56912
| 38>    C       -5.73078         7.73851         6.48467
| 39>    C       -5.01390         7.55242         7.66599
| 40>    C       -5.52765         6.92083         5.35987
| 41>    N       -5.32673         6.24055         4.45713
| 42>    C       -7.51749         9.33904         5.59013
| 43>    C       -7.62080         8.91346         4.31024
| 44>    C       -8.48475         9.53267         3.35582
| 45>    C       -8.54808         9.23946         2.04521
| 46>    C       -7.74285         8.19322         1.34887
| 47>    C       -9.46443        10.01429         1.11566
| 48>    N      -10.66113        10.52693         1.72233
| 49>    C      -10.76101        11.71983         2.33026
| 50>    C      -11.88786        12.15051         2.96737
| 51>    C      -11.99576        13.38815         3.61513
| 52>    C      -13.15079        13.84385         4.20380
| 53>    C      -13.33237        15.01448         4.97343
| 54>    C      -14.59727        15.17531         5.45905
| 55>    C      -15.48791        14.15067         5.07362
| 56>    S      -14.67412        12.96645         4.09238
| 57>    C      -16.82876        14.00386         5.39552
| 58>    C      -17.60991        14.70832         6.32775
| 59>    C      -18.87379        14.20719         6.46522
| 60>    C      -19.15500        13.08546         5.65253
| 61>    S      -17.76783        12.71676         4.67100
| 62>    C      -20.39014        12.44964         5.58670
| 63>    C      -20.81659        11.38645         4.80813
| 64>    C      -20.13937        10.45861         4.02259
| 65>    C      -20.86343         9.85686         2.88287
| 66>    O      -22.04719         9.94550         2.63092
| 67>    C      -19.82893         9.15912         2.08178
| 68>    C      -19.94349         8.53809         0.87431
| 69>    C      -18.78744         7.98248         0.27551
| 70>    C      -17.53812         8.08037         0.95121
| 71>    C      -16.38900         7.53930         0.34351
| 72>    C      -16.47406         6.92976        -0.87685
| 73>    C      -17.70895         6.83016        -1.54205
| 74>    C      -18.84355         7.34432        -0.97771
| 75>    F      -17.76480         6.22669        -2.74138
| 76>    F      -15.36867         6.42287        -1.45222
| 77>    C      -17.45660         8.71476         2.21392
| 78>    C      -18.58656         9.24570         2.76943
| 79>    C      -18.81121         9.94755         4.03397
| 80>    C      -17.93263         9.94737         5.10426
| 81>    C      -18.31141        10.35259         6.39616
| 82>    N      -18.59636        10.66000         7.46615
| 83>    C      -16.61263         9.47548         5.03602
| 84>    N      -15.51108         9.14445         5.01315
| 85>    H       -6.84487        12.70087        12.37002
| 86>    H       -3.38482        10.13616        14.93010
| 87>    H       -6.92198        14.35577        14.63401
| 88>    H       -3.96135         7.63888        10.00553
| 89>    H       -4.27686         6.77830         7.79509
| 90>    H       -8.12770        10.16858         5.92588
| 91>    H       -7.01152         8.08745         3.98145
| 92>    H       -9.11858        10.32047         3.74543
| 93>    H       -6.91363         7.83639         1.94950
| 94>    H       -7.35097         8.58624         0.41163
| 95>    H       -8.37879         7.34075         1.10679
| 96>    H       -9.75221         9.36772         0.28147
| 97>    H       -8.89885        10.85741         0.70007
| 98>    H      -11.41775         9.87375         1.86624
| 99>    H       -9.89276        12.36136         2.25261
|100>    H      -12.75321        11.50131         2.99147
|101>    H      -11.11856        14.01916         3.67804
|102>    H      -12.52040        15.69589         5.15861
|103>    H      -14.91458        16.00142         6.06944
|104>    H      -17.22019        15.53488         6.89425
|105>    H      -19.60826        14.59785         7.14665
|106>    H      -21.15821        12.93244         6.17914
|107>    H      -21.89532        11.30068         4.70643
|108>    H      -20.89863         8.47427         0.37552
|109>    H      -15.43508         7.60177         0.84351
|110>    H      -19.78327         7.26041        -1.50081
|111>    H      -16.49811         8.77478         2.70382
|112> *
|113>
|114>                          ****END OF INPUT****

CARTESIAN COORDINATES (ANGSTROEM)
---------------------------------
  C     -4.082140    9.183790   12.246980
  C     -3.145340    8.245350   12.594350
  C     -2.465130    8.227230   13.830940
  N     -1.876260    8.156370   14.813610
  C     -2.717060    7.167350   11.791310
  N     -2.312950    6.267720   11.202420
  C     -4.515970   10.291790   13.091790
  C     -5.497450   11.040280   12.395750
  C     -6.100040   12.154600   12.927110
  C     -5.714750   12.553110   14.211060
  C     -4.734190   11.800270   14.901170
  C     -4.126450   10.672620   14.362700
  S     -4.403970   12.467860   16.470310
  C     -5.571070   13.731130   16.183240
  C     -6.178290   13.658710   14.974480
  Br    -5.875190   15.027660   17.503080
  C     -5.724940   10.428890   11.076880
  O     -6.506930   10.816740   10.227250
  C     -4.820220    9.273420   10.998050
  C     -4.682700    8.442470    9.919570
  C     -5.327070    8.464020    8.668550
  S     -6.561300    9.571590    8.120730
  C     -6.632920    8.811630    6.569120
  C     -5.730780    7.738510    6.484670
  C     -5.013900    7.552420    7.665990
  C     -5.527650    6.920830    5.359870
  N     -5.326730    6.240550    4.457130
  C     -7.517490    9.339040    5.590130
  C     -7.620800    8.913460    4.310240
  C     -8.484750    9.532670    3.355820
  C     -8.548080    9.239460    2.045210
  C     -7.742850    8.193220    1.348870
  C     -9.464430   10.014290    1.115660
  N    -10.661130   10.526930    1.722330
  C    -10.761010   11.719830    2.330260
  C    -11.887860   12.150510    2.967370
  C    -11.995760   13.388150    3.615130
  C    -13.150790   13.843850    4.203800
  C    -13.332370   15.014480    4.973430
  C    -14.597270   15.175310    5.459050
  C    -15.487910   14.150670    5.073620
  S    -14.674120   12.966450    4.092380
  C    -16.828760   14.003860    5.395520
  C    -17.609910   14.708320    6.327750
  C    -18.873790   14.207190    6.465220
  C    -19.155000   13.085460    5.652530
  S    -17.767830   12.716760    4.671000
  C    -20.390140   12.449640    5.586700
  C    -20.816590   11.386450    4.808130
  C    -20.139370   10.458610    4.022590
  C    -20.863430    9.856860    2.882870
  O    -22.047190    9.945500    2.630920
  C    -19.828930    9.159120    2.081780
  C    -19.943490    8.538090    0.874310
  C    -18.787440    7.982480    0.275510
  C    -17.538120    8.080370    0.951210
  C    -16.389000    7.539300    0.343510
  C    -16.474060    6.929760   -0.876850
  C    -17.708950    6.830160   -1.542050
  C    -18.843550    7.344320   -0.977710
  F    -17.764800    6.226690   -2.741380
  F    -15.368670    6.422870   -1.452220
  C    -17.456600    8.714760    2.213920
  C    -18.586560    9.245700    2.769430
  C    -18.811210    9.947550    4.033970
  C    -17.932630    9.947370    5.104260
  C    -18.311410   10.352590    6.396160
  N    -18.596360   10.660000    7.466150
  C    -16.612630    9.475480    5.036020
  N    -15.511080    9.144450    5.013150
  H     -6.844870   12.700870   12.370020
  H     -3.384820   10.136160   14.930100
  H     -6.921980   14.355770   14.634010
  H     -3.961350    7.638880   10.005530
  H     -4.276860    6.778300    7.795090
  H     -8.127700   10.168580    5.925880
  H     -7.011520    8.087450    3.981450
  H     -9.118580   10.320470    3.745430
  H     -6.913630    7.836390    1.949500
  H     -7.350970    8.586240    0.411630
  H     -8.378790    7.340750    1.106790
  H     -9.752210    9.367720    0.281470
  H     -8.898850   10.857410    0.700070
  H    -11.417750    9.873750    1.866240
  H     -9.892760   12.361360    2.252610
  H    -12.753210   11.501310    2.991470
  H    -11.118560   14.019160    3.678040
  H    -12.520400   15.695890    5.158610
  H    -14.914580   16.001420    6.069440
  H    -17.220190   15.534880    6.894250
  H    -19.608260   14.597850    7.146650
  H    -21.158210   12.932440    6.179140
  H    -21.895320   11.300680    4.706430
  H    -20.898630    8.474270    0.375520
  H    -15.435080    7.601770    0.843510
  H    -19.783270    7.260410   -1.500810
  H    -16.498110    8.774780    2.703820

 Total Charge           Charge          ....    0
 Multiplicity           Mult            ....    1
 Number of Electrons    NEL             ....  532
 Basis Dimension        Dim             .... 1149

ORBITAL ENERGIES
----------------

  NO   OCC          E(Eh)            E(eV)
   0   2.0000    -482.891411    -13140.1433
   1   2.0000     -88.983608     -2421.3671
   2   2.0000     -88.982534     -2421.3378
   3   2.0000     -88.959929     -2420.7227
   4   2.0000     -88.955439     -2420.6006
   5   2.0000     -62.569113     -1702.5921
   6   2.0000     -56.403070     -1534.8056
   7   2.0000     -56.400343     -1534.7314
   8   2.0000     -56.400311     -1534.7305
   9   2.0000     -24.785298      -674.4422
  10   2.0000     -24.783387      -674.3902
  11   2.0000     -19.232611      -523.3459
  12   2.0000     -19.186531      -522.0921
  13   2.0000     -14.476270      -393.9193
  14   2.0000     -14.425177      -392.5290
  15   2.0000     -14.421660      -392.4333
  16   2.0000     -14.419507      -392.3747
  17   2.0000     -14.390779      -391.5930
  18   2.0000     -14.382467      -391.3668
  19   2.0000     -10.380486      -282.4674
  20   2.0000     -10.365771      -282.0670
  21   2.0000     -10.365094      -282.0485
  22   2.0000     -10.363857      -282.0149
  23   2.0000     -10.357772      -281.8493
  24   2.0000     -10.350847      -281.6609
  25   2.0000     -10.350268      -281.6451
  26   2.0000     -10.345741      -281.5219
  27   2.0000     -10.338837      -281.3341
  28   2.0000     -10.337127      -281.2875
  29   2.0000     -10.334854      -281.2257
  30   2.0000     -10.334395      -281.2132
  31   2.0000     -10.333164      -281.1797
  32   2.0000     -10.330284      -281.1013
  33   2.0000     -10.327773      -281.0330
  34   2.0000     -10.325263      -280.9647
  35   2.0000     -10.324541      -280.9451
  36   2.0000     -10.321115      -280.8518
  37   2.0000     -10.317638      -280.7572
  38   2.0000     -10.316732      -280.7325
  39   2.0000     -10.316419      -280.7240
  40   2.0000     -10.315279      -280.6930
  41   2.0000     -10.313594      -280.6471
  42   2.0000     -10.313237      -280.6374
  43   2.0000     -10.312754      -280.6243
  44   2.0000     -10.312362      -280.6136
  45   2.0000     -10.309840      -280.5450
  46   2.0000     -10.308542      -280.5097
  47   2.0000     -10.307969      -280.4941
  48   2.0000     -10.306269      -280.4478
  49   2.0000     -10.304663      -280.4041
  50   2.0000     -10.304515      -280.4001
  51   2.0000     -10.303611      -280.3755
  52   2.0000     -10.303509      -280.3727
  53   2.0000     -10.303395      -280.3696
  54   2.0000     -10.301168      -280.3090
  55   2.0000     -10.296889      -280.1926
  56   2.0000     -10.293779      -280.1080
  57   2.0000     -10.292964      -280.0858
  58   2.0000     -10.290584      -280.0210
  59   2.0000     -10.289649      -279.9956
  60   2.0000     -10.288708      -279.9700
  61   2.0000     -10.287708      -279.9428
  62   2.0000     -10.287235      -279.9299
  63   2.0000     -10.286181      -279.9012
  64   2.0000     -10.285284      -279.8768
  65   2.0000     -10.284864      -279.8654
  66   2.0000     -10.282682      -279.8060
  67   2.0000     -10.279854      -279.7291
  68   2.0000     -10.279387      -279.7163
  69   2.0000     -10.276750      -279.6446
  70   2.0000     -10.274480      -279.5828
  71   2.0000     -10.268720      -279.4261
  72   2.0000     -10.268591      -279.4226
  73   2.0000     -10.261854      -279.2392
  74   2.0000      -8.798537      -239.4204
  75   2.0000      -8.078485      -219.8268
  76   2.0000      -8.077097      -219.7890
  77   2.0000      -8.056075      -219.2170
  78   2.0000      -8.050183      -219.0566
  79   2.0000      -6.634867      -180.5439
  80   2.0000      -6.620266      -180.1466
  81   2.0000      -6.620048      -180.1407
  82   2.0000      -6.048158      -164.5788
  83   2.0000      -6.046447      -164.5322
  84   2.0000      -6.043885      -164.4625
  85   2.0000      -6.041862      -164.4074
  86   2.0000      -6.039744      -164.3498
  87   2.0000      -6.039452      -164.3419
  88   2.0000      -6.025671      -163.9668
  89   2.0000      -6.021602      -163.8561
  90   2.0000      -6.019534      -163.7999
  91   2.0000      -6.017265      -163.7381
  92   2.0000      -6.015359      -163.6862
  93   2.0000      -6.012138      -163.5986
  94   2.0000      -2.750759       -74.8520
  95   2.0000      -2.746625       -74.7395
  96   2.0000      -2.746460       -74.7350
  97   2.0000      -2.734865       -74.4195
  98   2.0000      -2.734860       -74.4193
  99   2.0000      -1.305588       -35.5269
 100   2.0000      -1.290997       -35.1298
 101   2.0000      -1.147981       -31.2382
 102   2.0000      -1.100332       -29.9415
 103   2.0000      -1.076192       -29.2847
 104   2.0000      -1.031200       -28.0604
 105   2.0000      -1.023166       -27.8418
 106   2.0000      -1.020931       -27.7810
 107   2.0000      -1.005747       -27.3678
 108   2.0000      -1.002191       -27.2710
 109   2.0000      -0.999587       -27.2002
 110   2.0000      -0.996848       -27.1256
 111   2.0000      -0.993025       -27.0216
 112   2.0000      -0.981972       -26.7208
 113   2.0000      -0.978191       -26.6179
 114   2.0000      -0.965291       -26.2669
 115   2.0000      -0.956256       -26.0210
 116   2.0000      -0.952257       -25.9122
 117   2.0000      -0.947029       -25.7700
 118   2.0000      -0.927799       -25.2467
 119   2.0000      -0.918421       -24.9915
 120   2.0000      -0.916321       -24.9344
 121   2.0000      -0.908688       -24.7267
 122   2.0000      -0.900815       -24.5124
 123   2.0000      -0.893693       -24.3186
 124   2.0000      -0.888028       -24.1645
 125   2.0000      -0.881556       -23.9884
 126   2.0000      -0.876184       -23.8422
 127   2.0000      -0.872144       -23.7323
 128   2.0000      -0.867348       -23.6017
 129   2.0000      -0.859952       -23.4005
 130   2.0000      -0.853160       -23.2157
 131   2.0000      -0.839167       -22.8349
 132   2.0000      -0.835760       -22.7422
 133   2.0000      -0.830416       -22.5968
 134   2.0000      -0.825555       -22.4645
 135   2.0000      -0.819452       -22.2984
 136   2.0000      -0.807997       -21.9867
 137   2.0000      -0.802622       -21.8405
 138   2.0000      -0.788060       -21.4442
 139   2.0000      -0.775175       -21.0936
 140   2.0000      -0.768165       -20.9028
 141   2.0000      -0.762433       -20.7469
 142   2.0000      -0.741459       -20.1761
 143   2.0000      -0.739017       -20.1097
 144   2.0000      -0.732672       -19.9370
 145   2.0000      -0.722809       -19.6686
 146   2.0000      -0.722338       -19.6558
 147   2.0000      -0.706474       -19.2241
 148   2.0000      -0.700613       -19.0647
 149   2.0000      -0.694661       -18.9027
 150   2.0000      -0.693464       -18.8701
 151   2.0000      -0.689762       -18.7694
 152   2.0000      -0.687747       -18.7146
 153   2.0000      -0.670081       -18.2338
 154   2.0000      -0.667904       -18.1746
 155   2.0000      -0.660532       -17.9740
 156   2.0000      -0.657070       -17.8798
 157   2.0000      -0.651693       -17.7335
 158   2.0000      -0.641599       -17.4588
 159   2.0000      -0.639993       -17.4151
 160   2.0000      -0.637360       -17.3434
 161   2.0000      -0.635949       -17.3050
 162   2.0000      -0.632777       -17.2187
 163   2.0000      -0.628206       -17.0944
 164   2.0000      -0.620156       -16.8753
 165   2.0000      -0.618077       -16.8187
 166   2.0000      -0.613116       -16.6837
 167   2.0000      -0.606607       -16.5066
 168   2.0000      -0.598793       -16.2940
 169   2.0000      -0.595899       -16.2152
 170   2.0000      -0.593108       -16.1393
 171   2.0000      -0.587714       -15.9925
 172   2.0000      -0.580490       -15.7959
 173   2.0000      -0.575402       -15.6575
 174   2.0000      -0.570832       -15.5331
 175   2.0000      -0.567506       -15.4426
 176   2.0000      -0.565076       -15.3765
 177   2.0000      -0.561224       -15.2717
 178   2.0000      -0.557868       -15.1804
 179   2.0000      -0.555166       -15.1068
 180   2.0000      -0.552066       -15.0225
 181   2.0000      -0.550493       -14.9797
 182   2.0000      -0.543389       -14.7864
 183   2.0000      -0.541939       -14.7469
 184   2.0000      -0.536928       -14.6105
 185   2.0000      -0.533335       -14.5128
 186   2.0000      -0.531757       -14.4698
 187   2.0000      -0.530636       -14.4393
 188   2.0000      -0.528140       -14.3714
 189   2.0000      -0.524787       -14.2802
 190   2.0000      -0.523829       -14.2541
 191   2.0000      -0.523434       -14.2434
 192   2.0000      -0.518265       -14.1027
 193   2.0000      -0.515907       -14.0385
 194   2.0000      -0.515004       -14.0140
 195   2.0000      -0.512583       -13.9481
 196   2.0000      -0.509929       -13.8759
 197   2.0000      -0.505721       -13.7614
 198   2.0000      -0.505066       -13.7435
 199   2.0000      -0.504142       -13.7184
 200   2.0000      -0.502741       -13.6803
 201   2.0000      -0.500564       -13.6210
 202   2.0000      -0.498991       -13.5782
 203   2.0000      -0.494986       -13.4693
 204   2.0000      -0.492888       -13.4122
 205   2.0000      -0.490473       -13.3464
 206   2.0000      -0.487419       -13.2633
 207   2.0000      -0.485325       -13.2064
 208   2.0000      -0.484255       -13.1773
 209   2.0000      -0.481893       -13.1130
 210   2.0000      -0.481308       -13.0971
 211   2.0000      -0.479767       -13.0551
 212   2.0000      -0.469278       -12.7697
 213   2.0000      -0.467119       -12.7110
 214   2.0000      -0.463344       -12.6082
 215   2.0000      -0.461041       -12.5456
 216   2.0000      -0.458801       -12.4846
 217   2.0000      -0.457386       -12.4461
 218   2.0000      -0.456799       -12.4301
 219   2.0000      -0.456667       -12.4265
 220   2.0000      -0.451295       -12.2804
 221   2.0000      -0.450959       -12.2712
 222   2.0000      -0.450141       -12.2490
 223   2.0000      -0.448525       -12.2050
 224   2.0000      -0.447374       -12.1737
 225   2.0000      -0.446142       -12.1401
 226   2.0000      -0.440675       -11.9914
 227   2.0000      -0.440022       -11.9736
 228   2.0000      -0.439363       -11.9557
 229   2.0000      -0.434480       -11.8228
 230   2.0000      -0.432310       -11.7638
 231   2.0000      -0.429844       -11.6967
 232   2.0000      -0.428373       -11.6566
 233   2.0000      -0.425757       -11.5854
 234   2.0000      -0.423454       -11.5228
 235   2.0000      -0.421553       -11.4711
 236   2.0000      -0.416780       -11.3412
 237   2.0000      -0.415344       -11.3021
 238   2.0000      -0.415042       -11.2939
 239   2.0000      -0.411402       -11.1948
 240   2.0000      -0.407921       -11.1001
 241   2.0000      -0.402574       -10.9546
 242   2.0000      -0.398533       -10.8446
 243   2.0000      -0.396544       -10.7905
 244   2.0000      -0.393075       -10.6961
 245   2.0000      -0.391631       -10.6568
 246   2.0000      -0.386492       -10.5170
 247   2.0000      -0.380670       -10.3586
 248   2.0000      -0.375353       -10.2139
 249   2.0000      -0.366511        -9.9733
 250   2.0000      -0.365566        -9.9476
 251   2.0000      -0.349779        -9.5180
 252   2.0000      -0.348024        -9.4702
 253   2.0000      -0.344630        -9.3779
 254   2.0000      -0.342573        -9.3219
 255   2.0000      -0.331265        -9.0142
 256   2.0000      -0.326712        -8.8903
 257   2.0000      -0.322969        -8.7884
 258   2.0000      -0.317956        -8.6520
 259   2.0000      -0.309117        -8.4115
 260   2.0000      -0.301123        -8.1940
 261   2.0000      -0.294445        -8.0123
 262   2.0000      -0.281125        -7.6498
 263   2.0000      -0.276230        -7.5166
 264   2.0000      -0.269783        -7.3412
 265   2.0000      -0.219894        -5.9836
 266   0.0000      -0.104453        -2.8423
 267   0.0000      -0.094155        -2.5621
 268   0.0000      -0.072313        -1.9677
 269   0.0000      -0.052313        -1.4235
 270   0.0000      -0.040701        -1.1075

MULLIKEN ATOMIC CHARGES
-----------------------
   0 C :    0.326808
   1 C :   -0.350719
   2 C :   -0.185582
   3 N :    0.154666
   4 C :   -0.187125
   5 N :    0.147981
   6 C :    0.013960
   7 C :   -0.014870
   8 C :   -0.070008
   9 C :    0.118719
  10 C :   -0.091037
  11 C :   -0.019714
  12 S :    0.191708
  13 C :   -0.121854
  14 C :    0.038035
  15 Br:    0.028765
  16 C :    0.168134
  17 O :   -0.181970
  18 C :   -0.089016
  19 C :   -0.014207
  20 C :   -0.053121
  21 S :    0.213048
  22 C :   -0.039783
  23 C :   -0.045738
  24 C :    0.008496
  25 C :   -0.169746
  26 N :    0.112091
  27 C :    0.025766
  28 C :    0.014251
  29 C :    0.003952
  30 C :   -0.194870
  31 C :    0.086426
  32 C :    0.195769
  33 N :   -0.137016
  34 C :    0.076783
  35 C :   -0.040931
  36 C :    0.023217
  37 C :   -0.057270
  38 C :    0.062222
  39 C :    0.008711
  40 C :   -0.012794
  41 S :    0.112232
  42 C :   -0.072959
  43 C :    0.043768
  44 C :    0.033669
  45 C :   -0.022296
  46 S :    0.123620
  47 C :   -0.001980
  48 C :    0.025513
  49 C :   -0.158648
  50 C :    0.134394
  51 O :   -0.158796
  52 C :    0.019837
  53 C :   -0.098858
  54 C :    0.113719
  55 C :    0.124747
  56 C :   -0.118298
  57 C :    0.239010
  58 C :    0.234464
  59 C :   -0.109154
  60 F :   -0.181339
  61 F :   -0.185495
  62 C :   -0.109249
  63 C :    0.052969
  64 C :    0.288952
  65 C :   -0.393007
  66 C :   -0.210243
  67 N :    0.151544
  68 C :   -0.164574
  69 N :    0.109975
  70 H :   -0.009249
  71 H :   -0.004935
  72 H :   -0.002577
  73 H :    0.010761
  74 H :    0.020126
  75 H :   -0.014069
  76 H :    0.008136
  77 H :   -0.018455
  78 H :    0.039735
  79 H :    0.026561
  80 H :    0.043781
  81 H :    0.027601
  82 H :    0.043289
  83 H :    0.138289
  84 H :    0.021076
  85 H :    0.013024
  86 H :   -0.007475
  87 H :   -0.006950
  88 H :   -0.009234
  89 H :   -0.015192
  90 H :   -0.011946
  91 H :   -0.009817
  92 H :    0.018282
  93 H :   -0.018128
  94 H :   -0.015286
  95 H :   -0.006589
  96 H :   -0.026413
Sum of atomic charges:   -0.0000000

LOEWDIN ATOMIC CHARGES
----------------------
   0 C :    0.076970
   1 C :   -0.139018
   2 C :   -0.018236
   3 N :   -0.049664
   4 C :   -0.021316
   5 N :   -0.049471
   6 C :   -0.020348
   7 C :   -0.051839
   8 C :    0.023546
   9 C :   -0.031842
  10 C :   -0.142873
  11 C :   -0.007837
  12 S :    0.437210
  13 C :   -0.270010
  14 C :   -0.070313
  15 Br:    0.140832
  16 C :    0.086667
  17 O :   -0.166886
  18 C :   -0.105150
  19 C :    0.059670
  20 C :   -0.190186
  21 S :    0.531113
  22 C :   -0.126498
  23 C :   -0.120276
  24 C :    0.018481
  25 C :   -0.026537
  26 N :   -0.062553
  27 C :   -0.056134
  28 C :    0.017140
  29 C :   -0.055897
  30 C :   -0.019958
  31 C :   -0.045089
  32 C :    0.042275
  33 N :    0.030152
  34 C :    0.072926
  35 C :   -0.123958
  36 C :    0.008942
  37 C :   -0.188262
  38 C :    0.000168
  39 C :   -0.058520
  40 C :   -0.126127
  41 S :    0.407982
  42 C :   -0.218735
  43 C :   -0.019459
  44 C :   -0.048170
  45 C :   -0.112542
  46 S :    0.480241
  47 C :   -0.075257
  48 C :    0.032053
  49 C :   -0.122191
  50 C :    0.079609
  51 O :   -0.159872
  52 C :   -0.048020
  53 C :    0.020299
  54 C :   -0.014759
  55 C :   -0.007725
  56 C :   -0.039104
  57 C :    0.060325
  58 C :    0.058169
  59 C :   -0.033720
  60 F :   -0.059102
  61 F :   -0.062364
  62 C :   -0.006916
  63 C :   -0.008832
  64 C :    0.031214
  65 C :   -0.187481
  66 C :   -0.032296
  67 N :   -0.072916
  68 C :   -0.017628
  69 N :   -0.096744
  70 H :    0.041386
  71 H :    0.041817
  72 H :    0.039219
  73 H :    0.052054
  74 H :    0.047710
  75 H :    0.030094
  76 H :    0.034824
  77 H :    0.026872
  78 H :    0.039030
  79 H :    0.037060
  80 H :    0.045933
  81 H :    0.036151
  82 H :    0.042839
  83 H :    0.091820
  84 H :    0.034032
  85 H :    0.026745
  86 H :    0.036380
  87 H :    0.036045
  88 H :    0.033562
  89 H :    0.031962
  90 H :    0.034073
  91 H :    0.038122
  92 H :    0.043733
  93 H :    0.036895
  94 H :    0.038979
  95 H :    0.042459
  96 H :    0.032845

  Mayer bond orders larger than 0.100000
B(  0-C ,  1-C ) :   1.6267 B(  0-C ,  6-C ) :   1.0040 B(  0-C , 18-C ) :   1.0715
B(  1-C ,  2-C ) :   1.1444 B(  1-C ,  4-C ) :   1.1453 B(  2-C ,  3-N ) :   2.9671
B(  4-C ,  5-N ) :   2.9543 B(  6-C ,  7-C ) :   1.2733 B(  6-C , 11-C ) :   1.4088
B(  7-C ,  8-C ) :   1.4201 B(  7-C , 16-C ) :   0.9607 B(  8-C ,  9-C ) :   1.2441
B(  8-C , 70-H ) :   1.0176 B(  9-C , 10-C ) :   1.3033 B(  9-C , 14-C ) :   1.1637
B( 10-C , 11-C ) :   1.3299 B( 10-C , 12-S ) :   1.0892 B( 11-C , 71-H ) :   0.9799
B( 12-S , 13-C ) :   1.0874 B( 13-C , 14-C ) :   1.6164 B( 13-C , 15-Br) :   1.0216
B( 14-C , 72-H ) :   1.0011 B( 16-C , 17-O ) :   2.1296 B( 16-C , 18-C ) :   0.9705
B( 18-C , 19-C ) :   1.5308 B( 19-C , 20-C ) :   1.2333 B( 19-C , 73-H ) :   0.9373
B( 20-C , 21-S ) :   1.0861 B( 20-C , 24-C ) :   1.3731 B( 21-S , 22-C ) :   1.1461
B( 22-C , 23-C ) :   1.3843 B( 22-C , 27-C ) :   1.1348 B( 23-C , 24-C ) :   1.3344
B( 23-C , 25-C ) :   1.0950 B( 24-C , 74-H ) :   1.0131 B( 25-C , 26-N ) :   2.9822
B( 27-C , 28-C ) :   1.6821 B( 27-C , 75-H ) :   0.9584 B( 28-C , 29-C ) :   1.1229
B( 28-C , 76-H ) :   0.9640 B( 29-C , 30-C ) :   1.7549 B( 29-C , 77-H ) :   0.9713
B( 30-C , 31-C ) :   1.0865 B( 30-C , 32-C ) :   1.0009 B( 31-C , 78-H ) :   0.9511
B( 31-C , 79-H ) :   0.9493 B( 31-C , 80-H ) :   0.9413 B( 32-C , 33-N ) :   1.0218
B( 32-C , 81-H ) :   0.9449 B( 32-C , 82-H ) :   0.9217 B( 33-N , 34-C ) :   1.2827
B( 33-N , 83-H ) :   0.9366 B( 34-C , 35-C ) :   1.5225 B( 34-C , 84-H ) :   0.9669
B( 35-C , 36-C ) :   1.2301 B( 35-C , 85-H ) :   0.9618 B( 36-C , 37-C ) :   1.5220
B( 36-C , 86-H ) :   0.9801 B( 37-C , 38-C ) :   1.1844 B( 37-C , 41-S ) :   1.0204
B( 38-C , 39-C ) :   1.5387 B( 38-C , 87-H ) :   0.9977 B( 39-C , 40-C ) :   1.2287
B( 39-C , 88-H ) :   0.9963 B( 40-C , 41-S ) :   1.1202 B( 40-C , 42-C ) :   1.4025
B( 42-C , 43-C ) :   1.2449 B( 42-C , 46-S ) :   1.0444 B( 43-C , 44-C ) :   1.5165
B( 43-C , 89-H ) :   0.9929 B( 44-C , 45-C ) :   1.2188 B( 44-C , 90-H ) :   0.9982
B( 45-C , 46-S ) :   1.1323 B( 45-C , 47-C ) :   1.3690 B( 47-C , 48-C ) :   1.4200
B( 47-C , 91-H ) :   0.9551 B( 48-C , 49-C ) :   1.3762 B( 48-C , 92-H ) :   0.9320
B( 49-C , 50-C ) :   0.9806 B( 49-C , 64-C ) :   1.1867 B( 50-C , 51-O ) :   2.2494
B( 50-C , 52-C ) :   0.9058 B( 52-C , 53-C ) :   1.4915 B( 52-C , 63-C ) :   1.2228
B( 53-C , 54-C ) :   1.1719 B( 53-C , 93-H ) :   1.0162 B( 54-C , 55-C ) :   1.2710
B( 54-C , 59-C ) :   1.1985 B( 55-C , 56-C ) :   1.1958 B( 55-C , 62-C ) :   1.1893
B( 56-C , 57-C ) :   1.4303 B( 56-C , 59-C ) :   0.1106 B( 56-C , 94-H ) :   1.0063
B( 57-C , 58-C ) :   1.2061 B( 57-C , 61-F ) :   1.1201 B( 58-C , 59-C ) :   1.4334
B( 58-C , 60-F ) :   1.1241 B( 59-C , 95-H ) :   1.0073 B( 62-C , 63-C ) :   1.4808
B( 62-C , 96-H ) :   0.9925 B( 63-C , 64-C ) :   0.9849 B( 64-C , 65-C ) :   1.4951
B( 65-C , 66-C ) :   1.1684 B( 65-C , 68-C ) :   1.1607 B( 66-C , 67-N ) :   3.0113
B( 68-C , 69-N ) :   2.9524

-----------------------------------------------------------------------------
         ABSORPTION SPECTRUM VIA TRANSITION ELECTRIC DIPOLE MOMENTS
-----------------------------------------------------------------------------
State   Energy  Wavelength   fosc         T2         TX        TY        TZ
        (cm-1)    (nm)                  (au**2)     (au)      (au)      (au)
-----------------------------------------------------------------------------
   0   12404.4    806.2   0.667380944  17.71220  -3.92425  -1.51750   0.09818
   1   16431.2    608.6   0.013392986   0.26834   0.18198  -0.25587   0.41202
   2   21599.2    463.0   0.025177876   0.38376  -0.11308   0.02484  -0.60857
   3   21798.7    458.7   1.255322992  18.95833  -2.04260   0.20070  -3.84003
   4   23405.6    427.2   0.190414314   2.67828  -1.35358   0.78538   0.47882
   5   23913.7    418.2   0.010754968   0.14806  -0.18402   0.28901   0.17514
   6   24581.5    406.8   0.013921811   0.18645   0.37808  -0.17502   0.11348
   7   25994.6    384.7   0.945747748  11.97753  -1.76448   2.23104   1.97145
   8   26683.8    374.8   0.074266210   0.91626  -0.54490   0.68631   0.38513
   9   26833.1    372.7   0.018588959   0.22807  -0.10976   0.46477  -0.00249
  10   27853.7    359.0   0.029107526   0.34403  -0.25851   0.43070   0.30282
  11   28116.6    355.7   0.468585632   5.48658  -0.55231   1.42889   1.77195
  12   28434.3    351.7   0.003938129   0.04560  -0.18629  -0.10427   0.00424
  13   28591.4    349.8   0.016796073   0.19340  -0.07361  -0.38025  -0.20829
  14   29268.2    341.7   0.001912914   0.02152  -0.09631  -0.07485  -0.08147
  15   29388.3    340.3   0.012490181   0.13992   0.27749  -0.24145   0.06794
  16   29658.6    337.2   0.005207101   0.05780  -0.16170   0.17791   0.00107
  17   30127.6    331.9   0.132928745   1.45255   0.52613  -1.02348  -0.35807
  18   30296.0    330.1   0.013121294   0.14258  -0.01724   0.27830   0.25463
  19   31191.2    320.6   0.057870800   0.61081   0.16672   0.62064   0.44477
  20   31871.9    313.8   0.067182873   0.69395  -0.14423   0.58686   0.57336
  21   32363.3    309.0   0.334862639   3.40635   0.76911  -1.46688  -0.81431
  22   32691.0    305.9   0.454934294   4.58138   0.09013  -1.24711  -1.73723
  23   32888.5    304.1   0.328490516   3.28817  -0.94157   0.74567  -1.35852
  24   33105.9    302.1   0.026782069   0.26633  -0.27928   0.42432  -0.09102
  25   33532.6    298.2   0.161527279   1.58582   0.13979  -0.51293  -1.14157
  26   33854.5    295.4   0.077133417   0.75007  -0.34328  -0.46792  -0.64286
  27   34046.4    293.7   0.157578545   1.52371  -0.40759   0.94406   0.68288
  28   34296.9    291.6   0.008076858   0.07753   0.16071  -0.22519  -0.03145
  29   34430.9    290.4   0.074929456   0.71644  -0.19878  -0.53698  -0.62336
  30   34964.8    286.0   0.164844387   1.55210   0.73063  -1.00132   0.12510
  31   35187.3    284.2   0.002710494   0.02536  -0.03318   0.06368   0.14214
  32   35465.5    282.0   0.116720798   1.08347  -0.35958   0.43211   0.87604
  33   36282.1    275.6   0.042996001   0.39013   0.38900   0.18706  -0.45146
  34   36831.9    271.5   0.311105657   2.78073   0.80554   0.72685   1.26631
  35   36867.9    271.2   0.002783361   0.02485   0.03901  -0.15025  -0.02752
  36   37092.1    269.6   0.132166144   1.17305  -0.32097  -0.19984  -1.01493
  37   37289.9    268.2   0.066389744   0.58612   0.30386   0.26145   0.65225
  38   37736.4    265.0   0.005547720   0.04840   0.10841   0.12076   0.14853
  39   37862.8    264.1   0.010803215   0.09393  -0.16408  -0.25881  -0.00527
  40   38116.3    262.4   0.024124967   0.20837  -0.33198  -0.27379  -0.15231
  41   38300.1    261.1   0.006720367   0.05777   0.16886  -0.16172   0.05568
  42   38591.2    259.1   0.127126162   1.08448  -1.00520  -0.21853  -0.16215
  43   39206.2    255.1   0.002919965   0.02452  -0.06643  -0.04985  -0.13274
  44   39684.0    252.0   0.016342508   0.13557   0.16324  -0.03276   0.32841
  45   39874.0    250.8   0.106943336   0.88296  -0.47691   0.80290   0.10424
  46   40097.1    249.4   0.038259036   0.31412  -0.02331  -0.05742   0.55703

FINAL SINGLE POINT ENERGY     -6953.324376824755

DIPOLE MOMENT
-------------
                                X             Y             Z
Electronic contribution:     54.75216      34.09002     139.32389
Nuclear contribution   :    -51.89597     -29.66761    -140.62056
                        -----------------------------------------
Total Dipole Moment    :      2.85619       4.42242      -1.29667
                        -----------------------------------------
Magnitude (a.u.)       :      5.42190
Magnitude (Debye)      :     13.78136

Rotational constants in cm-1:     0.000975     0.000255     0.000217
Rotational constants in MHz :    29.229953     7.657824     6.513284

                             ****ORCA TERMINATED NORMALLY****
TOTAL RUN TIME: 0 days 0 hours 21 minutes 16 seconds 358 msec
