                         Program Version 4.2.0 -  RELEASE  -
|  1> # ORCA input file
|  2> # SCF done       -191.667481824096          0.000785663748
|  3> ! CAM-B3LYP def2-SVP def2/J RIJCOSX Grid4 TightSCF
|  4> %maxcore 5000
|  5> %tddft
|  6>     Mode sTDDFT
|  7>     Ethresh 5.0
|  8>     maxcore 5000
|  9> end
| 10>
| 11> %pal
| 12>   nprocs 6
| 13>   end
| 14> * xyz 0 1
| 15>    C      -10.04541         4.52770         2.19482
| 16>    C      -11.16052         4.11309         1.51508
| 17>    C      -12.44557         4.00675         2.08913
| 18>    N      -13.51459         3.90629         2.49458
| 19>    C      -11.18598         3.73029         0.15720
| 20>    N      -11.28246         3.39928        -0.93798
| 21>    C       -9.98836         4.87592         3.60797
| 22>    C       -8.65087         5.19674         3.95006
| 23>    C       -8.27698         5.56053         5.22116
| 24>    C       -9.26854         5.60161         6.20618
| 25>    C      -10.60376         5.28282         5.85556
| 26>    C      -10.98253         4.92135         4.56919
| 27>    S      -11.66902         5.40400         7.22177
| 28>    C      -10.32694         5.87106         8.23265
| 29>    C       -9.14053         5.93491         7.58178
| 30>   Br      -10.61916         6.23242        10.04804
| 31>    C       -7.79360         5.08767         2.75848
| 32>    O       -6.63959         5.43322         2.66269
| 33>    C       -8.69799         4.62402         1.66064
| 34>    C       -8.31475         4.48251         0.36457
| 35>    C       -6.96045         4.35497        -0.04698
| 36>    O       -6.60341         4.72042        -1.30837
| 37>    C       -5.85476         3.80754         0.57527
| 38>    C       -5.39193         3.09998         1.78329
| 39>    O       -5.98562         2.73510         2.76178
| 40>    N       -4.04779         2.86446         1.52182
| 41>    C       -3.59302         3.28451         0.27106
| 42>    O       -2.47352         3.15035        -0.14087
| 43>    C       -4.78815         3.87575        -0.34518
| 44>    C       -5.28534         4.45809        -1.50061
| 45>    C       -4.63672         4.78331        -2.71811
| 46>    C       -5.27426         5.35105        -3.77112
| 47>    C       -4.65160         5.71273        -4.98753
| 48>    S       -2.93828         5.50207        -5.31347
| 49>    C       -3.03870         6.20219        -6.90293
| 50>    C       -4.35018         6.57076        -7.17302
| 51>    C       -5.23179         6.29770        -6.09945
| 52>    O       -6.46261         6.71692        -6.46906
| 53>    C       -6.27726         7.21016        -7.71659
| 54>    N       -5.07806         7.15215        -8.18193
| 55>    C       -1.90412         6.41795        -7.71535
| 56>    O       -2.08124         7.01630        -8.91165
| 57>    C       -0.55086         6.19969        -7.52901
| 58>    C        0.44942         5.66690        -6.60050
| 59>    O        0.32682         5.14210        -5.52617
| 60>    N        1.65686         5.90460        -7.25660
| 61>    C        1.55490         6.53086        -8.49690
| 62>    O        2.47835         6.81773        -9.20934
| 63>    C        0.10594         6.72203        -8.66869
| 64>    C       -0.87379         7.23070        -9.50187
| 65>    C       -0.84709         7.96088       -10.71935
| 66>    C       -2.01687         8.36052       -11.27878
| 67>    C       -2.15134         9.20796       -12.40212
| 68>    C       -3.32494         9.77669       -12.79378
| 69>    C       -4.62688         9.76928       -12.15371
| 70>    C       -4.88486         9.74210       -10.80740
| 71>    C       -6.18013         9.69617       -10.25550
| 72>    N       -7.20668         9.61907        -9.74660
| 73>    C       -3.90603         9.86102        -9.79435
| 74>    N       -3.17239        10.04247        -8.93119
| 75>    C       -5.61565        10.00893       -13.19963
| 76>    C       -4.94101        10.39912       -14.38563
| 77>    C       -3.48202        10.34634       -14.16041
| 78>    O       -2.59890        10.64557       -14.92839
| 79>    C       -5.61058        10.74167       -15.53535
| 80>    C       -7.00827        10.68571       -15.51924
| 81>    C       -7.67138        10.28126       -14.33500
| 82>    C       -6.99580         9.94405       -13.16885
| 83>    S       -9.39601        10.27132       -14.54012
| 84>    C       -9.20777        10.80680       -16.18909
| 85>    C       -7.91957        10.98327       -16.56883
| 86>   Br      -10.72809        11.07929       -17.25168
| 87>    H       -7.24952         5.79721         5.44770
| 88>    H      -12.01257         4.69279         4.35217
| 89>    H       -8.21255         6.20583         8.05115
| 90>    H       -9.04624         4.45371        -0.43225
| 91>    H       -3.44364         2.39824         2.18408
| 92>    H       -3.58097         4.55722        -2.76181
| 93>    H       -6.33385         5.56233        -3.70524
| 94>    H       -7.12235         7.62423        -8.23217
| 95>    H        2.54749         5.64425        -6.85681
| 96>    H        0.11908         8.23538       -11.11400
| 97>    H       -2.92632         8.00624       -10.81299
| 98>    H       -1.28671         9.38748       -13.03008
| 99>    H       -5.07320        11.04330       -16.42062
|100>    H       -7.54161         9.63767       -12.29189
|101>    H       -7.62258        11.30933       -17.54878
|102> *
|103>
|104>                          ****END OF INPUT****

CARTESIAN COORDINATES (ANGSTROEM)
---------------------------------
  C    -10.045410    4.527700    2.194820
  C    -11.160520    4.113090    1.515080
  C    -12.445570    4.006750    2.089130
  N    -13.514590    3.906290    2.494580
  C    -11.185980    3.730290    0.157200
  N    -11.282460    3.399280   -0.937980
  C     -9.988360    4.875920    3.607970
  C     -8.650870    5.196740    3.950060
  C     -8.276980    5.560530    5.221160
  C     -9.268540    5.601610    6.206180
  C    -10.603760    5.282820    5.855560
  C    -10.982530    4.921350    4.569190
  S    -11.669020    5.404000    7.221770
  C    -10.326940    5.871060    8.232650
  C     -9.140530    5.934910    7.581780
  Br   -10.619160    6.232420   10.048040
  C     -7.793600    5.087670    2.758480
  O     -6.639590    5.433220    2.662690
  C     -8.697990    4.624020    1.660640
  C     -8.314750    4.482510    0.364570
  C     -6.960450    4.354970   -0.046980
  O     -6.603410    4.720420   -1.308370
  C     -5.854760    3.807540    0.575270
  C     -5.391930    3.099980    1.783290
  O     -5.985620    2.735100    2.761780
  N     -4.047790    2.864460    1.521820
  C     -3.593020    3.284510    0.271060
  O     -2.473520    3.150350   -0.140870
  C     -4.788150    3.875750   -0.345180
  C     -5.285340    4.458090   -1.500610
  C     -4.636720    4.783310   -2.718110
  C     -5.274260    5.351050   -3.771120
  C     -4.651600    5.712730   -4.987530
  S     -2.938280    5.502070   -5.313470
  C     -3.038700    6.202190   -6.902930
  C     -4.350180    6.570760   -7.173020
  C     -5.231790    6.297700   -6.099450
  O     -6.462610    6.716920   -6.469060
  C     -6.277260    7.210160   -7.716590
  N     -5.078060    7.152150   -8.181930
  C     -1.904120    6.417950   -7.715350
  O     -2.081240    7.016300   -8.911650
  C     -0.550860    6.199690   -7.529010
  C      0.449420    5.666900   -6.600500
  O      0.326820    5.142100   -5.526170
  N      1.656860    5.904600   -7.256600
  C      1.554900    6.530860   -8.496900
  O      2.478350    6.817730   -9.209340
  C      0.105940    6.722030   -8.668690
  C     -0.873790    7.230700   -9.501870
  C     -0.847090    7.960880  -10.719350
  C     -2.016870    8.360520  -11.278780
  C     -2.151340    9.207960  -12.402120
  C     -3.324940    9.776690  -12.793780
  C     -4.626880    9.769280  -12.153710
  C     -4.884860    9.742100  -10.807400
  C     -6.180130    9.696170  -10.255500
  N     -7.206680    9.619070   -9.746600
  C     -3.906030    9.861020   -9.794350
  N     -3.172390   10.042470   -8.931190
  C     -5.615650   10.008930  -13.199630
  C     -4.941010   10.399120  -14.385630
  C     -3.482020   10.346340  -14.160410
  O     -2.598900   10.645570  -14.928390
  C     -5.610580   10.741670  -15.535350
  C     -7.008270   10.685710  -15.519240
  C     -7.671380   10.281260  -14.335000
  C     -6.995800    9.944050  -13.168850
  S     -9.396010   10.271320  -14.540120
  C     -9.207770   10.806800  -16.189090
  C     -7.919570   10.983270  -16.568830
  Br   -10.728090   11.079290  -17.251680
  H     -7.249520    5.797210    5.447700
  H    -12.012570    4.692790    4.352170
  H     -8.212550    6.205830    8.051150
  H     -9.046240    4.453710   -0.432250
  H     -3.443640    2.398240    2.184080
  H     -3.580970    4.557220   -2.761810
  H     -6.333850    5.562330   -3.705240
  H     -7.122350    7.624230   -8.232170
  H      2.547490    5.644250   -6.856810
  H      0.119080    8.235380  -11.114000
  H     -2.926320    8.006240  -10.812990
  H     -1.286710    9.387480  -13.030080
  H     -5.073200   11.043300  -16.420620
  H     -7.541610    9.637670  -12.291890
  H     -7.622580   11.309330  -17.548780

 Total Charge           Charge          ....    0
 Multiplicity           Mult            ....    1
 Number of Electrons    NEL             ....  560
 Basis Dimension        Dim             .... 1131

ORBITAL ENERGIES
----------------

  NO   OCC          E(Eh)            E(eV)
   0   2.0000    -482.889798    -13140.0994
   1   2.0000    -482.887423    -13140.0348
   2   2.0000     -88.985316     -2421.4136
   3   2.0000     -88.980996     -2421.2960
   4   2.0000     -88.977707     -2421.2065
   5   2.0000     -62.567537     -1702.5492
   6   2.0000     -62.565148     -1702.4842
   7   2.0000     -56.401493     -1534.7626
   8   2.0000     -56.399099     -1534.6975
   9   2.0000     -56.398764     -1534.6884
  10   2.0000     -56.398733     -1534.6875
  11   2.0000     -56.396378     -1534.6235
  12   2.0000     -56.396349     -1534.6227
  13   2.0000     -19.320986      -525.7508
  14   2.0000     -19.318938      -525.6950
  15   2.0000     -19.318735      -525.6895
  16   2.0000     -19.221019      -523.0305
  17   2.0000     -19.219594      -522.9917
  18   2.0000     -19.217260      -522.9282
  19   2.0000     -19.217173      -522.9259
  20   2.0000     -19.215814      -522.8889
  21   2.0000     -19.214855      -522.8628
  22   2.0000     -14.459976      -393.4760
  23   2.0000     -14.458249      -393.4290
  24   2.0000     -14.430843      -392.6832
  25   2.0000     -14.428610      -392.6224
  26   2.0000     -14.420914      -392.4130
  27   2.0000     -14.419649      -392.3786
  28   2.0000     -14.415620      -392.2690
  29   2.0000     -10.407240      -283.1954
  30   2.0000     -10.406331      -283.1707
  31   2.0000     -10.404389      -283.1178
  32   2.0000     -10.404286      -283.1150
  33   2.0000     -10.384918      -282.5880
  34   2.0000     -10.381497      -282.4949
  35   2.0000     -10.374763      -282.3117
  36   2.0000     -10.371969      -282.2356
  37   2.0000     -10.371862      -282.2327
  38   2.0000     -10.369568      -282.1703
  39   2.0000     -10.367278      -282.1080
  40   2.0000     -10.363858      -282.0149
  41   2.0000     -10.361296      -281.9452
  42   2.0000     -10.356584      -281.8170
  43   2.0000     -10.351495      -281.6785
  44   2.0000     -10.349156      -281.6149
  45   2.0000     -10.348420      -281.5948
  46   2.0000     -10.346500      -281.5426
  47   2.0000     -10.336194      -281.2621
  48   2.0000     -10.334280      -281.2101
  49   2.0000     -10.332746      -281.1683
  50   2.0000     -10.331864      -281.1443
  51   2.0000     -10.328500      -281.0528
  52   2.0000     -10.328446      -281.0513
  53   2.0000     -10.327403      -281.0229
  54   2.0000     -10.323263      -280.9103
  55   2.0000     -10.322095      -280.8785
  56   2.0000     -10.320559      -280.8367
  57   2.0000     -10.318830      -280.7896
  58   2.0000     -10.315953      -280.7114
  59   2.0000     -10.315639      -280.7028
  60   2.0000     -10.315604      -280.7019
  61   2.0000     -10.313211      -280.6367
  62   2.0000     -10.312185      -280.6088
  63   2.0000     -10.311819      -280.5989
  64   2.0000     -10.310642      -280.5668
  65   2.0000     -10.310284      -280.5571
  66   2.0000     -10.308497      -280.5085
  67   2.0000     -10.307046      -280.4690
  68   2.0000     -10.305213      -280.4191
  69   2.0000     -10.305133      -280.4169
  70   2.0000     -10.304981      -280.4128
  71   2.0000     -10.304895      -280.4104
  72   2.0000     -10.303190      -280.3641
  73   2.0000     -10.301557      -280.3196
  74   2.0000     -10.301168      -280.3090
  75   2.0000     -10.300108      -280.2802
  76   2.0000     -10.299049      -280.2514
  77   2.0000     -10.298640      -280.2402
  78   2.0000     -10.297935      -280.2211
  79   2.0000     -10.295129      -280.1447
  80   2.0000      -8.796988      -239.3782
  81   2.0000      -8.794588      -239.3129
  82   2.0000      -8.079600      -219.8571
  83   2.0000      -8.077002      -219.7864
  84   2.0000      -8.073756      -219.6981
  85   2.0000      -6.633325      -180.5019
  86   2.0000      -6.630899      -180.4359
  87   2.0000      -6.618705      -180.1041
  88   2.0000      -6.618498      -180.0985
  89   2.0000      -6.616323      -180.0393
  90   2.0000      -6.616107      -180.0334
  91   2.0000      -6.049132      -164.6052
  92   2.0000      -6.046662      -164.5380
  93   2.0000      -6.044939      -164.4911
  94   2.0000      -6.043420      -164.4498
  95   2.0000      -6.042435      -164.4230
  96   2.0000      -6.041274      -164.3914
  97   2.0000      -6.039170      -164.3342
  98   2.0000      -6.038233      -164.3087
  99   2.0000      -6.034981      -164.2202
 100   2.0000      -2.749173       -74.8088
 101   2.0000      -2.746793       -74.7440
 102   2.0000      -2.745114       -74.6983
 103   2.0000      -2.744922       -74.6931
 104   2.0000      -2.742678       -74.6321
 105   2.0000      -2.742508       -74.6274
 106   2.0000      -2.733316       -74.3773
 107   2.0000      -2.733301       -74.3769
 108   2.0000      -2.730927       -74.3123
 109   2.0000      -2.730924       -74.3122
 110   2.0000      -1.248887       -33.9839
 111   2.0000      -1.240274       -33.7496
 112   2.0000      -1.237267       -33.6677
 113   2.0000      -1.162051       -31.6210
 114   2.0000      -1.160669       -31.5834
 115   2.0000      -1.141993       -31.0752
 116   2.0000      -1.141719       -31.0678
 117   2.0000      -1.136365       -30.9221
 118   2.0000      -1.134642       -30.8752
 119   2.0000      -1.049304       -28.5530
 120   2.0000      -1.047550       -28.5053
 121   2.0000      -1.043052       -28.3829
 122   2.0000      -1.029698       -28.0195
 123   2.0000      -1.026434       -27.9307
 124   2.0000      -1.020473       -27.7685
 125   2.0000      -1.017097       -27.6766
 126   2.0000      -1.003935       -27.3185
 127   2.0000      -1.001813       -27.2607
 128   2.0000      -0.998738       -27.1770
 129   2.0000      -0.994222       -27.0542
 130   2.0000      -0.993724       -27.0406
 131   2.0000      -0.953635       -25.9497
 132   2.0000      -0.950780       -25.8720
 133   2.0000      -0.943487       -25.6736
 134   2.0000      -0.936939       -25.4954
 135   2.0000      -0.932013       -25.3614
 136   2.0000      -0.931682       -25.3524
 137   2.0000      -0.915367       -24.9084
 138   2.0000      -0.914302       -24.8794
 139   2.0000      -0.911757       -24.8102
 140   2.0000      -0.903830       -24.5945
 141   2.0000      -0.891835       -24.2681
 142   2.0000      -0.888726       -24.1835
 143   2.0000      -0.886219       -24.1152
 144   2.0000      -0.875108       -23.8129
 145   2.0000      -0.861652       -23.4468
 146   2.0000      -0.853668       -23.2295
 147   2.0000      -0.836963       -22.7749
 148   2.0000      -0.833804       -22.6890
 149   2.0000      -0.831672       -22.6310
 150   2.0000      -0.811769       -22.0894
 151   2.0000      -0.790173       -21.5017
 152   2.0000      -0.783734       -21.3265
 153   2.0000      -0.777305       -21.1516
 154   2.0000      -0.773992       -21.0614
 155   2.0000      -0.770064       -20.9545
 156   2.0000      -0.766395       -20.8547
 157   2.0000      -0.764659       -20.8074
 158   2.0000      -0.758320       -20.6349
 159   2.0000      -0.749348       -20.3908
 160   2.0000      -0.738592       -20.0981
 161   2.0000      -0.723736       -19.6939
 162   2.0000      -0.711874       -19.3711
 163   2.0000      -0.708854       -19.2889
 164   2.0000      -0.706554       -19.2263
 165   2.0000      -0.705210       -19.1897
 166   2.0000      -0.699366       -19.0307
 167   2.0000      -0.693415       -18.8688
 168   2.0000      -0.688395       -18.7322
 169   2.0000      -0.677982       -18.4488
 170   2.0000      -0.671917       -18.2838
 171   2.0000      -0.661310       -17.9952
 172   2.0000      -0.658541       -17.9198
 173   2.0000      -0.651843       -17.7375
 174   2.0000      -0.643503       -17.5106
 175   2.0000      -0.633948       -17.2506
 176   2.0000      -0.630453       -17.1555
 177   2.0000      -0.625485       -17.0203
 178   2.0000      -0.616614       -16.7789
 179   2.0000      -0.611702       -16.6453
 180   2.0000      -0.609417       -16.5831
 181   2.0000      -0.602511       -16.3951
 182   2.0000      -0.601028       -16.3548
 183   2.0000      -0.599700       -16.3187
 184   2.0000      -0.598771       -16.2934
 185   2.0000      -0.598100       -16.2751
 186   2.0000      -0.597602       -16.2616
 187   2.0000      -0.594886       -16.1877
 188   2.0000      -0.589835       -16.0502
 189   2.0000      -0.588077       -16.0024
 190   2.0000      -0.580430       -15.7943
 191   2.0000      -0.574578       -15.6351
 192   2.0000      -0.569083       -15.4855
 193   2.0000      -0.562696       -15.3117
 194   2.0000      -0.556276       -15.1371
 195   2.0000      -0.555553       -15.1174
 196   2.0000      -0.555025       -15.1030
 197   2.0000      -0.551246       -15.0002
 198   2.0000      -0.551120       -14.9967
 199   2.0000      -0.549769       -14.9600
 200   2.0000      -0.545956       -14.8562
 201   2.0000      -0.542511       -14.7625
 202   2.0000      -0.541555       -14.7365
 203   2.0000      -0.539243       -14.6735
 204   2.0000      -0.536169       -14.5899
 205   2.0000      -0.531011       -14.4495
 206   2.0000      -0.528325       -14.3765
 207   2.0000      -0.523923       -14.2567
 208   2.0000      -0.522600       -14.2207
 209   2.0000      -0.520760       -14.1706
 210   2.0000      -0.519302       -14.1309
 211   2.0000      -0.516430       -14.0528
 212   2.0000      -0.514924       -14.0118
 213   2.0000      -0.512855       -13.9555
 214   2.0000      -0.511709       -13.9243
 215   2.0000      -0.510106       -13.8807
 216   2.0000      -0.509892       -13.8749
 217   2.0000      -0.501544       -13.6477
 218   2.0000      -0.500265       -13.6129
 219   2.0000      -0.498013       -13.5516
 220   2.0000      -0.497228       -13.5303
 221   2.0000      -0.493062       -13.4169
 222   2.0000      -0.489072       -13.3083
 223   2.0000      -0.486416       -13.2360
 224   2.0000      -0.484579       -13.1861
 225   2.0000      -0.483015       -13.1435
 226   2.0000      -0.482790       -13.1374
 227   2.0000      -0.479655       -13.0521
 228   2.0000      -0.475913       -12.9502
 229   2.0000      -0.472453       -12.8561
 230   2.0000      -0.466465       -12.6932
 231   2.0000      -0.465665       -12.6714
 232   2.0000      -0.460892       -12.5415
 233   2.0000      -0.457868       -12.4592
 234   2.0000      -0.454417       -12.3653
 235   2.0000      -0.453137       -12.3305
 236   2.0000      -0.451706       -12.2915
 237   2.0000      -0.449412       -12.2291
 238   2.0000      -0.448458       -12.2032
 239   2.0000      -0.448033       -12.1916
 240   2.0000      -0.445231       -12.1154
 241   2.0000      -0.442368       -12.0375
 242   2.0000      -0.442090       -12.0299
 243   2.0000      -0.439147       -11.9498
 244   2.0000      -0.432748       -11.7757
 245   2.0000      -0.431817       -11.7503
 246   2.0000      -0.429411       -11.6849
 247   2.0000      -0.429063       -11.6754
 248   2.0000      -0.423019       -11.5109
 249   2.0000      -0.415457       -11.3052
 250   2.0000      -0.413765       -11.2591
 251   2.0000      -0.411256       -11.1909
 252   2.0000      -0.406287       -11.0556
 253   2.0000      -0.393654       -10.7119
 254   2.0000      -0.392857       -10.6902
 255   2.0000      -0.387809       -10.5528
 256   2.0000      -0.387056       -10.5323
 257   2.0000      -0.384622       -10.4661
 258   2.0000      -0.382786       -10.4161
 259   2.0000      -0.379153       -10.3173
 260   2.0000      -0.376674       -10.2498
 261   2.0000      -0.375565       -10.2197
 262   2.0000      -0.375104       -10.2071
 263   2.0000      -0.374417       -10.1884
 264   2.0000      -0.367845       -10.0096
 265   2.0000      -0.364015        -9.9054
 266   2.0000      -0.359828        -9.7914
 267   2.0000      -0.351607        -9.5677
 268   2.0000      -0.349696        -9.5157
 269   2.0000      -0.348453        -9.4819
 270   2.0000      -0.342992        -9.3333
 271   2.0000      -0.339407        -9.2357
 272   2.0000      -0.332169        -9.0388
 273   2.0000      -0.320969        -8.7340
 274   2.0000      -0.318458        -8.6657
 275   2.0000      -0.317360        -8.6358
 276   2.0000      -0.299464        -8.1488
 277   2.0000      -0.296825        -8.0770
 278   2.0000      -0.289792        -7.8857
 279   2.0000      -0.255131        -6.9425
 280   0.0000      -0.110590        -3.0093
 281   0.0000      -0.101534        -2.7629
 282   0.0000      -0.079930        -2.1750
 283   0.0000      -0.067876        -1.8470
 284   0.0000      -0.064343        -1.7509

MULLIKEN ATOMIC CHARGES
-----------------------
   0 C :    0.303152
   1 C :   -0.343445
   2 C :   -0.184320
   3 N :    0.152361
   4 C :   -0.193146
   5 N :    0.161501
   6 C :    0.022902
   7 C :   -0.018056
   8 C :   -0.060361
   9 C :    0.118495
  10 C :   -0.089004
  11 C :   -0.022199
  12 S :    0.188398
  13 C :   -0.122875
  14 C :    0.038885
  15 Br:    0.027621
  16 C :    0.161222
  17 O :   -0.144337
  18 C :   -0.072118
  19 C :   -0.033155
  20 C :    0.113316
  21 O :   -0.200194
  22 C :   -0.017649
  23 C :    0.185237
  24 O :   -0.140599
  25 N :   -0.163499
  26 C :    0.169759
  27 O :   -0.131626
  28 C :   -0.048010
  29 C :    0.099938
  30 C :   -0.040899
  31 C :    0.044061
  32 C :   -0.176140
  33 S :    0.217322
  34 C :   -0.276312
  35 C :    0.107219
  36 C :    0.198872
  37 O :   -0.188849
  38 C :    0.208186
  39 N :   -0.074911
  40 C :    0.168105
  41 O :   -0.197955
  42 C :   -0.102934
  43 C :    0.168483
  44 O :   -0.135109
  45 N :   -0.167938
  46 C :    0.166727
  47 O :   -0.133331
  48 C :   -0.012098
  49 C :    0.079269
  50 C :    0.001009
  51 C :    0.006274
  52 C :    0.048202
  53 C :   -0.107935
  54 C :    0.271274
  55 C :   -0.328871
  56 C :   -0.137580
  57 N :    0.110264
  58 C :   -0.203943
  59 N :    0.171175
  60 C :    0.014146
  61 C :   -0.011578
  62 C :    0.143066
  63 O :   -0.135701
  64 C :   -0.068279
  65 C :    0.112776
  66 C :   -0.087156
  67 C :   -0.023809
  68 S :    0.186147
  69 C :   -0.126256
  70 C :    0.043438
  71 Br:    0.028218
  72 H :   -0.007800
  73 H :   -0.005830
  74 H :   -0.002181
  75 H :    0.035679
  76 H :    0.141050
  77 H :    0.028953
  78 H :    0.023652
  79 H :    0.047067
  80 H :    0.141795
  81 H :    0.023806
  82 H :    0.054121
  83 H :    0.019564
  84 H :   -0.006745
  85 H :   -0.006768
  86 H :   -0.001207
Sum of atomic charges:   -0.0000000

LOEWDIN ATOMIC CHARGES
----------------------
   0 C :    0.073601
   1 C :   -0.133206
   2 C :   -0.017966
   3 N :   -0.048186
   4 C :   -0.021398
   5 N :   -0.047212
   6 C :   -0.019790
   7 C :   -0.045784
   8 C :    0.027130
   9 C :   -0.030323
  10 C :   -0.142405
  11 C :   -0.009379
  12 S :    0.434560
  13 C :   -0.270271
  14 C :   -0.069452
  15 Br:    0.140053
  16 C :    0.089334
  17 O :   -0.129835
  18 C :   -0.066628
  19 C :    0.044755
  20 C :    0.047487
  21 O :    0.021199
  22 C :   -0.051654
  23 C :    0.088921
  24 O :   -0.147761
  25 N :   -0.000613
  26 C :    0.086251
  27 O :   -0.149824
  28 C :   -0.097516
  29 C :    0.082297
  30 C :   -0.046348
  31 C :   -0.000183
  32 C :   -0.190931
  33 S :    0.500653
  34 C :   -0.199085
  35 C :   -0.044825
  36 C :    0.006200
  37 O :   -0.001752
  38 C :    0.117295
  39 N :   -0.097576
  40 C :    0.067154
  41 O :    0.039342
  42 C :   -0.105594
  43 C :    0.081934
  44 O :   -0.154816
  45 N :   -0.005301
  46 C :    0.085102
  47 O :   -0.151122
  48 C :   -0.077220
  49 C :    0.064359
  50 C :    0.010872
  51 C :   -0.013371
  52 C :    0.065883
  53 C :   -0.079494
  54 C :    0.070937
  55 C :   -0.132347
  56 C :    0.001025
  57 N :   -0.068672
  58 C :   -0.022431
  59 N :   -0.048273
  60 C :   -0.018078
  61 C :   -0.052736
  62 C :    0.082046
  63 O :   -0.136390
  64 C :    0.024258
  65 C :   -0.032328
  66 C :   -0.142763
  67 C :   -0.014004
  68 S :    0.432946
  69 C :   -0.271044
  70 C :   -0.069222
  71 Br:    0.140032
  72 H :    0.042523
  73 H :    0.041228
  74 H :    0.039488
  75 H :    0.052052
  76 H :    0.096614
  77 H :    0.044862
  78 H :    0.047095
  79 H :    0.029253
  80 H :    0.096840
  81 H :    0.050253
  82 H :    0.040256
  83 H :    0.047126
  84 H :    0.042435
  85 H :    0.039774
  86 H :    0.039685

  Mayer bond orders larger than 0.100000
B(  0-C ,  1-C ) :   1.6411 B(  0-C ,  6-C ) :   1.0119 B(  0-C , 18-C ) :   1.0713
B(  1-C ,  2-C ) :   1.1415 B(  1-C ,  4-C ) :   1.1420 B(  2-C ,  3-N ) :   2.9689
B(  4-C ,  5-N ) :   2.9810 B(  6-C ,  7-C ) :   1.2719 B(  6-C , 11-C ) :   1.4007
B(  7-C ,  8-C ) :   1.4252 B(  7-C , 16-C ) :   0.9449 B(  8-C ,  9-C ) :   1.2484
B(  8-C , 72-H ) :   1.0161 B(  9-C , 10-C ) :   1.2981 B(  9-C , 14-C ) :   1.1644
B( 10-C , 11-C ) :   1.3375 B( 10-C , 12-S ) :   1.0882 B( 11-C , 73-H ) :   0.9797
B( 12-S , 13-C ) :   1.0855 B( 13-C , 14-C ) :   1.6171 B( 13-C , 15-Br) :   1.0212
B( 14-C , 74-H ) :   1.0004 B( 16-C , 17-O ) :   2.2214 B( 16-C , 18-C ) :   0.9236
B( 18-C , 19-C ) :   1.6245 B( 19-C , 20-C ) :   1.1524 B( 19-C , 75-H ) :   0.9344
B( 20-C , 21-O ) :   1.1232 B( 20-C , 22-C ) :   1.4440 B( 21-O , 29-C ) :   1.1738
B( 22-C , 23-C ) :   0.8625 B( 22-C , 28-C ) :   1.3153 B( 23-C , 24-O ) :   2.2430
B( 23-C , 25-N ) :   1.0912 B( 25-N , 26-C ) :   1.0720 B( 25-N , 76-H ) :   0.9145
B( 26-C , 27-O ) :   2.2772 B( 26-C , 28-C ) :   0.8765 B( 28-C , 29-C ) :   1.3637
B( 29-C , 30-C ) :   1.1927 B( 30-C , 31-C ) :   1.5828 B( 30-C , 77-H ) :   0.9623
B( 31-C , 32-C ) :   1.1618 B( 31-C , 78-H ) :   0.9915 B( 32-C , 33-S ) :   1.0832
B( 32-C , 34-C ) :   0.1384 B( 32-C , 36-C ) :   1.4367 B( 33-S , 34-C ) :   1.1557
B( 34-C , 35-C ) :   1.3728 B( 34-C , 40-C ) :   1.1890 B( 35-C , 36-C ) :   1.2436
B( 35-C , 39-N ) :   1.3025 B( 36-C , 37-O ) :   1.1394 B( 37-O , 38-C ) :   1.1176
B( 38-C , 39-N ) :   1.7511 B( 38-C , 79-H ) :   0.9712 B( 40-C , 41-O ) :   1.2070
B( 40-C , 42-C ) :   1.3945 B( 41-O , 49-C ) :   1.1280 B( 42-C , 43-C ) :   0.8747
B( 42-C , 48-C ) :   1.2932 B( 43-C , 44-O ) :   2.2719 B( 43-C , 45-N ) :   1.0780
B( 45-N , 46-C ) :   1.0790 B( 45-N , 80-H ) :   0.9134 B( 46-C , 47-O ) :   2.2812
B( 46-C , 48-C ) :   0.8685 B( 48-C , 49-C ) :   1.3854 B( 49-C , 50-C ) :   1.1729
B( 50-C , 51-C ) :   1.6249 B( 50-C , 81-H ) :   0.9758 B( 51-C , 52-C ) :   1.1059
B( 51-C , 82-H ) :   0.9553 B( 52-C , 53-C ) :   1.6350 B( 52-C , 83-H ) :   0.9668
B( 53-C , 54-C ) :   1.0364 B( 53-C , 62-C ) :   0.9339 B( 54-C , 55-C ) :   1.6356
B( 54-C , 60-C ) :   1.0234 B( 55-C , 56-C ) :   1.1510 B( 55-C , 58-C ) :   1.1547
B( 56-C , 57-N ) :   2.8958 B( 58-C , 59-N ) :   3.0026 B( 60-C , 61-C ) :   1.2721
B( 60-C , 67-C ) :   1.4126 B( 61-C , 62-C ) :   0.9198 B( 61-C , 64-C ) :   1.4271
B( 62-C , 63-O ) :   2.2794 B( 64-C , 65-C ) :   1.2534 B( 64-C , 84-H ) :   1.0156
B( 65-C , 66-C ) :   1.3044 B( 65-C , 70-C ) :   1.1655 B( 66-C , 67-C ) :   1.3296
B( 66-C , 68-S ) :   1.0858 B( 67-C , 85-H ) :   0.9822 B( 68-S , 69-C ) :   1.0865
B( 69-C , 70-C ) :   1.6184 B( 69-C , 71-Br) :   1.0216 B( 70-C , 86-H ) :   0.9996

-----------------------------------------------------------------------------
         ABSORPTION SPECTRUM VIA TRANSITION ELECTRIC DIPOLE MOMENTS
-----------------------------------------------------------------------------
State   Energy  Wavelength   fosc         T2         TX        TY        TZ
        (cm-1)    (nm)                  (au**2)     (au)      (au)      (au)
-----------------------------------------------------------------------------
   0   16256.5    615.1   1.277399510  25.86867  -1.40116  -1.67621   4.59301
   1   19160.8    521.9   0.574044317   9.86296   2.91897  -0.74763  -0.88523
   2   23321.1    428.8   0.229856259   3.24476  -0.73553  -0.64306   1.51335
   3   24943.3    400.9   0.062172381   0.82058  -0.90261  -0.03078   0.07016
   4   25717.7    388.8   0.303993848   3.89142   0.58500  -0.34910  -1.85130
   5   25860.1    386.7   0.020463686   0.26051   0.21329  -0.03097   0.46267
   6   26212.3    381.5   0.081256971   1.02054  -0.97931  -0.03969  -0.24477
   7   27118.8    368.7   0.103752349   1.25952  -0.66574  -0.15068  -0.89084
   8   27571.6    362.7   0.250061848   2.98580  -1.45035   0.79742  -0.49641
   9   28422.9    351.8   0.019182236   0.22218   0.25080   0.17279   0.35976
  10   28704.4    348.4   0.029910347   0.34304  -0.29545  -0.14690  -0.48392
  11   29162.9    342.9   0.175265187   1.97852   0.16851  -0.11184   1.39198
  12   29641.0    337.4   0.000725893   0.00806   0.01822  -0.02710  -0.08364
  13   31434.9    318.1   0.037804100   0.39592   0.53194  -0.33484  -0.02889
  14   31606.5    316.4   0.222830355   2.32099  -1.43539   0.43980  -0.25928
  15   31682.6    315.6   0.054519340   0.56651   0.60783  -0.22530   0.38247
  16   32301.9    309.6   1.032582872  10.52378  -1.46574   0.23723  -2.88429
  17   32567.0    307.1   0.178777323   1.80721   0.02673  -0.91091  -0.98830
  18   32760.4    305.2   0.226971028   2.28085   0.42123   0.13595   1.44393
  19   33048.5    302.6   0.019694378   0.19619   0.17764  -0.19609  -0.35522
  20   33203.6    301.2   0.007628190   0.07563   0.13781   0.18357  -0.15148
  21   33533.8    298.2   0.160533844   1.57601   0.52419  -0.35501   1.08407
  22   34117.0    293.1   0.034823244   0.33603   0.54254  -0.11620   0.16785
  23   34377.5    290.9   0.261347449   2.50276   0.86129  -0.40411   1.26398
  24   34745.1    287.8   0.002966771   0.02811  -0.03476  -0.03483  -0.16028
  25   34933.2    286.3   0.055500009   0.52303  -0.69921   0.18123  -0.03598
  26   35329.4    283.1   0.001165599   0.01086   0.06989   0.01595   0.07565
  27   35654.6    280.5   0.061186375   0.56496   0.49677  -0.37811   0.41858
  28   36168.4    276.5   0.103344917   0.94067  -0.77740   0.36552  -0.45023
  29   36612.6    273.1   0.053775481   0.48354   0.47293  -0.38406  -0.33521
  30   36973.8    270.5   0.000678040   0.00604  -0.02620  -0.06142  -0.03973
  31   37103.1    269.5   0.001907093   0.01692  -0.08054  -0.08476  -0.05701
  32   37333.1    267.9   0.025195077   0.22218   0.27540  -0.04590   0.37977
  33   37402.2    267.4   0.036904170   0.32483  -0.49482   0.11510   0.25832
  34   37723.6    265.1   0.222289565   1.93991  -1.37466  -0.02576   0.22263
  35   38380.7    260.5   0.021649983   0.18570  -0.41208   0.08318  -0.09472
  36   38434.9    260.2   0.019352559   0.16576   0.28608  -0.07461  -0.27992
  37   38590.9    259.1   0.087885003   0.74973  -0.80761  -0.29948   0.08837
  38   38970.6    256.6   0.126521801   1.06882  -0.69587   0.01597   0.76441
  39   39112.1    255.7   0.006982994   0.05878   0.18677   0.13502  -0.07525
  40   39247.6    254.8   0.000950983   0.00798  -0.07709  -0.02843   0.03500
  41   39385.2    253.9   0.008806693   0.07361  -0.01737   0.04566   0.26688
  42   39682.1    252.0   0.360620722   2.99179   1.71006  -0.11999   0.23038
  43   40267.2    248.3   0.066967744   0.54751  -0.11951   0.04809  -0.72864

FINAL SINGLE POINT ENERGY     -9351.107167018470

DIPOLE MOMENT
-------------
                                X             Y             Z
Electronic contribution:    -95.87967      32.44021      31.09121
Nuclear contribution   :     95.95529     -31.81649     -31.98795
                        -----------------------------------------
Total Dipole Moment    :      0.07562       0.62372      -0.89674
                        -----------------------------------------
Magnitude (a.u.)       :      1.09493
Magnitude (Debye)      :      2.78310

Rotational constants in cm-1:     0.000987     0.000195     0.000169
Rotational constants in MHz :    29.586515     5.841868     5.054771

                             ****ORCA TERMINATED NORMALLY****
TOTAL RUN TIME: 0 days 0 hours 8 minutes 53 seconds 877 msec
