                         Program Version 4.2.0 -  RELEASE  -
|  1> # ORCA input file
|  2> # SCF done       -188.141378927401          0.000426351178
|  3> ! CAM-B3LYP def2-SVP def2/J RIJCOSX Grid4 TightSCF
|  4> %maxcore 5000
|  5> %tddft
|  6>     Mode sTDDFT
|  7>     Ethresh 5.0
|  8>     maxcore 5000
|  9> end
| 10>
| 11> %pal
| 12>   nprocs 6
| 13>   end
| 14> * xyz 0 1
| 15>    C       -6.70283         1.37942        -2.74684
| 16>    C       -5.94592         2.52643        -2.76738
| 17>    C       -4.92594         2.81252        -1.83797
| 18>    N       -4.07925         3.10106        -1.11731
| 19>    C       -6.06187         3.57710        -3.69935
| 20>    N       -6.09344         4.48734        -4.40019
| 21>    C       -6.61048         0.33692        -1.72195
| 22>    C       -7.52849        -0.68945        -2.04866
| 23>    C       -7.72240        -1.79246        -1.25730
| 24>    C       -6.96874        -1.89452        -0.08317
| 25>    C       -6.05568        -0.86547         0.23831
| 26>    C       -5.86016         0.25407        -0.56486
| 27>    S       -5.24988        -1.17977         1.74778
| 28>    C       -6.13921        -2.67205         1.90806
| 29>    C       -6.99364        -2.92904         0.89341
| 30>   Br       -5.86044        -3.74824         3.41005
| 31>    C       -8.21476        -0.33171        -3.30331
| 32>    O       -8.97409        -1.05301        -3.94100
| 33>    C       -7.75935         1.00534        -3.65953
| 34>    C       -8.19908         1.75988        -4.74237
| 35>    C       -9.40087         1.73022        -5.44184
| 36>    C      -10.63456         1.19008        -5.09869
| 37>    C      -11.84533         1.45701        -5.79590
| 38>    C      -12.97076         0.98210        -5.18790
| 39>    C      -12.69510         0.30350        -3.98350
| 40>    S      -10.97357         0.27059        -3.67686
| 41>    C      -13.50517        -0.35704        -3.07631
| 42>    C      -14.91277        -0.40954        -2.93244
| 43>    C      -15.32642        -1.13218        -1.85488
| 44>    C      -14.26870        -1.72437        -1.11211
| 45>    S      -12.73098        -1.28875        -1.83226
| 46>    C      -14.31753        -2.45089         0.04704
| 47>    C      -13.15569        -3.08682         0.55533
| 48>    S      -12.74489        -3.09182         2.26722
| 49>    C      -12.14494        -3.70740        -0.14954
| 50>    C      -11.93273        -4.20551        -1.51867
| 51>    O      -12.64644        -4.14499        -2.48965
| 52>    N      -10.69719        -4.84332        -1.48050
| 53>    C      -10.12714        -5.49833        -2.64059
| 54>    C       -9.02406        -4.67199        -3.29152
| 55>    C      -10.10149        -4.82790        -0.22604
| 56>    O       -9.01657        -5.29695         0.03561
| 57>    C      -11.06248        -4.14098         0.64206
| 58>    C      -11.18788        -3.86838         1.98911
| 59>    C      -10.24458        -4.12751         3.00618
| 60>    C      -10.39640        -3.76671         4.30644
| 61>    C       -9.43066        -3.99184         5.26871
| 62>    C       -8.56418        -4.17827         6.10245
| 63>    C       -7.60227        -4.38101         7.07587
| 64>    N       -6.39628        -4.96821         6.82566
| 65>    C       -5.67268        -5.02831         7.97669
| 66>    C       -6.44622        -4.46787         8.99853
| 67>    C       -7.64802        -4.06553         8.43791
| 68>    C       -4.40434        -5.58525         8.06073
| 69>    C       -3.30049        -6.07712         8.19024
| 70>    C       -2.04609        -6.63920         8.36843
| 71>    C       -1.38910        -7.31157         7.39297
| 72>    C       -0.11213        -7.91082         7.55993
| 73>    S        0.59005        -8.79016         6.21549
| 74>    C        0.76020        -7.96312         8.62716
| 75>    C        0.81840        -7.46415        10.00429
| 76>    O        0.02480        -6.81316        10.64556
| 77>    N        2.03640        -7.91173        10.49933
| 78>    C        2.50699        -7.60210        11.83196
| 79>    C        3.35505        -6.33486        11.83754
| 80>    C        2.77838        -8.65127         9.58854
| 81>    O        3.85940        -9.13423         9.82979
| 82>    C        1.95513        -8.68907         8.36998
| 83>    C        2.03642        -9.21598         7.10368
| 84>    C        3.03955       -10.00162         6.44116
| 85>    C        4.18064       -10.40143         7.00029
| 86>    H       -8.44242        -2.54890        -1.52128
| 87>    H       -5.15423         1.01290        -0.27115
| 88>    H       -7.60133        -3.81363         0.81548
| 89>    H       -7.51745         2.53069        -5.08146
| 90>    H       -9.42453         2.34002        -6.33796
| 91>    H      -11.84431         2.00135        -6.72414
| 92>    H      -13.96641         1.08075        -5.58241
| 93>    H      -15.57065         0.10430        -3.61078
| 94>    H      -16.35530        -1.27835        -1.57661
| 95>    H      -15.23654        -2.50234         0.61307
| 96>    H      -10.95100        -5.65299        -3.34151
| 97>    H       -9.73066        -6.46573        -2.31889
| 98>    H       -9.38255        -3.67737        -3.54999
| 99>    H       -8.69459        -5.16565        -4.20165
|100>    H       -8.17168        -4.58657        -2.62129
|101>    H       -9.34255        -4.63252         2.68698
|102>    H      -11.30295        -3.26503         4.62559
|103>    H       -6.07740        -5.26420         5.91688
|104>    H       -6.14583        -4.37910        10.02342
|105>    H       -8.47332        -3.59924         8.93841
|106>    H       -1.60394        -6.52316         9.35007
|107>    H       -1.84261        -7.42407         6.41678
|108>    H        3.09607        -8.45448        12.17928
|109>    H        1.62590        -7.47463        12.46547
|110>    H        4.22457        -6.46340        11.19694
|111>    H        3.69287        -6.12228        12.84787
|112>    H        2.77146        -5.49028        11.47798
|113>    H        2.80419       -10.26302         5.41707
|114>    H        4.43274       -10.15243         8.01664
|115>    H        4.89041       -10.99060         6.44615
|116> *
|117>
|118>                          ****END OF INPUT****

CARTESIAN COORDINATES (ANGSTROEM)
---------------------------------
  C     -6.702830    1.379420   -2.746840
  C     -5.945920    2.526430   -2.767380
  C     -4.925940    2.812520   -1.837970
  N     -4.079250    3.101060   -1.117310
  C     -6.061870    3.577100   -3.699350
  N     -6.093440    4.487340   -4.400190
  C     -6.610480    0.336920   -1.721950
  C     -7.528490   -0.689450   -2.048660
  C     -7.722400   -1.792460   -1.257300
  C     -6.968740   -1.894520   -0.083170
  C     -6.055680   -0.865470    0.238310
  C     -5.860160    0.254070   -0.564860
  S     -5.249880   -1.179770    1.747780
  C     -6.139210   -2.672050    1.908060
  C     -6.993640   -2.929040    0.893410
  Br    -5.860440   -3.748240    3.410050
  C     -8.214760   -0.331710   -3.303310
  O     -8.974090   -1.053010   -3.941000
  C     -7.759350    1.005340   -3.659530
  C     -8.199080    1.759880   -4.742370
  C     -9.400870    1.730220   -5.441840
  C    -10.634560    1.190080   -5.098690
  C    -11.845330    1.457010   -5.795900
  C    -12.970760    0.982100   -5.187900
  C    -12.695100    0.303500   -3.983500
  S    -10.973570    0.270590   -3.676860
  C    -13.505170   -0.357040   -3.076310
  C    -14.912770   -0.409540   -2.932440
  C    -15.326420   -1.132180   -1.854880
  C    -14.268700   -1.724370   -1.112110
  S    -12.730980   -1.288750   -1.832260
  C    -14.317530   -2.450890    0.047040
  C    -13.155690   -3.086820    0.555330
  S    -12.744890   -3.091820    2.267220
  C    -12.144940   -3.707400   -0.149540
  C    -11.932730   -4.205510   -1.518670
  O    -12.646440   -4.144990   -2.489650
  N    -10.697190   -4.843320   -1.480500
  C    -10.127140   -5.498330   -2.640590
  C     -9.024060   -4.671990   -3.291520
  C    -10.101490   -4.827900   -0.226040
  O     -9.016570   -5.296950    0.035610
  C    -11.062480   -4.140980    0.642060
  C    -11.187880   -3.868380    1.989110
  C    -10.244580   -4.127510    3.006180
  C    -10.396400   -3.766710    4.306440
  C     -9.430660   -3.991840    5.268710
  C     -8.564180   -4.178270    6.102450
  C     -7.602270   -4.381010    7.075870
  N     -6.396280   -4.968210    6.825660
  C     -5.672680   -5.028310    7.976690
  C     -6.446220   -4.467870    8.998530
  C     -7.648020   -4.065530    8.437910
  C     -4.404340   -5.585250    8.060730
  C     -3.300490   -6.077120    8.190240
  C     -2.046090   -6.639200    8.368430
  C     -1.389100   -7.311570    7.392970
  C     -0.112130   -7.910820    7.559930
  S      0.590050   -8.790160    6.215490
  C      0.760200   -7.963120    8.627160
  C      0.818400   -7.464150   10.004290
  O      0.024800   -6.813160   10.645560
  N      2.036400   -7.911730   10.499330
  C      2.506990   -7.602100   11.831960
  C      3.355050   -6.334860   11.837540
  C      2.778380   -8.651270    9.588540
  O      3.859400   -9.134230    9.829790
  C      1.955130   -8.689070    8.369980
  C      2.036420   -9.215980    7.103680
  C      3.039550  -10.001620    6.441160
  C      4.180640  -10.401430    7.000290
  H     -8.442420   -2.548900   -1.521280
  H     -5.154230    1.012900   -0.271150
  H     -7.601330   -3.813630    0.815480
  H     -7.517450    2.530690   -5.081460
  H     -9.424530    2.340020   -6.337960
  H    -11.844310    2.001350   -6.724140
  H    -13.966410    1.080750   -5.582410
  H    -15.570650    0.104300   -3.610780
  H    -16.355300   -1.278350   -1.576610
  H    -15.236540   -2.502340    0.613070
  H    -10.951000   -5.652990   -3.341510
  H     -9.730660   -6.465730   -2.318890
  H     -9.382550   -3.677370   -3.549990
  H     -8.694590   -5.165650   -4.201650
  H     -8.171680   -4.586570   -2.621290
  H     -9.342550   -4.632520    2.686980
  H    -11.302950   -3.265030    4.625590
  H     -6.077400   -5.264200    5.916880
  H     -6.145830   -4.379100   10.023420
  H     -8.473320   -3.599240    8.938410
  H     -1.603940   -6.523160    9.350070
  H     -1.842610   -7.424070    6.416780
  H      3.096070   -8.454480   12.179280
  H      1.625900   -7.474630   12.465470
  H      4.224570   -6.463400   11.196940
  H      3.692870   -6.122280   12.847870
  H      2.771460   -5.490280   11.477980
  H      2.804190  -10.263020    5.417070
  H      4.432740  -10.152430    8.016640
  H      4.890410  -10.990600    6.446150

 Total Charge           Charge          ....    0
 Multiplicity           Mult            ....    1
 Number of Electrons    NEL             ....  550
 Basis Dimension        Dim             .... 1182

ORBITAL ENERGIES
----------------

  NO   OCC          E(Eh)            E(eV)
   0   2.0000    -482.882064    -13139.8890
   1   2.0000     -88.982535     -2421.3379
   2   2.0000     -88.970574     -2421.0124
   3   2.0000     -88.963713     -2420.8257
   4   2.0000     -88.962783     -2420.8004
   5   2.0000     -88.962281     -2420.7867
   6   2.0000     -62.559472     -1702.3298
   7   2.0000     -56.393358     -1534.5413
   8   2.0000     -56.390805     -1534.4718
   9   2.0000     -56.390694     -1534.4688
  10   2.0000     -19.219285      -522.9833
  11   2.0000     -19.214250      -522.8463
  12   2.0000     -19.209862      -522.7269
  13   2.0000     -19.208755      -522.6968
  14   2.0000     -19.202491      -522.5263
  15   2.0000     -14.475967      -393.9111
  16   2.0000     -14.459709      -393.4687
  17   2.0000     -14.450664      -393.2226
  18   2.0000     -14.401133      -391.8747
  19   2.0000     -14.400289      -391.8518
  20   2.0000     -10.401448      -283.0378
  21   2.0000     -10.397203      -282.9223
  22   2.0000     -10.391532      -282.7680
  23   2.0000     -10.390821      -282.7486
  24   2.0000     -10.347132      -281.5598
  25   2.0000     -10.345601      -281.5181
  26   2.0000     -10.340536      -281.3803
  27   2.0000     -10.339948      -281.3643
  28   2.0000     -10.339583      -281.3543
  29   2.0000     -10.334561      -281.2177
  30   2.0000     -10.326536      -280.9993
  31   2.0000     -10.326058      -280.9863
  32   2.0000     -10.325376      -280.9678
  33   2.0000     -10.325043      -280.9587
  34   2.0000     -10.324869      -280.9540
  35   2.0000     -10.324134      -280.9340
  36   2.0000     -10.323142      -280.9070
  37   2.0000     -10.319292      -280.8022
  38   2.0000     -10.316150      -280.7167
  39   2.0000     -10.314028      -280.6590
  40   2.0000     -10.313007      -280.6312
  41   2.0000     -10.312813      -280.6259
  42   2.0000     -10.311474      -280.5895
  43   2.0000     -10.304919      -280.4111
  44   2.0000     -10.304858      -280.4095
  45   2.0000     -10.304153      -280.3902
  46   2.0000     -10.302242      -280.3383
  47   2.0000     -10.301848      -280.3275
  48   2.0000     -10.301502      -280.3181
  49   2.0000     -10.299724      -280.2698
  50   2.0000     -10.298055      -280.2243
  51   2.0000     -10.296783      -280.1897
  52   2.0000     -10.294132      -280.1176
  53   2.0000     -10.293661      -280.1048
  54   2.0000     -10.293006      -280.0869
  55   2.0000     -10.292843      -280.0825
  56   2.0000     -10.292775      -280.0806
  57   2.0000     -10.291793      -280.0539
  58   2.0000     -10.288076      -279.9528
  59   2.0000     -10.287709      -279.9428
  60   2.0000     -10.287519      -279.9376
  61   2.0000     -10.285484      -279.8823
  62   2.0000     -10.285482      -279.8822
  63   2.0000     -10.284678      -279.8603
  64   2.0000     -10.283283      -279.8223
  65   2.0000     -10.280304      -279.7413
  66   2.0000     -10.280135      -279.7367
  67   2.0000     -10.278588      -279.6946
  68   2.0000     -10.277911      -279.6762
  69   2.0000     -10.277015      -279.6518
  70   2.0000     -10.272358      -279.5251
  71   2.0000     -10.270229      -279.4671
  72   2.0000     -10.269614      -279.4504
  73   2.0000     -10.255653      -279.0705
  74   2.0000     -10.251610      -278.9605
  75   2.0000      -8.788846      -239.1567
  76   2.0000      -8.077873      -219.8101
  77   2.0000      -8.066283      -219.4947
  78   2.0000      -8.059623      -219.3135
  79   2.0000      -8.059036      -219.2975
  80   2.0000      -8.057185      -219.2471
  81   2.0000      -6.624876      -180.2720
  82   2.0000      -6.610698      -179.8862
  83   2.0000      -6.610613      -179.8839
  84   2.0000      -6.047274      -164.5547
  85   2.0000      -6.043105      -164.4412
  86   2.0000      -6.039744      -164.3498
  87   2.0000      -6.035514      -164.2347
  88   2.0000      -6.031369      -164.1219
  89   2.0000      -6.029347      -164.0669
  90   2.0000      -6.028779      -164.0514
  91   2.0000      -6.028442      -164.0422
  92   2.0000      -6.026666      -163.9939
  93   2.0000      -6.025056      -163.9501
  94   2.0000      -6.024594      -163.9375
  95   2.0000      -6.022166      -163.8715
  96   2.0000      -6.020827      -163.8350
  97   2.0000      -6.019883      -163.8093
  98   2.0000      -6.018998      -163.7853
  99   2.0000      -2.740859       -74.5826
 100   2.0000      -2.736811       -74.4724
 101   2.0000      -2.736762       -74.4711
 102   2.0000      -2.725470       -74.1638
 103   2.0000      -2.725454       -74.1634
 104   2.0000      -1.162705       -31.6388
 105   2.0000      -1.155366       -31.4391
 106   2.0000      -1.138809       -30.9886
 107   2.0000      -1.131491       -30.7894
 108   2.0000      -1.115366       -30.3507
 109   2.0000      -1.093485       -29.7552
 110   2.0000      -1.054745       -28.7011
 111   2.0000      -1.046076       -28.4652
 112   2.0000      -1.019447       -27.7406
 113   2.0000      -1.008903       -27.4537
 114   2.0000      -1.007409       -27.4130
 115   2.0000      -0.999573       -27.1998
 116   2.0000      -0.996974       -27.1290
 117   2.0000      -0.990123       -26.9426
 118   2.0000      -0.979625       -26.6570
 119   2.0000      -0.975214       -26.5369
 120   2.0000      -0.933489       -25.4015
 121   2.0000      -0.931481       -25.3469
 122   2.0000      -0.917998       -24.9800
 123   2.0000      -0.915909       -24.9231
 124   2.0000      -0.903466       -24.5845
 125   2.0000      -0.898888       -24.4600
 126   2.0000      -0.898053       -24.4373
 127   2.0000      -0.896286       -24.3892
 128   2.0000      -0.888564       -24.1790
 129   2.0000      -0.883376       -24.0379
 130   2.0000      -0.878383       -23.9020
 131   2.0000      -0.874032       -23.7836
 132   2.0000      -0.871811       -23.7232
 133   2.0000      -0.864763       -23.5314
 134   2.0000      -0.855076       -23.2678
 135   2.0000      -0.840071       -22.8595
 136   2.0000      -0.838288       -22.8110
 137   2.0000      -0.829668       -22.5764
 138   2.0000      -0.827730       -22.5237
 139   2.0000      -0.824518       -22.4363
 140   2.0000      -0.815738       -22.1974
 141   2.0000      -0.813917       -22.1478
 142   2.0000      -0.798401       -21.7256
 143   2.0000      -0.789195       -21.4751
 144   2.0000      -0.770600       -20.9691
 145   2.0000      -0.762043       -20.7363
 146   2.0000      -0.751418       -20.4471
 147   2.0000      -0.746410       -20.3109
 148   2.0000      -0.742961       -20.2170
 149   2.0000      -0.741030       -20.1645
 150   2.0000      -0.737386       -20.0653
 151   2.0000      -0.726856       -19.7788
 152   2.0000      -0.716569       -19.4988
 153   2.0000      -0.702736       -19.1224
 154   2.0000      -0.700993       -19.0750
 155   2.0000      -0.696646       -18.9567
 156   2.0000      -0.687634       -18.7115
 157   2.0000      -0.686087       -18.6694
 158   2.0000      -0.680844       -18.5267
 159   2.0000      -0.677142       -18.4260
 160   2.0000      -0.675263       -18.3748
 161   2.0000      -0.667009       -18.1502
 162   2.0000      -0.663591       -18.0572
 163   2.0000      -0.662774       -18.0350
 164   2.0000      -0.651013       -17.7150
 165   2.0000      -0.645063       -17.5531
 166   2.0000      -0.639148       -17.3921
 167   2.0000      -0.630457       -17.1556
 168   2.0000      -0.628269       -17.0961
 169   2.0000      -0.619417       -16.8552
 170   2.0000      -0.614949       -16.7336
 171   2.0000      -0.610688       -16.6177
 172   2.0000      -0.608168       -16.5491
 173   2.0000      -0.606988       -16.5170
 174   2.0000      -0.592686       -16.1278
 175   2.0000      -0.585068       -15.9205
 176   2.0000      -0.581881       -15.8338
 177   2.0000      -0.579454       -15.7678
 178   2.0000      -0.574375       -15.6295
 179   2.0000      -0.572729       -15.5848
 180   2.0000      -0.568760       -15.4767
 181   2.0000      -0.562927       -15.3180
 182   2.0000      -0.561290       -15.2735
 183   2.0000      -0.555366       -15.1123
 184   2.0000      -0.554421       -15.0865
 185   2.0000      -0.553993       -15.0749
 186   2.0000      -0.544889       -14.8272
 187   2.0000      -0.543363       -14.7856
 188   2.0000      -0.540572       -14.7097
 189   2.0000      -0.539061       -14.6686
 190   2.0000      -0.538723       -14.6594
 191   2.0000      -0.536545       -14.6001
 192   2.0000      -0.535978       -14.5847
 193   2.0000      -0.530896       -14.4464
 194   2.0000      -0.529496       -14.4083
 195   2.0000      -0.526322       -14.3220
 196   2.0000      -0.525623       -14.3029
 197   2.0000      -0.521289       -14.1850
 198   2.0000      -0.520104       -14.1528
 199   2.0000      -0.515389       -14.0244
 200   2.0000      -0.511434       -13.9168
 201   2.0000      -0.510365       -13.8877
 202   2.0000      -0.506275       -13.7765
 203   2.0000      -0.505483       -13.7549
 204   2.0000      -0.501684       -13.6515
 205   2.0000      -0.498636       -13.5686
 206   2.0000      -0.496719       -13.5164
 207   2.0000      -0.495023       -13.4703
 208   2.0000      -0.493275       -13.4227
 209   2.0000      -0.492398       -13.3988
 210   2.0000      -0.491734       -13.3808
 211   2.0000      -0.490797       -13.3553
 212   2.0000      -0.488262       -13.2863
 213   2.0000      -0.487321       -13.2607
 214   2.0000      -0.484737       -13.1904
 215   2.0000      -0.481519       -13.1028
 216   2.0000      -0.480173       -13.0662
 217   2.0000      -0.478358       -13.0168
 218   2.0000      -0.474935       -12.9236
 219   2.0000      -0.474110       -12.9012
 220   2.0000      -0.466732       -12.7004
 221   2.0000      -0.465374       -12.6635
 222   2.0000      -0.464524       -12.6403
 223   2.0000      -0.461232       -12.5508
 224   2.0000      -0.459917       -12.5150
 225   2.0000      -0.450285       -12.2529
 226   2.0000      -0.449132       -12.2215
 227   2.0000      -0.449032       -12.2188
 228   2.0000      -0.445585       -12.1250
 229   2.0000      -0.444752       -12.1023
 230   2.0000      -0.443599       -12.0709
 231   2.0000      -0.441723       -12.0199
 232   2.0000      -0.439191       -11.9510
 233   2.0000      -0.435499       -11.8505
 234   2.0000      -0.434857       -11.8331
 235   2.0000      -0.433876       -11.8064
 236   2.0000      -0.431455       -11.7405
 237   2.0000      -0.430068       -11.7027
 238   2.0000      -0.426030       -11.5929
 239   2.0000      -0.422564       -11.4985
 240   2.0000      -0.422140       -11.4870
 241   2.0000      -0.417928       -11.3724
 242   2.0000      -0.412850       -11.2342
 243   2.0000      -0.409034       -11.1304
 244   2.0000      -0.403925       -10.9914
 245   2.0000      -0.400180       -10.8895
 246   2.0000      -0.393694       -10.7130
 247   2.0000      -0.389521       -10.5994
 248   2.0000      -0.384635       -10.4665
 249   2.0000      -0.375595       -10.2205
 250   2.0000      -0.372196       -10.1280
 251   2.0000      -0.368966       -10.0401
 252   2.0000      -0.367502       -10.0003
 253   2.0000      -0.361414        -9.8346
 254   2.0000      -0.360743        -9.8163
 255   2.0000      -0.357453        -9.7268
 256   2.0000      -0.355590        -9.6761
 257   2.0000      -0.353408        -9.6167
 258   2.0000      -0.350657        -9.5419
 259   2.0000      -0.346863        -9.4386
 260   2.0000      -0.346301        -9.4233
 261   2.0000      -0.340943        -9.2775
 262   2.0000      -0.340253        -9.2587
 263   2.0000      -0.338729        -9.2173
 264   2.0000      -0.337033        -9.1711
 265   2.0000      -0.334472        -9.1015
 266   2.0000      -0.327438        -8.9101
 267   2.0000      -0.318657        -8.6711
 268   2.0000      -0.312772        -8.5110
 269   2.0000      -0.299172        -8.1409
 270   2.0000      -0.295568        -8.0428
 271   2.0000      -0.282053        -7.6751
 272   2.0000      -0.276816        -7.5325
 273   2.0000      -0.245068        -6.6686
 274   2.0000      -0.234057        -6.3690
 275   0.0000      -0.114976        -3.1286
 276   0.0000      -0.075720        -2.0604
 277   0.0000      -0.062511        -1.7010
 278   0.0000      -0.051677        -1.4062
 279   0.0000      -0.041441        -1.1277

MULLIKEN ATOMIC CHARGES
-----------------------
   0 C :    0.315345
   1 C :   -0.362120
   2 C :   -0.187305
   3 N :    0.137015
   4 C :   -0.196655
   5 N :    0.149806
   6 C :    0.009716
   7 C :    0.025715
   8 C :   -0.076615
   9 C :    0.124062
  10 C :   -0.096426
  11 C :   -0.028301
  12 S :    0.177062
  13 C :   -0.120382
  14 C :    0.046034
  15 Br:   -0.016351
  16 C :    0.114186
  17 O :   -0.194903
  18 C :   -0.087172
  19 C :   -0.009236
  20 C :    0.001392
  21 C :    0.003009
  22 C :    0.028100
  23 C :    0.044431
  24 C :   -0.053155
  25 S :    0.139497
  26 C :   -0.025090
  27 C :    0.044744
  28 C :    0.055329
  29 C :   -0.012789
  30 S :    0.109467
  31 C :    0.018962
  32 C :   -0.150131
  33 S :    0.145403
  34 C :   -0.002510
  35 C :    0.194116
  36 O :   -0.157510
  37 N :   -0.308212
  38 C :    0.125501
  39 C :   -0.016507
  40 C :    0.206670
  41 O :   -0.186456
  42 C :    0.016493
  43 C :   -0.116461
  44 C :   -0.006429
  45 C :   -0.074459
  46 C :   -0.056870
  47 C :    0.105405
  48 C :    0.004125
  49 N :   -0.036741
  50 C :    0.015630
  51 C :    0.000218
  52 C :    0.008002
  53 C :    0.078960
  54 C :   -0.050564
  55 C :   -0.080797
  56 C :    0.038124
  57 C :   -0.145986
  58 S :    0.149501
  59 C :    0.004775
  60 C :    0.199908
  61 O :   -0.182958
  62 N :   -0.299489
  63 C :    0.134265
  64 C :   -0.006422
  65 C :    0.196688
  66 O :   -0.176142
  67 C :    0.007175
  68 C :   -0.157660
  69 C :    0.027453
  70 C :   -0.006570
  71 H :   -0.060718
  72 H :   -0.009950
  73 H :   -0.013332
  74 H :    0.022607
  75 H :   -0.006384
  76 H :   -0.004560
  77 H :   -0.008911
  78 H :   -0.000574
  79 H :    0.002597
  80 H :    0.010729
  81 H :    0.037061
  82 H :    0.025181
  83 H :    0.046255
  84 H :    0.019478
  85 H :    0.030782
  86 H :    0.021435
  87 H :    0.032240
  88 H :    0.125390
  89 H :   -0.016334
  90 H :   -0.018673
  91 H :    0.058715
  92 H :   -0.012884
  93 H :    0.030954
  94 H :    0.031828
  95 H :    0.027887
  96 H :    0.021579
  97 H :    0.024432
  98 H :   -0.014901
  99 H :    0.052260
 100 H :    0.028899
Sum of atomic charges:   -0.0000000

LOEWDIN ATOMIC CHARGES
----------------------
   0 C :    0.079256
   1 C :   -0.150330
   2 C :   -0.017548
   3 N :   -0.064796
   4 C :   -0.022658
   5 N :   -0.060878
   6 C :   -0.020987
   7 C :   -0.044406
   8 C :    0.010501
   9 C :   -0.033557
  10 C :   -0.147696
  11 C :   -0.011977
  12 S :    0.422596
  13 C :   -0.278439
  14 C :   -0.067961
  15 Br:    0.123074
  16 C :    0.047975
  17 O :   -0.188105
  18 C :   -0.115618
  19 C :    0.040536
  20 C :   -0.072212
  21 C :   -0.114598
  22 C :   -0.033693
  23 C :   -0.024486
  24 C :   -0.193791
  25 S :    0.501407
  26 C :   -0.139602
  27 C :   -0.022156
  28 C :   -0.007697
  29 C :   -0.122974
  30 S :    0.436376
  31 C :   -0.055928
  32 C :   -0.148643
  33 S :    0.439763
  34 C :   -0.102334
  35 C :    0.076643
  36 O :   -0.159020
  37 N :   -0.027112
  38 C :    0.043683
  39 C :   -0.063562
  40 C :    0.093711
  41 O :   -0.174804
  42 C :   -0.098182
  43 C :   -0.119626
  44 C :   -0.031169
  45 C :   -0.018347
  46 C :   -0.034858
  47 C :   -0.028494
  48 C :   -0.032596
  49 N :    0.115850
  50 C :   -0.022713
  51 C :   -0.037146
  52 C :   -0.033500
  53 C :   -0.048180
  54 C :   -0.021074
  55 C :   -0.010788
  56 C :   -0.039630
  57 C :   -0.132740
  58 S :    0.453984
  59 C :   -0.098731
  60 C :    0.094509
  61 O :   -0.167695
  62 N :   -0.028281
  63 C :    0.043180
  64 C :   -0.059572
  65 C :    0.094666
  66 O :   -0.164248
  67 C :   -0.096311
  68 C :   -0.129576
  69 C :   -0.059296
  70 C :   -0.000274
  71 H :    0.033556
  72 H :    0.039740
  73 H :    0.033203
  74 H :    0.046556
  75 H :    0.039272
  76 H :    0.035723
  77 H :    0.034016
  78 H :    0.037870
  79 H :    0.039306
  80 H :    0.040123
  81 H :    0.033520
  82 H :    0.029801
  83 H :    0.029147
  84 H :    0.032002
  85 H :    0.024910
  86 H :    0.045133
  87 H :    0.039788
  88 H :    0.088861
  89 H :    0.033215
  90 H :    0.032119
  91 H :    0.048899
  92 H :    0.031267
  93 H :    0.031855
  94 H :    0.032055
  95 H :    0.028330
  96 H :    0.029874
  97 H :    0.027742
  98 H :    0.027806
  99 H :    0.028742
 100 H :    0.028453

  Mayer bond orders larger than 0.100000
B(  0-C ,  1-C ) :   1.5988 B(  0-C ,  6-C ) :   0.9880 B(  0-C , 18-C ) :   1.1215
B(  1-C ,  2-C ) :   1.1483 B(  1-C ,  4-C ) :   1.1462 B(  2-C ,  3-N ) :   2.9649
B(  4-C ,  5-N ) :   2.9766 B(  6-C ,  7-C ) :   1.2718 B(  6-C , 11-C ) :   1.4195
B(  7-C ,  8-C ) :   1.4298 B(  7-C , 16-C ) :   0.9211 B(  8-C ,  9-C ) :   1.2418
B(  8-C , 71-H ) :   1.0136 B(  9-C , 10-C ) :   1.3159 B(  9-C , 14-C ) :   1.1652
B( 10-C , 11-C ) :   1.3166 B( 10-C , 12-S ) :   1.0801 B( 11-C , 72-H ) :   0.9818
B( 12-S , 13-C ) :   1.0790 B( 13-C , 14-C ) :   1.6131 B( 13-C , 15-Br) :   1.0070
B( 14-C , 73-H ) :   0.9816 B( 16-C , 17-O ) :   2.0762 B( 16-C , 18-C ) :   1.0401
B( 18-C , 19-C ) :   1.3860 B( 19-C , 20-C ) :   1.3935 B( 19-C , 74-H ) :   0.9347
B( 20-C , 21-C ) :   1.4186 B( 20-C , 75-H ) :   0.9518 B( 21-C , 22-C ) :   1.1753
B( 21-C , 25-S ) :   1.1413 B( 22-C , 23-C ) :   1.5666 B( 22-C , 76-H ) :   0.9967
B( 23-C , 24-C ) :   1.1947 B( 23-C , 77-H ) :   0.9953 B( 24-C , 25-S ) :   1.0602
B( 24-C , 26-C ) :   1.4663 B( 26-C , 27-C ) :   1.1752 B( 26-C , 30-S ) :   1.1042
B( 27-C , 28-C ) :   1.6079 B( 27-C , 78-H ) :   0.9959 B( 28-C , 29-C ) :   1.1340
B( 28-C , 79-H ) :   0.9959 B( 29-C , 30-S ) :   1.0489 B( 29-C , 31-C ) :   1.6253
B( 31-C , 32-C ) :   1.1051 B( 31-C , 80-H ) :   0.9629 B( 32-C , 33-S ) :   1.1030
B( 32-C , 34-C ) :   1.5079 B( 33-S , 43-C ) :   1.1087 B( 34-C , 35-C ) :   0.8936
B( 34-C , 42-C ) :   1.2557 B( 35-C , 36-O ) :   2.1932 B( 35-C , 37-N ) :   1.0627
B( 37-N , 38-C ) :   0.9150 B( 37-N , 40-C ) :   1.0879 B( 38-C , 39-C ) :   1.1285
B( 38-C , 81-H ) :   0.9368 B( 38-C , 82-H ) :   0.9451 B( 39-C , 83-H ) :   0.9514
B( 39-C , 84-H ) :   0.9626 B( 39-C , 85-H ) :   0.9636 B( 40-C , 41-O ) :   2.0781
B( 40-C , 42-C ) :   0.9170 B( 42-C , 43-C ) :   1.4912 B( 43-C , 44-C ) :   1.1898
B( 44-C , 45-C ) :   1.6429 B( 44-C , 86-H ) :   0.9724 B( 45-C , 46-C ) :   1.0393
B( 45-C , 87-H ) :   0.9478 B( 46-C , 47-C ) :   2.1901 B( 47-C , 48-C ) :   0.8293
B( 48-C , 49-N ) :   1.2348 B( 48-C , 50-C ) :   0.1290 B( 48-C , 52-C ) :   1.4108
B( 49-N , 50-C ) :   1.2449 B( 49-N , 88-H ) :   0.9362 B( 50-C , 51-C ) :   1.4151
B( 50-C , 53-C ) :   0.8256 B( 51-C , 52-C ) :   1.3431 B( 51-C , 89-H ) :   1.0127
B( 52-C , 90-H ) :   1.0115 B( 53-C , 54-C ) :   2.2211 B( 54-C , 55-C ) :   1.0166
B( 55-C , 56-C ) :   1.7027 B( 55-C , 91-H ) :   0.9188 B( 56-C , 57-C ) :   1.1386
B( 56-C , 92-H ) :   0.9612 B( 57-C , 58-S ) :   1.1200 B( 57-C , 59-C ) :   1.4997
B( 58-S , 68-C ) :   1.1278 B( 59-C , 60-C ) :   0.9110 B( 59-C , 67-C ) :   1.2539
B( 60-C , 61-O ) :   2.0847 B( 60-C , 62-N ) :   1.0861 B( 62-N , 63-C ) :   0.9208
B( 62-N , 65-C ) :   1.0852 B( 63-C , 64-C ) :   1.1283 B( 63-C , 93-H ) :   0.9413
B( 63-C , 94-H ) :   0.9397 B( 64-C , 95-H ) :   0.9689 B( 64-C , 96-H ) :   0.9700
B( 64-C , 97-H ) :   0.9686 B( 65-C , 66-O ) :   2.1064 B( 65-C , 67-C ) :   0.9016
B( 67-C , 68-C ) :   1.5321 B( 68-C , 69-C ) :   1.1038 B( 69-C , 70-C ) :   1.9336
B( 69-C , 98-H ) :   0.9512 B( 70-C , 99-H ) :   0.9305 B( 70-C ,100-H ) :   0.9457

-----------------------------------------------------------------------------
         ABSORPTION SPECTRUM VIA TRANSITION ELECTRIC DIPOLE MOMENTS
-----------------------------------------------------------------------------
State   Energy  Wavelength   fosc         T2         TX        TY        TZ
        (cm-1)    (nm)                  (au**2)     (au)      (au)      (au)
-----------------------------------------------------------------------------
   0   11833.1    845.1   0.549885386  15.29848   1.65002   2.39276  -2.61736
   1   17118.3    584.2   0.732517840  14.08746   3.42436  -0.38153   1.48850
   2   20263.0    493.5   1.152443693  18.72370   3.49216  -0.90078   2.39105
   3   21645.1    462.0   0.185820752   2.82625  -1.52439   0.30697  -0.63895
   4   22149.4    451.5   0.101058944   1.50207   0.96906  -0.70260   0.26332
   5   22459.2    445.3   0.037787973   0.55390   0.36990  -0.48936   0.42144
   6   23487.6    425.8   0.345219864   4.83875   1.44350  -0.93159   1.37376
   7   23916.8    418.1   0.081550265   1.12253   0.86283  -0.30515  -0.53378
   8   25527.4    391.7   0.077978803   1.00565  -0.45037   0.68750  -0.57459
   9   25873.1    386.5   0.170156098   2.16508   1.26852  -0.40480   0.62615
  10   26172.1    382.1   0.180179115   2.26643   1.34398  -0.58345   0.34602
  11   26601.4    375.9   0.329081049   4.07262  -1.35092   0.93493   1.17198
  12   28209.6    354.5   0.046658503   0.54452  -0.09425   0.37768   0.62689
  13   28687.1    348.6   0.021168035   0.24292   0.10781   0.38226  -0.29185
  14   29650.6    337.3   0.110249074   1.22410  -0.12799  -0.85176   0.69442
  15   29944.2    334.0   0.002616950   0.02877   0.15477  -0.06900  -0.00749
  16   30384.3    329.1   0.060818256   0.65896   0.21928  -0.28550  -0.72758
  17   30836.7    324.3   0.037344487   0.39869   0.61047   0.04168  -0.15583
  18   31253.6    320.0   0.118571832   1.24899  -0.61165   0.56928   0.74216
  19   31388.6    318.6   0.349666120   3.66739   0.70072  -1.56089   0.86022
  20   31729.9    315.2   0.075218959   0.78043   0.47020   0.73409   0.14304
  21   32000.1    312.5   0.264370797   2.71980  -0.12451  -0.36603   1.60322
  22   32046.6    312.0   0.143379358   1.47292   0.20824   0.57324  -1.04927
  23   32515.2    307.5   0.035296727   0.35737   0.10269  -0.04749   0.58700
  24   33005.7    303.0   0.118440095   1.18137   0.34928   0.55294  -0.86812
  25   33451.5    298.9   0.181009601   1.78140   0.78246   0.84912  -0.66944
  26   34127.9    293.0   0.068844773   0.66411   0.54919   0.31458  -0.51335
  27   34258.5    291.9   0.043889128   0.42176   0.06365   0.61452   0.20019
  28   34726.6    288.0   0.004290990   0.04068   0.00182  -0.03044   0.19937
  29   35142.8    284.6   0.049122429   0.46017   0.21904  -0.38884   0.51088
  30   35689.7    280.2   0.057762985   0.53282  -0.28096  -0.35136  -0.57483
  31   36241.7    275.9   0.065779078   0.59752  -0.43727  -0.63532  -0.05186
  32   36440.4    274.4   0.108888103   0.98372   0.04682   0.50709  -0.85111
  33   36791.1    271.8   0.048841361   0.43704  -0.39078  -0.11318  -0.52108
  34   37245.0    268.5   0.084150687   0.74382   0.25385   0.60484  -0.55995
  35   37368.4    267.6   0.001039772   0.00916  -0.04820  -0.02959  -0.07721
  36   37630.4    265.7   0.014193779   0.12418  -0.16226  -0.29471  -0.10485
  37   37690.1    265.3   0.008609803   0.07520   0.07109   0.26421  -0.01859
  38   37876.9    264.0   0.054129437   0.47047  -0.29889   0.33627   0.51775
  39   38008.4    263.1   0.014821351   0.12838  -0.10957   0.24472   0.23766
  40   38090.9    262.5   0.024459787   0.21140   0.39354  -0.22804   0.06724
  41   38270.9    261.3   0.087153052   0.74970   0.41250   0.45037  -0.61377
  42   38517.8    259.6   0.010146481   0.08672  -0.09133   0.16317  -0.22750
  43   38668.9    258.6   0.047587148   0.40514   0.43703   0.40921   0.21609
  44   38772.1    257.9   0.009758516   0.08286  -0.20167  -0.17950   0.09985
  45   38830.9    257.5   0.093728414   0.79464   0.61392   0.17265  -0.62284
  46   38871.5    257.3   0.007921568   0.06709  -0.12085   0.20135  -0.10929
  47   39066.7    256.0   0.039784192   0.33526   0.41809   0.40003   0.02089
  48   39141.9    255.5   0.022138761   0.18620   0.21484  -0.33641   0.16393
  49   39451.9    253.5   0.019127824   0.15961  -0.12582  -0.19352  -0.32609
  50   39579.1    252.7   0.039246357   0.32644   0.20285   0.16349   0.50850
  51   40237.6    248.5   0.085464106   0.69924  -0.32336   0.08213  -0.76677

FINAL SINGLE POINT ENERGY     -7324.478389557651

DIPOLE MOMENT
-------------
                                X             Y             Z
Electronic contribution:    -21.17858      20.66166      -8.21110
Nuclear contribution   :     17.01424     -22.61098       8.39537
                        -----------------------------------------
Total Dipole Moment    :     -4.16434      -1.94932       0.18427
                        -----------------------------------------
Magnitude (a.u.)       :      4.60169
Magnitude (Debye)      :     11.69656

Rotational constants in cm-1:     0.001419     0.000281     0.000257
Rotational constants in MHz :    42.535794     8.432164     7.693127

                             ****ORCA TERMINATED NORMALLY****
TOTAL RUN TIME: 0 days 0 hours 10 minutes 50 seconds 686 msec
