                         Program Version 4.2.0 -  RELEASE  -
|  1> # ORCA input file
|  2> # SCF done       -170.903683895084          0.000959592997
|  3> ! CAM-B3LYP def2-SVP def2/J RIJCOSX Grid4 TightSCF
|  4> %maxcore 5000
|  5> %tddft
|  6>     Mode sTDDFT
|  7>     Ethresh 5.0
|  8>     maxcore 5000
|  9> end
| 10>
| 11> %pal
| 12>   nprocs 6
| 13>   end
| 14> * xyz 0 1
| 15>    C      -11.95058        -0.57389        -4.26221
| 16>    C      -12.70465         0.16918        -5.13577
| 17>    C      -13.74842        -0.35192        -5.93131
| 18>    N      -14.60162        -0.69435        -6.61792
| 19>    C      -12.51748         1.53176        -5.43571
| 20>    N      -12.39076         2.62426        -5.77164
| 21>    C      -12.05524        -2.01169        -4.07533
| 22>    C      -11.01164        -2.43804        -3.21508
| 23>    C      -10.79777        -3.75804        -2.90560
| 24>    C      -11.66357        -4.70497        -3.46295
| 25>    C      -12.71215        -4.26987        -4.30965
| 26>    C      -12.92586        -2.93549        -4.62531
| 27>    S      -13.65232        -5.60229        -4.90024
| 28>    C      -12.64287        -6.71181        -4.01552
| 29>    C      -11.64949        -6.11640        -3.31062
| 30>   Br      -12.99048        -8.55025        -4.10057
| 31>    C      -10.22490        -1.27281        -2.79961
| 32>    O       -9.18359        -1.26985        -2.16316
| 33>    C      -10.87092        -0.10094        -3.40824
| 34>    C      -10.46205         1.19942        -3.32797
| 35>    N       -9.57359         1.81584        -2.51712
| 36>    C       -9.03943         1.54766        -1.28943
| 37>    S       -9.58306         0.27565        -0.26323
| 38>    C       -8.47142         0.79084         0.95233
| 39>    N       -8.43376         0.06346         2.14818
| 40>    O       -7.62630         0.39961         2.99284
| 41>    O       -9.22785        -0.85488         2.25221
| 42>    C       -7.70581         1.86461         0.57656
| 43>    C       -8.04073         2.34663        -0.69941
| 44>    C       -7.31737         3.44582        -1.28901
| 45>    C       -7.68536         4.25418        -2.30563
| 46>    C       -6.82556         5.18202        -2.97026
| 47>    O       -7.43718         6.21643        -3.62844
| 48>    C       -6.52063         6.97887        -4.18997
| 49>    C       -5.26532         6.46980        -3.94312
| 50>    N       -4.04453         7.02134        -4.36810
| 51>    O       -4.08186         7.98101        -5.10662
| 52>    O       -3.01829         6.49458        -3.95967
| 53>    C       -5.44694         5.27489        -3.16178
| 54>    N       -4.40465         4.48068        -2.80192
| 55>    C       -4.42278         3.20549        -2.29726
| 56>    S       -3.32365         2.83277        -0.98296
| 57>    C       -3.90763         1.21625        -0.86080
| 58>    C       -4.89103         0.99271        -1.76532
| 59>    C       -5.20317         2.11593        -2.60806
| 60>    C       -6.18889         1.75602        -3.58551
| 61>    C       -6.58010         0.43051        -3.42284
| 62>    S       -5.83393        -0.44172        -2.12307
| 63>    S       -7.74531        -0.09111        -4.56453
| 64>    C       -7.75584         1.51790        -5.26680
| 65>    C       -6.86988         2.37000        -4.65350
| 66>    C       -8.66077         1.77760        -6.33433
| 67>    S       -8.83164         3.32885        -7.12525
| 68>    C      -10.04658         2.78250        -8.20692
| 69>    C      -10.33162         1.45909        -7.98431
| 70>    C       -9.54979         0.90986        -6.91848
| 71>    O       -9.86694        -0.38754        -6.70081
| 72>    C      -10.82818        -0.67282        -7.62774
| 73>    N      -11.35879        -1.98465        -7.61572
| 74>    O      -12.12895        -2.27602        -8.50637
| 75>    O      -11.01761        -2.71878        -6.70761
| 76>    C      -11.15511         0.38530        -8.42910
| 77>    H       -9.98555        -4.05204        -2.25962
| 78>    H      -13.73491        -2.65936        -5.28116
| 79>    H      -10.93497        -6.65093        -2.71159
| 80>    H      -10.88876         1.89552        -4.03971
| 81>    H       -9.22776         2.69329        -2.88933
| 82>    H       -6.94744         2.28940         1.20870
| 83>    H       -6.35960         3.62387        -0.82469
| 84>    H       -8.70571         4.32093        -2.66212
| 85>    H       -6.82441         7.85293        -4.73147
| 86>    H       -3.49568         4.93023        -2.91799
| 87>    H       -3.48396         0.54533        -0.14291
| 88>    H       -6.72181         3.38286        -4.97849
| 89>    H      -10.47289         3.45963        -8.91688
| 90>    H      -11.88896         0.38123        -9.20825
| 91> *
| 92>
| 93>                          ****END OF INPUT****

CARTESIAN COORDINATES (ANGSTROEM)
---------------------------------
  C    -11.950580   -0.573890   -4.262210
  C    -12.704650    0.169180   -5.135770
  C    -13.748420   -0.351920   -5.931310
  N    -14.601620   -0.694350   -6.617920
  C    -12.517480    1.531760   -5.435710
  N    -12.390760    2.624260   -5.771640
  C    -12.055240   -2.011690   -4.075330
  C    -11.011640   -2.438040   -3.215080
  C    -10.797770   -3.758040   -2.905600
  C    -11.663570   -4.704970   -3.462950
  C    -12.712150   -4.269870   -4.309650
  C    -12.925860   -2.935490   -4.625310
  S    -13.652320   -5.602290   -4.900240
  C    -12.642870   -6.711810   -4.015520
  C    -11.649490   -6.116400   -3.310620
  Br   -12.990480   -8.550250   -4.100570
  C    -10.224900   -1.272810   -2.799610
  O     -9.183590   -1.269850   -2.163160
  C    -10.870920   -0.100940   -3.408240
  C    -10.462050    1.199420   -3.327970
  N     -9.573590    1.815840   -2.517120
  C     -9.039430    1.547660   -1.289430
  S     -9.583060    0.275650   -0.263230
  C     -8.471420    0.790840    0.952330
  N     -8.433760    0.063460    2.148180
  O     -7.626300    0.399610    2.992840
  O     -9.227850   -0.854880    2.252210
  C     -7.705810    1.864610    0.576560
  C     -8.040730    2.346630   -0.699410
  C     -7.317370    3.445820   -1.289010
  C     -7.685360    4.254180   -2.305630
  C     -6.825560    5.182020   -2.970260
  O     -7.437180    6.216430   -3.628440
  C     -6.520630    6.978870   -4.189970
  C     -5.265320    6.469800   -3.943120
  N     -4.044530    7.021340   -4.368100
  O     -4.081860    7.981010   -5.106620
  O     -3.018290    6.494580   -3.959670
  C     -5.446940    5.274890   -3.161780
  N     -4.404650    4.480680   -2.801920
  C     -4.422780    3.205490   -2.297260
  S     -3.323650    2.832770   -0.982960
  C     -3.907630    1.216250   -0.860800
  C     -4.891030    0.992710   -1.765320
  C     -5.203170    2.115930   -2.608060
  C     -6.188890    1.756020   -3.585510
  C     -6.580100    0.430510   -3.422840
  S     -5.833930   -0.441720   -2.123070
  S     -7.745310   -0.091110   -4.564530
  C     -7.755840    1.517900   -5.266800
  C     -6.869880    2.370000   -4.653500
  C     -8.660770    1.777600   -6.334330
  S     -8.831640    3.328850   -7.125250
  C    -10.046580    2.782500   -8.206920
  C    -10.331620    1.459090   -7.984310
  C     -9.549790    0.909860   -6.918480
  O     -9.866940   -0.387540   -6.700810
  C    -10.828180   -0.672820   -7.627740
  N    -11.358790   -1.984650   -7.615720
  O    -12.128950   -2.276020   -8.506370
  O    -11.017610   -2.718780   -6.707610
  C    -11.155110    0.385300   -8.429100
  H     -9.985550   -4.052040   -2.259620
  H    -13.734910   -2.659360   -5.281160
  H    -10.934970   -6.650930   -2.711590
  H    -10.888760    1.895520   -4.039710
  H     -9.227760    2.693290   -2.889330
  H     -6.947440    2.289400    1.208700
  H     -6.359600    3.623870   -0.824690
  H     -8.705710    4.320930   -2.662120
  H     -6.824410    7.852930   -4.731470
  H     -3.495680    4.930230   -2.917990
  H     -3.483960    0.545330   -0.142910
  H     -6.721810    3.382860   -4.978490
  H    -10.472890    3.459630   -8.916880
  H    -11.888960    0.381230   -9.208250

 Total Charge           Charge          ....    0
 Multiplicity           Mult            ....    1
 Number of Electrons    NEL             ....  500
 Basis Dimension        Dim             ....  980

ORBITAL ENERGIES
----------------

  NO   OCC          E(Eh)            E(eV)
   0   2.0000    -482.882143    -13139.8911
   1   2.0000     -88.987764     -2421.4802
   2   2.0000     -88.986238     -2421.4387
   3   2.0000     -88.975219     -2421.1388
   4   2.0000     -88.971592     -2421.0401
   5   2.0000     -88.971509     -2421.0378
   6   2.0000     -88.961882     -2420.7759
   7   2.0000     -62.559887     -1702.3411
   8   2.0000     -56.393827     -1534.5541
   9   2.0000     -56.391123     -1534.4805
  10   2.0000     -56.391090     -1534.4796
  11   2.0000     -19.330345      -526.0054
  12   2.0000     -19.320088      -525.7263
  13   2.0000     -19.263628      -524.1900
  14   2.0000     -19.261467      -524.1312
  15   2.0000     -19.255086      -523.9575
  16   2.0000     -19.253539      -523.9154
  17   2.0000     -19.233917      -523.3815
  18   2.0000     -19.233728      -523.3763
  19   2.0000     -19.222779      -523.0784
  20   2.0000     -14.673043      -399.2738
  21   2.0000     -14.665158      -399.0592
  22   2.0000     -14.645707      -398.5300
  23   2.0000     -14.506097      -394.7310
  24   2.0000     -14.470595      -393.7649
  25   2.0000     -14.427078      -392.5808
  26   2.0000     -14.418704      -392.3529
  27   2.0000     -10.397276      -282.9243
  28   2.0000     -10.377155      -282.3767
  29   2.0000     -10.369676      -282.1732
  30   2.0000     -10.369605      -282.1713
  31   2.0000     -10.368186      -282.1327
  32   2.0000     -10.356718      -281.8206
  33   2.0000     -10.355902      -281.7984
  34   2.0000     -10.355287      -281.7817
  35   2.0000     -10.353189      -281.7246
  36   2.0000     -10.351714      -281.6845
  37   2.0000     -10.348424      -281.5949
  38   2.0000     -10.344773      -281.4956
  39   2.0000     -10.344061      -281.4762
  40   2.0000     -10.337046      -281.2853
  41   2.0000     -10.331596      -281.1370
  42   2.0000     -10.330640      -281.1110
  43   2.0000     -10.327251      -281.0188
  44   2.0000     -10.323636      -280.9204
  45   2.0000     -10.322579      -280.8917
  46   2.0000     -10.322138      -280.8797
  47   2.0000     -10.321876      -280.8725
  48   2.0000     -10.320208      -280.8271
  49   2.0000     -10.313414      -280.6423
  50   2.0000     -10.307025      -280.4684
  51   2.0000     -10.305279      -280.4209
  52   2.0000     -10.304592      -280.4022
  53   2.0000     -10.303996      -280.3860
  54   2.0000     -10.303916      -280.3838
  55   2.0000     -10.303288      -280.3667
  56   2.0000     -10.302856      -280.3550
  57   2.0000     -10.302553      -280.3467
  58   2.0000     -10.302416      -280.3430
  59   2.0000     -10.301633      -280.3217
  60   2.0000     -10.298751      -280.2433
  61   2.0000     -10.297850      -280.2188
  62   2.0000     -10.295014      -280.1416
  63   2.0000     -10.293864      -280.1103
  64   2.0000     -10.292683      -280.0781
  65   2.0000     -10.290358      -280.0149
  66   2.0000      -8.789350      -239.1704
  67   2.0000      -8.082546      -219.9373
  68   2.0000      -8.080690      -219.8868
  69   2.0000      -8.069336      -219.5778
  70   2.0000      -8.067567      -219.5297
  71   2.0000      -8.067221      -219.5203
  72   2.0000      -8.057385      -219.2526
  73   2.0000      -6.625636      -180.2927
  74   2.0000      -6.611106      -179.8973
  75   2.0000      -6.610879      -179.8912
  76   2.0000      -6.051979      -164.6827
  77   2.0000      -6.050112      -164.6319
  78   2.0000      -6.047538      -164.5619
  79   2.0000      -6.045497      -164.5063
  80   2.0000      -6.044811      -164.4877
  81   2.0000      -6.042785      -164.4325
  82   2.0000      -6.039000      -164.3295
  83   2.0000      -6.037224      -164.2812
  84   2.0000      -6.036807      -164.2699
  85   2.0000      -6.034607      -164.2100
  86   2.0000      -6.032954      -164.1650
  87   2.0000      -6.032401      -164.1500
  88   2.0000      -6.031028      -164.1126
  89   2.0000      -6.028975      -164.0567
  90   2.0000      -6.028856      -164.0535
  91   2.0000      -6.027525      -164.0173
  92   2.0000      -6.023435      -163.9060
  93   2.0000      -6.017573      -163.7465
  94   2.0000      -2.741509       -74.6002
  95   2.0000      -2.737441       -74.4896
  96   2.0000      -2.737283       -74.4853
  97   2.0000      -2.725717       -74.1705
  98   2.0000      -2.725716       -74.1705
  99   2.0000      -1.342571       -36.5332
 100   2.0000      -1.337409       -36.3927
 101   2.0000      -1.315714       -35.8024
 102   2.0000      -1.251130       -34.0450
 103   2.0000      -1.238335       -33.6968
 104   2.0000      -1.161928       -31.6177
 105   2.0000      -1.153834       -31.3974
 106   2.0000      -1.138968       -30.9929
 107   2.0000      -1.134768       -30.8786
 108   2.0000      -1.102765       -30.0078
 109   2.0000      -1.078672       -29.3521
 110   2.0000      -1.026723       -27.9386
 111   2.0000      -1.023215       -27.8431
 112   2.0000      -1.015190       -27.6247
 113   2.0000      -1.008210       -27.4348
 114   2.0000      -1.006474       -27.3876
 115   2.0000      -1.001592       -27.2547
 116   2.0000      -0.990417       -26.9506
 117   2.0000      -0.985708       -26.8225
 118   2.0000      -0.958513       -26.0825
 119   2.0000      -0.945871       -25.7385
 120   2.0000      -0.942196       -25.6385
 121   2.0000      -0.934748       -25.4358
 122   2.0000      -0.925097       -25.1732
 123   2.0000      -0.910391       -24.7730
 124   2.0000      -0.905965       -24.6526
 125   2.0000      -0.898382       -24.4462
 126   2.0000      -0.889394       -24.2016
 127   2.0000      -0.883713       -24.0471
 128   2.0000      -0.878567       -23.9070
 129   2.0000      -0.873415       -23.7668
 130   2.0000      -0.857886       -23.3443
 131   2.0000      -0.851554       -23.1720
 132   2.0000      -0.848715       -23.0947
 133   2.0000      -0.828836       -22.5538
 134   2.0000      -0.827472       -22.5166
 135   2.0000      -0.825812       -22.4715
 136   2.0000      -0.804579       -21.8937
 137   2.0000      -0.800638       -21.7865
 138   2.0000      -0.797407       -21.6986
 139   2.0000      -0.779185       -21.2027
 140   2.0000      -0.765756       -20.8373
 141   2.0000      -0.756504       -20.5855
 142   2.0000      -0.739976       -20.1358
 143   2.0000      -0.727733       -19.8026
 144   2.0000      -0.720622       -19.6091
 145   2.0000      -0.717321       -19.5193
 146   2.0000      -0.712086       -19.3769
 147   2.0000      -0.701627       -19.0922
 148   2.0000      -0.698316       -19.0022
 149   2.0000      -0.690348       -18.7853
 150   2.0000      -0.680363       -18.5136
 151   2.0000      -0.667718       -18.1695
 152   2.0000      -0.665065       -18.0973
 153   2.0000      -0.660011       -17.9598
 154   2.0000      -0.655964       -17.8497
 155   2.0000      -0.653694       -17.7879
 156   2.0000      -0.652076       -17.7439
 157   2.0000      -0.651161       -17.7190
 158   2.0000      -0.645280       -17.5590
 159   2.0000      -0.642652       -17.4874
 160   2.0000      -0.640096       -17.4179
 161   2.0000      -0.631715       -17.1898
 162   2.0000      -0.629541       -17.1307
 163   2.0000      -0.627274       -17.0690
 164   2.0000      -0.623932       -16.9781
 165   2.0000      -0.620321       -16.8798
 166   2.0000      -0.616804       -16.7841
 167   2.0000      -0.606297       -16.4982
 168   2.0000      -0.605678       -16.4813
 169   2.0000      -0.600257       -16.3338
 170   2.0000      -0.597273       -16.2526
 171   2.0000      -0.593753       -16.1568
 172   2.0000      -0.586113       -15.9489
 173   2.0000      -0.585906       -15.9433
 174   2.0000      -0.584437       -15.9033
 175   2.0000      -0.581456       -15.8222
 176   2.0000      -0.574769       -15.6403
 177   2.0000      -0.567421       -15.4403
 178   2.0000      -0.565020       -15.3750
 179   2.0000      -0.560615       -15.2551
 180   2.0000      -0.556539       -15.1442
 181   2.0000      -0.552761       -15.0414
 182   2.0000      -0.543073       -14.7778
 183   2.0000      -0.541334       -14.7304
 184   2.0000      -0.540334       -14.7032
 185   2.0000      -0.532332       -14.4855
 186   2.0000      -0.529498       -14.4084
 187   2.0000      -0.524661       -14.2767
 188   2.0000      -0.524348       -14.2682
 189   2.0000      -0.519972       -14.1492
 190   2.0000      -0.516059       -14.0427
 191   2.0000      -0.515285       -14.0216
 192   2.0000      -0.509938       -13.8761
 193   2.0000      -0.507173       -13.8009
 194   2.0000      -0.504543       -13.7293
 195   2.0000      -0.501996       -13.6600
 196   2.0000      -0.498461       -13.5638
 197   2.0000      -0.495543       -13.4844
 198   2.0000      -0.492507       -13.4018
 199   2.0000      -0.487027       -13.2527
 200   2.0000      -0.482002       -13.1159
 201   2.0000      -0.475818       -12.9477
 202   2.0000      -0.473586       -12.8869
 203   2.0000      -0.470470       -12.8021
 204   2.0000      -0.465587       -12.6693
 205   2.0000      -0.463803       -12.6207
 206   2.0000      -0.457753       -12.4561
 207   2.0000      -0.457540       -12.4503
 208   2.0000      -0.453443       -12.3388
 209   2.0000      -0.452291       -12.3075
 210   2.0000      -0.448528       -12.2051
 211   2.0000      -0.447610       -12.1801
 212   2.0000      -0.441208       -12.0059
 213   2.0000      -0.439341       -11.9551
 214   2.0000      -0.436979       -11.8908
 215   2.0000      -0.434747       -11.8301
 216   2.0000      -0.429889       -11.6979
 217   2.0000      -0.429458       -11.6862
 218   2.0000      -0.422018       -11.4837
 219   2.0000      -0.419420       -11.4130
 220   2.0000      -0.415965       -11.3190
 221   2.0000      -0.414079       -11.2677
 222   2.0000      -0.409366       -11.1394
 223   2.0000      -0.407534       -11.0896
 224   2.0000      -0.401760       -10.9324
 225   2.0000      -0.401523       -10.9260
 226   2.0000      -0.395021       -10.7491
 227   2.0000      -0.392430       -10.6786
 228   2.0000      -0.390272       -10.6198
 229   2.0000      -0.384499       -10.4627
 230   2.0000      -0.381877       -10.3914
 231   2.0000      -0.380312       -10.3488
 232   2.0000      -0.376580       -10.2473
 233   2.0000      -0.374754       -10.1976
 234   2.0000      -0.371648       -10.1131
 235   2.0000      -0.366000        -9.9594
 236   2.0000      -0.362927        -9.8757
 237   2.0000      -0.360665        -9.8142
 238   2.0000      -0.354458        -9.6453
 239   2.0000      -0.343871        -9.3572
 240   2.0000      -0.342374        -9.3165
 241   2.0000      -0.328400        -8.9362
 242   2.0000      -0.326783        -8.8922
 243   2.0000      -0.314353        -8.5540
 244   2.0000      -0.301954        -8.2166
 245   2.0000      -0.301101        -8.1934
 246   2.0000      -0.293750        -7.9934
 247   2.0000      -0.288548        -7.8518
 248   2.0000      -0.265327        -7.2199
 249   2.0000      -0.246174        -6.6987
 250   0.0000      -0.088825        -2.4170
 251   0.0000      -0.075950        -2.0667
 252   0.0000      -0.061856        -1.6832
 253   0.0000      -0.058103        -1.5811
 254   0.0000      -0.042843        -1.1658

MULLIKEN ATOMIC CHARGES
-----------------------
   0 C :    0.306712
   1 C :   -0.352623
   2 C :   -0.224871
   3 N :    0.170567
   4 C :   -0.206844
   5 N :    0.140172
   6 C :    0.025724
   7 C :    0.020167
   8 C :   -0.076513
   9 C :    0.123987
  10 C :   -0.083230
  11 C :   -0.013251
  12 S :    0.192947
  13 C :   -0.122926
  14 C :    0.036161
  15 Br:    0.023293
  16 C :    0.134472
  17 O :   -0.189305
  18 C :   -0.068798
  19 C :   -0.021483
  20 N :    0.029752
  21 C :   -0.099030
  22 S :    0.235471
  23 C :   -0.013106
  24 N :    0.275495
  25 O :   -0.253311
  26 O :   -0.265110
  27 C :   -0.002120
  28 C :    0.091368
  29 C :    0.033954
  30 C :   -0.065498
  31 C :   -0.005843
  32 O :   -0.162224
  33 C :    0.078542
  34 C :    0.112419
  35 N :    0.287634
  36 O :   -0.231875
  37 O :   -0.269259
  38 C :    0.038689
  39 N :    0.008215
  40 C :   -0.240816
  41 S :    0.115085
  42 C :   -0.163320
  43 C :   -0.017160
  44 C :    0.193135
  45 C :    0.106384
  46 C :   -0.198147
  47 S :    0.168029
  48 S :    0.172913
  49 C :   -0.101748
  50 C :   -0.060061
  51 C :   -0.182119
  52 S :    0.161953
  53 C :   -0.123139
  54 C :    0.145420
  55 C :    0.169094
  56 O :   -0.212978
  57 C :    0.241315
  58 N :    0.265364
  59 O :   -0.227324
  60 O :   -0.229666
  61 C :   -0.057189
  62 H :   -0.010283
  63 H :   -0.006837
  64 H :   -0.002971
  65 H :    0.031865
  66 H :    0.151589
  67 H :    0.004389
  68 H :    0.009910
  69 H :   -0.002088
  70 H :    0.032501
  71 H :    0.151103
  72 H :    0.027122
  73 H :   -0.009137
  74 H :    0.037853
  75 H :    0.021439
Sum of atomic charges:   -0.0000000

LOEWDIN ATOMIC CHARGES
----------------------
   0 C :    0.089039
   1 C :   -0.163011
   2 C :   -0.030428
   3 N :   -0.051236
   4 C :   -0.021325
   5 N :   -0.064914
   6 C :   -0.024414
   7 C :   -0.045320
   8 C :    0.022881
   9 C :   -0.027308
  10 C :   -0.140484
  11 C :   -0.000647
  12 S :    0.440616
  13 C :   -0.271349
  14 C :   -0.069999
  15 Br:    0.137440
  16 C :    0.063359
  17 O :   -0.182760
  18 C :   -0.142290
  19 C :    0.088308
  20 N :    0.082367
  21 C :   -0.111104
  22 S :    0.550419
  23 C :   -0.216189
  24 N :    0.274100
  25 O :   -0.218290
  26 O :   -0.231178
  27 C :   -0.007505
  28 C :   -0.094807
  29 C :   -0.004603
  30 C :   -0.073045
  31 C :   -0.020878
  32 O :    0.043772
  33 C :    0.088354
  34 C :   -0.103418
  35 N :    0.294296
  36 O :   -0.194202
  37 O :   -0.215967
  38 C :   -0.005187
  39 N :    0.014782
  40 C :   -0.148875
  41 S :    0.424176
  42 C :   -0.218050
  43 C :   -0.176735
  44 C :   -0.090861
  45 C :   -0.089095
  46 C :   -0.322069
  47 S :    0.397572
  48 S :    0.480795
  49 C :   -0.196363
  50 C :   -0.064749
  51 C :   -0.225981
  52 S :    0.479640
  53 C :   -0.168078
  54 C :   -0.077178
  55 C :    0.004193
  56 O :   -0.011240
  57 C :    0.022453
  58 N :    0.272739
  59 O :   -0.190650
  60 O :   -0.190358
  61 C :    0.004179
  62 H :    0.040935
  63 H :    0.039833
  64 H :    0.038803
  65 H :    0.042079
  66 H :    0.095282
  67 H :    0.043870
  68 H :    0.036176
  69 H :    0.029560
  70 H :    0.040375
  71 H :    0.079513
  72 H :    0.029265
  73 H :    0.026142
  74 H :    0.032854
  75 H :    0.051975

  Mayer bond orders larger than 0.100000
B(  0-C ,  1-C ) :   1.6050 B(  0-C ,  6-C ) :   1.0261 B(  0-C , 18-C ) :   1.0911
B(  1-C ,  2-C ) :   1.1446 B(  1-C ,  4-C ) :   1.1502 B(  2-C ,  3-N ) :   2.9720
B(  4-C ,  5-N ) :   2.9244 B(  6-C ,  7-C ) :   1.2648 B(  6-C , 11-C ) :   1.3950
B(  7-C ,  8-C ) :   1.4249 B(  7-C , 16-C ) :   0.9562 B(  8-C ,  9-C ) :   1.2383
B(  8-C , 62-H ) :   1.0158 B(  9-C , 10-C ) :   1.3085 B(  9-C , 14-C ) :   1.1678
B( 10-C , 11-C ) :   1.3342 B( 10-C , 12-S ) :   1.0876 B( 11-C , 63-H ) :   0.9819
B( 12-S , 13-C ) :   1.0922 B( 13-C , 14-C ) :   1.6111 B( 13-C , 15-Br) :   1.0191
B( 14-C , 64-H ) :   0.9997 B( 16-C , 17-O ) :   2.1230 B( 16-C , 18-C ) :   0.9595
B( 18-C , 19-C ) :   1.5354 B( 19-C , 20-N ) :   1.2928 B( 19-C , 65-H ) :   0.9157
B( 20-N , 21-C ) :   1.1782 B( 20-N , 66-H ) :   0.8708 B( 21-C , 22-S ) :   1.1712
B( 21-C , 28-C ) :   1.3655 B( 22-S , 23-C ) :   1.1309 B( 23-C , 24-N ) :   0.9682
B( 23-C , 27-C ) :   1.4397 B( 24-N , 25-O ) :   1.5357 B( 24-N , 26-O ) :   1.5146
B( 25-O , 26-O ) :   0.2575 B( 27-C , 28-C ) :   1.2498 B( 27-C , 67-H ) :   1.0096
B( 28-C , 29-C ) :   1.1069 B( 29-C , 30-C ) :   1.6841 B( 29-C , 68-H ) :   0.9517
B( 30-C , 31-C ) :   1.1623 B( 30-C , 69-H ) :   0.9149 B( 31-C , 32-O ) :   1.0758
B( 31-C , 38-C ) :   1.4001 B( 32-O , 33-C ) :   1.2350 B( 33-C , 34-C ) :   1.4289
B( 33-C , 70-H ) :   1.0138 B( 34-C , 35-N ) :   0.9511 B( 34-C , 38-C ) :   1.2392
B( 35-N , 36-O ) :   1.5595 B( 35-N , 37-O ) :   1.4672 B( 36-O , 37-O ) :   0.2573
B( 38-C , 39-N ) :   1.2301 B( 39-N , 40-C ) :   1.1273 B( 39-N , 71-H ) :   0.8476
B( 40-C , 41-S ) :   1.1350 B( 40-C , 44-C ) :   1.4201 B( 41-S , 42-C ) :   1.1307
B( 42-C , 43-C ) :   1.5776 B( 42-C , 72-H ) :   0.9748 B( 43-C , 44-C ) :   1.2168
B( 43-C , 47-S ) :   1.0150 B( 44-C , 45-C ) :   1.0196 B( 45-C , 46-C ) :   1.4545
B( 45-C , 50-C ) :   1.2523 B( 46-C , 47-S ) :   1.0441 B( 46-C , 48-S ) :   1.1169
B( 48-S , 49-C ) :   1.1333 B( 49-C , 50-C ) :   1.4949 B( 49-C , 51-C ) :   1.1394
B( 50-C , 73-H ) :   0.9998 B( 51-C , 52-S ) :   1.1351 B( 51-C , 53-C ) :   0.1161
B( 51-C , 55-C ) :   1.4932 B( 52-S , 53-C ) :   1.1812 B( 53-C , 54-C ) :   1.4535
B( 53-C , 74-H ) :   0.9723 B( 54-C , 55-C ) :   1.2104 B( 54-C , 61-C ) :   1.0410
B( 55-C , 56-O ) :   1.0872 B( 56-O , 57-C ) :   1.0968 B( 57-C , 58-N ) :   0.9071
B( 57-C , 61-C ) :   1.5975 B( 58-N , 59-O ) :   1.5450 B( 58-N , 60-O ) :   1.4942
B( 59-O , 60-O ) :   0.2752 B( 61-C , 75-H ) :   1.0309

-----------------------------------------------------------------------------
         ABSORPTION SPECTRUM VIA TRANSITION ELECTRIC DIPOLE MOMENTS
-----------------------------------------------------------------------------
State   Energy  Wavelength   fosc         T2         TX        TY        TZ
        (cm-1)    (nm)                  (au**2)     (au)      (au)      (au)
-----------------------------------------------------------------------------
   0   17972.6    556.4   0.026742405   0.48985  -0.56646  -0.33110  -0.24363
   1   21670.8    461.4   0.033205041   0.50443  -0.19868   0.55218  -0.40006
   2   21791.9    458.9   0.434132765   6.55848  -1.78085  -1.39028  -1.20588
   3   22519.9    444.1   0.084159646   1.23030   0.17488  -0.83736   0.70608
   4   24028.6    416.2   0.015709599   0.21523   0.43676   0.10965  -0.11159
   5   25790.5    387.7   0.002250321   0.02873  -0.07744  -0.08603   0.12380
   6   26646.1    375.3   0.089568881   1.10662   0.52179  -0.66141   0.62999
   7   26831.7    372.7   0.023693766   0.29071  -0.46288  -0.09560  -0.25945
   8   27120.6    368.7   0.135522011   1.64508   0.79198   0.85275  -0.53914
   9   27584.6    362.5   0.024658057   0.29428  -0.33244   0.35050  -0.24681
  10   27912.9    358.3   0.110273447   1.30060   0.16099  -1.07945  -0.33086
  11   28159.4    355.1   0.296007847   3.46064  -0.41749  -1.76575  -0.41043
  12   28440.8    351.6   0.037425943   0.43322   0.32118   0.57027   0.06965
  13   29385.0    340.3   0.092563402   1.03703  -0.50174   0.52335  -0.71512
  14   29727.5    336.4   0.024289727   0.26899  -0.16274  -0.30532   0.38637
  15   30269.0    330.4   0.200976823   2.18587  -0.11719   0.16141  -1.46495
  16   30681.8    325.9   0.113135871   1.21393  -0.82851  -0.55089   0.47332
  17   31151.4    321.0   0.236867539   2.50325  -0.47385  -0.04117  -1.50898
  18   31317.0    319.3   0.025598551   0.26910  -0.06906  -0.47866  -0.18765
  19   32310.0    309.5   0.081927646   0.83477   0.24502  -0.62127   0.62351
  20   32374.8    308.9   0.033089924   0.33648  -0.28526  -0.40336  -0.30399
  21   32756.6    305.3   0.057818034   0.58109   0.03518  -0.73768  -0.18890
  22   33155.3    301.6   0.339049949   3.36656   0.75491  -1.34372   0.99554
  23   33235.7    300.9   0.010292773   0.10195   0.03283   0.24356  -0.20385
  24   33786.3    296.0   0.042229740   0.41148   0.12454   0.43838   0.45144
  25   33889.7    295.1   0.330351596   3.20911  -0.80589   0.71098  -1.43323
  26   34050.0    293.7   0.180948022   1.74949  -0.28911  -1.06693   0.72634
  27   34281.7    291.7   0.087223734   0.83762  -0.47786  -0.72453   0.29040
  28   34583.3    289.2   0.063470947   0.60420   0.27714   0.62743   0.36569
  29   34975.8    285.9   0.191780551   1.80515   0.84995   0.99485  -0.30496
  30   35621.8    280.7   0.007061481   0.06526  -0.10109   0.12128  -0.20083
  31   35759.9    279.6   0.003757499   0.03459  -0.08811   0.13296  -0.09565
  32   35844.1    279.0   0.071766915   0.65915  -0.69862   0.14612  -0.38695
  33   36070.8    277.2   0.043953192   0.40115  -0.23129  -0.58054   0.10309
  34   36136.1    276.7   0.129543064   1.18018   0.80954   0.65991   0.29891
  35   36268.0    275.7   0.013710446   0.12445   0.24220   0.07805   0.24433
  36   36501.6    274.0   0.076159317   0.68689   0.19594   0.05806  -0.80320
  37   36928.5    270.8   0.163142882   1.45440   0.49948   1.04411   0.33874
  38   37281.3    268.2   0.102996349   0.90951  -0.64436  -0.57526  -0.40421
  39   37560.1    266.2   0.115338067   1.01093   0.46218   0.88657   0.10640
  40   37931.9    263.6   0.084645224   0.73464   0.38136   0.76592  -0.05067
  41   38200.5    261.8   0.116574288   1.00464   0.41795   0.89901   0.14744
  42   38413.9    260.3   0.103086605   0.88346  -0.37727  -0.85205  -0.12302
  43   38723.4    258.2   0.022658148   0.19263  -0.12858  -0.40888  -0.09444
  44   38992.6    256.5   0.084530221   0.71368  -0.21346  -0.75952   0.30207
  45   39325.6    254.3   0.015733781   0.13171   0.35741   0.04179  -0.04718
  46   39542.7    252.9   0.160877169   1.33938  -0.70097  -0.86489  -0.31619
  47   40220.3    248.6   0.064597757   0.52875   0.51122   0.03228   0.51610
  48   40286.3    248.2   0.140228407   1.14592  -0.75687  -0.30272  -0.69385

FINAL SINGLE POINT ENERGY     -7513.717701443689

DIPOLE MOMENT
-------------
                                X             Y             Z
Electronic contribution:    -42.64212     -98.89065      -5.73095
Nuclear contribution   :     43.42750     100.05314       5.04164
                        -----------------------------------------
Total Dipole Moment    :      0.78538       1.16250      -0.68931
                        -----------------------------------------
Magnitude (a.u.)       :      1.56313
Magnitude (Debye)      :      3.97316

Rotational constants in cm-1:     0.001832     0.000673     0.000560
Rotational constants in MHz :    54.928449    20.172255    16.781079

                             ****ORCA TERMINATED NORMALLY****
TOTAL RUN TIME: 0 days 0 hours 12 minutes 56 seconds 223 msec
