                         Program Version 4.2.0 -  RELEASE  -
|  1> # ORCA input file
|  2> # SCF done       -190.539782166763          0.000468651123
|  3> ! CAM-B3LYP def2-SVP def2/J RIJCOSX Grid4 TightSCF
|  4> %maxcore 5000
|  5> %tddft
|  6>     Mode sTDDFT
|  7>     Ethresh 5.0
|  8>     maxcore 5000
|  9> end
| 10>
| 11> %pal
| 12>   nprocs 6
| 13>   end
| 14> * xyz 0 1
| 15>    C       -4.59032         7.40442        -3.76922
| 16>    C       -3.66507         6.68970        -4.48149
| 17>    C       -2.84621         7.24132        -5.48832
| 18>    N       -2.15263         7.64443        -6.30921
| 19>    C       -3.44588         5.30422        -4.32630
| 20>    N       -3.23748         4.17714        -4.26490
| 21>    C       -4.93606         8.80570        -3.96631
| 22>    C       -6.06799         9.11185        -3.17150
| 23>    C       -6.63225        10.36359        -3.13646
| 24>    C       -6.04745        11.36284        -3.92067
| 25>    C       -4.91531        11.04948        -4.71044
| 26>    C       -4.34744         9.78229        -4.74912
| 27>    S       -4.34589        12.43688        -5.58889
| 28>    C       -5.61724        13.40497        -4.89150
| 29>    C       -6.42840        12.72659        -4.04605
| 30>   Br       -5.74820        15.22058        -5.33864
| 31>    C       -6.47594         7.91797        -2.40267
| 32>    O       -7.38173         7.85112        -1.60293
| 33>    C       -5.47346         6.87231        -2.74638
| 34>    C       -5.30715         5.72480        -2.03911
| 35>    C       -6.22377         5.26093        -1.03095
| 36>    C       -5.72675         4.99277         0.21823
| 37>    S       -6.92310         4.78413         1.41861
| 38>    C       -8.16797         4.95580         0.21461
| 39>    C       -7.66401         5.15964        -1.07735
| 40>    C       -8.55520         5.16451        -2.17923
| 41>    C       -7.99713         5.13111        -3.57839
| 42>    C       -7.20653         3.84663        -3.83420
| 43>    C       -9.92564         5.11535        -1.95391
| 44>    C      -10.92146         5.19275        -3.08003
| 45>    C      -11.21535         3.81782        -3.68356
| 46>    C      -10.42691         4.99776        -0.63659
| 47>    C      -11.78752         4.98886        -0.16027
| 48>    C      -11.85262         4.93330         1.19773
| 49>    S      -10.32488         4.81879         1.98135
| 50>    C       -9.53212         4.91169         0.44122
| 51>    C      -13.01446         4.97002        -0.94357
| 52>    C      -14.00838         5.85774        -0.76980
| 53>    C      -15.25994         5.74689        -1.44621
| 54>    O      -16.16793         6.75247        -1.34136
| 55>    C      -15.81799         4.73199        -2.19477
| 56>    C      -15.57904         3.40804        -2.76696
| 57>    O      -14.59712         2.70436        -2.75379
| 58>    N      -16.77944         3.09684        -3.39112
| 59>    C      -17.77383         4.07919        -3.29921
| 60>    O      -18.87657         3.98330        -3.77641
| 61>    C      -17.13712         5.13875        -2.52786
| 62>    C      -17.31781         6.40345        -1.99179
| 63>    C      -18.41450         7.28943        -2.04304
| 64>    C      -18.32077         8.60829        -1.69988
| 65>    C      -19.39265         9.50873        -1.71052
| 66>    C      -19.25606        10.86783        -1.54688
| 67>    C      -20.28923        11.83039        -1.46896
| 68>    C      -19.85219        13.11662        -1.35025
| 69>    C      -18.44764        13.24531        -1.35812
| 70>    S      -17.69548        11.66745        -1.46422
| 71>    C      -17.70535        14.41230        -1.35099
| 72>    C      -18.16360        15.73994        -1.23227
| 73>    C      -17.17715        16.67673        -1.32096
| 74>    C      -15.87953        16.15322        -1.53362
| 75>    S      -15.96811        14.39903        -1.56480
| 76>    C      -14.75792        16.92614        -1.72371
| 77>    C      -13.43743        16.58912        -2.03229
| 78>    S      -12.32339        17.92970        -2.29750
| 79>    C      -10.96672        16.92340        -2.69829
| 80>    C      -11.35504        15.58779        -2.61255
| 81>    C      -12.72173        15.40523        -2.24037
| 82>    N      -12.91816        14.06654        -2.19688
| 83>    N      -11.80191        13.39487        -2.50904
| 84>    C      -10.86036        14.26681        -2.76054
| 85>    C       -9.72281        17.52439        -3.05209
| 86>    C       -8.63240        16.86035        -3.44594
| 87>    H       -7.49516        10.56477        -2.52114
| 88>    H       -3.47962         9.59222        -5.35864
| 89>    H       -7.25765        13.16610        -3.52315
| 90>    H       -4.37341         5.18199        -2.12477
| 91>    H       -4.69241         5.00993         0.50570
| 92>    H       -7.35406         5.99474        -3.75393
| 93>    H       -8.80039         5.18200        -4.30826
| 94>    H       -6.31405         3.79455        -3.21592
| 95>    H       -6.89656         3.80062        -4.87592
| 96>    H       -7.82154         2.97629        -3.61652
| 97>    H      -10.56545         5.87029        -3.85761
| 98>    H      -11.84904         5.61756        -2.69338
| 99>    H      -10.32463         3.39415        -4.14050
|100>    H      -11.98861         3.90002        -4.44360
|101>    H      -11.56381         3.12757        -2.91986
|102>    H      -12.74493         4.89910         1.79217
|103>    H      -13.15040         4.14513        -1.63067
|104>    H      -13.89396         6.70967        -0.11467
|105>    H      -16.92580         2.22709        -3.88292
|106>    H      -19.33825         6.87400        -2.41716
|107>    H      -17.34965         8.99536        -1.41602
|108>    H      -20.39147         9.12255        -1.86321
|109>    H      -21.32472        11.54079        -1.50002
|110>    H      -20.50070        13.97142        -1.28007
|111>    H      -19.20297        15.96959        -1.08276
|112>    H      -17.34363        17.73755        -1.25604
|113>    H      -14.93563        17.99340        -1.65616
|114>    H      -13.75658        13.55747        -1.97206
|115>    H       -9.88020        13.93361        -3.03210
|116>    H       -9.70379        18.60487        -2.99399
|117>    H       -8.62148        15.78920        -3.52999
|118>    H       -7.72624        17.37508        -3.70878
|119> *
|120>
|121>                          ****END OF INPUT****

CARTESIAN COORDINATES (ANGSTROEM)
---------------------------------
  C     -4.590320    7.404420   -3.769220
  C     -3.665070    6.689700   -4.481490
  C     -2.846210    7.241320   -5.488320
  N     -2.152630    7.644430   -6.309210
  C     -3.445880    5.304220   -4.326300
  N     -3.237480    4.177140   -4.264900
  C     -4.936060    8.805700   -3.966310
  C     -6.067990    9.111850   -3.171500
  C     -6.632250   10.363590   -3.136460
  C     -6.047450   11.362840   -3.920670
  C     -4.915310   11.049480   -4.710440
  C     -4.347440    9.782290   -4.749120
  S     -4.345890   12.436880   -5.588890
  C     -5.617240   13.404970   -4.891500
  C     -6.428400   12.726590   -4.046050
  Br    -5.748200   15.220580   -5.338640
  C     -6.475940    7.917970   -2.402670
  O     -7.381730    7.851120   -1.602930
  C     -5.473460    6.872310   -2.746380
  C     -5.307150    5.724800   -2.039110
  C     -6.223770    5.260930   -1.030950
  C     -5.726750    4.992770    0.218230
  S     -6.923100    4.784130    1.418610
  C     -8.167970    4.955800    0.214610
  C     -7.664010    5.159640   -1.077350
  C     -8.555200    5.164510   -2.179230
  C     -7.997130    5.131110   -3.578390
  C     -7.206530    3.846630   -3.834200
  C     -9.925640    5.115350   -1.953910
  C    -10.921460    5.192750   -3.080030
  C    -11.215350    3.817820   -3.683560
  C    -10.426910    4.997760   -0.636590
  C    -11.787520    4.988860   -0.160270
  C    -11.852620    4.933300    1.197730
  S    -10.324880    4.818790    1.981350
  C     -9.532120    4.911690    0.441220
  C    -13.014460    4.970020   -0.943570
  C    -14.008380    5.857740   -0.769800
  C    -15.259940    5.746890   -1.446210
  O    -16.167930    6.752470   -1.341360
  C    -15.817990    4.731990   -2.194770
  C    -15.579040    3.408040   -2.766960
  O    -14.597120    2.704360   -2.753790
  N    -16.779440    3.096840   -3.391120
  C    -17.773830    4.079190   -3.299210
  O    -18.876570    3.983300   -3.776410
  C    -17.137120    5.138750   -2.527860
  C    -17.317810    6.403450   -1.991790
  C    -18.414500    7.289430   -2.043040
  C    -18.320770    8.608290   -1.699880
  C    -19.392650    9.508730   -1.710520
  C    -19.256060   10.867830   -1.546880
  C    -20.289230   11.830390   -1.468960
  C    -19.852190   13.116620   -1.350250
  C    -18.447640   13.245310   -1.358120
  S    -17.695480   11.667450   -1.464220
  C    -17.705350   14.412300   -1.350990
  C    -18.163600   15.739940   -1.232270
  C    -17.177150   16.676730   -1.320960
  C    -15.879530   16.153220   -1.533620
  S    -15.968110   14.399030   -1.564800
  C    -14.757920   16.926140   -1.723710
  C    -13.437430   16.589120   -2.032290
  S    -12.323390   17.929700   -2.297500
  C    -10.966720   16.923400   -2.698290
  C    -11.355040   15.587790   -2.612550
  C    -12.721730   15.405230   -2.240370
  N    -12.918160   14.066540   -2.196880
  N    -11.801910   13.394870   -2.509040
  C    -10.860360   14.266810   -2.760540
  C     -9.722810   17.524390   -3.052090
  C     -8.632400   16.860350   -3.445940
  H     -7.495160   10.564770   -2.521140
  H     -3.479620    9.592220   -5.358640
  H     -7.257650   13.166100   -3.523150
  H     -4.373410    5.181990   -2.124770
  H     -4.692410    5.009930    0.505700
  H     -7.354060    5.994740   -3.753930
  H     -8.800390    5.182000   -4.308260
  H     -6.314050    3.794550   -3.215920
  H     -6.896560    3.800620   -4.875920
  H     -7.821540    2.976290   -3.616520
  H    -10.565450    5.870290   -3.857610
  H    -11.849040    5.617560   -2.693380
  H    -10.324630    3.394150   -4.140500
  H    -11.988610    3.900020   -4.443600
  H    -11.563810    3.127570   -2.919860
  H    -12.744930    4.899100    1.792170
  H    -13.150400    4.145130   -1.630670
  H    -13.893960    6.709670   -0.114670
  H    -16.925800    2.227090   -3.882920
  H    -19.338250    6.874000   -2.417160
  H    -17.349650    8.995360   -1.416020
  H    -20.391470    9.122550   -1.863210
  H    -21.324720   11.540790   -1.500020
  H    -20.500700   13.971420   -1.280070
  H    -19.202970   15.969590   -1.082760
  H    -17.343630   17.737550   -1.256040
  H    -14.935630   17.993400   -1.656160
  H    -13.756580   13.557470   -1.972060
  H     -9.880200   13.933610   -3.032100
  H     -9.703790   18.604870   -2.993990
  H     -8.621480   15.789200   -3.529990
  H     -7.726240   17.375080   -3.708780

 Total Charge           Charge          ....    0
 Multiplicity           Mult            ....    1
 Number of Electrons    NEL             ....  566
 Basis Dimension        Dim             .... 1210

ORBITAL ENERGIES
----------------

  NO   OCC          E(Eh)            E(eV)
   0   2.0000    -482.891812    -13140.1542
   1   2.0000     -88.978826     -2421.2370
   2   2.0000     -88.969547     -2420.9845
   3   2.0000     -88.959582     -2420.7133
   4   2.0000     -88.958141     -2420.6741
   5   2.0000     -88.948359     -2420.4079
   6   2.0000     -88.947589     -2420.3869
   7   2.0000     -62.569320     -1702.5977
   8   2.0000     -56.403282     -1534.8113
   9   2.0000     -56.400566     -1534.7374
  10   2.0000     -56.400519     -1534.7361
  11   2.0000     -19.298588      -525.1413
  12   2.0000     -19.215543      -522.8815
  13   2.0000     -19.202424      -522.5245
  14   2.0000     -19.197624      -522.3939
  15   2.0000     -14.483824      -394.1249
  16   2.0000     -14.443773      -393.0350
  17   2.0000     -14.440654      -392.9502
  18   2.0000     -14.417285      -392.3143
  19   2.0000     -14.416335      -392.2884
  20   2.0000     -10.390109      -282.7292
  21   2.0000     -10.387150      -282.6487
  22   2.0000     -10.366571      -282.0887
  23   2.0000     -10.363125      -281.9950
  24   2.0000     -10.350283      -281.6455
  25   2.0000     -10.348199      -281.5888
  26   2.0000     -10.344438      -281.4865
  27   2.0000     -10.342610      -281.4367
  28   2.0000     -10.328632      -281.0564
  29   2.0000     -10.324398      -280.9412
  30   2.0000     -10.320717      -280.8410
  31   2.0000     -10.319800      -280.8160
  32   2.0000     -10.319568      -280.8097
  33   2.0000     -10.318875      -280.7909
  34   2.0000     -10.318861      -280.7905
  35   2.0000     -10.316209      -280.7183
  36   2.0000     -10.314499      -280.6718
  37   2.0000     -10.311760      -280.5972
  38   2.0000     -10.311393      -280.5873
  39   2.0000     -10.310514      -280.5633
  40   2.0000     -10.310419      -280.5608
  41   2.0000     -10.309638      -280.5395
  42   2.0000     -10.308437      -280.5068
  43   2.0000     -10.302547      -280.3466
  44   2.0000     -10.302367      -280.3416
  45   2.0000     -10.301176      -280.3092
  46   2.0000     -10.299936      -280.2755
  47   2.0000     -10.298102      -280.2256
  48   2.0000     -10.297069      -280.1975
  49   2.0000     -10.295485      -280.1544
  50   2.0000     -10.294108      -280.1169
  51   2.0000     -10.292923      -280.0847
  52   2.0000     -10.292124      -280.0629
  53   2.0000     -10.291926      -280.0575
  54   2.0000     -10.291700      -280.0514
  55   2.0000     -10.291693      -280.0512
  56   2.0000     -10.290452      -280.0174
  57   2.0000     -10.284902      -279.8664
  58   2.0000     -10.284533      -279.8564
  59   2.0000     -10.284186      -279.8469
  60   2.0000     -10.283034      -279.8156
  61   2.0000     -10.280985      -279.7598
  62   2.0000     -10.279171      -279.7105
  63   2.0000     -10.279041      -279.7069
  64   2.0000     -10.278248      -279.6853
  65   2.0000     -10.278088      -279.6810
  66   2.0000     -10.276460      -279.6367
  67   2.0000     -10.276030      -279.6250
  68   2.0000     -10.275673      -279.6153
  69   2.0000     -10.273632      -279.5597
  70   2.0000     -10.269725      -279.4534
  71   2.0000     -10.269248      -279.4404
  72   2.0000     -10.257587      -279.1231
  73   2.0000     -10.255245      -279.0594
  74   2.0000     -10.247752      -278.8555
  75   2.0000     -10.244738      -278.7735
  76   2.0000      -8.798696      -239.4247
  77   2.0000      -8.074890      -219.7289
  78   2.0000      -8.064609      -219.4492
  79   2.0000      -8.055648      -219.2053
  80   2.0000      -8.054300      -219.1686
  81   2.0000      -8.044618      -218.9052
  82   2.0000      -8.043991      -218.8881
  83   2.0000      -6.634949      -180.5462
  84   2.0000      -6.620414      -180.1506
  85   2.0000      -6.620293      -180.1473
  86   2.0000      -6.044593      -164.4818
  87   2.0000      -6.040294      -164.3648
  88   2.0000      -6.036071      -164.2498
  89   2.0000      -6.033869      -164.1899
  90   2.0000      -6.029780      -164.0787
  91   2.0000      -6.026841      -163.9987
  92   2.0000      -6.025065      -163.9503
  93   2.0000      -6.024050      -163.9227
  94   2.0000      -6.020835      -163.8352
  95   2.0000      -6.020169      -163.8171
  96   2.0000      -6.017506      -163.7447
  97   2.0000      -6.015175      -163.6812
  98   2.0000      -6.014124      -163.6526
  99   2.0000      -6.013699      -163.6411
 100   2.0000      -6.009923      -163.5383
 101   2.0000      -6.009750      -163.5336
 102   2.0000      -6.006237      -163.4380
 103   2.0000      -6.004868      -163.4008
 104   2.0000      -2.750827       -74.8538
 105   2.0000      -2.746746       -74.7428
 106   2.0000      -2.746654       -74.7403
 107   2.0000      -2.735099       -74.4258
 108   2.0000      -2.735085       -74.4254
 109   2.0000      -1.213502       -33.0211
 110   2.0000      -1.147877       -31.2353
 111   2.0000      -1.143681       -31.1211
 112   2.0000      -1.131199       -30.7815
 113   2.0000      -1.122597       -30.5474
 114   2.0000      -1.030956       -28.0537
 115   2.0000      -1.025360       -27.9015
 116   2.0000      -1.015417       -27.6309
 117   2.0000      -1.002874       -27.2896
 118   2.0000      -1.001811       -27.2607
 119   2.0000      -0.995420       -27.0868
 120   2.0000      -0.991358       -26.9762
 121   2.0000      -0.990529       -26.9537
 122   2.0000      -0.977469       -26.5983
 123   2.0000      -0.974233       -26.5102
 124   2.0000      -0.945801       -25.7365
 125   2.0000      -0.927316       -25.2336
 126   2.0000      -0.924234       -25.1497
 127   2.0000      -0.921201       -25.0671
 128   2.0000      -0.913302       -24.8522
 129   2.0000      -0.911735       -24.8096
 130   2.0000      -0.907433       -24.6925
 131   2.0000      -0.902842       -24.5676
 132   2.0000      -0.895971       -24.3806
 133   2.0000      -0.888714       -24.1831
 134   2.0000      -0.882528       -24.0148
 135   2.0000      -0.874604       -23.7992
 136   2.0000      -0.869619       -23.6635
 137   2.0000      -0.859704       -23.3937
 138   2.0000      -0.853377       -23.2216
 139   2.0000      -0.850198       -23.1351
 140   2.0000      -0.849894       -23.1268
 141   2.0000      -0.835912       -22.7463
 142   2.0000      -0.832251       -22.6467
 143   2.0000      -0.828799       -22.5528
 144   2.0000      -0.822639       -22.3852
 145   2.0000      -0.815722       -22.1969
 146   2.0000      -0.803331       -21.8598
 147   2.0000      -0.791280       -21.5318
 148   2.0000      -0.782525       -21.2936
 149   2.0000      -0.769803       -20.9474
 150   2.0000      -0.764288       -20.7973
 151   2.0000      -0.756467       -20.5845
 152   2.0000      -0.755436       -20.5565
 153   2.0000      -0.752095       -20.4656
 154   2.0000      -0.737623       -20.0718
 155   2.0000      -0.714563       -19.4442
 156   2.0000      -0.712997       -19.4016
 157   2.0000      -0.709365       -19.3028
 158   2.0000      -0.708583       -19.2815
 159   2.0000      -0.704781       -19.1781
 160   2.0000      -0.699801       -19.0425
 161   2.0000      -0.696660       -18.9571
 162   2.0000      -0.692435       -18.8421
 163   2.0000      -0.690282       -18.7835
 164   2.0000      -0.685681       -18.6583
 165   2.0000      -0.677598       -18.4384
 166   2.0000      -0.675076       -18.3697
 167   2.0000      -0.665901       -18.1201
 168   2.0000      -0.660101       -17.9623
 169   2.0000      -0.656380       -17.8610
 170   2.0000      -0.643534       -17.5115
 171   2.0000      -0.632121       -17.2009
 172   2.0000      -0.629703       -17.1351
 173   2.0000      -0.625040       -17.0082
 174   2.0000      -0.623971       -16.9791
 175   2.0000      -0.618411       -16.8278
 176   2.0000      -0.614640       -16.7252
 177   2.0000      -0.613867       -16.7042
 178   2.0000      -0.605020       -16.4634
 179   2.0000      -0.600052       -16.3283
 180   2.0000      -0.596709       -16.2373
 181   2.0000      -0.592496       -16.1226
 182   2.0000      -0.589116       -16.0307
 183   2.0000      -0.584610       -15.9080
 184   2.0000      -0.578685       -15.7468
 185   2.0000      -0.572468       -15.5776
 186   2.0000      -0.569013       -15.4836
 187   2.0000      -0.563426       -15.3316
 188   2.0000      -0.559046       -15.2124
 189   2.0000      -0.552889       -15.0449
 190   2.0000      -0.551614       -15.0102
 191   2.0000      -0.549249       -14.9458
 192   2.0000      -0.547018       -14.8851
 193   2.0000      -0.546146       -14.8614
 194   2.0000      -0.542091       -14.7511
 195   2.0000      -0.538995       -14.6668
 196   2.0000      -0.536635       -14.6026
 197   2.0000      -0.535564       -14.5734
 198   2.0000      -0.532365       -14.4864
 199   2.0000      -0.528809       -14.3896
 200   2.0000      -0.527806       -14.3623
 201   2.0000      -0.526830       -14.3358
 202   2.0000      -0.523043       -14.2327
 203   2.0000      -0.520948       -14.1757
 204   2.0000      -0.513066       -13.9612
 205   2.0000      -0.512456       -13.9446
 206   2.0000      -0.510588       -13.8938
 207   2.0000      -0.508445       -13.8355
 208   2.0000      -0.504357       -13.7242
 209   2.0000      -0.502729       -13.6799
 210   2.0000      -0.500365       -13.6156
 211   2.0000      -0.499022       -13.5791
 212   2.0000      -0.496939       -13.5224
 213   2.0000      -0.494641       -13.4599
 214   2.0000      -0.491736       -13.3808
 215   2.0000      -0.489802       -13.3282
 216   2.0000      -0.487992       -13.2790
 217   2.0000      -0.485747       -13.2178
 218   2.0000      -0.483806       -13.1650
 219   2.0000      -0.482626       -13.1329
 220   2.0000      -0.479024       -13.0349
 221   2.0000      -0.475751       -12.9458
 222   2.0000      -0.473012       -12.8713
 223   2.0000      -0.469851       -12.7853
 224   2.0000      -0.468899       -12.7594
 225   2.0000      -0.465881       -12.6773
 226   2.0000      -0.464809       -12.6481
 227   2.0000      -0.462597       -12.5879
 228   2.0000      -0.460870       -12.5409
 229   2.0000      -0.457210       -12.4413
 230   2.0000      -0.452322       -12.3083
 231   2.0000      -0.451555       -12.2874
 232   2.0000      -0.450812       -12.2672
 233   2.0000      -0.449692       -12.2367
 234   2.0000      -0.446645       -12.1538
 235   2.0000      -0.446157       -12.1405
 236   2.0000      -0.444793       -12.1034
 237   2.0000      -0.443613       -12.0713
 238   2.0000      -0.441906       -12.0249
 239   2.0000      -0.441338       -12.0094
 240   2.0000      -0.437112       -11.8944
 241   2.0000      -0.433487       -11.7958
 242   2.0000      -0.432399       -11.7662
 243   2.0000      -0.430897       -11.7253
 244   2.0000      -0.428494       -11.6599
 245   2.0000      -0.426325       -11.6009
 246   2.0000      -0.425517       -11.5789
 247   2.0000      -0.422536       -11.4978
 248   2.0000      -0.419954       -11.4275
 249   2.0000      -0.416353       -11.3295
 250   2.0000      -0.413459       -11.2508
 251   2.0000      -0.411274       -11.1913
 252   2.0000      -0.407101       -11.0778
 253   2.0000      -0.404748       -11.0138
 254   2.0000      -0.404387       -11.0039
 255   2.0000      -0.390570       -10.6280
 256   2.0000      -0.385782       -10.4977
 257   2.0000      -0.382634       -10.4120
 258   2.0000      -0.380601       -10.3567
 259   2.0000      -0.377089       -10.2611
 260   2.0000      -0.374312       -10.1856
 261   2.0000      -0.370580       -10.0840
 262   2.0000      -0.367639       -10.0040
 263   2.0000      -0.359377        -9.7791
 264   2.0000      -0.357990        -9.7414
 265   2.0000      -0.353713        -9.6250
 266   2.0000      -0.351288        -9.5590
 267   2.0000      -0.350198        -9.5294
 268   2.0000      -0.343113        -9.3366
 269   2.0000      -0.340406        -9.2629
 270   2.0000      -0.335729        -9.1356
 271   2.0000      -0.333401        -9.0723
 272   2.0000      -0.328713        -8.9447
 273   2.0000      -0.321204        -8.7404
 274   2.0000      -0.320488        -8.7209
 275   2.0000      -0.318182        -8.6582
 276   2.0000      -0.304703        -8.2914
 277   2.0000      -0.295789        -8.0488
 278   2.0000      -0.288451        -7.8492
 279   2.0000      -0.268672        -7.3109
 280   2.0000      -0.266359        -7.2480
 281   2.0000      -0.251290        -6.8380
 282   2.0000      -0.204138        -5.5549
 283   0.0000      -0.090971        -2.4754
 284   0.0000      -0.086332        -2.3492
 285   0.0000      -0.056312        -1.5323
 286   0.0000      -0.046119        -1.2550
 287   0.0000      -0.032858        -0.8941

MULLIKEN ATOMIC CHARGES
-----------------------
   0 C :    0.303784
   1 C :   -0.336444
   2 C :   -0.185717
   3 N :    0.151382
   4 C :   -0.198996
   5 N :    0.164729
   6 C :    0.017415
   7 C :   -0.018278
   8 C :   -0.070561
   9 C :    0.123803
  10 C :   -0.089653
  11 C :   -0.024094
  12 S :    0.187390
  13 C :   -0.119123
  14 C :    0.042548
  15 Br:    0.027061
  16 C :    0.147421
  17 O :   -0.126399
  18 C :   -0.104411
  19 C :   -0.070800
  20 C :    0.023789
  21 C :   -0.078794
  22 S :    0.150618
  23 C :   -0.165894
  24 C :    0.184359
  25 C :   -0.107517
  26 C :    0.059603
  27 C :    0.015751
  28 C :   -0.122841
  29 C :    0.008693
  30 C :    0.042731
  31 C :    0.124439
  32 C :    0.046091
  33 C :   -0.105551
  34 S :    0.119908
  35 C :   -0.136651
  36 C :   -0.038309
  37 C :   -0.013730
  38 C :    0.116002
  39 O :   -0.211336
  40 C :   -0.077106
  41 C :    0.179430
  42 O :   -0.165580
  43 N :   -0.162279
  44 C :    0.150471
  45 O :   -0.149261
  46 C :   -0.022519
  47 C :    0.092363
  48 C :   -0.046291
  49 C :    0.028202
  50 C :   -0.025023
  51 C :   -0.007884
  52 C :    0.030128
  53 C :    0.029171
  54 C :   -0.056296
  55 S :    0.070052
  56 C :   -0.025471
  57 C :    0.022662
  58 C :    0.031431
  59 C :   -0.037751
  60 S :    0.027608
  61 C :    0.045063
  62 C :   -0.221227
  63 S :    0.142026
  64 C :   -0.118530
  65 C :    0.003048
  66 C :    0.161160
  67 N :   -0.043346
  68 N :   -0.051994
  69 C :   -0.002877
  70 C :    0.043640
  71 C :   -0.014797
  72 H :   -0.004984
  73 H :   -0.005329
  74 H :   -0.017753
  75 H :    0.039952
  76 H :    0.027752
  77 H :    0.004542
  78 H :   -0.007202
  79 H :    0.019448
  80 H :    0.017612
  81 H :    0.017370
  82 H :    0.007670
  83 H :    0.010769
  84 H :    0.002220
  85 H :    0.017080
  86 H :    0.025949
  87 H :    0.019121
  88 H :    0.051755
  89 H :   -0.007013
  90 H :    0.134591
  91 H :    0.008572
  92 H :    0.011200
  93 H :   -0.011083
  94 H :   -0.010903
  95 H :   -0.011371
  96 H :   -0.011966
  97 H :   -0.008800
  98 H :   -0.016275
  99 H :    0.142215
 100 H :   -0.026306
 101 H :   -0.011748
 102 H :    0.005021
 103 H :    0.027255
Sum of atomic charges:   -0.0000000

LOEWDIN ATOMIC CHARGES
----------------------
   0 C :    0.075554
   1 C :   -0.137982
   2 C :   -0.018745
   3 N :   -0.051318
   4 C :   -0.023294
   5 N :   -0.048591
   6 C :   -0.021394
   7 C :   -0.048521
   8 C :    0.023496
   9 C :   -0.031522
  10 C :   -0.143719
  11 C :   -0.009377
  12 S :    0.433485
  13 C :   -0.271705
  14 C :   -0.071589
  15 Br:    0.144581
  16 C :    0.078190
  17 O :   -0.120342
  18 C :   -0.098182
  19 C :    0.077791
  20 C :   -0.069339
  21 C :   -0.143136
  22 S :    0.437026
  23 C :   -0.175765
  24 C :   -0.026129
  25 C :   -0.014771
  26 C :   -0.030804
  27 C :   -0.047324
  28 C :   -0.009355
  29 C :   -0.031936
  30 C :   -0.048538
  31 C :   -0.039672
  32 C :   -0.060576
  33 C :   -0.164005
  34 S :    0.408947
  35 C :   -0.175458
  36 C :    0.020238
  37 C :   -0.051508
  38 C :    0.068303
  39 O :    0.010683
  40 C :   -0.107665
  41 C :    0.086015
  42 O :   -0.171744
  43 N :   -0.006155
  44 C :    0.083929
  45 O :   -0.167554
  46 C :   -0.105844
  47 C :    0.069570
  48 C :   -0.051933
  49 C :   -0.007011
  50 C :   -0.069125
  51 C :   -0.132113
  52 C :   -0.041737
  53 C :   -0.024967
  54 C :   -0.190066
  55 S :    0.367069
  56 C :   -0.166387
  57 C :   -0.045862
  58 C :   -0.024454
  59 C :   -0.166782
  60 S :    0.371277
  61 C :   -0.061579
  62 C :   -0.211011
  63 S :    0.461218
  64 C :   -0.163587
  65 C :   -0.091492
  66 C :   -0.015568
  67 N :    0.093175
  68 N :   -0.048254
  69 C :   -0.044451
  70 C :   -0.043559
  71 C :   -0.034823
  72 H :    0.043147
  73 H :    0.041235
  74 H :    0.035699
  75 H :    0.047589
  76 H :    0.028063
  77 H :    0.024860
  78 H :    0.026378
  79 H :    0.022455
  80 H :    0.027082
  81 H :    0.025693
  82 H :    0.026279
  83 H :    0.030870
  84 H :    0.021011
  85 H :    0.026519
  86 H :    0.026461
  87 H :    0.024406
  88 H :    0.037780
  89 H :    0.036997
  90 H :    0.092569
  91 H :    0.043412
  92 H :    0.025626
  93 H :    0.034031
  94 H :    0.034098
  95 H :    0.032491
  96 H :    0.032911
  97 H :    0.034626
  98 H :    0.036853
  99 H :    0.059011
 100 H :    0.016126
 101 H :    0.030835
 102 H :    0.017708
 103 H :    0.024946

  Mayer bond orders larger than 0.100000
B(  0-C ,  1-C ) :   1.6638 B(  0-C ,  6-C ) :   1.0109 B(  0-C , 18-C ) :   1.0380
B(  1-C ,  2-C ) :   1.1315 B(  1-C ,  4-C ) :   1.1497 B(  2-C ,  3-N ) :   2.9774
B(  4-C ,  5-N ) :   2.9739 B(  6-C ,  7-C ) :   1.2730 B(  6-C , 11-C ) :   1.4028
B(  7-C ,  8-C ) :   1.4276 B(  7-C , 16-C ) :   0.9380 B(  8-C ,  9-C ) :   1.2421
B(  8-C , 72-H ) :   1.0183 B(  9-C , 10-C ) :   1.3030 B(  9-C , 14-C ) :   1.1654
B( 10-C , 11-C ) :   1.3311 B( 10-C , 12-S ) :   1.0843 B( 11-C , 73-H ) :   0.9826
B( 12-S , 13-C ) :   1.0864 B( 13-C , 14-C ) :   1.6154 B( 13-C , 15-Br) :   1.0228
B( 14-C , 74-H ) :   1.0026 B( 16-C , 17-O ) :   2.2364 B( 16-C , 18-C ) :   0.9323
B( 18-C , 19-C ) :   1.6606 B( 19-C , 20-C ) :   1.0641 B( 19-C , 75-H ) :   0.9485
B( 20-C , 21-C ) :   1.5489 B( 20-C , 24-C ) :   1.1312 B( 21-C , 22-S ) :   1.1596
B( 21-C , 76-H ) :   0.9679 B( 22-S , 23-C ) :   1.0599 B( 23-C , 24-C ) :   1.3886
B( 23-C , 35-C ) :   1.3851 B( 24-C , 25-C ) :   1.2528 B( 25-C , 26-C ) :   1.0858
B( 25-C , 28-C ) :   1.5110 B( 26-C , 27-C ) :   1.1034 B( 26-C , 77-H ) :   0.9124
B( 26-C , 78-H ) :   0.9072 B( 27-C , 79-H ) :   0.9604 B( 27-C , 80-H ) :   0.9651
B( 27-C , 81-H ) :   0.9580 B( 28-C , 29-C ) :   1.0601 B( 28-C , 31-C ) :   1.2711
B( 29-C , 30-C ) :   1.1071 B( 29-C , 82-H ) :   0.9160 B( 29-C , 83-H ) :   0.9086
B( 30-C , 84-H ) :   0.9629 B( 30-C , 85-H ) :   0.9647 B( 30-C , 86-H ) :   0.9580
B( 31-C , 32-C ) :   1.1646 B( 31-C , 35-C ) :   1.3632 B( 32-C , 33-C ) :   1.6322
B( 32-C , 36-C ) :   0.9879 B( 33-C , 34-S ) :   1.1097 B( 33-C , 87-H ) :   0.9669
B( 34-S , 35-C ) :   1.0757 B( 36-C , 37-C ) :   1.7439 B( 36-C , 88-H ) :   0.9246
B( 37-C , 38-C ) :   1.1267 B( 37-C , 89-H ) :   0.9717 B( 38-C , 39-O ) :   1.1416
B( 38-C , 40-C ) :   1.4431 B( 39-O , 47-C ) :   1.1354 B( 40-C , 41-C ) :   0.8887
B( 40-C , 46-C ) :   1.2581 B( 41-C , 42-O ) :   2.1688 B( 41-C , 43-N ) :   1.1068
B( 43-N , 44-C ) :   1.0641 B( 43-N , 90-H ) :   0.9154 B( 44-C , 45-O ) :   2.2630
B( 44-C , 46-C ) :   0.8946 B( 46-C , 47-C ) :   1.3793 B( 47-C , 48-C ) :   1.1894
B( 48-C , 49-C ) :   1.5776 B( 48-C , 91-H ) :   0.9695 B( 49-C , 50-C ) :   1.1643
B( 49-C , 92-H ) :   0.9768 B( 50-C , 51-C ) :   1.5370 B( 50-C , 93-H ) :   0.9850
B( 51-C , 52-C ) :   1.1556 B( 51-C , 55-S ) :   1.0433 B( 52-C , 53-C ) :   1.5713
B( 52-C , 94-H ) :   1.0004 B( 53-C , 54-C ) :   1.2043 B( 53-C , 95-H ) :   0.9939
B( 54-C , 55-S ) :   1.0377 B( 54-C , 56-C ) :   1.4850 B( 56-C , 57-C ) :   1.2060
B( 56-C , 60-S ) :   1.0567 B( 57-C , 58-C ) :   1.5667 B( 57-C , 96-H ) :   0.9923
B( 58-C , 59-C ) :   1.1662 B( 58-C , 97-H ) :   0.9995 B( 59-C , 60-S ) :   1.0073
B( 59-C , 61-C ) :   1.5851 B( 61-C , 62-C ) :   1.2188 B( 61-C , 98-H ) :   0.9294
B( 62-C , 63-S ) :   1.0997 B( 62-C , 64-C ) :   0.1080 B( 62-C , 66-C ) :   1.3212
B( 63-S , 64-C ) :   1.1575 B( 64-C , 65-C ) :   1.3349 B( 64-C , 70-C ) :   1.1320
B( 65-C , 66-C ) :   1.2651 B( 65-C , 69-C ) :   1.1596 B( 66-C , 67-N ) :   1.1673
B( 67-N , 68-N ) :   1.1406 B( 67-N , 99-H ) :   0.9322 B( 68-N , 69-C ) :   1.7386
B( 69-C ,100-H ) :   1.0012 B( 70-C , 71-C ) :   1.9018 B( 70-C ,101-H ) :   0.9525
B( 71-C ,102-H ) :   0.9533 B( 71-C ,103-H ) :   0.9481

-----------------------------------------------------------------------------
         ABSORPTION SPECTRUM VIA TRANSITION ELECTRIC DIPOLE MOMENTS
-----------------------------------------------------------------------------
State   Energy  Wavelength   fosc         T2         TX        TY        TZ
        (cm-1)    (nm)                  (au**2)     (au)      (au)      (au)
-----------------------------------------------------------------------------
   0   11892.7    840.8   1.111219438  30.76050  -2.75773  -4.80577   0.24505
   1   17327.2    577.1   0.000849768   0.01615  -0.12520   0.02149  -0.00306
   2   19549.9    511.5   0.024704124   0.41601   0.55207  -0.26724  -0.19951
   3   22442.1    445.6   0.382814795   5.61566  -1.92992  -0.67987   1.19534
   4   22978.1    435.2   0.040761224   0.58399  -0.18808  -0.43908   0.59652
   5   23011.0    434.6   1.286885639  18.41112  -3.61033   2.26913   0.47716
   6   23498.7    425.6   0.075525562   1.05810   0.29418   0.66795  -0.72484
   7   24420.5    409.5   0.124901994   1.68380  -0.95103  -0.48452  -0.73796
   8   26151.7    382.4   0.155165896   1.95332  -0.86026   1.00521   0.45036
   9   26871.9    372.1   0.064178623   0.78626  -0.57397  -0.11833   0.66545
  10   27439.9    364.4   0.050535097   0.60630  -0.43406  -0.53011   0.36996
  11   27783.6    359.9   0.045723177   0.54178  -0.08872  -0.57472  -0.45123
  12   28061.8    356.4   0.030656127   0.35965   0.27080   0.02626  -0.53444
  13   28413.3    351.9   0.010177638   0.11792   0.03575   0.26914   0.21025
  14   29128.4    343.3   0.420433969   4.75179  -0.08916   2.11643  -0.51435
  15   29487.0    339.1   0.000860325   0.00961  -0.00098   0.08690   0.04531
  16   29714.6    336.5   0.075172590   0.83285  -0.67595   0.55582   0.25887
  17   30630.8    326.5   0.005923967   0.06367  -0.01004   0.20972   0.13995
  18   30895.8    323.7   0.080642961   0.85930   0.50798  -0.73605  -0.24388
  19   31345.9    319.0   0.004372432   0.04592   0.12328  -0.03752   0.17122
  20   31559.3    316.9   0.291765755   3.04356  -1.57295   0.05356  -0.75267
  21   31992.8    312.6   0.048369130   0.49773   0.55935   0.34229   0.26019
  22   32600.6    306.7   0.005544164   0.05599   0.10641  -0.07268   0.19845
  23   32928.9    303.7   0.026739101   0.26733  -0.20533   0.46725   0.08275
  24   33383.2    299.6   0.004403029   0.04342   0.14728  -0.14461  -0.02861
  25   33548.6    298.1   0.007098104   0.06965   0.16945  -0.11955   0.16324
  26   34173.3    292.6   0.045877701   0.44197   0.28106   0.07907  -0.59726
  27   34377.1    290.9   0.022032245   0.21099   0.42836  -0.15935  -0.04587
  28   34490.3    289.9   0.512236441   4.88933   0.85923  -2.02433  -0.23054
  29   34567.2    289.3   0.045827664   0.43645   0.58925  -0.16962  -0.24589
  30   34797.2    287.4   0.179969177   1.70266  -0.45547  -0.91651   0.80946
  31   34955.5    286.1   0.002614049   0.02462   0.06620   0.06866  -0.12459
  32   35304.9    283.2   0.000548725   0.00512   0.04995   0.01090  -0.05003
  33   35390.5    282.6   0.000823344   0.00766  -0.05496  -0.06709   0.01171
  34   35618.4    280.8   0.022767059   0.21043   0.35413  -0.03268   0.28975
  35   36309.8    275.4   0.041899163   0.37989   0.18117   0.58642  -0.05634
  36   36843.0    271.4   0.137602604   1.22955   0.64800   0.85901   0.26786
  37   37056.9    269.9   0.076373974   0.67850   0.09542   0.80017  -0.17068
  38   37449.6    267.0   0.058174356   0.51140   0.11393   0.31266  -0.63298
  39   37648.9    265.6   0.137498460   1.20232  -0.43634  -0.20261   0.98533
  40   37826.8    264.4   0.006833037   0.05947  -0.12955   0.10056   0.18048
  41   38091.8    262.5   0.027592858   0.23847   0.03652   0.45325   0.17806
  42   38989.7    256.5   0.015048776   0.12707   0.11974   0.28726   0.17382
  43   39119.4    255.6   0.007942354   0.06684   0.23749  -0.06702  -0.07710
  44   39221.4    255.0   0.003516733   0.02952   0.16608  -0.01617  -0.04091
  45   39589.1    252.6   0.058262734   0.48450  -0.61003  -0.20893   0.26211
  46   39621.7    252.4   0.013939623   0.11582   0.04168   0.15351  -0.30086
  47   40062.1    249.6   0.255292798   2.09788  -1.04759  -0.70883   0.70569
  48   40135.4    249.2   0.003676935   0.03016   0.13253   0.07922  -0.07949
  49   40181.1    248.9   0.015077334   0.12353   0.00898  -0.33459   0.10724

FINAL SINGLE POINT ENERGY     -7686.715243054301

DIPOLE MOMENT
-------------
                                X             Y             Z
Electronic contribution:     73.81618      76.34283     -21.56757
Nuclear contribution   :    -75.40057     -72.32224      22.91281
                        -----------------------------------------
Total Dipole Moment    :     -1.58439       4.02059       1.34525
                        -----------------------------------------
Magnitude (a.u.)       :      4.52605
Magnitude (Debye)      :     11.50429

Rotational constants in cm-1:     0.000612     0.000503     0.000303
Rotational constants in MHz :    18.333308    15.065003     9.082246

                             ****ORCA TERMINATED NORMALLY****
TOTAL RUN TIME: 0 days 0 hours 10 minutes 48 seconds 306 msec
