                         Program Version 4.2.0 -  RELEASE  -
|  1> # ORCA input file
|  2> # SCF done       -179.565987838222          0.000547899345
|  3> ! CAM-B3LYP def2-SVP def2/J RIJCOSX Grid4 TightSCF
|  4> %maxcore 5000
|  5> %tddft
|  6>     Mode sTDDFT
|  7>     Ethresh 5.0
|  8>     maxcore 5000
|  9> end
| 10>
| 11> %pal
| 12>   nprocs 6
| 13>   end
| 14> * xyz 0 1
| 15>    C       -7.91526         3.82334         3.38041
| 16>    C       -7.23609         3.86327         4.56399
| 17>    C       -7.67249         4.57367         5.70450
| 18>    N       -7.98515         5.12211         6.66253
| 19>    C       -6.02649         3.18209         4.82810
| 20>    N       -5.05026         2.65739         5.12440
| 21>    C       -9.17304         4.49674         3.08938
| 22>    C       -9.61095         4.12888         1.79225
| 23>    C      -10.77942         4.60013         1.24307
| 24>    C      -11.55115         5.48208         2.00493
| 25>    C      -11.10343         5.85031         3.29752
| 26>    C       -9.92549         5.37202         3.85468
| 27>    S      -12.20820         6.94945         4.06636
| 28>    C      -13.24176         6.89831         2.66309
| 29>    C      -12.78537         6.10144         1.66760
| 30>   Br      -14.82649         7.89923         2.64380
| 31>    C       -8.64530         3.19066         1.19039
| 32>    O       -8.76085         2.59865         0.14445
| 33>    C       -7.53189         3.07616         2.18263
| 34>    C       -6.40814         2.38407         1.94182
| 35>    C       -6.16930         1.74771         0.63515
| 36>    N       -6.18007         0.41940         0.60513
| 37>    C       -6.03963        -0.14016        -0.58856
| 38>    C       -5.88664         0.60240        -1.74172
| 39>    C       -5.82035         1.99761        -1.59558
| 40>    N       -5.95382         2.55370        -0.38731
| 41>    C       -5.63400         2.86031        -2.73321
| 42>    C       -5.39494         4.18467        -2.61200
| 43>    C       -5.24333         5.10218        -3.69236
| 44>    C       -4.79940         6.42327        -3.44058
| 45>    C       -4.62122         7.39470        -4.48626
| 46>    N       -4.13329         8.60215        -4.20567
| 47>    C       -3.84451         8.91022        -2.95524
| 48>    C       -4.08340         7.97105        -1.90758
| 49>    N       -4.53558         6.76832        -2.16674
| 50>    C       -3.83690         8.33694        -0.55954
| 51>    N       -3.63435         8.66532         0.51905
| 52>    C       -3.30538        10.18573        -2.67122
| 53>    N       -2.86962        11.21466        -2.41340
| 54>    C       -4.97346         7.11730        -5.85144
| 55>    C       -5.43385         5.79489        -6.09001
| 56>    C       -5.53627         4.80278        -5.04370
| 57>    N       -5.95976         3.63357        -5.52241
| 58>    S       -6.20814         3.75560        -7.10808
| 59>    N       -5.78637         5.30553        -7.26947
| 60>    C       -4.82976         8.13122        -6.79598
| 61>    C       -5.22148         8.22018        -8.12412
| 62>    C       -5.00530         9.37651        -8.90498
| 63>    C       -5.55585         9.33061       -10.15776
| 64>    C       -6.24076         8.13326       -10.40742
| 65>    S       -6.11858         7.04454        -9.04493
| 66>    C       -6.97720         7.76877       -11.53334
| 67>    C       -7.17129         8.47568       -12.73230
| 68>    C       -7.99658         7.83783       -13.61743
| 69>    C       -8.50302         6.60143       -13.15939
| 70>    S       -7.85981         6.27051       -11.55951
| 71>    C       -9.38995         5.79832       -13.84456
| 72>    C       -9.98069         4.59180       -13.44053
| 73>    C       -9.78427         3.86110       -12.22295
| 74>    C      -10.60130         2.74471       -12.23723
| 75>    C      -10.78955         1.72460       -11.28542
| 76>    C      -11.70040         0.74092       -11.57937
| 77>    C      -12.12878        -0.40270       -10.85111
| 78>    C      -13.08898        -1.08010       -11.59640
| 79>    C      -13.28159        -0.37361       -12.81403
| 80>    C      -12.44459         0.74438       -12.82923
| 81>    C      -12.25757         1.74819       -13.77889
| 82>    C      -11.34073         2.74820       -13.48901
| 83>    C      -10.93477         3.88623       -14.20488
| 84>    C      -13.75533        -2.28820       -11.17239
| 85>    C      -14.68131        -2.94489       -11.86603
| 86>    H      -11.08616         4.29673         0.25435
| 87>    H       -9.62737         5.68353         4.84179
| 88>    H      -13.29688         5.95444         0.73391
| 89>    H       -5.63374         2.25908         2.68518
| 90>    H       -6.05966        -1.22276        -0.60007
| 91>    H       -5.80409         0.13967        -2.71171
| 92>    H       -5.69626         2.40011        -3.70786
| 93>    H       -5.28868         4.60348        -1.62090
| 94>    H       -4.36465         9.02794        -6.40179
| 95>    H       -4.45820        10.21740        -8.51646
| 96>    H       -5.49306        10.12887       -10.87555
| 97>    H       -6.70597         9.42711       -12.91622
| 98>    H       -8.26246         8.22862       -14.58398
| 99>    H       -9.68868         6.16508       -14.81989
|100>    H       -9.11441         4.13094       -11.42911
|101>    H      -10.23423         1.73012       -10.35835
|102>    H      -11.76654        -0.69024        -9.88089
|103>    H      -13.96172        -0.65219       -13.59755
|104>    H      -12.81250         1.74710       -14.70636
|105>    H      -11.29553         4.18152       -15.17310
|106>    H      -13.44997        -2.65946       -10.20206
|107>    H      -15.01799        -2.61382       -12.83340
|108>    H      -15.13811        -3.84153       -11.48495
|109> *
|110>
|111>                          ****END OF INPUT****

CARTESIAN COORDINATES (ANGSTROEM)
---------------------------------
  C     -7.915260    3.823340    3.380410
  C     -7.236090    3.863270    4.563990
  C     -7.672490    4.573670    5.704500
  N     -7.985150    5.122110    6.662530
  C     -6.026490    3.182090    4.828100
  N     -5.050260    2.657390    5.124400
  C     -9.173040    4.496740    3.089380
  C     -9.610950    4.128880    1.792250
  C    -10.779420    4.600130    1.243070
  C    -11.551150    5.482080    2.004930
  C    -11.103430    5.850310    3.297520
  C     -9.925490    5.372020    3.854680
  S    -12.208200    6.949450    4.066360
  C    -13.241760    6.898310    2.663090
  C    -12.785370    6.101440    1.667600
  Br   -14.826490    7.899230    2.643800
  C     -8.645300    3.190660    1.190390
  O     -8.760850    2.598650    0.144450
  C     -7.531890    3.076160    2.182630
  C     -6.408140    2.384070    1.941820
  C     -6.169300    1.747710    0.635150
  N     -6.180070    0.419400    0.605130
  C     -6.039630   -0.140160   -0.588560
  C     -5.886640    0.602400   -1.741720
  C     -5.820350    1.997610   -1.595580
  N     -5.953820    2.553700   -0.387310
  C     -5.634000    2.860310   -2.733210
  C     -5.394940    4.184670   -2.612000
  C     -5.243330    5.102180   -3.692360
  C     -4.799400    6.423270   -3.440580
  C     -4.621220    7.394700   -4.486260
  N     -4.133290    8.602150   -4.205670
  C     -3.844510    8.910220   -2.955240
  C     -4.083400    7.971050   -1.907580
  N     -4.535580    6.768320   -2.166740
  C     -3.836900    8.336940   -0.559540
  N     -3.634350    8.665320    0.519050
  C     -3.305380   10.185730   -2.671220
  N     -2.869620   11.214660   -2.413400
  C     -4.973460    7.117300   -5.851440
  C     -5.433850    5.794890   -6.090010
  C     -5.536270    4.802780   -5.043700
  N     -5.959760    3.633570   -5.522410
  S     -6.208140    3.755600   -7.108080
  N     -5.786370    5.305530   -7.269470
  C     -4.829760    8.131220   -6.795980
  C     -5.221480    8.220180   -8.124120
  C     -5.005300    9.376510   -8.904980
  C     -5.555850    9.330610  -10.157760
  C     -6.240760    8.133260  -10.407420
  S     -6.118580    7.044540   -9.044930
  C     -6.977200    7.768770  -11.533340
  C     -7.171290    8.475680  -12.732300
  C     -7.996580    7.837830  -13.617430
  C     -8.503020    6.601430  -13.159390
  S     -7.859810    6.270510  -11.559510
  C     -9.389950    5.798320  -13.844560
  C     -9.980690    4.591800  -13.440530
  C     -9.784270    3.861100  -12.222950
  C    -10.601300    2.744710  -12.237230
  C    -10.789550    1.724600  -11.285420
  C    -11.700400    0.740920  -11.579370
  C    -12.128780   -0.402700  -10.851110
  C    -13.088980   -1.080100  -11.596400
  C    -13.281590   -0.373610  -12.814030
  C    -12.444590    0.744380  -12.829230
  C    -12.257570    1.748190  -13.778890
  C    -11.340730    2.748200  -13.489010
  C    -10.934770    3.886230  -14.204880
  C    -13.755330   -2.288200  -11.172390
  C    -14.681310   -2.944890  -11.866030
  H    -11.086160    4.296730    0.254350
  H     -9.627370    5.683530    4.841790
  H    -13.296880    5.954440    0.733910
  H     -5.633740    2.259080    2.685180
  H     -6.059660   -1.222760   -0.600070
  H     -5.804090    0.139670   -2.711710
  H     -5.696260    2.400110   -3.707860
  H     -5.288680    4.603480   -1.620900
  H     -4.364650    9.027940   -6.401790
  H     -4.458200   10.217400   -8.516460
  H     -5.493060   10.128870  -10.875550
  H     -6.705970    9.427110  -12.916220
  H     -8.262460    8.228620  -14.583980
  H     -9.688680    6.165080  -14.819890
  H     -9.114410    4.130940  -11.429110
  H    -10.234230    1.730120  -10.358350
  H    -11.766540   -0.690240   -9.880890
  H    -13.961720   -0.652190  -13.597550
  H    -12.812500    1.747100  -14.706360
  H    -11.295530    4.181520  -15.173100
  H    -13.449970   -2.659460  -10.202060
  H    -15.017990   -2.613820  -12.833400
  H    -15.138110   -3.841530  -11.484950

 Total Charge           Charge          ....    0
 Multiplicity           Mult            ....    1
 Number of Electrons    NEL             ....  530
 Basis Dimension        Dim             .... 1143

ORBITAL ENERGIES
----------------

  NO   OCC          E(Eh)            E(eV)
   0   2.0000    -482.882441    -13139.8992
   1   2.0000     -89.024690     -2422.4850
   2   2.0000     -88.971256     -2421.0309
   3   2.0000     -88.969774     -2420.9906
   4   2.0000     -88.959363     -2420.7073
   5   2.0000     -62.560161     -1702.3485
   6   2.0000     -56.394106     -1534.5617
   7   2.0000     -56.391398     -1534.4879
   8   2.0000     -56.391365     -1534.4871
   9   2.0000     -19.208866      -522.6998
  10   2.0000     -14.445403      -393.0794
  11   2.0000     -14.442189      -392.9919
  12   2.0000     -14.434488      -392.7824
  13   2.0000     -14.431552      -392.7025
  14   2.0000     -14.410893      -392.1403
  15   2.0000     -14.410345      -392.1254
  16   2.0000     -14.408701      -392.0807
  17   2.0000     -14.406867      -392.0308
  18   2.0000     -14.390022      -391.5724
  19   2.0000     -14.388415      -391.5287
  20   2.0000     -10.360388      -281.9205
  21   2.0000     -10.358865      -281.8790
  22   2.0000     -10.355448      -281.7861
  23   2.0000     -10.352113      -281.6953
  24   2.0000     -10.338606      -281.3278
  25   2.0000     -10.338105      -281.3142
  26   2.0000     -10.335467      -281.2424
  27   2.0000     -10.331289      -281.1287
  28   2.0000     -10.330258      -281.1006
  29   2.0000     -10.330172      -281.0983
  30   2.0000     -10.327617      -281.0287
  31   2.0000     -10.327202      -281.0175
  32   2.0000     -10.324963      -280.9565
  33   2.0000     -10.324624      -280.9473
  34   2.0000     -10.324578      -280.9461
  35   2.0000     -10.324352      -280.9399
  36   2.0000     -10.321288      -280.8565
  37   2.0000     -10.315623      -280.7024
  38   2.0000     -10.312677      -280.6222
  39   2.0000     -10.312642      -280.6213
  40   2.0000     -10.310658      -280.5673
  41   2.0000     -10.310558      -280.5645
  42   2.0000     -10.310519      -280.5635
  43   2.0000     -10.307379      -280.4780
  44   2.0000     -10.306552      -280.4555
  45   2.0000     -10.306462      -280.4531
  46   2.0000     -10.306345      -280.4499
  47   2.0000     -10.304477      -280.3991
  48   2.0000     -10.303520      -280.3730
  49   2.0000     -10.303459      -280.3714
  50   2.0000     -10.302770      -280.3526
  51   2.0000     -10.302401      -280.3426
  52   2.0000     -10.302305      -280.3400
  53   2.0000     -10.302046      -280.3329
  54   2.0000     -10.301437      -280.3163
  55   2.0000     -10.300708      -280.2965
  56   2.0000     -10.298351      -280.2324
  57   2.0000     -10.296285      -280.1762
  58   2.0000     -10.295786      -280.1626
  59   2.0000     -10.292867      -280.0831
  60   2.0000     -10.291733      -280.0523
  61   2.0000     -10.291668      -280.0505
  62   2.0000     -10.290359      -280.0149
  63   2.0000     -10.289177      -279.9827
  64   2.0000     -10.289031      -279.9788
  65   2.0000     -10.288895      -279.9751
  66   2.0000     -10.288336      -279.9599
  67   2.0000     -10.286857      -279.9196
  68   2.0000     -10.286314      -279.9048
  69   2.0000     -10.285421      -279.8805
  70   2.0000     -10.275534      -279.6115
  71   2.0000     -10.275530      -279.6114
  72   2.0000     -10.265628      -279.3420
  73   2.0000     -10.259893      -279.1859
  74   2.0000     -10.246601      -278.8242
  75   2.0000      -8.789594      -239.1770
  76   2.0000      -8.116373      -220.8577
  77   2.0000      -8.067229      -219.5205
  78   2.0000      -8.065737      -219.4798
  79   2.0000      -8.053514      -219.1473
  80   2.0000      -6.625888      -180.2996
  81   2.0000      -6.611332      -179.9035
  82   2.0000      -6.611136      -179.8982
  83   2.0000      -6.087787      -165.6571
  84   2.0000      -6.080018      -165.4457
  85   2.0000      -6.078430      -165.4025
  86   2.0000      -6.036929      -164.2732
  87   2.0000      -6.035340      -164.2299
  88   2.0000      -6.032645      -164.1566
  89   2.0000      -6.031246      -164.1185
  90   2.0000      -6.028444      -164.0423
  91   2.0000      -6.026996      -164.0029
  92   2.0000      -6.023207      -163.8998
  93   2.0000      -6.018727      -163.7779
  94   2.0000      -6.015047      -163.6777
  95   2.0000      -2.741761       -74.6071
  96   2.0000      -2.737680       -74.4961
  97   2.0000      -2.737527       -74.4919
  98   2.0000      -2.725975       -74.1775
  99   2.0000      -2.725947       -74.1768
 100   2.0000      -1.125610       -30.6294
 101   2.0000      -1.124899       -30.6101
 102   2.0000      -1.097394       -29.8616
 103   2.0000      -1.064818       -28.9752
 104   2.0000      -1.023783       -27.8585
 105   2.0000      -1.017548       -27.6889
 106   2.0000      -1.015027       -27.6203
 107   2.0000      -1.010688       -27.5022
 108   2.0000      -1.007768       -27.4228
 109   2.0000      -0.993872       -27.0446
 110   2.0000      -0.991641       -26.9839
 111   2.0000      -0.987922       -26.8827
 112   2.0000      -0.985443       -26.8153
 113   2.0000      -0.983101       -26.7515
 114   2.0000      -0.982942       -26.7472
 115   2.0000      -0.978639       -26.6301
 116   2.0000      -0.962199       -26.1828
 117   2.0000      -0.956357       -26.0238
 118   2.0000      -0.937712       -25.5164
 119   2.0000      -0.925579       -25.1863
 120   2.0000      -0.905249       -24.6331
 121   2.0000      -0.903830       -24.5945
 122   2.0000      -0.902458       -24.5571
 123   2.0000      -0.890374       -24.2283
 124   2.0000      -0.889458       -24.2034
 125   2.0000      -0.888002       -24.1638
 126   2.0000      -0.881284       -23.9810
 127   2.0000      -0.875347       -23.8194
 128   2.0000      -0.870641       -23.6913
 129   2.0000      -0.860998       -23.4289
 130   2.0000      -0.856616       -23.3097
 131   2.0000      -0.839649       -22.8480
 132   2.0000      -0.836539       -22.7634
 133   2.0000      -0.830118       -22.5887
 134   2.0000      -0.824230       -22.4284
 135   2.0000      -0.823185       -22.4000
 136   2.0000      -0.812662       -22.1137
 137   2.0000      -0.809973       -22.0405
 138   2.0000      -0.785175       -21.3657
 139   2.0000      -0.773432       -21.0462
 140   2.0000      -0.772460       -21.0197
 141   2.0000      -0.769959       -20.9516
 142   2.0000      -0.757131       -20.6026
 143   2.0000      -0.752484       -20.4761
 144   2.0000      -0.735559       -20.0156
 145   2.0000      -0.723996       -19.7009
 146   2.0000      -0.716422       -19.4948
 147   2.0000      -0.714966       -19.4552
 148   2.0000      -0.699920       -19.0458
 149   2.0000      -0.692085       -18.8326
 150   2.0000      -0.691586       -18.8190
 151   2.0000      -0.686434       -18.6788
 152   2.0000      -0.684654       -18.6304
 153   2.0000      -0.681726       -18.5507
 154   2.0000      -0.667993       -18.1770
 155   2.0000      -0.665112       -18.0986
 156   2.0000      -0.664724       -18.0881
 157   2.0000      -0.656590       -17.8667
 158   2.0000      -0.650564       -17.7027
 159   2.0000      -0.649661       -17.6782
 160   2.0000      -0.646418       -17.5899
 161   2.0000      -0.638066       -17.3627
 162   2.0000      -0.632514       -17.2116
 163   2.0000      -0.624615       -16.9966
 164   2.0000      -0.618573       -16.8322
 165   2.0000      -0.614246       -16.7145
 166   2.0000      -0.610879       -16.6229
 167   2.0000      -0.606657       -16.5080
 168   2.0000      -0.603415       -16.4198
 169   2.0000      -0.602393       -16.3919
 170   2.0000      -0.598409       -16.2835
 171   2.0000      -0.594771       -16.1845
 172   2.0000      -0.584717       -15.9110
 173   2.0000      -0.582840       -15.8599
 174   2.0000      -0.575570       -15.6621
 175   2.0000      -0.564552       -15.3622
 176   2.0000      -0.559713       -15.2306
 177   2.0000      -0.559647       -15.2288
 178   2.0000      -0.553420       -15.0593
 179   2.0000      -0.551056       -14.9950
 180   2.0000      -0.545642       -14.8477
 181   2.0000      -0.542610       -14.7652
 182   2.0000      -0.539621       -14.6838
 183   2.0000      -0.533601       -14.5200
 184   2.0000      -0.532894       -14.5008
 185   2.0000      -0.529689       -14.4136
 186   2.0000      -0.527781       -14.3617
 187   2.0000      -0.524257       -14.2658
 188   2.0000      -0.522118       -14.2075
 189   2.0000      -0.520612       -14.1666
 190   2.0000      -0.519198       -14.1281
 191   2.0000      -0.515829       -14.0364
 192   2.0000      -0.512640       -13.9497
 193   2.0000      -0.512244       -13.9389
 194   2.0000      -0.508492       -13.8368
 195   2.0000      -0.503042       -13.6885
 196   2.0000      -0.502391       -13.6708
 197   2.0000      -0.498326       -13.5601
 198   2.0000      -0.495923       -13.4947
 199   2.0000      -0.491171       -13.3654
 200   2.0000      -0.490108       -13.3365
 201   2.0000      -0.488074       -13.2812
 202   2.0000      -0.486944       -13.2504
 203   2.0000      -0.486041       -13.2258
 204   2.0000      -0.484808       -13.1923
 205   2.0000      -0.479737       -13.0543
 206   2.0000      -0.476452       -12.9649
 207   2.0000      -0.474623       -12.9151
 208   2.0000      -0.473010       -12.8713
 209   2.0000      -0.472080       -12.8459
 210   2.0000      -0.465858       -12.6766
 211   2.0000      -0.463799       -12.6206
 212   2.0000      -0.462640       -12.5891
 213   2.0000      -0.462057       -12.5732
 214   2.0000      -0.459248       -12.4968
 215   2.0000      -0.453258       -12.3338
 216   2.0000      -0.452352       -12.3091
 217   2.0000      -0.443450       -12.0669
 218   2.0000      -0.443017       -12.0551
 219   2.0000      -0.442328       -12.0364
 220   2.0000      -0.441872       -12.0240
 221   2.0000      -0.440294       -11.9810
 222   2.0000      -0.437337       -11.9006
 223   2.0000      -0.437180       -11.8963
 224   2.0000      -0.434607       -11.8263
 225   2.0000      -0.434212       -11.8155
 226   2.0000      -0.433854       -11.8058
 227   2.0000      -0.430247       -11.7076
 228   2.0000      -0.424951       -11.5635
 229   2.0000      -0.422402       -11.4941
 230   2.0000      -0.420775       -11.4499
 231   2.0000      -0.418773       -11.3954
 232   2.0000      -0.417510       -11.3610
 233   2.0000      -0.415669       -11.3109
 234   2.0000      -0.408251       -11.1091
 235   2.0000      -0.406552       -11.0628
 236   2.0000      -0.403423       -10.9777
 237   2.0000      -0.397723       -10.8226
 238   2.0000      -0.391531       -10.6541
 239   2.0000      -0.391199       -10.6451
 240   2.0000      -0.388125       -10.5614
 241   2.0000      -0.387858       -10.5542
 242   2.0000      -0.382822       -10.4171
 243   2.0000      -0.380934       -10.3657
 244   2.0000      -0.371893       -10.1197
 245   2.0000      -0.369032       -10.0419
 246   2.0000      -0.362509        -9.8644
 247   2.0000      -0.360056        -9.7976
 248   2.0000      -0.354111        -9.6358
 249   2.0000      -0.352612        -9.5951
 250   2.0000      -0.350516        -9.5380
 251   2.0000      -0.338477        -9.2104
 252   2.0000      -0.334762        -9.1093
 253   2.0000      -0.334035        -9.0896
 254   2.0000      -0.332266        -9.0414
 255   2.0000      -0.325544        -8.8585
 256   2.0000      -0.319166        -8.6850
 257   2.0000      -0.311239        -8.4692
 258   2.0000      -0.309826        -8.4308
 259   2.0000      -0.304913        -8.2971
 260   2.0000      -0.292558        -7.9609
 261   2.0000      -0.288406        -7.8479
 262   2.0000      -0.284813        -7.7501
 263   2.0000      -0.257552        -7.0083
 264   2.0000      -0.208854        -5.6832
 265   0.0000      -0.125095        -3.4040
 266   0.0000      -0.117748        -3.2041
 267   0.0000      -0.076806        -2.0900
 268   0.0000      -0.069962        -1.9038
 269   0.0000      -0.044085        -1.1996

MULLIKEN ATOMIC CHARGES
-----------------------
   0 C :    0.320756
   1 C :   -0.340831
   2 C :   -0.187323
   3 N :    0.155718
   4 C :   -0.190640
   5 N :    0.166636
   6 C :    0.012084
   7 C :   -0.012405
   8 C :   -0.064771
   9 C :    0.115903
  10 C :   -0.088735
  11 C :   -0.015387
  12 S :    0.187075
  13 C :   -0.124124
  14 C :    0.042074
  15 Br:    0.021704
  16 C :    0.155820
  17 O :   -0.132313
  18 C :   -0.062497
  19 C :    0.021311
  20 C :   -0.040286
  21 N :   -0.094002
  22 C :    0.081929
  23 C :   -0.037453
  24 C :    0.067000
  25 N :   -0.059312
  26 C :   -0.011417
  27 C :   -0.038071
  28 C :    0.056879
  29 C :   -0.041228
  30 C :   -0.062008
  31 N :    0.049452
  32 C :   -0.156728
  33 C :   -0.134798
  34 N :    0.045985
  35 C :   -0.210650
  36 N :    0.233138
  37 C :   -0.218464
  38 N :    0.221103
  39 C :    0.122615
  40 C :    0.038654
  41 C :    0.032512
  42 N :   -0.300253
  43 S :    0.499871
  44 N :   -0.330093
  45 C :   -0.137979
  46 C :    0.021073
  47 C :    0.015857
  48 C :    0.041211
  49 C :   -0.045781
  50 S :    0.134569
  51 C :   -0.011180
  52 C :    0.016990
  53 C :    0.052331
  54 C :   -0.044114
  55 S :    0.069815
  56 C :    0.021022
  57 C :    0.038884
  58 C :   -0.018463
  59 C :    0.034344
  60 C :    0.016006
  61 C :    0.055620
  62 C :   -0.010035
  63 C :    0.055438
  64 C :   -0.000932
  65 C :    0.035601
  66 C :    0.020523
  67 C :    0.055076
  68 C :   -0.018492
  69 C :    0.011490
  70 C :   -0.018748
  71 H :   -0.012190
  72 H :   -0.006068
  73 H :   -0.005507
  74 H :    0.051337
  75 H :    0.001086
  76 H :   -0.014241
  77 H :   -0.012808
  78 H :    0.005543
  79 H :    0.004947
  80 H :   -0.002403
  81 H :   -0.011305
  82 H :   -0.007589
  83 H :   -0.004265
  84 H :   -0.011716
  85 H :   -0.002807
  86 H :   -0.016144
  87 H :   -0.015539
  88 H :   -0.013613
  89 H :   -0.015851
  90 H :   -0.019055
  91 H :   -0.013836
  92 H :    0.009690
  93 H :    0.027773
Sum of atomic charges:   -0.0000000

LOEWDIN ATOMIC CHARGES
----------------------
   0 C :    0.076948
   1 C :   -0.127059
   2 C :   -0.016407
   3 N :   -0.048445
   4 C :   -0.019188
   5 N :   -0.040437
   6 C :   -0.020317
   7 C :   -0.049124
   8 C :    0.022613
   9 C :   -0.031144
  10 C :   -0.142761
  11 C :   -0.007541
  12 S :    0.432989
  13 C :   -0.271130
  14 C :   -0.070779
  15 Br:    0.136122
  16 C :    0.088285
  17 O :   -0.124593
  18 C :   -0.069549
  19 C :    0.089647
  20 C :    0.019655
  21 N :   -0.098779
  22 C :    0.048632
  23 C :   -0.061682
  24 C :    0.044829
  25 N :   -0.080329
  26 C :   -0.051667
  27 C :    0.024994
  28 C :   -0.079161
  29 C :    0.007170
  30 C :   -0.016488
  31 N :   -0.002354
  32 C :   -0.056406
  33 C :   -0.023625
  34 N :   -0.011481
  35 C :   -0.032507
  36 N :   -0.012774
  37 C :   -0.039461
  38 N :   -0.027833
  39 C :   -0.021908
  40 C :   -0.042743
  41 C :   -0.027807
  42 N :   -0.291587
  43 S :    0.619928
  44 N :   -0.290975
  45 C :   -0.045025
  46 C :   -0.124658
  47 C :   -0.041300
  48 C :   -0.020025
  49 C :   -0.212397
  50 S :    0.453924
  51 C :   -0.141495
  52 C :   -0.050093
  53 C :   -0.005294
  54 C :   -0.172968
  55 S :    0.404926
  56 C :   -0.001408
  57 C :   -0.078088
  58 C :    0.032959
  59 C :   -0.063421
  60 C :    0.084166
  61 C :   -0.061858
  62 C :    0.038816
  63 C :   -0.058341
  64 C :    0.066785
  65 C :   -0.067786
  66 C :    0.093251
  67 C :   -0.069774
  68 C :    0.040762
  69 C :   -0.023466
  70 C :   -0.043678
  71 H :    0.040642
  72 H :    0.041299
  73 H :    0.038159
  74 H :    0.051500
  75 H :    0.024106
  76 H :    0.031038
  77 H :    0.021572
  78 H :    0.034055
  79 H :    0.041490
  80 H :    0.036470
  81 H :    0.031859
  82 H :    0.034814
  83 H :    0.036905
  84 H :    0.040392
  85 H :    0.015124
  86 H :    0.038943
  87 H :    0.029351
  88 H :    0.029447
  89 H :    0.038823
  90 H :    0.027665
  91 H :    0.031400
  92 H :    0.018760
  93 H :    0.027904

  Mayer bond orders larger than 0.100000
B(  0-C ,  1-C ) :   1.6701 B(  0-C ,  6-C ) :   1.0174 B(  0-C , 18-C ) :   1.0137
B(  1-C ,  2-C ) :   1.1353 B(  1-C ,  4-C ) :   1.1455 B(  2-C ,  3-N ) :   2.9754
B(  4-C ,  5-N ) :   2.9804 B(  6-C ,  7-C ) :   1.2758 B(  6-C , 11-C ) :   1.3982
B(  7-C ,  8-C ) :   1.4219 B(  7-C , 16-C ) :   0.9405 B(  8-C ,  9-C ) :   1.2520
B(  8-C , 71-H ) :   1.0158 B(  9-C , 10-C ) :   1.3000 B(  9-C , 14-C ) :   1.1624
B( 10-C , 11-C ) :   1.3422 B( 10-C , 12-S ) :   1.0835 B( 11-C , 72-H ) :   0.9792
B( 12-S , 13-C ) :   1.0873 B( 13-C , 14-C ) :   1.6180 B( 13-C , 15-Br) :   1.0174
B( 14-C , 73-H ) :   1.0001 B( 16-C , 17-O ) :   2.2382 B( 16-C , 18-C ) :   0.9129
B( 18-C , 19-C ) :   1.8629 B( 19-C , 20-C ) :   0.9243 B( 19-C , 74-H ) :   0.9306
B( 20-C , 21-N ) :   1.5060 B( 20-C , 25-N ) :   1.5259 B( 21-N , 22-C ) :   1.5150
B( 22-C , 23-C ) :   1.3946 B( 22-C , 75-H ) :   0.9799 B( 23-C , 24-C ) :   1.3164
B( 23-C , 76-H ) :   0.9748 B( 24-C , 25-N ) :   1.4955 B( 24-C , 26-C ) :   1.0749
B( 26-C , 27-C ) :   1.6281 B( 26-C , 77-H ) :   0.9609 B( 27-C , 28-C ) :   1.1558
B( 27-C , 78-H ) :   0.9671 B( 28-C , 29-C ) :   1.2428 B( 28-C , 39-C ) :   0.1021
B( 28-C , 41-C ) :   1.1761 B( 29-C , 30-C ) :   1.1185 B( 29-C , 34-N ) :   1.4469
B( 30-C , 31-N ) :   1.5267 B( 30-C , 39-C ) :   1.1397 B( 31-N , 32-C ) :   1.6642
B( 32-C , 33-C ) :   1.2403 B( 32-C , 37-C ) :   1.1621 B( 33-C , 34-N ) :   1.7326
B( 33-C , 35-C ) :   1.1515 B( 35-C , 36-N ) :   3.0547 B( 37-C , 38-N ) :   3.0440
B( 39-C , 40-C ) :   1.1180 B( 39-C , 45-C ) :   1.3849 B( 40-C , 41-C ) :   1.1181
B( 40-C , 44-N ) :   1.5058 B( 41-C , 42-N ) :   1.5242 B( 42-N , 43-S ) :   1.2309
B( 42-N , 44-N ) :   0.1326 B( 43-S , 44-N ) :   1.2324 B( 45-C , 46-C ) :   1.3467
B( 45-C , 79-H ) :   0.9425 B( 46-C , 47-C ) :   1.2203 B( 46-C , 50-S ) :   1.1044
B( 47-C , 48-C ) :   1.4980 B( 47-C , 80-H ) :   1.0029 B( 48-C , 49-C ) :   1.2534
B( 48-C , 81-H ) :   0.9942 B( 49-C , 50-S ) :   1.0249 B( 49-C , 51-C ) :   1.3934
B( 51-C , 52-C ) :   1.2387 B( 51-C , 55-S ) :   1.0931 B( 52-C , 53-C ) :   1.5298
B( 52-C , 82-H ) :   0.9955 B( 53-C , 54-C ) :   1.1822 B( 53-C , 83-H ) :   0.9996
B( 54-C , 55-S ) :   1.0229 B( 54-C , 56-C ) :   1.5114 B( 56-C , 57-C ) :   1.1792
B( 56-C , 84-H ) :   0.9702 B( 57-C , 58-C ) :   1.1610 B( 57-C , 68-C ) :   1.3441
B( 58-C , 59-C ) :   1.4269 B( 58-C , 85-H ) :   0.9900 B( 59-C , 60-C ) :   1.1501
B( 59-C , 67-C ) :   1.1395 B( 60-C , 61-C ) :   1.4249 B( 60-C , 86-H ) :   1.0040
B( 61-C , 62-C ) :   1.1218 B( 61-C , 65-C ) :   1.1253 B( 62-C , 63-C ) :   1.4405
B( 62-C , 87-H ) :   1.0168 B( 63-C , 64-C ) :   1.2092 B( 63-C , 69-C ) :   1.0794
B( 64-C , 65-C ) :   1.3451 B( 64-C , 88-H ) :   1.0087 B( 65-C , 66-C ) :   1.2141
B( 66-C , 67-C ) :   1.3350 B( 66-C , 89-H ) :   1.0040 B( 67-C , 68-C ) :   1.1901
B( 68-C , 90-H ) :   1.0183 B( 69-C , 70-C ) :   1.9394 B( 69-C , 91-H ) :   0.9669
B( 70-C , 92-H ) :   0.9538 B( 70-C , 93-H ) :   0.9495

-----------------------------------------------------------------------------
         ABSORPTION SPECTRUM VIA TRANSITION ELECTRIC DIPOLE MOMENTS
-----------------------------------------------------------------------------
State   Energy  Wavelength   fosc         T2         TX        TY        TZ
        (cm-1)    (nm)                  (au**2)     (au)      (au)      (au)
-----------------------------------------------------------------------------
   0    4501.3   2221.6   0.032584691   2.38313  -0.79895  -0.36017  -1.27086
   1    6083.8   1643.7   0.426747560  23.09252   2.02171   0.24692   4.35250
   2   11668.4    857.0   0.011841783   0.33410  -0.04397   0.29196  -0.49692
   3   16073.9    622.1   0.318016624   6.51336   1.55956   1.52519   1.32474
   4   16413.8    609.2   0.577098638  11.57490   2.10064   2.55497   0.79644
   5   17999.5    555.6   0.002380028   0.04353   0.00646  -0.19064  -0.08454
   6   21178.6    472.2   0.049702001   0.77260   0.45148   0.13852   0.74133
   7   21741.7    459.9   0.040380099   0.61143   0.33434   0.66443  -0.24121
   8   22805.7    438.5   0.344651211   4.97521  -0.85568  -1.96733   0.61045
   9   23118.6    432.6   0.151108486   2.15181   0.61882   1.29082   0.32039
  10   23329.6    428.6   0.042999527   0.60678   0.32130   0.69406   0.14773
  11   23746.1    421.1   0.002092719   0.02901  -0.04776   0.15272   0.05837
  12   24142.0    414.2   0.025918992   0.35344   0.43033   0.40390   0.07155
  13   25297.9    395.3   0.968025521  12.59729   1.40645   2.83209  -1.61198
  14   26971.9    370.8   0.353276338   4.31199   0.72922   1.56929  -1.14785
  15   27231.5    367.2   0.195907761   2.36840   0.41378   1.09845  -0.99528
  16   27406.4    364.9   0.003522898   0.04232  -0.14949   0.12075  -0.07341
  17   27595.9    362.4   0.084247076   1.00505   0.06088   0.73810  -0.67569
  18   27867.5    358.8   0.005632510   0.06654   0.08120  -0.08618   0.22917
  19   28157.2    355.1   0.039645445   0.46353   0.39033   0.53085   0.17138
  20   28520.1    350.6   0.134265261   1.54984   0.78361   0.91439  -0.31573
  21   29034.9    344.4   0.191515609   2.17149   1.30830  -0.42560   0.52793
  22   29277.9    341.6   0.275034950   3.09259  -0.94505   1.46412  -0.23627
  23   29411.6    340.0   0.092502275   1.03540  -0.91343  -0.11396  -0.43367
  24   29674.5    337.0   0.031123323   0.34529  -0.48515   0.08239   0.32114
  25   29733.4    336.3   0.009783267   0.10832   0.31025   0.04271  -0.10120
  26   30322.6    329.8   0.034000500   0.36914  -0.03703  -0.24131  -0.55636
  27   30354.5    329.4   0.017628981   0.19120  -0.38630   0.16238  -0.12491
  28   31004.8    322.5   0.062451176   0.66311  -0.55979   0.16678  -0.56739
  29   31179.2    320.7   0.007693001   0.08123   0.15041   0.24191   0.00930
  30   31408.0    318.4   0.467160170   4.89667   0.75545   1.51166   1.42858
  31   31555.4    316.9   0.078091603   0.81472  -0.39734  -0.47706  -0.65517
  32   31676.7    315.7   0.009995368   0.10388  -0.28124   0.05900  -0.14597
  33   32126.3    311.3   0.024714211   0.25326   0.13032   0.27822  -0.39858
  34   32139.8    311.1   0.002314405   0.02371  -0.12331  -0.08405  -0.03790
  35   32534.6    307.4   0.047071284   0.47631   0.20892   0.40643  -0.51718
  36   33053.4    302.5   0.010932873   0.10889  -0.04358  -0.27743   0.17328
  37   33588.1    297.7   0.079614606   0.78034   0.05329   0.30389  -0.82774
  38   33725.6    296.5   0.045032936   0.43959   0.18400   0.49418  -0.40190
  39   34054.8    293.6   0.003142762   0.03038  -0.06535  -0.14410   0.07312
  40   34192.6    292.5   0.007775446   0.07486  -0.09105  -0.20421   0.15771
  41   34466.5    290.1   0.186855135   1.78477  -0.71570   0.15077  -1.11795
  42   34605.6    289.0   0.065424078   0.62240   0.55683   0.55551  -0.06112
  43   34643.9    288.7   0.192423201   1.82855   0.41430   1.16774  -0.54155
  44   34932.8    286.3   0.332427136   3.13284   1.51618  -0.58405   0.70208
  45   35075.0    285.1   0.038632736   0.36261  -0.42871   0.19295  -0.37627
  46   35140.3    284.6   0.031237020   0.29264   0.36425  -0.20002   0.34635
  47   35301.7    283.3   0.094267780   0.87911   0.40864   0.76682   0.35231
  48   35515.4    281.6   0.020265160   0.18785  -0.22112   0.15688   0.33815
  49   35649.7    280.5   0.036805369   0.33988   0.21478   0.48330   0.24530
  50   35715.1    280.0   0.032541560   0.29996   0.29397   0.46177  -0.01757
  51   36174.5    276.4   0.004381774   0.03988  -0.07929  -0.12921   0.12998
  52   36351.1    275.1   0.002398303   0.02172  -0.09231  -0.11450  -0.00940
  53   36612.6    273.1   0.301904063   2.71465   0.86956   1.31190   0.48727
  54   36751.6    272.1   0.155778922   1.39543   0.01870   1.04141   0.55726
  55   36861.2    271.3   0.076468011   0.68295  -0.29418   0.26507   0.72536
  56   36959.7    270.6   0.042563492   0.37913   0.36138   0.35955   0.34533
  57   37132.2    269.3   0.008132611   0.07210  -0.14601  -0.22527   0.00638
  58   37456.9    267.0   0.005880623   0.05169   0.10385   0.11501   0.16635
  59   37898.2    263.9   0.009481916   0.08237  -0.13854   0.15162  -0.20047
  60   37970.2    263.4   0.009120273   0.07908   0.06179   0.26391   0.07491
  61   38080.8    262.6   0.009496169   0.08210   0.24180   0.09785  -0.11855
  62   38416.5    260.3   0.004094581   0.03509  -0.01349   0.03871  -0.18278
  63   38583.5    259.2   0.001817457   0.01551  -0.10523  -0.05659   0.03510
  64   38938.8    256.8   0.074737923   0.63188  -0.19769  -0.50368   0.58233
  65   39109.9    255.7   0.004165560   0.03506  -0.02656  -0.05027  -0.17841
  66   39128.9    255.6   0.000755020   0.00635   0.00688   0.02048  -0.07672
  67   39171.0    255.3   0.001095596   0.00921  -0.03625  -0.03636  -0.08107
  68   39402.2    253.8   0.006051335   0.05056   0.05618   0.21731   0.01349
  69   39540.2    252.9   0.099228276   0.82617   0.52162   0.73065  -0.14230
  70   39872.7    250.8   0.002177201   0.01798   0.08306   0.02664   0.10182
  71   39929.3    250.4   0.118252946   0.97498   0.74029  -0.61232  -0.22807

FINAL SINGLE POINT ENERGY     -6894.990716677260

DIPOLE MOMENT
-------------
                                X             Y             Z
Electronic contribution:    -44.27199      59.50059     130.95649
Nuclear contribution   :     39.55303     -61.18532    -140.93210
                        -----------------------------------------
Total Dipole Moment    :     -4.71896      -1.68473      -9.97561
                        -----------------------------------------
Magnitude (a.u.)       :     11.16332
Magnitude (Debye)      :     28.37491

Rotational constants in cm-1:     0.000773     0.000338     0.000297
Rotational constants in MHz :    23.186929    10.145772     8.918178

                             ****ORCA TERMINATED NORMALLY****
TOTAL RUN TIME: 0 days 0 hours 10 minutes 13 seconds 476 msec
