                         Program Version 4.2.0 -  RELEASE  -
|  1> # ORCA input file
|  2> # SCF done       -175.272235141510          0.000332103577
|  3> ! CAM-B3LYP def2-SVP def2/J RIJCOSX Grid4 TightSCF
|  4> %maxcore 5000
|  5> %tddft
|  6>     Mode sTDDFT
|  7>     Ethresh 5.0
|  8>     maxcore 5000
|  9> end
| 10>
| 11> %pal
| 12>   nprocs 6
| 13>   end
| 14> * xyz 0 1
| 15>    C      -20.11763        -8.30512        -3.97714
| 16>    C      -18.89901        -8.94247        -3.90034
| 17>    C      -18.66092       -10.25080        -4.36360
| 18>    N      -18.39471       -11.31082        -4.71891
| 19>    C      -17.71667        -8.40487        -3.35580
| 20>    N      -16.70565        -8.05335        -2.93576
| 21>    C      -21.33230        -8.88766        -4.54654
| 22>    C      -22.38046        -7.94179        -4.44123
| 23>    C      -23.65270        -8.19194        -4.89098
| 24>    C      -23.90543        -9.43838        -5.47564
| 25>    C      -22.85289       -10.37615        -5.57695
| 26>    C      -21.56438       -10.12236        -5.12052
| 27>    S      -23.38040       -11.85044        -6.33245
| 28>    C      -24.98668       -11.19322        -6.49912
| 29>    C      -25.12353        -9.93656        -6.01515
| 30>   Br      -26.33221       -12.22959        -7.29722
| 31>    C      -21.86378        -6.71413        -3.79695
| 32>    O      -22.50287        -5.70768        -3.55522
| 33>    C      -20.43990        -6.97826        -3.52474
| 34>    C      -19.57240        -6.07777        -2.93558
| 35>    C      -19.90641        -4.80049        -2.50417
| 36>    C      -18.98097        -3.94482        -1.93226
| 37>    C      -19.20832        -2.63308        -1.46240
| 38>    C      -18.09796        -2.02195        -0.95170
| 39>    C      -16.94187        -2.82571        -0.99534
| 40>    S      -17.30483        -4.38385        -1.70177
| 41>    C      -15.65755        -2.52101        -0.57303
| 42>    C      -15.17636        -1.32538         0.00229
| 43>    C      -13.84594        -1.35593         0.29577
| 44>    C      -13.19999        -2.57580        -0.02970
| 45>    S      -14.36798        -3.68500        -0.72416
| 46>    C      -11.86593        -2.84146         0.15838
| 47>    C      -11.16800        -4.02331        -0.14697
| 48>    C      -11.61152        -5.22281        -0.66402
| 49>    C      -10.59546        -6.17733        -0.83990
| 50>    C       -9.31511        -5.69106        -0.44357
| 51>    S       -9.42747        -4.05743         0.14688
| 52>    C       -8.17472        -6.44976        -0.54046
| 53>    C       -8.29112        -7.74945        -1.04841
| 54>    C       -9.57453        -8.23812        -1.43403
| 55>    C      -10.71458        -7.47998        -1.33972
| 56>    S       -9.46907        -9.87193        -2.02173
| 57>    C       -7.72511        -9.89499        -1.76846
| 58>    C       -7.27405        -8.70013        -1.25005
| 59>    C       -7.03310       -11.07289        -2.10981
| 60>    C       -5.68392       -11.30908        -2.07207
| 61>    C       -5.06681       -12.53508        -2.43829
| 62>    C       -3.71082       -12.53645        -2.34244
| 63>    C       -3.16748       -11.30911        -1.89671
| 64>    S       -4.44999       -10.15644        -1.59377
| 65>    C       -1.83914       -10.98754        -1.71066
| 66>    C       -0.70939       -11.81667        -1.90611
| 67>    C        0.47487       -11.20468        -1.64199
| 68>    C        0.35410        -9.85248        -1.22393
| 69>    S       -1.33900        -9.39434        -1.17648
| 70>    C        1.39099        -9.01878        -0.90574
| 71>    C        1.31377        -7.67375        -0.50277
| 72>    S       -0.16665        -6.74565        -0.32837
| 73>    C        0.64188        -5.30887         0.15325
| 74>    C        2.00271        -5.50551         0.18915
| 75>    C        2.36773        -6.83507        -0.18026
| 76>    O        3.70590        -6.99922        -0.13554
| 77>    C        4.19871        -5.79296         0.25704
| 78>    N        5.60246        -5.66964         0.39314
| 79>    O        6.01780        -4.58036         0.74153
| 80>    O        6.28477        -6.64286         0.15766
| 81>    C        3.23190        -4.84753         0.46976
| 82>    H      -24.43024        -7.45015        -4.79645
| 83>    H      -20.79751       -10.87171        -5.22216
| 84>    H      -26.04375        -9.38175        -6.03658
| 85>    H      -18.54217        -6.38219        -2.79578
| 86>    H      -20.92284        -4.45282        -2.61748
| 87>    H      -20.18265        -2.18097        -1.51615
| 88>    H      -18.08621        -1.02436        -0.55046
| 89>    H      -15.81710        -0.48079         0.18048
| 90>    H      -13.30265        -0.53844         0.73599
| 91>    H      -11.27647        -2.04048         0.58647
| 92>    H      -12.63713        -5.42448        -0.91089
| 93>    H       -7.21292        -6.06601        -0.23986
| 94>    H      -11.67670        -7.86276        -1.63997
| 95>    H       -6.24407        -8.50782        -1.01245
| 96>    H       -7.64760       -11.89361        -2.45758
| 97>    H       -5.65457       -13.37541        -2.76293
| 98>    H       -3.08810       -13.37899        -2.58291
| 99>    H       -0.80382       -12.83617        -2.23362
|100>    H        1.43856       -11.67320        -1.73357
|101>    H        2.39406        -9.42021        -0.96811
|102>    H        0.07879        -4.42664         0.37535
|103>    H        3.39707        -3.83713         0.78117
|104> *
|105>
|106>                          ****END OF INPUT****

CARTESIAN COORDINATES (ANGSTROEM)
---------------------------------
  C    -20.117630   -8.305120   -3.977140
  C    -18.899010   -8.942470   -3.900340
  C    -18.660920  -10.250800   -4.363600
  N    -18.394710  -11.310820   -4.718910
  C    -17.716670   -8.404870   -3.355800
  N    -16.705650   -8.053350   -2.935760
  C    -21.332300   -8.887660   -4.546540
  C    -22.380460   -7.941790   -4.441230
  C    -23.652700   -8.191940   -4.890980
  C    -23.905430   -9.438380   -5.475640
  C    -22.852890  -10.376150   -5.576950
  C    -21.564380  -10.122360   -5.120520
  S    -23.380400  -11.850440   -6.332450
  C    -24.986680  -11.193220   -6.499120
  C    -25.123530   -9.936560   -6.015150
  Br   -26.332210  -12.229590   -7.297220
  C    -21.863780   -6.714130   -3.796950
  O    -22.502870   -5.707680   -3.555220
  C    -20.439900   -6.978260   -3.524740
  C    -19.572400   -6.077770   -2.935580
  C    -19.906410   -4.800490   -2.504170
  C    -18.980970   -3.944820   -1.932260
  C    -19.208320   -2.633080   -1.462400
  C    -18.097960   -2.021950   -0.951700
  C    -16.941870   -2.825710   -0.995340
  S    -17.304830   -4.383850   -1.701770
  C    -15.657550   -2.521010   -0.573030
  C    -15.176360   -1.325380    0.002290
  C    -13.845940   -1.355930    0.295770
  C    -13.199990   -2.575800   -0.029700
  S    -14.367980   -3.685000   -0.724160
  C    -11.865930   -2.841460    0.158380
  C    -11.168000   -4.023310   -0.146970
  C    -11.611520   -5.222810   -0.664020
  C    -10.595460   -6.177330   -0.839900
  C     -9.315110   -5.691060   -0.443570
  S     -9.427470   -4.057430    0.146880
  C     -8.174720   -6.449760   -0.540460
  C     -8.291120   -7.749450   -1.048410
  C     -9.574530   -8.238120   -1.434030
  C    -10.714580   -7.479980   -1.339720
  S     -9.469070   -9.871930   -2.021730
  C     -7.725110   -9.894990   -1.768460
  C     -7.274050   -8.700130   -1.250050
  C     -7.033100  -11.072890   -2.109810
  C     -5.683920  -11.309080   -2.072070
  C     -5.066810  -12.535080   -2.438290
  C     -3.710820  -12.536450   -2.342440
  C     -3.167480  -11.309110   -1.896710
  S     -4.449990  -10.156440   -1.593770
  C     -1.839140  -10.987540   -1.710660
  C     -0.709390  -11.816670   -1.906110
  C      0.474870  -11.204680   -1.641990
  C      0.354100   -9.852480   -1.223930
  S     -1.339000   -9.394340   -1.176480
  C      1.390990   -9.018780   -0.905740
  C      1.313770   -7.673750   -0.502770
  S     -0.166650   -6.745650   -0.328370
  C      0.641880   -5.308870    0.153250
  C      2.002710   -5.505510    0.189150
  C      2.367730   -6.835070   -0.180260
  O      3.705900   -6.999220   -0.135540
  C      4.198710   -5.792960    0.257040
  N      5.602460   -5.669640    0.393140
  O      6.017800   -4.580360    0.741530
  O      6.284770   -6.642860    0.157660
  C      3.231900   -4.847530    0.469760
  H    -24.430240   -7.450150   -4.796450
  H    -20.797510  -10.871710   -5.222160
  H    -26.043750   -9.381750   -6.036580
  H    -18.542170   -6.382190   -2.795780
  H    -20.922840   -4.452820   -2.617480
  H    -20.182650   -2.180970   -1.516150
  H    -18.086210   -1.024360   -0.550460
  H    -15.817100   -0.480790    0.180480
  H    -13.302650   -0.538440    0.735990
  H    -11.276470   -2.040480    0.586470
  H    -12.637130   -5.424480   -0.910890
  H     -7.212920   -6.066010   -0.239860
  H    -11.676700   -7.862760   -1.639970
  H     -6.244070   -8.507820   -1.012450
  H     -7.647600  -11.893610   -2.457580
  H     -5.654570  -13.375410   -2.762930
  H     -3.088100  -13.378990   -2.582910
  H     -0.803820  -12.836170   -2.233620
  H      1.438560  -11.673200   -1.733570
  H      2.394060   -9.420210   -0.968110
  H      0.078790   -4.426640    0.375350
  H      3.397070   -3.837130    0.781170

 Total Charge           Charge          ....    0
 Multiplicity           Mult            ....    1
 Number of Electrons    NEL             ....  544
 Basis Dimension        Dim             .... 1098

ORBITAL ENERGIES
----------------

  NO   OCC          E(Eh)            E(eV)
   0   2.0000    -482.876411    -13139.7352
   1   2.0000     -88.979750     -2421.2621
   2   2.0000     -88.964800     -2420.8553
   3   2.0000     -88.963812     -2420.8284
   4   2.0000     -88.957696     -2420.6620
   5   2.0000     -88.954802     -2420.5832
   6   2.0000     -88.953707     -2420.5534
   7   2.0000     -88.951474     -2420.4927
   8   2.0000     -88.946000     -2420.3437
   9   2.0000     -62.554103     -1702.1837
  10   2.0000     -56.388042     -1534.3966
  11   2.0000     -56.385351     -1534.3234
  12   2.0000     -56.385312     -1534.3223
  13   2.0000     -19.312195      -525.5116
  14   2.0000     -19.245638      -523.7004
  15   2.0000     -19.243439      -523.6406
  16   2.0000     -19.198518      -522.4182
  17   2.0000     -14.657242      -398.8438
  18   2.0000     -14.400262      -391.8511
  19   2.0000     -14.397111      -391.7653
  20   2.0000     -10.389375      -282.7093
  21   2.0000     -10.349465      -281.6233
  22   2.0000     -10.348792      -281.6049
  23   2.0000     -10.347504      -281.5699
  24   2.0000     -10.335088      -281.2320
  25   2.0000     -10.325586      -280.9735
  26   2.0000     -10.323189      -280.9083
  27   2.0000     -10.322661      -280.8939
  28   2.0000     -10.321251      -280.8555
  29   2.0000     -10.321031      -280.8495
  30   2.0000     -10.320439      -280.8334
  31   2.0000     -10.319353      -280.8039
  32   2.0000     -10.317490      -280.7532
  33   2.0000     -10.316191      -280.7178
  34   2.0000     -10.315960      -280.7116
  35   2.0000     -10.315596      -280.7016
  36   2.0000     -10.314835      -280.6809
  37   2.0000     -10.313274      -280.6384
  38   2.0000     -10.311940      -280.6022
  39   2.0000     -10.309015      -280.5226
  40   2.0000     -10.308719      -280.5145
  41   2.0000     -10.306405      -280.4515
  42   2.0000     -10.305326      -280.4222
  43   2.0000     -10.305144      -280.4172
  44   2.0000     -10.304389      -280.3967
  45   2.0000     -10.301662      -280.3225
  46   2.0000     -10.301384      -280.3149
  47   2.0000     -10.301340      -280.3137
  48   2.0000     -10.300982      -280.3040
  49   2.0000     -10.297348      -280.2051
  50   2.0000     -10.296175      -280.1732
  51   2.0000     -10.293986      -280.1136
  52   2.0000     -10.293928      -280.1120
  53   2.0000     -10.293398      -280.0976
  54   2.0000     -10.292820      -280.0819
  55   2.0000     -10.292582      -280.0754
  56   2.0000     -10.291902      -280.0569
  57   2.0000     -10.290933      -280.0305
  58   2.0000     -10.290604      -280.0216
  59   2.0000     -10.289340      -279.9872
  60   2.0000     -10.286725      -279.9160
  61   2.0000     -10.286385      -279.9068
  62   2.0000     -10.286092      -279.8988
  63   2.0000     -10.285854      -279.8923
  64   2.0000     -10.284941      -279.8675
  65   2.0000     -10.283025      -279.8153
  66   2.0000     -10.281895      -279.7846
  67   2.0000     -10.276454      -279.6365
  68   2.0000     -10.274645      -279.5873
  69   2.0000     -10.273961      -279.5687
  70   2.0000     -10.272346      -279.5247
  71   2.0000      -8.783509      -239.0114
  72   2.0000      -8.074250      -219.7115
  73   2.0000      -8.060675      -219.3421
  74   2.0000      -8.059803      -219.3184
  75   2.0000      -8.053707      -219.1525
  76   2.0000      -8.050927      -219.0769
  77   2.0000      -8.049643      -219.0419
  78   2.0000      -8.047517      -218.9841
  79   2.0000      -8.042145      -218.8379
  80   2.0000      -6.619755      -180.1327
  81   2.0000      -6.605259      -179.7382
  82   2.0000      -6.605093      -179.7337
  83   2.0000      -6.043619      -164.4552
  84   2.0000      -6.039143      -164.3334
  85   2.0000      -6.036682      -164.2665
  86   2.0000      -6.030385      -164.0951
  87   2.0000      -6.029508      -164.0712
  88   2.0000      -6.026205      -163.9814
  89   2.0000      -6.025230      -163.9549
  90   2.0000      -6.023319      -163.9028
  91   2.0000      -6.021776      -163.8609
  92   2.0000      -6.021015      -163.8402
  93   2.0000      -6.020739      -163.8326
  94   2.0000      -6.019417      -163.7967
  95   2.0000      -6.019240      -163.7918
  96   2.0000      -6.017142      -163.7348
  97   2.0000      -6.016608      -163.7202
  98   2.0000      -6.015325      -163.6853
  99   2.0000      -6.014896      -163.6736
 100   2.0000      -6.013257      -163.6291
 101   2.0000      -6.011779      -163.5888
 102   2.0000      -6.011757      -163.5882
 103   2.0000      -6.010572      -163.5560
 104   2.0000      -6.008603      -163.5024
 105   2.0000      -6.007838      -163.4816
 106   2.0000      -6.003245      -163.3566
 107   2.0000      -2.735630       -74.4403
 108   2.0000      -2.731551       -74.3293
 109   2.0000      -2.731457       -74.3267
 110   2.0000      -2.719920       -74.0128
 111   2.0000      -2.719907       -74.0124
 112   2.0000      -1.328793       -36.1583
 113   2.0000      -1.232158       -33.5287
 114   2.0000      -1.145140       -31.1608
 115   2.0000      -1.111656       -30.2497
 116   2.0000      -1.012698       -27.5569
 117   2.0000      -1.008429       -27.4407
 118   2.0000      -1.005742       -27.3676
 119   2.0000      -1.001273       -27.2460
 120   2.0000      -0.998235       -27.1634
 121   2.0000      -0.997723       -27.1494
 122   2.0000      -0.989182       -26.9170
 123   2.0000      -0.981288       -26.7022
 124   2.0000      -0.977873       -26.6093
 125   2.0000      -0.974092       -26.5064
 126   2.0000      -0.973333       -26.4857
 127   2.0000      -0.938018       -25.5248
 128   2.0000      -0.929816       -25.3016
 129   2.0000      -0.923285       -25.1239
 130   2.0000      -0.908610       -24.7245
 131   2.0000      -0.903997       -24.5990
 132   2.0000      -0.894353       -24.3366
 133   2.0000      -0.891982       -24.2721
 134   2.0000      -0.884063       -24.0566
 135   2.0000      -0.876699       -23.8562
 136   2.0000      -0.872615       -23.7451
 137   2.0000      -0.871692       -23.7200
 138   2.0000      -0.864414       -23.5219
 139   2.0000      -0.862021       -23.4568
 140   2.0000      -0.854309       -23.2469
 141   2.0000      -0.839937       -22.8558
 142   2.0000      -0.837397       -22.7867
 143   2.0000      -0.835572       -22.7371
 144   2.0000      -0.829880       -22.5822
 145   2.0000      -0.828364       -22.5409
 146   2.0000      -0.815953       -22.2032
 147   2.0000      -0.811339       -22.0777
 148   2.0000      -0.796986       -21.6871
 149   2.0000      -0.787098       -21.4180
 150   2.0000      -0.781024       -21.2527
 151   2.0000      -0.775359       -21.0986
 152   2.0000      -0.760708       -20.6999
 153   2.0000      -0.744655       -20.2631
 154   2.0000      -0.740564       -20.1518
 155   2.0000      -0.725725       -19.7480
 156   2.0000      -0.710614       -19.3368
 157   2.0000      -0.708474       -19.2785
 158   2.0000      -0.697392       -18.9770
 159   2.0000      -0.687732       -18.7141
 160   2.0000      -0.682917       -18.5831
 161   2.0000      -0.678907       -18.4740
 162   2.0000      -0.676102       -18.3977
 163   2.0000      -0.670503       -18.2453
 164   2.0000      -0.663848       -18.0642
 165   2.0000      -0.658132       -17.9087
 166   2.0000      -0.652941       -17.7674
 167   2.0000      -0.646526       -17.5929
 168   2.0000      -0.643901       -17.5214
 169   2.0000      -0.642483       -17.4829
 170   2.0000      -0.639056       -17.3896
 171   2.0000      -0.636238       -17.3129
 172   2.0000      -0.631341       -17.1797
 173   2.0000      -0.628765       -17.1096
 174   2.0000      -0.627546       -17.0764
 175   2.0000      -0.619006       -16.8440
 176   2.0000      -0.614832       -16.7304
 177   2.0000      -0.608881       -16.5685
 178   2.0000      -0.605038       -16.4639
 179   2.0000      -0.600427       -16.3385
 180   2.0000      -0.593513       -16.1503
 181   2.0000      -0.587523       -15.9873
 182   2.0000      -0.586243       -15.9525
 183   2.0000      -0.584408       -15.9026
 184   2.0000      -0.580430       -15.7943
 185   2.0000      -0.569013       -15.4836
 186   2.0000      -0.568184       -15.4611
 187   2.0000      -0.565622       -15.3914
 188   2.0000      -0.555981       -15.1290
 189   2.0000      -0.554958       -15.1012
 190   2.0000      -0.548372       -14.9219
 191   2.0000      -0.536421       -14.5968
 192   2.0000      -0.535641       -14.5755
 193   2.0000      -0.530880       -14.4460
 194   2.0000      -0.530139       -14.4258
 195   2.0000      -0.524041       -14.2599
 196   2.0000      -0.523683       -14.2501
 197   2.0000      -0.521091       -14.1796
 198   2.0000      -0.516970       -14.0675
 199   2.0000      -0.514329       -13.9956
 200   2.0000      -0.513202       -13.9649
 201   2.0000      -0.512788       -13.9537
 202   2.0000      -0.507974       -13.8227
 203   2.0000      -0.507588       -13.8122
 204   2.0000      -0.506419       -13.7804
 205   2.0000      -0.503750       -13.7077
 206   2.0000      -0.500729       -13.6255
 207   2.0000      -0.496960       -13.5230
 208   2.0000      -0.496199       -13.5023
 209   2.0000      -0.495567       -13.4851
 210   2.0000      -0.492882       -13.4120
 211   2.0000      -0.491309       -13.3692
 212   2.0000      -0.485322       -13.2063
 213   2.0000      -0.481601       -13.1050
 214   2.0000      -0.480318       -13.0701
 215   2.0000      -0.478936       -13.0325
 216   2.0000      -0.476813       -12.9748
 217   2.0000      -0.474021       -12.8988
 218   2.0000      -0.469478       -12.7752
 219   2.0000      -0.468340       -12.7442
 220   2.0000      -0.463902       -12.6234
 221   2.0000      -0.459037       -12.4910
 222   2.0000      -0.457880       -12.4596
 223   2.0000      -0.457345       -12.4450
 224   2.0000      -0.455927       -12.4064
 225   2.0000      -0.449809       -12.2399
 226   2.0000      -0.447141       -12.1673
 227   2.0000      -0.445329       -12.1180
 228   2.0000      -0.439239       -11.9523
 229   2.0000      -0.437015       -11.8918
 230   2.0000      -0.434809       -11.8317
 231   2.0000      -0.434511       -11.8236
 232   2.0000      -0.430380       -11.7112
 233   2.0000      -0.428432       -11.6582
 234   2.0000      -0.425994       -11.5919
 235   2.0000      -0.425860       -11.5883
 236   2.0000      -0.423947       -11.5362
 237   2.0000      -0.418802       -11.3962
 238   2.0000      -0.415975       -11.3192
 239   2.0000      -0.411304       -11.1922
 240   2.0000      -0.408892       -11.1265
 241   2.0000      -0.407693       -11.0939
 242   2.0000      -0.406030       -11.0486
 243   2.0000      -0.405081       -11.0228
 244   2.0000      -0.400436       -10.8964
 245   2.0000      -0.395393       -10.7592
 246   2.0000      -0.391700       -10.6587
 247   2.0000      -0.391328       -10.6486
 248   2.0000      -0.385418       -10.4878
 249   2.0000      -0.381836       -10.3903
 250   2.0000      -0.377971       -10.2851
 251   2.0000      -0.374914       -10.2019
 252   2.0000      -0.373230       -10.1561
 253   2.0000      -0.366550        -9.9743
 254   2.0000      -0.366014        -9.9598
 255   2.0000      -0.353403        -9.6166
 256   2.0000      -0.350736        -9.5440
 257   2.0000      -0.346244        -9.4218
 258   2.0000      -0.344131        -9.3643
 259   2.0000      -0.335941        -9.1414
 260   2.0000      -0.334152        -9.0927
 261   2.0000      -0.325383        -8.8541
 262   2.0000      -0.321802        -8.7567
 263   2.0000      -0.319019        -8.6810
 264   2.0000      -0.312005        -8.4901
 265   2.0000      -0.302429        -8.2295
 266   2.0000      -0.292408        -7.9568
 267   2.0000      -0.281408        -7.6575
 268   2.0000      -0.278821        -7.5871
 269   2.0000      -0.261665        -7.1203
 270   2.0000      -0.229870        -6.2551
 271   2.0000      -0.213673        -5.8143
 272   0.0000      -0.111138        -3.0242
 273   0.0000      -0.086535        -2.3547
 274   0.0000      -0.062947        -1.7129
 275   0.0000      -0.057033        -1.5519
 276   0.0000      -0.040427        -1.1001

MULLIKEN ATOMIC CHARGES
-----------------------
   0 C :    0.333142
   1 C :   -0.373947
   2 C :   -0.190171
   3 N :    0.137167
   4 C :   -0.188236
   5 N :    0.128140
   6 C :    0.014504
   7 C :   -0.005388
   8 C :   -0.081979
   9 C :    0.119750
  10 C :   -0.090432
  11 C :   -0.030931
  12 S :    0.178457
  13 C :   -0.122534
  14 C :    0.035175
  15 Br:    0.012948
  16 C :    0.134742
  17 O :   -0.166635
  18 C :   -0.085604
  19 C :   -0.045483
  20 C :   -0.020912
  21 C :    0.005851
  22 C :    0.023208
  23 C :    0.046035
  24 C :   -0.049624
  25 S :    0.104724
  26 C :   -0.016230
  27 C :    0.021556
  28 C :    0.051263
  29 C :   -0.041773
  30 S :    0.086901
  31 C :    0.065687
  32 C :   -0.090218
  33 C :   -0.027582
  34 C :    0.094159
  35 C :   -0.028584
  36 S :    0.101900
  37 C :   -0.063617
  38 C :    0.111594
  39 C :   -0.038442
  40 C :   -0.051617
  41 S :    0.112222
  42 C :   -0.074174
  43 C :   -0.045677
  44 C :    0.036755
  45 C :   -0.023749
  46 C :    0.036270
  47 C :    0.031950
  48 C :   -0.039056
  49 S :    0.063870
  50 C :   -0.036299
  51 C :    0.030584
  52 C :    0.037501
  53 C :   -0.024118
  54 S :    0.063942
  55 C :   -0.010926
  56 C :   -0.190721
  57 S :    0.142362
  58 C :   -0.130211
  59 C :    0.124300
  60 C :    0.193961
  61 O :   -0.183525
  62 C :    0.232297
  63 N :    0.273756
  64 O :   -0.249121
  65 O :   -0.229593
  66 C :   -0.066228
  67 H :   -0.015349
  68 H :   -0.009825
  69 H :   -0.006490
  70 H :    0.014728
  71 H :    0.015279
  72 H :   -0.001019
  73 H :   -0.006242
  74 H :   -0.007368
  75 H :   -0.002391
  76 H :   -0.006523
  77 H :    0.006977
  78 H :   -0.032046
  79 H :   -0.015378
  80 H :   -0.010957
  81 H :   -0.012241
  82 H :   -0.007458
  83 H :   -0.011148
  84 H :   -0.010306
  85 H :   -0.006730
  86 H :    0.006331
  87 H :    0.032550
  88 H :    0.012270
Sum of atomic charges:   -0.0000000

LOEWDIN ATOMIC CHARGES
----------------------
   0 C :    0.073376
   1 C :   -0.158998
   2 C :   -0.018933
   3 N :   -0.070892
   4 C :   -0.020032
   5 N :   -0.072070
   6 C :   -0.017897
   7 C :   -0.048407
   8 C :    0.016594
   9 C :   -0.036167
  10 C :   -0.145780
  11 C :   -0.014132
  12 S :    0.426435
  13 C :   -0.274902
  14 C :   -0.071233
  15 Br:    0.128849
  16 C :    0.081533
  17 O :   -0.159831
  18 C :   -0.109804
  19 C :    0.048309
  20 C :   -0.073773
  21 C :   -0.102966
  22 C :   -0.043299
  23 C :   -0.007456
  24 C :   -0.193786
  25 S :    0.412368
  26 C :   -0.146807
  27 C :   -0.045117
  28 C :   -0.008172
  29 C :   -0.154724
  30 S :    0.413859
  31 C :   -0.039635
  32 C :   -0.165651
  33 C :   -0.040777
  34 C :   -0.046704
  35 C :   -0.147357
  36 S :    0.386126
  37 C :   -0.042281
  38 C :   -0.033666
  39 C :   -0.152041
  40 C :   -0.027149
  41 S :    0.395700
  42 C :   -0.146717
  43 C :   -0.069291
  44 C :   -0.077084
  45 C :   -0.136523
  46 C :   -0.027938
  47 C :   -0.032861
  48 C :   -0.177400
  49 S :    0.385326
  50 C :   -0.172603
  51 C :   -0.034364
  52 C :   -0.025892
  53 C :   -0.152260
  54 S :    0.363022
  55 C :   -0.065766
  56 C :   -0.204586
  57 S :    0.474083
  58 C :   -0.188890
  59 C :   -0.084192
  60 C :    0.020988
  61 O :    0.001899
  62 C :    0.025425
  63 N :    0.271867
  64 O :   -0.210109
  65 O :   -0.191504
  66 C :   -0.008474
  67 H :    0.038636
  68 H :    0.039881
  69 H :    0.037428
  70 H :    0.030521
  71 H :    0.038421
  72 H :    0.038448
  73 H :    0.035241
  74 H :    0.034382
  75 H :    0.037703
  76 H :    0.037871
  77 H :    0.021760
  78 H :    0.030485
  79 H :    0.036859
  80 H :    0.017236
  81 H :    0.034793
  82 H :    0.035624
  83 H :    0.033086
  84 H :    0.033450
  85 H :    0.036081
  86 H :    0.047085
  87 H :    0.029071
  88 H :    0.047073

  Mayer bond orders larger than 0.100000
B(  0-C ,  1-C ) :   1.5735 B(  0-C ,  6-C ) :   0.9873 B(  0-C , 18-C ) :   1.1214
B(  1-C ,  2-C ) :   1.1546 B(  1-C ,  4-C ) :   1.1576 B(  2-C ,  3-N ) :   2.9605
B(  4-C ,  5-N ) :   2.9549 B(  6-C ,  7-C ) :   1.2796 B(  6-C , 11-C ) :   1.4199
B(  7-C ,  8-C ) :   1.4294 B(  7-C , 16-C ) :   0.9338 B(  8-C ,  9-C ) :   1.2380
B(  8-C , 67-H ) :   1.0167 B(  9-C , 10-C ) :   1.3181 B(  9-C , 14-C ) :   1.1596
B( 10-C , 11-C ) :   1.3191 B( 10-C , 12-S ) :   1.0825 B( 11-C , 68-H ) :   0.9796
B( 12-S , 13-C ) :   1.0857 B( 13-C , 14-C ) :   1.6201 B( 13-C , 15-Br) :   1.0125
B( 14-C , 69-H ) :   1.0003 B( 16-C , 17-O ) :   2.1878 B( 16-C , 18-C ) :   0.9676
B( 18-C , 19-C ) :   1.4682 B( 19-C , 20-C ) :   1.2699 B( 19-C , 70-H ) :   0.9414
B( 20-C , 21-C ) :   1.4028 B( 20-C , 71-H ) :   0.9801 B( 21-C , 22-C ) :   1.1863
B( 21-C , 25-S ) :   1.0908 B( 22-C , 23-C ) :   1.5321 B( 22-C , 72-H ) :   1.0020
B( 23-C , 24-C ) :   1.2244 B( 23-C , 73-H ) :   0.9946 B( 24-C , 25-S ) :   1.0471
B( 24-C , 26-C ) :   1.4550 B( 26-C , 27-C ) :   1.2033 B( 26-C , 30-S ) :   1.0788
B( 27-C , 28-C ) :   1.5723 B( 27-C , 74-H ) :   0.9936 B( 28-C , 29-C ) :   1.1557
B( 28-C , 75-H ) :   0.9985 B( 29-C , 30-S ) :   1.0337 B( 29-C , 31-C ) :   1.5886
B( 31-C , 32-C ) :   1.1776 B( 31-C , 76-H ) :   0.9526 B( 32-C , 33-C ) :   1.4924
B( 32-C , 36-S ) :   1.0537 B( 33-C , 34-C ) :   1.2129 B( 33-C , 77-H ) :   0.9794
B( 34-C , 35-C ) :   1.2632 B( 34-C , 40-C ) :   1.2943 B( 35-C , 36-S ) :   1.0481
B( 35-C , 37-C ) :   1.3932 B( 37-C , 38-C ) :   1.3048 B( 37-C , 78-H ) :   1.0016
B( 38-C , 39-C ) :   1.2586 B( 38-C , 43-C ) :   1.1995 B( 39-C , 40-C ) :   1.4045
B( 39-C , 41-S ) :   1.0462 B( 40-C , 79-H ) :   1.0030 B( 41-S , 42-C ) :   1.0659
B( 42-C , 43-C ) :   1.5104 B( 42-C , 44-C ) :   1.1590 B( 43-C , 80-H ) :   0.9809
B( 44-C , 45-C ) :   1.6100 B( 44-C , 81-H ) :   0.9508 B( 45-C , 46-C ) :   1.1410
B( 45-C , 49-S ) :   1.0415 B( 46-C , 47-C ) :   1.5954 B( 46-C , 82-H ) :   0.9988
B( 47-C , 48-C ) :   1.1823 B( 47-C , 83-H ) :   0.9924 B( 48-C , 49-S ) :   1.0368
B( 48-C , 50-C ) :   1.5237 B( 50-C , 51-C ) :   1.1795 B( 50-C , 54-S ) :   1.0415
B( 51-C , 52-C ) :   1.6000 B( 51-C , 84-H ) :   0.9921 B( 52-C , 53-C ) :   1.1343
B( 52-C , 85-H ) :   1.0013 B( 53-C , 54-S ) :   1.0313 B( 53-C , 55-C ) :   1.5760
B( 55-C , 56-C ) :   1.1714 B( 55-C , 86-H ) :   0.9739 B( 56-C , 57-S ) :   1.1059
B( 56-C , 58-C ) :   0.1087 B( 56-C , 60-C ) :   1.4445 B( 57-S , 58-C ) :   1.1904
B( 58-C , 59-C ) :   1.4158 B( 58-C , 87-H ) :   0.9757 B( 59-C , 60-C ) :   1.2291
B( 59-C , 66-C ) :   1.0607 B( 60-C , 61-O ) :   1.1241 B( 61-O , 62-C ) :   1.1216
B( 62-C , 63-N ) :   0.9164 B( 62-C , 66-C ) :   1.5799 B( 63-N , 64-O ) :   1.5333
B( 63-N , 65-O ) :   1.5149 B( 64-O , 65-O ) :   0.2803 B( 66-C , 88-H ) :   1.0251

-----------------------------------------------------------------------------
         ABSORPTION SPECTRUM VIA TRANSITION ELECTRIC DIPOLE MOMENTS
-----------------------------------------------------------------------------
State   Energy  Wavelength   fosc         T2         TX        TY        TZ
        (cm-1)    (nm)                  (au**2)     (au)      (au)      (au)
-----------------------------------------------------------------------------
   0   10247.3    975.9   1.625768090  52.23040   7.05347   0.48370   1.49835
   1   14557.3    686.9   0.336397565   7.60762  -2.23956   1.40967   0.77771
   2   16279.4    614.3   0.382716661   7.73952   2.34477   1.34059   0.66662
   3   19808.4    504.8   0.173272702   2.87975  -1.54066   0.70902   0.05852
   4   20182.6    495.5   0.381442017   6.22195   0.24848  -2.32896  -0.85801
   5   21155.7    472.7   0.418382098   6.51060   0.66156   2.33819   0.77835
   6   22190.8    450.6   0.066631062   0.98851   0.67331   0.65340   0.32898
   7   23465.9    426.2   0.300973268   4.22247  -1.57760   1.30927   0.13951
   8   24353.3    410.6   0.194218162   2.62547   1.07769  -1.20348  -0.12527
   9   25542.5    391.5   0.160538471   2.06915   0.26690   1.28291   0.59335
  10   25651.5    389.8   0.488456626   6.26885  -0.00675  -2.33196  -0.91147
  11   26485.4    377.6   0.291686591   3.62564   1.02308   1.46264   0.66304
  12   26678.2    374.8   0.000214446   0.00265   0.01994   0.04140   0.02313
  13   27607.1    362.2   0.003467461   0.04135   0.19499  -0.05464   0.01852
  14   28423.4    351.8   0.010403785   0.12050  -0.25653   0.23023   0.04110
  15   29034.5    344.4   0.048779349   0.55309   0.46744   0.52792   0.23642
  16   29096.0    343.7   0.010683410   0.12088  -0.18326  -0.28736  -0.06872
  17   29742.5    336.2   0.177639170   1.96624  -0.61489   1.22741   0.28569
  18   30150.7    331.7   0.275827251   3.01173  -0.23537   1.62385   0.56518
  19   31180.0    320.7   0.011561757   0.12207   0.31286  -0.05871   0.14404
  20   31755.7    314.9   0.014118704   0.14637  -0.29117  -0.18820  -0.16178
  21   31764.3    314.8   0.254142526   2.63399   1.26198   0.82638   0.59874
  22   32015.3    312.4   0.043554991   0.44787  -0.65082   0.15458   0.02018
  23   32112.4    311.4   0.022362706   0.22926  -0.44465   0.17713  -0.01300
  24   32271.2    309.9   0.275107250   2.80648   1.50452   0.38881   0.62589
  25   32498.4    307.7   0.032195496   0.32614  -0.11775  -0.51840  -0.20867
  26   32637.8    306.4   0.024729223   0.24944  -0.42879  -0.19343  -0.16781
  27   33243.9    300.8   0.113303513   1.12204  -0.99466  -0.21021  -0.29748
  28   33414.8    299.3   0.014866998   0.14647   0.30331   0.07554   0.22085
  29   34114.1    293.1   0.055543980   0.53602  -0.19373   0.66705   0.23138
  30   34898.7    286.5   0.030059342   0.28356  -0.21054   0.47877   0.10007
  31   35131.5    284.6   0.028866412   0.27050  -0.50027  -0.10632  -0.09449
  32   35450.4    282.1   0.016486663   0.15310   0.16739   0.31362   0.16349
  33   35640.6    280.6   0.042917352   0.39643  -0.55870  -0.20261  -0.20791
  34   35809.1    279.3   0.001794581   0.01650   0.12710   0.01062   0.01519
  35   35904.6    278.5   0.002863262   0.02625   0.16179   0.00376  -0.00799
  36   36258.5    275.8   0.229903390   2.08743  -1.24759  -0.64333  -0.34218
  37   36316.2    275.4   0.032306052   0.29286   0.52377  -0.06196   0.12117
  38   36884.4    271.1   0.097543969   0.87063  -0.89744  -0.23567  -0.09839
  39   37155.9    269.1   0.114060836   1.01061   0.86320  -0.51448   0.02842
  40   37355.1    267.7   0.046056703   0.40590  -0.54690   0.32473   0.03671
  41   37839.9    264.3   0.095340313   0.82947  -0.75980   0.50216  -0.00308
  42   38037.1    262.9   0.170891439   1.47907   1.19256   0.12008   0.20606
  43   38279.0    261.2   0.029126199   0.25049  -0.19534   0.41119   0.20798
  44   38656.1    258.7   0.136427748   1.16188   1.04852   0.20938   0.13658
  45   38894.5    257.1   0.034614474   0.29299   0.22896  -0.47022  -0.13949
  46   39522.3    253.0   0.012579068   0.10478   0.23290   0.20163   0.09940
  47   39725.9    251.7   0.160789871   1.33248   0.90617  -0.70734  -0.10491
  48   39882.0    250.7   0.004762439   0.03931  -0.01287  -0.12390  -0.15426
  49   39972.8    250.2   0.000068328   0.00056  -0.02054  -0.00926   0.00743
  50   40036.4    249.8   0.002818781   0.02318   0.14036   0.04251   0.04087

FINAL SINGLE POINT ENERGY     -8177.091767751283

DIPOLE MOMENT
-------------
                                X             Y             Z
Electronic contribution:   -154.40730     -55.17917     -57.51319
Nuclear contribution   :    154.39859      57.16216      58.47600
                        -----------------------------------------
Total Dipole Moment    :     -0.00871       1.98299       0.96281
                        -----------------------------------------
Magnitude (a.u.)       :      2.20439
Magnitude (Debye)      :      5.60312

Rotational constants in cm-1:     0.001334     0.000157     0.000141
Rotational constants in MHz :    39.981080     4.711837     4.232781

                             ****ORCA TERMINATED NORMALLY****
TOTAL RUN TIME: 0 days 0 hours 8 minutes 43 seconds 371 msec
