                         Program Version 4.2.0 -  RELEASE  -
|  1> # ORCA input file
|  2> # SCF done       -202.886200348186          0.000553810454
|  3> ! CAM-B3LYP def2-SVP def2/J RIJCOSX Grid4 TightSCF
|  4> %maxcore 5000
|  5> %tddft
|  6>     Mode sTDDFT
|  7>     Ethresh 5.0
|  8>     maxcore 5000
|  9> end
| 10>
| 11> %pal
| 12>   nprocs 6
| 13>   end
| 14> * xyz 0 1
| 15>    C       -3.32180        -1.54640        -2.40023
| 16>    C       -3.23807        -1.70088        -3.75850
| 17>    C       -2.89248        -2.91125        -4.39629
| 18>    N       -2.62378        -3.86808        -4.97052
| 19>    C       -3.45138        -0.67939        -4.70899
| 20>    N       -3.59173         0.09583        -5.54455
| 21>    C       -3.01873        -2.56837        -1.40886
| 22>    C       -3.08165        -1.98405        -0.12069
| 23>    C       -2.84186        -2.69676         1.02926
| 24>    C       -2.52212        -4.05203         0.90192
| 25>    C       -2.46412        -4.62918        -0.38997
| 26>    C       -2.70809        -3.90887        -1.55196
| 27>    S       -2.05814        -6.31704        -0.31781
| 28>    C       -1.97071        -6.22568         1.42139
| 29>    C       -2.23236        -4.99579         1.92470
| 30>   Br       -1.54446        -7.76236         2.40794
| 31>    C       -3.43728        -0.55542        -0.23576
| 32>    O       -3.59099         0.21514         0.68502
| 33>    C       -3.64241        -0.31536        -1.69088
| 34>    C       -4.23446         0.77392        -2.24683
| 35>    C       -4.50528         2.04959        -1.64066
| 36>    C       -5.64416         2.75505        -2.07047
| 37>    C       -5.93312         3.97385        -1.51396
| 38>    C       -5.07540         4.53927        -0.55056
| 39>    C       -3.92286         3.87274        -0.15627
| 40>    C       -3.64818         2.63402        -0.69752
| 41>    C       -5.61191         5.82177        -0.15649
| 42>    C       -6.80091         6.05035        -0.87401
| 43>    C       -7.10363         4.88766        -1.78935
| 44>    C       -7.14309         5.32655        -3.26509
| 45>    C       -5.85406         6.00207        -3.71725
| 46>    C       -8.43694         4.21270        -1.41415
| 47>    C       -8.47827         3.74758         0.03662
| 48>    C       -7.51026         7.20980        -0.69178
| 49>    C       -7.04729         8.18035         0.21591
| 50>    C       -5.86210         7.93141         0.92816
| 51>    C       -5.14646         6.76703         0.74968
| 52>    C       -7.81260         9.38912         0.35810
| 53>    C       -7.50262        10.44715         1.14294
| 54>    C       -8.26531        11.64809         1.23868
| 55>    C       -7.79987        12.70196         2.06615
| 56>    C       -8.49638        13.96169         2.19148
| 57>    N       -7.94944        14.95745         2.91738
| 58>    C       -6.82117        14.75029         3.53969
| 59>    C       -6.16311        13.47435         3.47343
| 60>    N       -6.65583        12.50735         2.74193
| 61>    C       -4.96444        13.25521         4.19509
| 62>    N       -3.99554        13.11013         4.78933
| 63>    C       -6.25068        15.80709         4.29365
| 64>    N       -5.77734        16.64341         4.91698
| 65>    C       -9.70327        14.20817         1.51950
| 66>    C      -10.15775        13.17447         0.68333
| 67>    C       -9.46758        11.91197         0.54525
| 68>    N      -10.11300        11.09852        -0.29600
| 69>    S      -11.42684        11.83446        -0.84639
| 70>    N      -11.26939        13.22013        -0.06039
| 71>    C      -10.43030        15.46061         1.55016
| 72>    C      -10.69630        16.25092         2.59541
| 73>    C      -10.38929        15.95730         4.02511
| 74>    C      -11.47883        17.52160         2.36701
| 75>    N      -12.87761        17.29267         2.64831
| 76>    C      -13.72021        18.21783         3.14037
| 77>    C      -15.06674        18.05247         3.21505
| 78>    C      -15.97426        19.01353         3.71739
| 79>    C      -17.35055        18.90207         3.73111
| 80>    C      -17.92101        20.08376         4.26050
| 81>    C      -16.78086        20.96289         4.60851
| 82>    C      -15.63511        20.31483         4.27973
| 83>    C      -16.83319        22.23763         5.17960
| 84>    N      -16.82080        23.28689         5.64933
| 85>    C      -19.25441        20.39491         4.40544
| 86>    C      -19.81984        21.61192         4.89078
| 87>    C      -21.18971        21.52725         4.84558
| 88>    C      -21.53562        20.21913         4.32555
| 89>    C      -20.39157        19.52931         4.05673
| 90>    C      -20.33923        18.23152         3.54539
| 91>    N      -20.33646        17.16143         3.12300
| 92>    C      -22.17240        22.50927         5.21838
| 93>    C      -21.89764        23.72778         5.68413
| 94>    H       -2.89805        -2.22198         1.99629
| 95>    H       -2.65827        -4.39464        -2.51205
| 96>    H       -2.22271        -4.76218         2.97363
| 97>    H       -4.59344         0.67940        -3.26568
| 98>    H       -6.29161         2.31370        -2.81463
| 99>    H       -3.24904         4.31456         0.56151
|100>    H       -2.74320         2.12124        -0.41773
|101>    H       -7.98035         6.01397        -3.40209
|102>    H       -7.32817         4.44796        -3.88616
|103>    H       -5.65646         6.89252        -3.12431
|104>    H       -5.93338         6.29475        -4.76141
|105>    H       -5.00805         5.32626        -3.61422
|106>    H       -8.59197         3.35667        -2.07405
|107>    H       -9.24849         4.92155        -1.59095
|108>    H       -7.68926         3.02507         0.23351
|109>    H       -9.43527         3.27738         0.25024
|110>    H       -8.34965         4.58829         0.71483
|111>    H       -8.42303         7.39438        -1.23996
|112>    H       -5.50095         8.66555         1.63079
|113>    H       -4.23736         6.59367         1.30529
|114>    H       -8.71313         9.44696        -0.23834
|115>    H       -6.61235        10.44453         1.75477
|116>    H      -10.83178        15.73470         0.58108
|117>    H      -10.17918        14.90355         4.18143
|118>    H      -11.23541        16.24663         4.64751
|119>    H       -9.52055        16.53022         4.34833
|120>    H      -11.35152        17.85979         1.32920
|121>    H      -11.11710        18.30856         3.03355
|122>    H      -13.27953        16.45944         2.24209
|123>    H      -13.24752        19.12189         3.49718
|124>    H      -15.50093        17.13415         2.84144
|125>    H      -17.91014        18.05802         3.37936
|126>    H      -14.64048        20.69740         4.41683
|127>    H      -19.24452        22.45101         5.22717
|128>    H      -22.54008        19.86387         4.18024
|129>    H      -23.20403        22.20274         5.09370
|130>    H      -20.88624        24.07107         5.81753
|131>    H      -22.67923        24.42135         5.94180
|132> *
|133>
|134>                          ****END OF INPUT****

CARTESIAN COORDINATES (ANGSTROEM)
---------------------------------
  C     -3.321800   -1.546400   -2.400230
  C     -3.238070   -1.700880   -3.758500
  C     -2.892480   -2.911250   -4.396290
  N     -2.623780   -3.868080   -4.970520
  C     -3.451380   -0.679390   -4.708990
  N     -3.591730    0.095830   -5.544550
  C     -3.018730   -2.568370   -1.408860
  C     -3.081650   -1.984050   -0.120690
  C     -2.841860   -2.696760    1.029260
  C     -2.522120   -4.052030    0.901920
  C     -2.464120   -4.629180   -0.389970
  C     -2.708090   -3.908870   -1.551960
  S     -2.058140   -6.317040   -0.317810
  C     -1.970710   -6.225680    1.421390
  C     -2.232360   -4.995790    1.924700
  Br    -1.544460   -7.762360    2.407940
  C     -3.437280   -0.555420   -0.235760
  O     -3.590990    0.215140    0.685020
  C     -3.642410   -0.315360   -1.690880
  C     -4.234460    0.773920   -2.246830
  C     -4.505280    2.049590   -1.640660
  C     -5.644160    2.755050   -2.070470
  C     -5.933120    3.973850   -1.513960
  C     -5.075400    4.539270   -0.550560
  C     -3.922860    3.872740   -0.156270
  C     -3.648180    2.634020   -0.697520
  C     -5.611910    5.821770   -0.156490
  C     -6.800910    6.050350   -0.874010
  C     -7.103630    4.887660   -1.789350
  C     -7.143090    5.326550   -3.265090
  C     -5.854060    6.002070   -3.717250
  C     -8.436940    4.212700   -1.414150
  C     -8.478270    3.747580    0.036620
  C     -7.510260    7.209800   -0.691780
  C     -7.047290    8.180350    0.215910
  C     -5.862100    7.931410    0.928160
  C     -5.146460    6.767030    0.749680
  C     -7.812600    9.389120    0.358100
  C     -7.502620   10.447150    1.142940
  C     -8.265310   11.648090    1.238680
  C     -7.799870   12.701960    2.066150
  C     -8.496380   13.961690    2.191480
  N     -7.949440   14.957450    2.917380
  C     -6.821170   14.750290    3.539690
  C     -6.163110   13.474350    3.473430
  N     -6.655830   12.507350    2.741930
  C     -4.964440   13.255210    4.195090
  N     -3.995540   13.110130    4.789330
  C     -6.250680   15.807090    4.293650
  N     -5.777340   16.643410    4.916980
  C     -9.703270   14.208170    1.519500
  C    -10.157750   13.174470    0.683330
  C     -9.467580   11.911970    0.545250
  N    -10.113000   11.098520   -0.296000
  S    -11.426840   11.834460   -0.846390
  N    -11.269390   13.220130   -0.060390
  C    -10.430300   15.460610    1.550160
  C    -10.696300   16.250920    2.595410
  C    -10.389290   15.957300    4.025110
  C    -11.478830   17.521600    2.367010
  N    -12.877610   17.292670    2.648310
  C    -13.720210   18.217830    3.140370
  C    -15.066740   18.052470    3.215050
  C    -15.974260   19.013530    3.717390
  C    -17.350550   18.902070    3.731110
  C    -17.921010   20.083760    4.260500
  C    -16.780860   20.962890    4.608510
  C    -15.635110   20.314830    4.279730
  C    -16.833190   22.237630    5.179600
  N    -16.820800   23.286890    5.649330
  C    -19.254410   20.394910    4.405440
  C    -19.819840   21.611920    4.890780
  C    -21.189710   21.527250    4.845580
  C    -21.535620   20.219130    4.325550
  C    -20.391570   19.529310    4.056730
  C    -20.339230   18.231520    3.545390
  N    -20.336460   17.161430    3.123000
  C    -22.172400   22.509270    5.218380
  C    -21.897640   23.727780    5.684130
  H     -2.898050   -2.221980    1.996290
  H     -2.658270   -4.394640   -2.512050
  H     -2.222710   -4.762180    2.973630
  H     -4.593440    0.679400   -3.265680
  H     -6.291610    2.313700   -2.814630
  H     -3.249040    4.314560    0.561510
  H     -2.743200    2.121240   -0.417730
  H     -7.980350    6.013970   -3.402090
  H     -7.328170    4.447960   -3.886160
  H     -5.656460    6.892520   -3.124310
  H     -5.933380    6.294750   -4.761410
  H     -5.008050    5.326260   -3.614220
  H     -8.591970    3.356670   -2.074050
  H     -9.248490    4.921550   -1.590950
  H     -7.689260    3.025070    0.233510
  H     -9.435270    3.277380    0.250240
  H     -8.349650    4.588290    0.714830
  H     -8.423030    7.394380   -1.239960
  H     -5.500950    8.665550    1.630790
  H     -4.237360    6.593670    1.305290
  H     -8.713130    9.446960   -0.238340
  H     -6.612350   10.444530    1.754770
  H    -10.831780   15.734700    0.581080
  H    -10.179180   14.903550    4.181430
  H    -11.235410   16.246630    4.647510
  H     -9.520550   16.530220    4.348330
  H    -11.351520   17.859790    1.329200
  H    -11.117100   18.308560    3.033550
  H    -13.279530   16.459440    2.242090
  H    -13.247520   19.121890    3.497180
  H    -15.500930   17.134150    2.841440
  H    -17.910140   18.058020    3.379360
  H    -14.640480   20.697400    4.416830
  H    -19.244520   22.451010    5.227170
  H    -22.540080   19.863870    4.180240
  H    -23.204030   22.202740    5.093700
  H    -20.886240   24.071070    5.817530
  H    -22.679230   24.421350    5.941800

 Total Charge           Charge          ....    0
 Multiplicity           Mult            ....    1
 Number of Electrons    NEL             ....  574
 Basis Dimension        Dim             .... 1322

ORBITAL ENERGIES
----------------

  NO   OCC          E(Eh)            E(eV)
   0   2.0000    -482.889221    -13140.0837
   1   2.0000     -89.057940     -2423.3897
   2   2.0000     -88.979708     -2421.2609
   3   2.0000     -62.566954     -1702.5334
   4   2.0000     -56.400910     -1534.7468
   5   2.0000     -56.398181     -1534.6725
   6   2.0000     -56.398153     -1534.6718
   7   2.0000     -19.220866      -523.0264
   8   2.0000     -14.470688      -393.7674
   9   2.0000     -14.467936      -393.6926
  10   2.0000     -14.466622      -393.6568
  11   2.0000     -14.464661      -393.6034
  12   2.0000     -14.456491      -393.3811
  13   2.0000     -14.438115      -392.8811
  14   2.0000     -14.435123      -392.7997
  15   2.0000     -14.419331      -392.3699
  16   2.0000     -14.419249      -392.3677
  17   2.0000     -14.400417      -391.8553
  18   2.0000     -14.388465      -391.5300
  19   2.0000     -10.389660      -282.7170
  20   2.0000     -10.387042      -282.6458
  21   2.0000     -10.373252      -282.2705
  22   2.0000     -10.363197      -281.9969
  23   2.0000     -10.354746      -281.7670
  24   2.0000     -10.354172      -281.7513
  25   2.0000     -10.353032      -281.7203
  26   2.0000     -10.351224      -281.6711
  27   2.0000     -10.346909      -281.5537
  28   2.0000     -10.345388      -281.5123
  29   2.0000     -10.336782      -281.2781
  30   2.0000     -10.331110      -281.1238
  31   2.0000     -10.330298      -281.1017
  32   2.0000     -10.329324      -281.0752
  33   2.0000     -10.328623      -281.0561
  34   2.0000     -10.328517      -281.0532
  35   2.0000     -10.322155      -280.8801
  36   2.0000     -10.321982      -280.8754
  37   2.0000     -10.320563      -280.8368
  38   2.0000     -10.320163      -280.8259
  39   2.0000     -10.312675      -280.6222
  40   2.0000     -10.312360      -280.6136
  41   2.0000     -10.310163      -280.5538
  42   2.0000     -10.306876      -280.4643
  43   2.0000     -10.305452      -280.4256
  44   2.0000     -10.304808      -280.4081
  45   2.0000     -10.303897      -280.3833
  46   2.0000     -10.303084      -280.3612
  47   2.0000     -10.302633      -280.3489
  48   2.0000     -10.300733      -280.2972
  49   2.0000     -10.299583      -280.2659
  50   2.0000     -10.296911      -280.1932
  51   2.0000     -10.294969      -280.1403
  52   2.0000     -10.294184      -280.1190
  53   2.0000     -10.294016      -280.1144
  54   2.0000     -10.293597      -280.1030
  55   2.0000     -10.292316      -280.0682
  56   2.0000     -10.292019      -280.0601
  57   2.0000     -10.291952      -280.0583
  58   2.0000     -10.289912      -280.0027
  59   2.0000     -10.289758      -279.9986
  60   2.0000     -10.289096      -279.9805
  61   2.0000     -10.289074      -279.9799
  62   2.0000     -10.288897      -279.9751
  63   2.0000     -10.287737      -279.9436
  64   2.0000     -10.286746      -279.9166
  65   2.0000     -10.285850      -279.8922
  66   2.0000     -10.285778      -279.8903
  67   2.0000     -10.285740      -279.8892
  68   2.0000     -10.283012      -279.8150
  69   2.0000     -10.282990      -279.8144
  70   2.0000     -10.282868      -279.8111
  71   2.0000     -10.281874      -279.7840
  72   2.0000     -10.276152      -279.6283
  73   2.0000     -10.273459      -279.5550
  74   2.0000     -10.273015      -279.5429
  75   2.0000     -10.272921      -279.5404
  76   2.0000     -10.270092      -279.4634
  77   2.0000     -10.268937      -279.4320
  78   2.0000     -10.261047      -279.2173
  79   2.0000     -10.260133      -279.1924
  80   2.0000     -10.255332      -279.0618
  81   2.0000     -10.254576      -279.0412
  82   2.0000     -10.253433      -279.0101
  83   2.0000      -8.796398      -239.3622
  84   2.0000      -8.149272      -221.7530
  85   2.0000      -8.075699      -219.7509
  86   2.0000      -6.632733      -180.4859
  87   2.0000      -6.618130      -180.0885
  88   2.0000      -6.617897      -180.0821
  89   2.0000      -6.120271      -166.5410
  90   2.0000      -6.112444      -166.3281
  91   2.0000      -6.112247      -166.3227
  92   2.0000      -6.045398      -164.5036
  93   2.0000      -6.041106      -164.3869
  94   2.0000      -6.036914      -164.2728
  95   2.0000      -2.748587       -74.7929
  96   2.0000      -2.744494       -74.6815
  97   2.0000      -2.744352       -74.6776
  98   2.0000      -2.732739       -74.3616
  99   2.0000      -2.732718       -74.3610
 100   2.0000      -1.153560       -31.3900
 101   2.0000      -1.136865       -30.9357
 102   2.0000      -1.127509       -30.6811
 103   2.0000      -1.056839       -28.7580
 104   2.0000      -1.054589       -28.6968
 105   2.0000      -1.027289       -27.9540
 106   2.0000      -1.020901       -27.7801
 107   2.0000      -1.017499       -27.6876
 108   2.0000      -1.011186       -27.5158
 109   2.0000      -1.006787       -27.3961
 110   2.0000      -1.002567       -27.2812
 111   2.0000      -0.998707       -27.1762
 112   2.0000      -0.997894       -27.1541
 113   2.0000      -0.993806       -27.0428
 114   2.0000      -0.987451       -26.8699
 115   2.0000      -0.982982       -26.7483
 116   2.0000      -0.971505       -26.4360
 117   2.0000      -0.963043       -26.2057
 118   2.0000      -0.960143       -26.1268
 119   2.0000      -0.947407       -25.7803
 120   2.0000      -0.936437       -25.4817
 121   2.0000      -0.931374       -25.3440
 122   2.0000      -0.915982       -24.9251
 123   2.0000      -0.912591       -24.8329
 124   2.0000      -0.909870       -24.7588
 125   2.0000      -0.904363       -24.6090
 126   2.0000      -0.890740       -24.2383
 127   2.0000      -0.890011       -24.2184
 128   2.0000      -0.882319       -24.0091
 129   2.0000      -0.872583       -23.7442
 130   2.0000      -0.867906       -23.6169
 131   2.0000      -0.850518       -23.1438
 132   2.0000      -0.847417       -23.0594
 133   2.0000      -0.846546       -23.0357
 134   2.0000      -0.844584       -22.9823
 135   2.0000      -0.839431       -22.8421
 136   2.0000      -0.837756       -22.7965
 137   2.0000      -0.833347       -22.6765
 138   2.0000      -0.828917       -22.5560
 139   2.0000      -0.815286       -22.1851
 140   2.0000      -0.813503       -22.1365
 141   2.0000      -0.807862       -21.9830
 142   2.0000      -0.789071       -21.4717
 143   2.0000      -0.784295       -21.3418
 144   2.0000      -0.773021       -21.0350
 145   2.0000      -0.769443       -20.9376
 146   2.0000      -0.762477       -20.7481
 147   2.0000      -0.753916       -20.5151
 148   2.0000      -0.748136       -20.3578
 149   2.0000      -0.739927       -20.1344
 150   2.0000      -0.733149       -19.9500
 151   2.0000      -0.727242       -19.7893
 152   2.0000      -0.718061       -19.5394
 153   2.0000      -0.709537       -19.3075
 154   2.0000      -0.702998       -19.1295
 155   2.0000      -0.697667       -18.9845
 156   2.0000      -0.696725       -18.9589
 157   2.0000      -0.694222       -18.8908
 158   2.0000      -0.690358       -18.7856
 159   2.0000      -0.688389       -18.7320
 160   2.0000      -0.683579       -18.6011
 161   2.0000      -0.676185       -18.3999
 162   2.0000      -0.674476       -18.3534
 163   2.0000      -0.666619       -18.1396
 164   2.0000      -0.663173       -18.0458
 165   2.0000      -0.660472       -17.9724
 166   2.0000      -0.654261       -17.8033
 167   2.0000      -0.646865       -17.6021
 168   2.0000      -0.639572       -17.4036
 169   2.0000      -0.633796       -17.2465
 170   2.0000      -0.627422       -17.0730
 171   2.0000      -0.624613       -16.9966
 172   2.0000      -0.618807       -16.8386
 173   2.0000      -0.611499       -16.6397
 174   2.0000      -0.608605       -16.5610
 175   2.0000      -0.607286       -16.5251
 176   2.0000      -0.605297       -16.4710
 177   2.0000      -0.598770       -16.2934
 178   2.0000      -0.593972       -16.1628
 179   2.0000      -0.591338       -16.0911
 180   2.0000      -0.587823       -15.9955
 181   2.0000      -0.582794       -15.8586
 182   2.0000      -0.578421       -15.7396
 183   2.0000      -0.571237       -15.5441
 184   2.0000      -0.566888       -15.4258
 185   2.0000      -0.564972       -15.3737
 186   2.0000      -0.556783       -15.1508
 187   2.0000      -0.554207       -15.0807
 188   2.0000      -0.553976       -15.0744
 189   2.0000      -0.552274       -15.0281
 190   2.0000      -0.549049       -14.9404
 191   2.0000      -0.545671       -14.8485
 192   2.0000      -0.542094       -14.7511
 193   2.0000      -0.540944       -14.7198
 194   2.0000      -0.539228       -14.6731
 195   2.0000      -0.535159       -14.5624
 196   2.0000      -0.531117       -14.4524
 197   2.0000      -0.530244       -14.4287
 198   2.0000      -0.527243       -14.3470
 199   2.0000      -0.524705       -14.2780
 200   2.0000      -0.522497       -14.2179
 201   2.0000      -0.517873       -14.0920
 202   2.0000      -0.515454       -14.0262
 203   2.0000      -0.511849       -13.9281
 204   2.0000      -0.509199       -13.8560
 205   2.0000      -0.507867       -13.8198
 206   2.0000      -0.503940       -13.7129
 207   2.0000      -0.502528       -13.6745
 208   2.0000      -0.500309       -13.6141
 209   2.0000      -0.498968       -13.5776
 210   2.0000      -0.497754       -13.5446
 211   2.0000      -0.496754       -13.5174
 212   2.0000      -0.496445       -13.5089
 213   2.0000      -0.492439       -13.4000
 214   2.0000      -0.491698       -13.3798
 215   2.0000      -0.490129       -13.3371
 216   2.0000      -0.487308       -13.2603
 217   2.0000      -0.485125       -13.2009
 218   2.0000      -0.480606       -13.0780
 219   2.0000      -0.480288       -13.0693
 220   2.0000      -0.479256       -13.0412
 221   2.0000      -0.478446       -13.0192
 222   2.0000      -0.476300       -12.9608
 223   2.0000      -0.471849       -12.8397
 224   2.0000      -0.469087       -12.7645
 225   2.0000      -0.466177       -12.6853
 226   2.0000      -0.464080       -12.6283
 227   2.0000      -0.463046       -12.6001
 228   2.0000      -0.462892       -12.5959
 229   2.0000      -0.460341       -12.5265
 230   2.0000      -0.459869       -12.5137
 231   2.0000      -0.455606       -12.3977
 232   2.0000      -0.454012       -12.3543
 233   2.0000      -0.452292       -12.3075
 234   2.0000      -0.451361       -12.2822
 235   2.0000      -0.450839       -12.2679
 236   2.0000      -0.449757       -12.2385
 237   2.0000      -0.448938       -12.2162
 238   2.0000      -0.447213       -12.1693
 239   2.0000      -0.446052       -12.1377
 240   2.0000      -0.443689       -12.0734
 241   2.0000      -0.443316       -12.0632
 242   2.0000      -0.438335       -11.9277
 243   2.0000      -0.435980       -11.8636
 244   2.0000      -0.434017       -11.8102
 245   2.0000      -0.433725       -11.8023
 246   2.0000      -0.431030       -11.7289
 247   2.0000      -0.430633       -11.7181
 248   2.0000      -0.428389       -11.6571
 249   2.0000      -0.426535       -11.6066
 250   2.0000      -0.423848       -11.5335
 251   2.0000      -0.423307       -11.5188
 252   2.0000      -0.421934       -11.4814
 253   2.0000      -0.421047       -11.4573
 254   2.0000      -0.420477       -11.4418
 255   2.0000      -0.417731       -11.3670
 256   2.0000      -0.416303       -11.3282
 257   2.0000      -0.413469       -11.2511
 258   2.0000      -0.412479       -11.2241
 259   2.0000      -0.411285       -11.1916
 260   2.0000      -0.407607       -11.0915
 261   2.0000      -0.402625       -10.9560
 262   2.0000      -0.400519       -10.8987
 263   2.0000      -0.398216       -10.8360
 264   2.0000      -0.395109       -10.7515
 265   2.0000      -0.391941       -10.6653
 266   2.0000      -0.390606       -10.6289
 267   2.0000      -0.380447       -10.3525
 268   2.0000      -0.379457       -10.3255
 269   2.0000      -0.378580       -10.3017
 270   2.0000      -0.367270        -9.9939
 271   2.0000      -0.366681        -9.9779
 272   2.0000      -0.364854        -9.9282
 273   2.0000      -0.357115        -9.7176
 274   2.0000      -0.353387        -9.6161
 275   2.0000      -0.347137        -9.4461
 276   2.0000      -0.333924        -9.0865
 277   2.0000      -0.329963        -8.9788
 278   2.0000      -0.328380        -8.9357
 279   2.0000      -0.324084        -8.8188
 280   2.0000      -0.319754        -8.7010
 281   2.0000      -0.308715        -8.4006
 282   2.0000      -0.299385        -8.1467
 283   2.0000      -0.293804        -7.9948
 284   2.0000      -0.274543        -7.4707
 285   2.0000      -0.261617        -7.1190
 286   2.0000      -0.242106        -6.5880
 287   0.0000      -0.128961        -3.5092
 288   0.0000      -0.098772        -2.6877
 289   0.0000      -0.092821        -2.5258
 290   0.0000      -0.065057        -1.7703
 291   0.0000      -0.057117        -1.5542

MULLIKEN ATOMIC CHARGES
-----------------------
   0 C :    0.293036
   1 C :   -0.339919
   2 C :   -0.185289
   3 N :    0.152036
   4 C :   -0.203352
   5 N :    0.160789
   6 C :    0.020028
   7 C :   -0.021591
   8 C :   -0.071565
   9 C :    0.122790
  10 C :   -0.089409
  11 C :   -0.022637
  12 S :    0.188823
  13 C :   -0.122553
  14 C :    0.035934
  15 Br:    0.027113
  16 C :    0.141169
  17 O :   -0.140110
  18 C :   -0.069424
  19 C :   -0.038112
  20 C :    0.075886
  21 C :   -0.093994
  22 C :    0.012688
  23 C :    0.124866
  24 C :   -0.064323
  25 C :    0.074717
  26 C :    0.109048
  27 C :    0.021276
  28 C :   -0.136889
  29 C :    0.065109
  30 C :    0.024585
  31 C :    0.069017
  32 C :    0.022010
  33 C :   -0.106555
  34 C :    0.124860
  35 C :   -0.006978
  36 C :   -0.037600
  37 C :    0.023533
  38 C :   -0.069031
  39 C :    0.109562
  40 C :   -0.041444
  41 C :   -0.063505
  42 N :    0.051817
  43 C :   -0.136820
  44 C :   -0.140355
  45 N :    0.056956
  46 C :   -0.210299
  47 N :    0.236838
  48 C :   -0.213115
  49 N :    0.243020
  50 C :    0.063394
  51 C :    0.008024
  52 C :    0.005817
  53 N :   -0.286598
  54 S :    0.554249
  55 N :   -0.276847
  56 C :   -0.071007
  57 C :   -0.199834
  58 C :    0.132894
  59 C :    0.216321
  60 N :   -0.153189
  61 C :    0.073648
  62 C :   -0.040096
  63 C :    0.130901
  64 C :   -0.145551
  65 C :    0.136215
  66 C :   -0.100043
  67 C :   -0.026433
  68 C :   -0.166561
  69 N :    0.125921
  70 C :    0.089093
  71 C :   -0.110521
  72 C :    0.097952
  73 C :   -0.020411
  74 C :   -0.103251
  75 C :   -0.173871
  76 N :    0.111430
  77 C :   -0.009549
  78 C :   -0.001794
  79 H :   -0.009837
  80 H :   -0.005330
  81 H :   -0.001801
  82 H :    0.030539
  83 H :   -0.028602
  84 H :   -0.026617
  85 H :   -0.015996
  86 H :   -0.001951
  87 H :    0.003369
  88 H :    0.019997
  89 H :    0.013903
  90 H :    0.024336
  91 H :    0.000465
  92 H :   -0.001423
  93 H :    0.025534
  94 H :    0.011584
  95 H :    0.021727
  96 H :   -0.034302
  97 H :   -0.017796
  98 H :   -0.028226
  99 H :   -0.003375
 100 H :   -0.005263
 101 H :    0.003695
 102 H :    0.008047
 103 H :    0.018298
 104 H :    0.041310
 105 H :    0.019549
 106 H :    0.021104
 107 H :    0.126774
 108 H :    0.006420
 109 H :   -0.022721
 110 H :   -0.012004
 111 H :   -0.013034
 112 H :   -0.012091
 113 H :   -0.014088
 114 H :   -0.018767
 115 H :    0.028993
 116 H :    0.024644
Sum of atomic charges:   -0.0000000

LOEWDIN ATOMIC CHARGES
----------------------
   0 C :    0.075910
   1 C :   -0.138471
   2 C :   -0.018244
   3 N :   -0.051253
   4 C :   -0.024746
   5 N :   -0.049612
   6 C :   -0.022117
   7 C :   -0.051110
   8 C :    0.022556
   9 C :   -0.031402
  10 C :   -0.143133
  11 C :   -0.009127
  12 S :    0.434061
  13 C :   -0.270399
  14 C :   -0.070383
  15 Br:    0.139261
  16 C :    0.082093
  17 O :   -0.133557
  18 C :   -0.093912
  19 C :    0.082698
  20 C :   -0.039303
  21 C :   -0.001308
  22 C :   -0.000307
  23 C :    0.001834
  24 C :   -0.018072
  25 C :    0.026926
  26 C :   -0.010186
  27 C :    0.005725
  28 C :   -0.035987
  29 C :   -0.011659
  30 C :   -0.057412
  31 C :   -0.011162
  32 C :   -0.057823
  33 C :   -0.010740
  34 C :   -0.026987
  35 C :   -0.002628
  36 C :   -0.010715
  37 C :    0.025433
  38 C :   -0.032318
  39 C :   -0.001692
  40 C :   -0.013385
  41 C :   -0.012018
  42 N :    0.009492
  43 C :   -0.026762
  44 C :   -0.035356
  45 N :    0.007623
  46 C :   -0.038392
  47 N :   -0.006253
  48 C :   -0.037512
  49 N :   -0.003989
  50 C :   -0.028784
  51 C :   -0.040383
  52 C :   -0.041086
  53 N :   -0.277547
  54 S :    0.684891
  55 N :   -0.286642
  56 C :   -0.042394
  57 C :   -0.008032
  58 C :   -0.050633
  59 C :    0.051987
  60 N :    0.010194
  61 C :    0.060254
  62 C :   -0.109219
  63 C :    0.007103
  64 C :   -0.075240
  65 C :    0.045138
  66 C :   -0.069029
  67 C :    0.042483
  68 C :   -0.029844
  69 N :   -0.068146
  70 C :    0.013680
  71 C :   -0.025278
  72 C :   -0.030420
  73 C :    0.039787
  74 C :   -0.093170
  75 C :   -0.028106
  76 N :   -0.084934
  77 C :   -0.029786
  78 C :   -0.020516
  79 H :    0.041185
  80 H :    0.041311
  81 H :    0.039381
  82 H :    0.045724
  83 H :    0.028903
  84 H :    0.030757
  85 H :    0.031665
  86 H :    0.020077
  87 H :    0.021940
  88 H :    0.024649
  89 H :    0.026361
  90 H :    0.026427
  91 H :    0.021007
  92 H :    0.020199
  93 H :    0.026623
  94 H :    0.025442
  95 H :    0.025301
  96 H :    0.026748
  97 H :    0.030914
  98 H :    0.030657
  99 H :    0.027644
 100 H :    0.029192
 101 H :    0.033826
 102 H :    0.027652
 103 H :    0.030729
 104 H :    0.042826
 105 H :    0.023105
 106 H :    0.033363
 107 H :    0.084335
 108 H :    0.028461
 109 H :    0.030178
 110 H :    0.030515
 111 H :    0.029705
 112 H :    0.029096
 113 H :    0.031572
 114 H :    0.028241
 115 H :    0.027365
 116 H :    0.026419

  Mayer bond orders larger than 0.100000
B(  0-C ,  1-C ) :   1.6476 B(  0-C ,  6-C ) :   1.0119 B(  0-C , 18-C ) :   1.0475
B(  1-C ,  2-C ) :   1.1381 B(  1-C ,  4-C ) :   1.1410 B(  2-C ,  3-N ) :   2.9730
B(  4-C ,  5-N ) :   2.9910 B(  6-C ,  7-C ) :   1.2720 B(  6-C , 11-C ) :   1.3996
B(  7-C ,  8-C ) :   1.4216 B(  7-C , 16-C ) :   0.9422 B(  8-C ,  9-C ) :   1.2452
B(  8-C , 79-H ) :   1.0182 B(  9-C , 10-C ) :   1.3021 B(  9-C , 14-C ) :   1.1616
B( 10-C , 11-C ) :   1.3342 B( 10-C , 12-S ) :   1.0869 B( 11-C , 80-H ) :   0.9820
B( 12-S , 13-C ) :   1.0858 B( 13-C , 14-C ) :   1.6182 B( 13-C , 15-Br) :   1.0208
B( 14-C , 81-H ) :   1.0014 B( 16-C , 17-O ) :   2.2336 B( 16-C , 18-C ) :   0.9305
B( 18-C , 19-C ) :   1.6332 B( 19-C , 20-C ) :   1.0803 B( 19-C , 82-H ) :   0.9519
B( 20-C , 21-C ) :   1.2583 B( 20-C , 25-C ) :   1.3521 B( 21-C , 22-C ) :   1.3965
B( 21-C , 83-H ) :   1.0134 B( 22-C , 23-C ) :   1.3513 B( 22-C , 28-C ) :   0.9161
B( 23-C , 24-C ) :   1.3282 B( 23-C , 26-C ) :   1.0045 B( 24-C , 25-C ) :   1.4023
B( 24-C , 84-H ) :   0.9945 B( 25-C , 85-H ) :   0.9769 B( 26-C , 27-C ) :   1.3656
B( 26-C , 36-C ) :   1.3194 B( 27-C , 28-C ) :   0.9143 B( 27-C , 33-C ) :   1.3711
B( 28-C , 29-C ) :   1.0383 B( 28-C , 31-C ) :   1.0356 B( 29-C , 30-C ) :   1.1015
B( 29-C , 86-H ) :   0.9392 B( 29-C , 87-H ) :   0.9390 B( 30-C , 88-H ) :   0.9645
B( 30-C , 89-H ) :   0.9639 B( 30-C , 90-H ) :   0.9643 B( 31-C , 32-C ) :   1.1003
B( 31-C , 91-H ) :   0.9399 B( 31-C , 92-H ) :   0.9395 B( 32-C , 93-H ) :   0.9645
B( 32-C , 94-H ) :   0.9640 B( 32-C , 95-H ) :   0.9644 B( 33-C , 34-C ) :   1.2748
B( 33-C , 96-H ) :   1.0177 B( 34-C , 35-C ) :   1.3297 B( 34-C , 37-C ) :   1.0705
B( 35-C , 36-C ) :   1.4091 B( 35-C , 97-H ) :   0.9866 B( 36-C , 98-H ) :   0.9918
B( 37-C , 38-C ) :   1.5731 B( 37-C , 99-H ) :   0.9718 B( 38-C , 39-C ) :   1.2060
B( 38-C ,100-H ) :   0.9556 B( 39-C , 40-C ) :   1.2442 B( 39-C , 50-C ) :   0.1332
B( 39-C , 52-C ) :   1.1746 B( 40-C , 41-C ) :   1.0986 B( 40-C , 45-N ) :   1.4345
B( 41-C , 42-N ) :   1.4155 B( 41-C , 50-C ) :   1.3276 B( 42-N , 43-C ) :   1.7577
B( 43-C , 44-C ) :   1.1848 B( 43-C , 48-C ) :   1.1520 B( 44-C , 45-N ) :   1.7552
B( 44-C , 46-C ) :   1.1509 B( 46-C , 47-N ) :   3.0474 B( 48-C , 49-N ) :   3.0514
B( 50-C , 51-C ) :   1.2243 B( 50-C , 56-C ) :   1.0335 B( 51-C , 52-C ) :   1.1077
B( 51-C , 55-N ) :   1.5222 B( 52-C , 53-N ) :   1.4936 B( 53-N , 54-S ) :   1.2875
B( 53-N , 55-N ) :   0.1558 B( 54-S , 55-N ) :   1.2919 B( 56-C , 57-C ) :   1.8345
B( 56-C ,101-H ) :   0.9499 B( 57-C , 58-C ) :   1.0937 B( 57-C , 59-C ) :   1.0303
B( 58-C ,102-H ) :   0.9464 B( 58-C ,103-H ) :   0.9420 B( 58-C ,104-H ) :   0.9335
B( 59-C , 60-N ) :   0.9856 B( 59-C ,105-H ) :   0.9342 B( 59-C ,106-H ) :   0.9309
B( 60-N , 61-C ) :   1.2553 B( 60-N ,107-H ) :   0.9344 B( 61-C , 62-C ) :   1.5445
B( 61-C ,108-H ) :   0.9635 B( 62-C , 63-C ) :   1.1972 B( 62-C ,109-H ) :   0.9648
B( 63-C , 64-C ) :   1.4784 B( 63-C , 67-C ) :   1.0253 B( 64-C , 65-C ) :   1.1665
B( 64-C ,110-H ) :   1.0091 B( 65-C , 66-C ) :   1.0838 B( 65-C , 70-C ) :   1.3816
B( 66-C , 67-C ) :   1.7066 B( 66-C , 68-C ) :   1.0855 B( 67-C ,111-H ) :   1.0120
B( 68-C , 69-N ) :   2.9675 B( 70-C , 71-C ) :   1.1350 B( 70-C , 74-C ) :   1.1251
B( 71-C , 72-C ) :   1.5571 B( 71-C ,112-H ) :   0.9964 B( 72-C , 73-C ) :   1.0694
B( 72-C , 77-C ) :   1.0810 B( 73-C , 74-C ) :   1.6274 B( 73-C ,113-H ) :   1.0225
B( 74-C , 75-C ) :   1.0928 B( 75-C , 76-N ) :   2.9592 B( 77-C , 78-C ) :   1.9310
B( 77-C ,114-H ) :   0.9653 B( 78-C ,115-H ) :   0.9534 B( 78-C ,116-H ) :   0.9490

-----------------------------------------------------------------------------
         ABSORPTION SPECTRUM VIA TRANSITION ELECTRIC DIPOLE MOMENTS
-----------------------------------------------------------------------------
State   Energy  Wavelength   fosc         T2         TX        TY        TZ
        (cm-1)    (nm)                  (au**2)     (au)      (au)      (au)
-----------------------------------------------------------------------------
   0   12893.9    775.6   0.729342807  18.62183  -2.16658   3.59434   1.00422
   1   13675.7    731.2   0.049000982   1.17959  -0.20708   1.03521   0.25506
   2   14300.1    699.3   0.276540569   6.36640  -2.50752   0.12018   0.25358
   3   18446.2    542.1   0.004265742   0.07613   0.17477  -0.18224  -0.11125
   4   22245.5    449.5   0.693251041  10.25944   0.83911  -2.97463  -0.84079
   5   23559.3    424.5   0.419827688   5.86657  -0.83534   2.18429   0.63060
   6   23933.4    417.8   0.001330481   0.01830  -0.01842   0.12961   0.03409
   7   26453.1    378.0   0.009103048   0.11329   0.28674   0.00041  -0.17626
   8   27085.3    369.2   0.238624140   2.90039   1.57658  -0.54760  -0.33897
   9   27168.1    368.1   0.357606412   4.33332  -1.71955   1.12275   0.34048
  10   27387.4    365.1   0.060696001   0.72960  -0.06795   0.64393  -0.55708
  11   27506.7    363.5   0.080357518   0.96175   0.87887  -0.42793  -0.07879
  12   27637.7    361.8   0.002997267   0.03570   0.04671  -0.14164   0.11601
  13   28053.0    356.5   0.040633114   0.47684  -0.21304   0.63528   0.16696
  14   28314.9    353.2   0.172659652   2.00748  -0.09605   0.91416  -1.07823
  15   28667.7    348.8   0.037226612   0.42750  -0.14504   0.56237  -0.30033
  16   28968.2    345.2   0.026230916   0.29810  -0.33377  -0.18994  -0.38811
  17   29417.5    339.9   0.243926646   2.72979  -0.51572   1.54701  -0.26567
  18   29846.7    335.0   0.004021895   0.04436  -0.01682   0.20961  -0.01187
  19   30085.2    332.4   0.000850316   0.00930  -0.00476  -0.04690  -0.08416
  20   30137.5    331.8   0.002900245   0.03168   0.16183  -0.05290   0.05189
  21   30991.2    322.7   0.067266016   0.71455   0.05662   0.30958  -0.78454
  22   31520.8    317.3   0.001020823   0.01066  -0.08378   0.05733  -0.01887
  23   31596.7    316.5   0.055018576   0.57325  -0.32299   0.20595  -0.65308
  24   31958.2    312.9   0.053749595   0.55369  -0.58521   0.36294  -0.28196
  25   32342.6    309.2   0.336078543   3.42091   0.15374  -1.81441  -0.32432
  26   32888.2    304.1   0.017721038   0.17739  -0.35689  -0.04188  -0.21969
  27   32943.2    303.6   0.269969763   2.69789  -0.67163  -0.43884  -1.43325
  28   33107.4    302.0   0.520107929   5.17183   1.32817   1.34895   1.26021
  29   33479.0    298.7   0.250252261   2.46083  -1.37896   0.03832  -0.74687
  30   33620.2    297.4   0.568567852   5.56746   0.69747  -1.05208   1.99352
  31   33695.4    296.8   0.156983723   1.53377  -1.18635   0.24773  -0.25488
  32   33879.1    295.2   0.029787038   0.28945  -0.27650   0.31818   0.33430
  33   34099.5    293.3   0.311826575   3.01051  -1.08055   1.22129   0.59277
  34   34516.9    289.7   0.054937051   0.52397  -0.59995   0.37548   0.15182
  35   35478.7    281.9   0.000422673   0.00392   0.04742  -0.04026   0.00726
  36   35514.0    281.6   0.069557597   0.64479   0.01756   0.05147  -0.80115
  37   36053.6    277.4   0.016832897   0.15370  -0.33090   0.19533   0.07783
  38   36127.5    276.8   0.150049939   1.36733   0.97495  -0.59209  -0.25735
  39   36556.0    273.6   0.200679921   1.80726   1.08251  -0.68764  -0.40322
  40   36995.9    270.3   0.104360722   0.92866   0.69787  -0.47193   0.46789
  41   37326.2    267.9   0.079296417   0.69938  -0.32432   0.68898  -0.34570
  42   38141.7    262.2   0.016446973   0.14196  -0.31125   0.12251  -0.17341
  43   38306.9    261.0   0.000054334   0.00047   0.00887  -0.01634  -0.01102
  44   38330.8    260.9   0.004975942   0.04274   0.18604  -0.08976  -0.00826
  45   38637.1    258.8   0.022059096   0.18796  -0.21882   0.26279   0.26649
  46   39245.7    254.8   0.389767776   3.26956   1.02603   1.20604   0.87309
  47   39666.5    252.1   0.130435922   1.08255  -0.57794   0.83602   0.22275
  48   39751.2    251.6   0.000075497   0.00063   0.00258  -0.02466   0.00323
  49   39790.2    251.3   0.001969856   0.01630   0.12288   0.02824   0.02001
  50   39973.4    250.2   0.066012479   0.54366  -0.44225  -0.15116  -0.57029
  51   40017.2    249.9   0.062171675   0.51147  -0.36099   0.61710   0.01867

FINAL SINGLE POINT ENERGY     -6505.073242048315

DIPOLE MOMENT
-------------
                                X             Y             Z
Electronic contribution:    122.19235    -232.09176      14.87927
Nuclear contribution   :   -121.74908     229.81476     -15.46817
                        -----------------------------------------
Total Dipole Moment    :      0.44326      -2.27700      -0.58890
                        -----------------------------------------
Magnitude (a.u.)       :      2.39333
Magnitude (Debye)      :      6.08336

Rotational constants in cm-1:     0.001423     0.000118     0.000116
Rotational constants in MHz :    42.665563     3.526290     3.471506

                             ****ORCA TERMINATED NORMALLY****
TOTAL RUN TIME: 0 days 0 hours 13 minutes 30 seconds 639 msec
