                         Program Version 4.2.0 -  RELEASE  -
|  1> # ORCA input file
|  2> # SCF done       -179.598596559166          0.000905650706
|  3> ! CAM-B3LYP def2-SVP def2/J RIJCOSX Grid4 TightSCF
|  4> %maxcore 5000
|  5> %tddft
|  6>     Mode sTDDFT
|  7>     Ethresh 5.0
|  8>     maxcore 5000
|  9> end
| 10>
| 11> %pal
| 12>   nprocs 6
| 13>   end
| 14> * xyz 0 1
| 15>    C       -4.66718         4.27182        -9.27588
| 16>    C       -3.70636         4.97278        -8.58286
| 17>    C       -3.54560         6.36898        -8.64455
| 18>    N       -3.38672         7.50643        -8.61028
| 19>    C       -2.85892         4.40761        -7.61774
| 20>    N       -2.16827         4.04118        -6.77252
| 21>    C       -5.66699         4.84761       -10.15790
| 22>    C       -6.63072         3.85232       -10.45908
| 23>    C       -7.70901         4.08992       -11.27454
| 24>    C       -7.84373         5.37203       -11.82027
| 25>    C       -6.87677         6.36006       -11.51355
| 26>    C       -5.78627         6.11957       -10.68715
| 27>    S       -7.23266         7.86709       -12.30127
| 28>    C       -8.65284         7.15949       -13.02536
| 29>    C       -8.85374         5.86198       -12.69103
| 30>   Br       -9.73447         8.20048       -14.14948
| 31>    C       -6.25505         2.59133        -9.79323
| 32>    O       -6.83291         1.52647        -9.87713
| 33>    C       -4.97584         2.87257        -9.10701
| 34>    C       -4.15326         1.91902        -8.57128
| 35>    N       -4.53136         0.68847        -8.16118
| 36>    C       -5.80184         0.28954        -7.80601
| 37>    S       -6.31242        -1.31127        -8.23163
| 38>    C       -7.86379        -0.98942        -7.54144
| 39>    N       -8.82249        -2.01246        -7.56664
| 40>    O       -9.91357        -1.77527        -7.08552
| 41>    O       -8.48261        -3.06936        -8.06815
| 42>    C       -7.97228         0.27112        -7.01969
| 43>    C       -6.78343         1.01665        -7.13321
| 44>    C       -6.64620         2.34128        -6.55781
| 45>    C       -5.50448         2.81670        -6.04024
| 46>    C       -5.25049         4.11313        -5.45726
| 47>    C       -5.73596         5.31115        -5.80924
| 48>    C       -6.74198         5.55846        -6.88536
| 49>    C       -5.21849         6.54282        -5.10516
| 50>    N       -3.77119         6.58118        -5.10264
| 51>    C       -3.05007         7.58922        -4.59796
| 52>    C       -3.55158         8.68969        -3.96163
| 53>    C       -2.73110         9.70193        -3.44802
| 54>    C       -3.19059        10.81616        -2.78943
| 55>    C       -2.42640        11.87187        -2.24507
| 56>    C       -3.16367        12.84741        -1.64214
| 57>    C       -4.55650        12.61440        -1.67631
| 58>    S       -4.90318        11.11755        -2.49941
| 59>    C       -5.56373        13.40802        -1.15565
| 60>    C       -5.44476        14.63665        -0.47620
| 61>    C       -6.63730        15.16934        -0.08746
| 62>    C       -7.76779        14.38862        -0.43791
| 63>    S       -7.25443        12.94854        -1.28581
| 64>    C       -9.07244        14.71331        -0.15519
| 65>    C      -10.22112        13.97272        -0.48155
| 66>    S      -10.16490        12.45433        -1.33575
| 67>    C      -11.86842        12.29828        -1.29261
| 68>    C      -12.47194        13.34746        -0.65887
| 69>    C      -11.54589        14.30968        -0.19100
| 70>    C      -11.86832        15.56589         0.54375
| 71>    F      -11.41799        16.66440        -0.10320
| 72>    F      -13.16701        15.76698         0.75385
| 73>    F      -11.28027        15.60761         1.76106
| 74>    C      -13.96124        13.40912        -0.51288
| 75>    F      -14.54816        12.33717        -1.07640
| 76>    F      -14.36491        13.41690         0.76596
| 77>    F      -14.50487        14.47937        -1.10941
| 78>    H       -8.42604         3.31293       -11.48783
| 79>    H       -5.06823         6.89867       -10.49080
| 80>    H       -9.67893         5.27278       -13.04681
| 81>    H       -3.09643         2.12659        -8.45074
| 82>    H       -3.82576        -0.03770        -8.15868
| 83>    H       -8.87002         0.62959        -6.54907
| 84>    H       -7.56374         2.90642        -6.48496
| 85>    H       -4.64464         2.15853        -5.99919
| 86>    H       -4.49595         4.09025        -4.67915
| 87>    H       -6.45322         6.42438        -7.48088
| 88>    H       -7.71592         5.77286        -6.44428
| 89>    H       -6.84604         4.69708        -7.53894
| 90>    H       -5.57675         6.55118        -4.06599
| 91>    H       -5.60130         7.44498        -5.59530
| 92>    H       -3.28974         5.81774        -5.55318
| 93>    H       -1.97981         7.48480        -4.71452
| 94>    H       -4.61735         8.80659        -3.83371
| 95>    H       -1.66009         9.60756        -3.57272
| 96>    H       -1.35272        11.87912        -2.31529
| 97>    H       -2.74626        13.72130        -1.17593
| 98>    H       -4.49042        15.09646        -0.29216
| 99>    H       -6.74688        16.09922         0.44107
|100>    H       -9.22376        15.64140         0.37638
|101>    H      -12.34604        11.44678        -1.73272
|102> *
|103>
|104>                          ****END OF INPUT****

CARTESIAN COORDINATES (ANGSTROEM)
---------------------------------
  C     -4.667180    4.271820   -9.275880
  C     -3.706360    4.972780   -8.582860
  C     -3.545600    6.368980   -8.644550
  N     -3.386720    7.506430   -8.610280
  C     -2.858920    4.407610   -7.617740
  N     -2.168270    4.041180   -6.772520
  C     -5.666990    4.847610  -10.157900
  C     -6.630720    3.852320  -10.459080
  C     -7.709010    4.089920  -11.274540
  C     -7.843730    5.372030  -11.820270
  C     -6.876770    6.360060  -11.513550
  C     -5.786270    6.119570  -10.687150
  S     -7.232660    7.867090  -12.301270
  C     -8.652840    7.159490  -13.025360
  C     -8.853740    5.861980  -12.691030
  Br    -9.734470    8.200480  -14.149480
  C     -6.255050    2.591330   -9.793230
  O     -6.832910    1.526470   -9.877130
  C     -4.975840    2.872570   -9.107010
  C     -4.153260    1.919020   -8.571280
  N     -4.531360    0.688470   -8.161180
  C     -5.801840    0.289540   -7.806010
  S     -6.312420   -1.311270   -8.231630
  C     -7.863790   -0.989420   -7.541440
  N     -8.822490   -2.012460   -7.566640
  O     -9.913570   -1.775270   -7.085520
  O     -8.482610   -3.069360   -8.068150
  C     -7.972280    0.271120   -7.019690
  C     -6.783430    1.016650   -7.133210
  C     -6.646200    2.341280   -6.557810
  C     -5.504480    2.816700   -6.040240
  C     -5.250490    4.113130   -5.457260
  C     -5.735960    5.311150   -5.809240
  C     -6.741980    5.558460   -6.885360
  C     -5.218490    6.542820   -5.105160
  N     -3.771190    6.581180   -5.102640
  C     -3.050070    7.589220   -4.597960
  C     -3.551580    8.689690   -3.961630
  C     -2.731100    9.701930   -3.448020
  C     -3.190590   10.816160   -2.789430
  C     -2.426400   11.871870   -2.245070
  C     -3.163670   12.847410   -1.642140
  C     -4.556500   12.614400   -1.676310
  S     -4.903180   11.117550   -2.499410
  C     -5.563730   13.408020   -1.155650
  C     -5.444760   14.636650   -0.476200
  C     -6.637300   15.169340   -0.087460
  C     -7.767790   14.388620   -0.437910
  S     -7.254430   12.948540   -1.285810
  C     -9.072440   14.713310   -0.155190
  C    -10.221120   13.972720   -0.481550
  S    -10.164900   12.454330   -1.335750
  C    -11.868420   12.298280   -1.292610
  C    -12.471940   13.347460   -0.658870
  C    -11.545890   14.309680   -0.191000
  C    -11.868320   15.565890    0.543750
  F    -11.417990   16.664400   -0.103200
  F    -13.167010   15.766980    0.753850
  F    -11.280270   15.607610    1.761060
  C    -13.961240   13.409120   -0.512880
  F    -14.548160   12.337170   -1.076400
  F    -14.364910   13.416900    0.765960
  F    -14.504870   14.479370   -1.109410
  H     -8.426040    3.312930  -11.487830
  H     -5.068230    6.898670  -10.490800
  H     -9.678930    5.272780  -13.046810
  H     -3.096430    2.126590   -8.450740
  H     -3.825760   -0.037700   -8.158680
  H     -8.870020    0.629590   -6.549070
  H     -7.563740    2.906420   -6.484960
  H     -4.644640    2.158530   -5.999190
  H     -4.495950    4.090250   -4.679150
  H     -6.453220    6.424380   -7.480880
  H     -7.715920    5.772860   -6.444280
  H     -6.846040    4.697080   -7.538940
  H     -5.576750    6.551180   -4.065990
  H     -5.601300    7.444980   -5.595300
  H     -3.289740    5.817740   -5.553180
  H     -1.979810    7.484800   -4.714520
  H     -4.617350    8.806590   -3.833710
  H     -1.660090    9.607560   -3.572720
  H     -1.352720   11.879120   -2.315290
  H     -2.746260   13.721300   -1.175930
  H     -4.490420   15.096460   -0.292160
  H     -6.746880   16.099220    0.441070
  H     -9.223760   15.641400    0.376380
  H    -12.346040   11.446780   -1.732720

 Total Charge           Charge          ....    0
 Multiplicity           Mult            ....    1
 Number of Electrons    NEL             ....  510
 Basis Dimension        Dim             .... 1040

ORBITAL ENERGIES
----------------

  NO   OCC          E(Eh)            E(eV)
   0   2.0000    -482.896494    -13140.2816
   1   2.0000     -88.993169     -2421.6272
   2   2.0000     -88.989297     -2421.5219
   3   2.0000     -88.954354     -2420.5710
   4   2.0000     -88.934456     -2420.0296
   5   2.0000     -88.933311     -2419.9984
   6   2.0000     -62.574169     -1702.7297
   7   2.0000     -56.408141     -1534.9435
   8   2.0000     -56.405389     -1534.8687
   9   2.0000     -56.405364     -1534.8680
  10   2.0000     -24.780744      -674.3183
  11   2.0000     -24.778406      -674.2547
  12   2.0000     -24.774211      -674.1406
  13   2.0000     -24.774069      -674.1367
  14   2.0000     -24.771338      -674.0624
  15   2.0000     -24.771148      -674.0572
  16   2.0000     -19.245998      -523.7102
  17   2.0000     -19.245535      -523.6976
  18   2.0000     -19.233498      -523.3701
  19   2.0000     -14.657513      -398.8512
  20   2.0000     -14.519275      -395.0896
  21   2.0000     -14.447173      -393.1276
  22   2.0000     -14.443797      -393.0357
  23   2.0000     -14.434235      -392.7755
  24   2.0000     -10.499109      -285.6953
  25   2.0000     -10.496972      -285.6371
  26   2.0000     -10.385823      -282.6126
  27   2.0000     -10.383356      -282.5455
  28   2.0000     -10.375783      -282.3394
  29   2.0000     -10.372231      -282.2428
  30   2.0000     -10.363837      -282.0144
  31   2.0000     -10.359110      -281.8857
  32   2.0000     -10.353389      -281.7300
  33   2.0000     -10.348869      -281.6070
  34   2.0000     -10.340561      -281.3810
  35   2.0000     -10.337121      -281.2874
  36   2.0000     -10.324763      -280.9511
  37   2.0000     -10.324395      -280.9411
  38   2.0000     -10.323570      -280.9186
  39   2.0000     -10.322956      -280.9019
  40   2.0000     -10.321146      -280.8527
  41   2.0000     -10.316931      -280.7380
  42   2.0000     -10.315917      -280.7104
  43   2.0000     -10.314438      -280.6701
  44   2.0000     -10.313270      -280.6384
  45   2.0000     -10.309503      -280.5359
  46   2.0000     -10.309362      -280.5320
  47   2.0000     -10.305513      -280.4273
  48   2.0000     -10.305084      -280.4156
  49   2.0000     -10.304154      -280.3903
  50   2.0000     -10.300156      -280.2815
  51   2.0000     -10.299306      -280.2584
  52   2.0000     -10.297721      -280.2152
  53   2.0000     -10.290520      -280.0193
  54   2.0000     -10.288162      -279.9551
  55   2.0000     -10.287682      -279.9421
  56   2.0000     -10.287513      -279.9375
  57   2.0000     -10.287089      -279.9259
  58   2.0000     -10.284460      -279.8544
  59   2.0000     -10.283950      -279.8405
  60   2.0000     -10.279632      -279.7230
  61   2.0000     -10.277422      -279.6629
  62   2.0000     -10.274446      -279.5819
  63   2.0000     -10.271675      -279.5065
  64   2.0000     -10.264024      -279.2983
  65   2.0000     -10.260917      -279.2137
  66   2.0000     -10.258957      -279.1604
  67   2.0000      -8.803584      -239.5577
  68   2.0000      -8.089025      -220.1136
  69   2.0000      -8.085277      -220.0116
  70   2.0000      -8.049936      -219.0499
  71   2.0000      -8.030744      -218.5277
  72   2.0000      -8.029406      -218.4912
  73   2.0000      -6.639937      -180.6819
  74   2.0000      -6.625305      -180.2837
  75   2.0000      -6.625057      -180.2770
  76   2.0000      -6.058605      -164.8630
  77   2.0000      -6.054960      -164.7638
  78   2.0000      -6.054219      -164.7437
  79   2.0000      -6.050666      -164.6470
  80   2.0000      -6.050593      -164.6450
  81   2.0000      -6.046514      -164.5340
  82   2.0000      -6.019171      -163.7900
  83   2.0000      -6.014858      -163.6726
  84   2.0000      -6.012247      -163.6015
  85   2.0000      -6.000416      -163.2796
  86   2.0000      -5.999141      -163.2449
  87   2.0000      -5.996493      -163.1729
  88   2.0000      -5.995054      -163.1337
  89   2.0000      -5.991708      -163.0427
  90   2.0000      -5.990385      -163.0067
  91   2.0000      -2.755845       -74.9904
  92   2.0000      -2.751674       -74.8768
  93   2.0000      -2.751488       -74.8718
  94   2.0000      -2.739860       -74.5554
  95   2.0000      -2.739859       -74.5554
  96   2.0000      -1.368326       -37.2340
  97   2.0000      -1.364341       -37.1256
  98   2.0000      -1.327364       -36.1194
  99   2.0000      -1.272409       -34.6240
 100   2.0000      -1.267779       -34.4980
 101   2.0000      -1.267030       -34.4776
 102   2.0000      -1.260661       -34.3043
 103   2.0000      -1.150613       -31.3098
 104   2.0000      -1.146482       -31.1974
 105   2.0000      -1.113392       -30.2969
 106   2.0000      -1.048124       -28.5209
 107   2.0000      -1.042424       -28.3658
 108   2.0000      -1.032678       -28.1006
 109   2.0000      -1.017869       -27.6976
 110   2.0000      -1.016906       -27.6714
 111   2.0000      -1.006676       -27.3930
 112   2.0000      -0.988088       -26.8872
 113   2.0000      -0.980705       -26.6863
 114   2.0000      -0.959424       -26.1072
 115   2.0000      -0.958267       -26.0758
 116   2.0000      -0.941603       -25.6223
 117   2.0000      -0.925468       -25.1833
 118   2.0000      -0.918504       -24.9938
 119   2.0000      -0.912386       -24.8273
 120   2.0000      -0.901999       -24.5446
 121   2.0000      -0.895143       -24.3581
 122   2.0000      -0.889684       -24.2095
 123   2.0000      -0.878620       -23.9085
 124   2.0000      -0.864655       -23.5285
 125   2.0000      -0.860860       -23.4252
 126   2.0000      -0.855055       -23.2672
 127   2.0000      -0.846062       -23.0225
 128   2.0000      -0.844618       -22.9832
 129   2.0000      -0.829457       -22.5707
 130   2.0000      -0.821579       -22.3563
 131   2.0000      -0.811980       -22.0951
 132   2.0000      -0.808717       -22.0063
 133   2.0000      -0.799999       -21.7691
 134   2.0000      -0.794820       -21.6282
 135   2.0000      -0.781357       -21.2618
 136   2.0000      -0.773066       -21.0362
 137   2.0000      -0.769838       -20.9484
 138   2.0000      -0.747985       -20.3537
 139   2.0000      -0.745866       -20.2961
 140   2.0000      -0.734274       -19.9806
 141   2.0000      -0.722743       -19.6668
 142   2.0000      -0.716676       -19.5017
 143   2.0000      -0.712011       -19.3748
 144   2.0000      -0.703323       -19.1384
 145   2.0000      -0.685183       -18.6448
 146   2.0000      -0.683247       -18.5921
 147   2.0000      -0.680048       -18.5050
 148   2.0000      -0.675698       -18.3867
 149   2.0000      -0.672720       -18.3056
 150   2.0000      -0.661749       -18.0071
 151   2.0000      -0.658116       -17.9082
 152   2.0000      -0.654303       -17.8045
 153   2.0000      -0.652004       -17.7419
 154   2.0000      -0.649501       -17.6738
 155   2.0000      -0.648158       -17.6373
 156   2.0000      -0.646600       -17.5949
 157   2.0000      -0.642825       -17.4922
 158   2.0000      -0.639685       -17.4067
 159   2.0000      -0.637848       -17.3567
 160   2.0000      -0.637406       -17.3447
 161   2.0000      -0.631513       -17.1843
 162   2.0000      -0.617771       -16.8104
 163   2.0000      -0.614007       -16.7080
 164   2.0000      -0.612221       -16.6594
 165   2.0000      -0.608836       -16.5673
 166   2.0000      -0.603886       -16.4326
 167   2.0000      -0.599918       -16.3246
 168   2.0000      -0.591595       -16.0981
 169   2.0000      -0.589124       -16.0309
 170   2.0000      -0.579208       -15.7611
 171   2.0000      -0.577409       -15.7121
 172   2.0000      -0.571917       -15.5626
 173   2.0000      -0.568604       -15.4725
 174   2.0000      -0.563814       -15.3422
 175   2.0000      -0.560530       -15.2528
 176   2.0000      -0.558641       -15.2014
 177   2.0000      -0.554554       -15.0902
 178   2.0000      -0.548845       -14.9348
 179   2.0000      -0.544927       -14.8282
 180   2.0000      -0.536759       -14.6060
 181   2.0000      -0.534045       -14.5321
 182   2.0000      -0.531519       -14.4634
 183   2.0000      -0.529817       -14.4170
 184   2.0000      -0.528843       -14.3906
 185   2.0000      -0.526780       -14.3344
 186   2.0000      -0.525034       -14.2869
 187   2.0000      -0.523635       -14.2488
 188   2.0000      -0.520325       -14.1588
 189   2.0000      -0.519965       -14.1490
 190   2.0000      -0.517864       -14.0918
 191   2.0000      -0.514078       -13.9888
 192   2.0000      -0.511226       -13.9112
 193   2.0000      -0.508770       -13.8443
 194   2.0000      -0.504637       -13.7319
 195   2.0000      -0.501857       -13.6562
 196   2.0000      -0.500982       -13.6324
 197   2.0000      -0.495175       -13.4744
 198   2.0000      -0.492621       -13.4049
 199   2.0000      -0.491915       -13.3857
 200   2.0000      -0.488678       -13.2976
 201   2.0000      -0.484883       -13.1943
 202   2.0000      -0.480853       -13.0847
 203   2.0000      -0.479838       -13.0571
 204   2.0000      -0.477827       -13.0023
 205   2.0000      -0.476410       -12.9638
 206   2.0000      -0.475587       -12.9414
 207   2.0000      -0.473963       -12.8972
 208   2.0000      -0.469957       -12.7882
 209   2.0000      -0.466450       -12.6927
 210   2.0000      -0.465583       -12.6692
 211   2.0000      -0.465256       -12.6602
 212   2.0000      -0.464196       -12.6314
 213   2.0000      -0.463896       -12.6232
 214   2.0000      -0.462149       -12.5757
 215   2.0000      -0.457290       -12.4435
 216   2.0000      -0.456863       -12.4319
 217   2.0000      -0.456046       -12.4097
 218   2.0000      -0.454697       -12.3729
 219   2.0000      -0.452019       -12.3001
 220   2.0000      -0.451041       -12.2735
 221   2.0000      -0.449782       -12.2392
 222   2.0000      -0.448033       -12.1916
 223   2.0000      -0.447568       -12.1789
 224   2.0000      -0.439130       -11.9493
 225   2.0000      -0.438152       -11.9227
 226   2.0000      -0.432411       -11.7665
 227   2.0000      -0.427912       -11.6441
 228   2.0000      -0.426083       -11.5943
 229   2.0000      -0.421256       -11.4630
 230   2.0000      -0.412451       -11.2234
 231   2.0000      -0.409736       -11.1495
 232   2.0000      -0.402382       -10.9494
 233   2.0000      -0.401355       -10.9214
 234   2.0000      -0.392896       -10.6912
 235   2.0000      -0.386357       -10.5133
 236   2.0000      -0.385723       -10.4961
 237   2.0000      -0.385460       -10.4889
 238   2.0000      -0.380855       -10.3636
 239   2.0000      -0.378369       -10.2959
 240   2.0000      -0.373990       -10.1768
 241   2.0000      -0.368341       -10.0231
 242   2.0000      -0.359874        -9.7927
 243   2.0000      -0.351929        -9.5765
 244   2.0000      -0.341393        -9.2898
 245   2.0000      -0.331366        -9.0169
 246   2.0000      -0.330912        -9.0046
 247   2.0000      -0.323918        -8.8143
 248   2.0000      -0.311339        -8.4720
 249   2.0000      -0.309607        -8.4248
 250   2.0000      -0.305849        -8.3226
 251   2.0000      -0.305037        -8.3005
 252   2.0000      -0.291416        -7.9298
 253   2.0000      -0.259718        -7.0673
 254   2.0000      -0.194886        -5.3031
 255   0.0000      -0.103424        -2.8143
 256   0.0000      -0.079366        -2.1597
 257   0.0000      -0.061449        -1.6721
 258   0.0000      -0.054425        -1.4810
 259   0.0000      -0.029855        -0.8124

MULLIKEN ATOMIC CHARGES
-----------------------
   0 C :    0.297109
   1 C :   -0.324778
   2 C :   -0.218555
   3 N :    0.171582
   4 C :   -0.203906
   5 N :    0.119996
   6 C :   -0.009361
   7 C :    0.005953
   8 C :   -0.077234
   9 C :    0.117091
  10 C :   -0.092291
  11 C :   -0.023570
  12 S :    0.193846
  13 C :   -0.122545
  14 C :    0.039073
  15 Br:    0.036082
  16 C :    0.150943
  17 O :   -0.146885
  18 C :   -0.124307
  19 C :    0.008860
  20 N :    0.000038
  21 C :   -0.121660
  22 S :    0.190421
  23 C :    0.008791
  24 N :    0.278538
  25 O :   -0.244161
  26 O :   -0.258978
  27 C :   -0.012062
  28 C :    0.137585
  29 C :   -0.048248
  30 C :    0.026729
  31 C :    0.013252
  32 C :   -0.254687
  33 C :    0.105629
  34 C :    0.232930
  35 N :   -0.168154
  36 C :    0.076947
  37 C :   -0.074781
  38 C :    0.020037
  39 C :   -0.052569
  40 C :    0.052528
  41 C :    0.002321
  42 C :   -0.025768
  43 S :    0.061260
  44 C :   -0.055324
  45 C :    0.038003
  46 C :    0.013978
  47 C :   -0.022098
  48 S :    0.051510
  49 C :   -0.022068
  50 C :   -0.116912
  51 S :    0.123621
  52 C :   -0.098697
  53 C :   -0.100775
  54 C :   -0.055165
  55 C :    0.506034
  56 F :   -0.176701
  57 F :   -0.141777
  58 F :   -0.176143
  59 C :    0.523238
  60 F :   -0.168268
  61 F :   -0.161822
  62 F :   -0.161714
  63 H :   -0.006032
  64 H :   -0.001078
  65 H :    0.001411
  66 H :    0.052626
  67 H :    0.157289
  68 H :    0.009940
  69 H :    0.003135
  70 H :    0.007684
  71 H :    0.000754
  72 H :    0.027923
  73 H :    0.039910
  74 H :    0.013423
  75 H :    0.037539
  76 H :    0.020364
  77 H :    0.137806
  78 H :    0.012527
  79 H :    0.000936
  80 H :   -0.016531
  81 H :   -0.015775
  82 H :   -0.020160
  83 H :   -0.018245
  84 H :   -0.016925
  85 H :   -0.001708
  86 H :    0.031227
Sum of atomic charges:    0.0000000

LOEWDIN ATOMIC CHARGES
----------------------
   0 C :    0.087793
   1 C :   -0.158738
   2 C :   -0.028613
   3 N :   -0.052227
   4 C :   -0.015105
   5 N :   -0.078317
   6 C :   -0.026694
   7 C :   -0.050206
   8 C :    0.023774
   9 C :   -0.029956
  10 C :   -0.145686
  11 C :   -0.007797
  12 S :    0.438168
  13 C :   -0.267992
  14 C :   -0.069765
  15 Br:    0.145840
  16 C :    0.079969
  17 O :   -0.141535
  18 C :   -0.135430
  19 C :    0.104149
  20 N :    0.066755
  21 C :   -0.122352
  22 S :    0.472757
  23 C :   -0.196829
  24 N :    0.274543
  25 O :   -0.209551
  26 O :   -0.224710
  27 C :    0.003627
  28 C :   -0.074137
  29 C :   -0.035662
  30 C :   -0.011014
  31 C :   -0.051501
  32 C :   -0.020451
  33 C :   -0.051211
  34 C :    0.049490
  35 N :    0.014943
  36 C :    0.064059
  37 C :   -0.137272
  38 C :   -0.010616
  39 C :   -0.186169
  40 C :   -0.015736
  41 C :   -0.060538
  42 C :   -0.152473
  43 S :    0.364643
  44 C :   -0.211049
  45 C :   -0.023752
  46 C :   -0.054883
  47 C :   -0.132158
  48 S :    0.358542
  49 C :   -0.112393
  50 C :   -0.135813
  51 S :    0.456694
  52 C :   -0.187405
  53 C :   -0.109188
  54 C :   -0.138580
  55 C :    0.167809
  56 F :   -0.074294
  57 F :   -0.041433
  58 F :   -0.074601
  59 C :    0.160798
  60 F :   -0.066208
  61 F :   -0.060885
  62 F :   -0.060422
  63 H :    0.042977
  64 H :    0.041641
  65 H :    0.040715
  66 H :    0.043844
  67 H :    0.102819
  68 H :    0.046593
  69 H :    0.032516
  70 H :    0.028542
  71 H :    0.031487
  72 H :    0.033254
  73 H :    0.043348
  74 H :    0.026256
  75 H :    0.034228
  76 H :    0.026295
  77 H :    0.072533
  78 H :    0.033668
  79 H :    0.018179
  80 H :    0.032571
  81 H :    0.032412
  82 H :    0.028828
  83 H :    0.030712
  84 H :    0.031562
  85 H :    0.034774
  86 H :    0.027244

  Mayer bond orders larger than 0.100000
B(  0-C ,  1-C ) :   1.6082 B(  0-C ,  6-C ) :   1.0129 B(  0-C , 18-C ) :   1.1197
B(  1-C ,  2-C ) :   1.1542 B(  1-C ,  4-C ) :   1.1660 B(  2-C ,  3-N ) :   2.9631
B(  4-C ,  5-N ) :   2.8881 B(  6-C ,  7-C ) :   1.2698 B(  6-C , 11-C ) :   1.4088
B(  7-C ,  8-C ) :   1.4296 B(  7-C , 16-C ) :   0.9461 B(  8-C ,  9-C ) :   1.2350
B(  8-C , 63-H ) :   1.0191 B(  9-C , 10-C ) :   1.3058 B(  9-C , 14-C ) :   1.1675
B( 10-C , 11-C ) :   1.3262 B( 10-C , 12-S ) :   1.0872 B( 11-C , 64-H ) :   0.9850
B( 12-S , 13-C ) :   1.0896 B( 13-C , 14-C ) :   1.6129 B( 13-C , 15-Br) :   1.0268
B( 14-C , 65-H ) :   1.0001 B( 16-C , 17-O ) :   2.2187 B( 16-C , 18-C ) :   0.9474
B( 18-C , 19-C ) :   1.5033 B( 19-C , 20-N ) :   1.3034 B( 19-C , 66-H ) :   0.9477
B( 20-N , 21-C ) :   1.0956 B( 20-N , 67-H ) :   0.9067 B( 21-C , 22-S ) :   1.1399
B( 21-C , 28-C ) :   1.4342 B( 22-S , 23-C ) :   1.1090 B( 23-C , 24-N ) :   0.9604
B( 23-C , 27-C ) :   1.4868 B( 24-N , 25-O ) :   1.5421 B( 24-N , 26-O ) :   1.5160
B( 25-O , 26-O ) :   0.2642 B( 27-C , 28-C ) :   1.2219 B( 27-C , 68-H ) :   1.0084
B( 28-C , 29-C ) :   1.0629 B( 29-C , 30-C ) :   1.7627 B( 29-C , 69-H ) :   0.9674
B( 30-C , 31-C ) :   1.0990 B( 30-C , 70-H ) :   0.9426 B( 31-C , 32-C ) :   1.8378
B( 31-C , 71-H ) :   0.9505 B( 32-C , 33-C ) :   1.0964 B( 32-C , 34-C ) :   1.0053
B( 33-C , 72-H ) :   0.9439 B( 33-C , 73-H ) :   0.9380 B( 33-C , 74-H ) :   0.9392
B( 34-C , 35-N ) :   0.9974 B( 34-C , 75-H ) :   0.9289 B( 34-C , 76-H ) :   0.9364
B( 35-N , 36-C ) :   1.2843 B( 35-N , 77-H ) :   0.9154 B( 36-C , 37-C ) :   1.5572
B( 36-C , 78-H ) :   0.9680 B( 37-C , 38-C ) :   1.1829 B( 37-C , 79-H ) :   0.9644
B( 38-C , 39-C ) :   1.5602 B( 38-C , 80-H ) :   0.9798 B( 39-C , 40-C ) :   1.1627
B( 39-C , 43-S ) :   1.0050 B( 40-C , 41-C ) :   1.5700 B( 40-C , 81-H ) :   0.9981
B( 41-C , 42-C ) :   1.1995 B( 41-C , 82-H ) :   0.9940 B( 42-C , 43-S ) :   1.0720
B( 42-C , 44-C ) :   1.4852 B( 44-C , 45-C ) :   1.2069 B( 44-C , 48-S ) :   1.0171
B( 45-C , 46-C ) :   1.5687 B( 45-C , 83-H ) :   0.9928 B( 46-C , 47-C ) :   1.1564
B( 46-C , 84-H ) :   1.0003 B( 47-C , 48-S ) :   1.0554 B( 47-C , 49-C ) :   1.5457
B( 49-C , 50-C ) :   1.2125 B( 49-C , 85-H ) :   0.9474 B( 50-C , 51-S ) :   1.1341
B( 50-C , 54-C ) :   1.4489 B( 51-S , 52-C ) :   1.1464 B( 52-C , 53-C ) :   1.5794
B( 52-C , 86-H ) :   0.9693 B( 53-C , 54-C ) :   1.3110 B( 53-C , 59-C ) :   0.9510
B( 54-C , 55-C ) :   0.9595 B( 55-C , 56-F ) :   1.1388 B( 55-C , 57-F ) :   1.1667
B( 55-C , 58-F ) :   1.1428 B( 59-C , 60-F ) :   1.1546 B( 59-C , 61-F ) :   1.1697
B( 59-C , 62-F ) :   1.1691

-----------------------------------------------------------------------------
         ABSORPTION SPECTRUM VIA TRANSITION ELECTRIC DIPOLE MOMENTS
-----------------------------------------------------------------------------
State   Energy  Wavelength   fosc         T2         TX        TY        TZ
        (cm-1)    (nm)                  (au**2)     (au)      (au)      (au)
-----------------------------------------------------------------------------
   0    9500.9   1052.5   0.007222085   0.25025  -0.10924   0.35620   0.33382
   1   15504.1    645.0   0.735642742  15.62052  -2.64972   2.41870   1.65812
   2   15939.8    627.4   0.525069756  10.84453  -2.38732   1.89634   1.24464
   3   21458.0    466.0   0.086837479   1.33228   0.36287   0.62381  -0.90081
   4   22467.0    445.1   0.000161886   0.00237  -0.04144  -0.00171   0.02554
   5   23067.5    433.5   0.004099908   0.05851   0.20077   0.12289   0.05567
   6   24932.8    401.1   0.007473029   0.09867  -0.24443  -0.10287  -0.16836
   7   25024.2    399.6   0.212678999   2.79795  -0.64882  -1.25833   0.89083
   8   25840.5    387.0   0.244976691   3.12104   0.32641   1.73623   0.00350
   9   25897.1    386.1   0.035544965   0.45186   0.47137   0.47020  -0.09262
  10   27941.3    357.9   0.328516382   3.87067  -1.56287   0.09548  -1.19122
  11   29082.3    343.9   0.253714811   2.87205   0.52115  -1.18307   1.09581
  12   29377.4    340.4   0.052266988   0.58572  -0.29992  -0.70400   0.01205
  13   29664.0    337.1   0.022390144   0.24849   0.30585   0.37332   0.12480
  14   30274.7    330.3   0.975806433  10.61108  -2.02276  -2.24452  -1.21724
  15   30461.4    328.3   0.016578982   0.17918   0.33588   0.22597   0.12368
  16   30614.2    326.6   0.000850551   0.00915   0.05373   0.02857   0.07378
  17   30892.6    323.7   0.161250007   1.71839  -0.74344   0.83521  -0.68418
  18   31680.2    315.7   0.027705287   0.28791  -0.26850  -0.25552   0.38797
  19   32521.3    307.5   0.065589964   0.66397   0.23573   0.71684  -0.30746
  20   33062.0    302.5   0.226047106   2.25084   1.26364   0.31149   0.74635
  21   33148.6    301.7   0.177832895   1.76613   1.06881   0.22569   0.75686
  22   33157.2    301.6   0.012013425   0.11928   0.29457   0.14692   0.10451
  23   33824.8    295.6   0.010706223   0.10420  -0.04734   0.30412   0.09732
  24   34730.1    287.9   0.012303147   0.11662   0.20302   0.27116  -0.04333
  25   35173.2    284.3   0.026468451   0.24774   0.32878   0.34505   0.14346
  26   36161.5    276.5   0.000275560   0.00251   0.03111  -0.01852  -0.03461
  27   36384.5    274.8   0.000356077   0.00322   0.04787  -0.02303   0.02000
  28   36502.7    274.0   0.000587550   0.00530   0.04882   0.04592   0.02842
  29   36888.8    271.1   0.043524074   0.38843  -0.36992  -0.48010  -0.14524
  30   37096.8    269.6   0.070894579   0.62915   0.62489   0.31800   0.37086
  31   37360.7    267.7   0.050183329   0.44220   0.56904   0.32816   0.10347
  32   37531.4    266.4   0.139003527   1.21929   0.03656   1.01346  -0.43688
  33   38333.8    260.9   0.001999470   0.01717  -0.06970   0.10460   0.03703
  34   38859.0    257.3   0.170848499   1.44742   0.14946   1.16121   0.27689
  35   38917.1    257.0   0.004186911   0.03542   0.01662   0.18607   0.02278
  36   38983.1    256.5   0.000198932   0.00168   0.00576  -0.04037  -0.00412
  37   39488.1    253.2   0.025043059   0.20878  -0.10786   0.44321   0.02667
  38   39561.6    252.8   0.027682296   0.23036  -0.18544   0.44215   0.02176
  39   39817.3    251.1   0.000013868   0.00011   0.00197  -0.00822   0.00657
  40   39984.9    250.1   0.138837332   1.14310   0.21886  -1.04600  -0.03304
  41   40154.0    249.0   0.095309976   0.78142  -0.44079   0.69365   0.32554

FINAL SINGLE POINT ENERGY     -7312.324101655970

DIPOLE MOMENT
-------------
                                X             Y             Z
Electronic contribution:    -89.90889      52.88946     -57.78776
Nuclear contribution   :     94.00375     -56.10087      54.02124
                        -----------------------------------------
Total Dipole Moment    :      4.09486      -3.21141      -3.76652
                        -----------------------------------------
Magnitude (a.u.)       :      6.42399
Magnitude (Debye)      :     16.32849

Rotational constants in cm-1:     0.000967     0.000321     0.000305
Rotational constants in MHz :    28.976671     9.626173     9.147378

                             ****ORCA TERMINATED NORMALLY****
TOTAL RUN TIME: 0 days 0 hours 7 minutes 20 seconds 836 msec
