                         Program Version 4.2.0 -  RELEASE  -
|  1> # ORCA input file
|  2> # SCF done       -176.889039660019          0.000533312892
|  3> ! CAM-B3LYP def2-SVP def2/J RIJCOSX Grid4 TightSCF
|  4> %maxcore 5000
|  5> %tddft
|  6>     Mode sTDDFT
|  7>     Ethresh 5.0
|  8>     maxcore 5000
|  9> end
| 10>
| 11> %pal
| 12>   nprocs 6
| 13>   end
| 14> * xyz 0 1
| 15>    C       -3.49758        -1.50116        -1.34477
| 16>    C       -2.32562        -1.53935        -0.63204
| 17>    C       -1.44024        -2.63652        -0.62714
| 18>    N       -0.67757        -3.49421        -0.58595
| 19>    C       -1.84722        -0.51897         0.21614
| 20>    N       -1.39028         0.24768         0.93956
| 21>    C       -4.03342        -2.59759        -2.14157
| 22>    C       -5.31444        -2.22663        -2.61340
| 23>    C       -6.08675        -3.05219        -3.39312
| 24>    C       -5.57042        -4.31009        -3.72055
| 25>    C       -4.28717        -4.67222        -3.24734
| 26>    C       -3.50521        -3.83507        -2.46151
| 27>    S       -3.83986        -6.26801        -3.77236
| 28>    C       -5.36414        -6.42480        -4.60495
| 29>    C       -6.16686        -5.33989        -4.49902
| 30>   Br       -5.75082        -8.00628        -5.53680
| 31>    C       -5.64513        -0.86514        -2.14083
| 32>    O       -6.65660        -0.25432        -2.41052
| 33>    C       -4.46006        -0.41339        -1.37019
| 34>    C       -4.20310         0.85499        -0.93442
| 35>    C       -5.09045         1.96699        -0.78879
| 36>    C       -4.53402         3.26283        -0.83977
| 37>    C       -5.34494         4.35571        -0.69655
| 38>    C       -6.72562         4.19470        -0.45933
| 39>    C       -7.27616         2.92275        -0.35699
| 40>    C       -6.46281         1.82375        -0.52486
| 41>    C       -7.32593         5.49959        -0.33869
| 42>    C       -6.32380         6.47373        -0.50048
| 43>    C       -4.98186         5.82188        -0.74007
| 44>    C       -3.97640         6.18415         0.36912
| 45>    C       -4.47940         5.82959         1.76325
| 46>    C       -4.40175         6.21584        -2.11117
| 47>    C       -5.34108         5.89066        -3.26634
| 48>    C       -6.63204         7.80825        -0.42852
| 49>    C       -7.95676         8.21404        -0.18907
| 50>    C       -8.94212         7.22646        -0.03290
| 51>    C       -8.64074         5.88395        -0.10542
| 52>    C       -8.23280         9.62794        -0.11865
| 53>    C       -9.42214        10.19994         0.15474
| 54>    C       -9.69144        11.61267         0.22208
| 55>    C      -11.00322        12.07681         0.57868
| 56>    C      -12.12352        11.34609         0.88136
| 57>    S      -13.47196        12.33467         1.24158
| 58>    C      -12.56425        13.75613         0.99802
| 59>    C      -11.25864        13.49027         0.64779
| 60>    C      -10.23014        14.45478         0.37956
| 61>    N      -10.56181        15.76748         0.39831
| 62>    C       -8.96574        13.97382         0.02262
| 63>    C       -8.75049        12.57491        -0.04602
| 64>    C       -7.81149        14.78353        -0.35745
| 65>    N       -6.91812        14.15082        -1.10633
| 66>    N       -5.81336        14.66682        -1.53887
| 67>    C       -5.39372        15.89030        -1.25063
| 68>    C       -6.24000        16.68164        -0.41068
| 69>    C       -7.49466        16.12226         0.01974
| 70>    N       -8.17122        16.97684         0.78637
| 71>    S       -7.32008        18.34117         0.95895
| 72>    N       -6.05599        17.90856         0.06309
| 73>    C       -4.13520        16.33440        -1.79497
| 74>    C       -3.33640        15.48685        -2.63754
| 75>    C       -3.58110        14.19793        -3.04221
| 76>    S       -2.34016        13.58342        -4.04235
| 77>    C       -1.45550        15.03705        -3.95165
| 78>    C       -2.09021        15.97760        -3.17161
| 79>    C       -1.64817        17.30186        -2.87418
| 80>    N       -0.44883        17.75498        -3.34398
| 81>    C       -2.44407        18.07680        -2.05506
| 82>    C       -3.64709        17.60241        -1.53401
| 83>    H       -7.05986        -2.73794        -3.73672
| 84>    H       -2.53140        -4.15542        -2.13120
| 85>    H       -7.13952        -5.26576        -4.95013
| 86>    H       -3.17172         1.07985        -0.68531
| 87>    H       -3.47349         3.37499        -1.01585
| 88>    H       -8.32674         2.79464        -0.14506
| 89>    H       -6.87986         0.83677        -0.41994
| 90>    H       -3.77437         7.25610         0.31900
| 91>    H       -3.03890         5.65796         0.17786
| 92>    H       -5.40336         6.35942         1.98474
| 93>    H       -3.73722         6.10474         2.50895
| 94>    H       -4.66784         4.76136         1.84460
| 95>    H       -3.45454         5.69120        -2.25399
| 96>    H       -4.19236         7.28751        -2.10609
| 97>    H       -5.55211         4.82409        -3.30383
| 98>    H       -4.88829         6.18532        -4.21031
| 99>    H       -6.28333         6.42278        -3.15589
|100>    H       -5.86532         8.55991        -0.55272
|101>    H       -9.96474         7.52084         0.14468
|102>    H       -9.41585         5.14175         0.01593
|103>    H       -7.37564        10.26086        -0.30281
|104>    H      -10.27280         9.56429         0.35082
|105>    H      -12.24903        10.28330         0.91576
|106>    H      -13.05698        14.69992         1.12545
|107>    H      -11.45282        16.01711         0.78926
|108>    H       -9.80955        16.44162         0.50840
|109>    H       -7.75728        12.28047        -0.34015
|110>    H       -4.42806        13.59235        -2.79844
|111>    H       -0.51865        15.11104        -4.46717
|112>    H       -0.01886        17.27550        -4.11455
|113>    H       -0.25885        18.73957        -3.26527
|114>    H       -2.12775        19.08121        -1.81315
|115>    H       -4.22236        18.26145        -0.90415
|116> *
|117>
|118>                          ****END OF INPUT****

CARTESIAN COORDINATES (ANGSTROEM)
---------------------------------
  C     -3.497580   -1.501160   -1.344770
  C     -2.325620   -1.539350   -0.632040
  C     -1.440240   -2.636520   -0.627140
  N     -0.677570   -3.494210   -0.585950
  C     -1.847220   -0.518970    0.216140
  N     -1.390280    0.247680    0.939560
  C     -4.033420   -2.597590   -2.141570
  C     -5.314440   -2.226630   -2.613400
  C     -6.086750   -3.052190   -3.393120
  C     -5.570420   -4.310090   -3.720550
  C     -4.287170   -4.672220   -3.247340
  C     -3.505210   -3.835070   -2.461510
  S     -3.839860   -6.268010   -3.772360
  C     -5.364140   -6.424800   -4.604950
  C     -6.166860   -5.339890   -4.499020
  Br    -5.750820   -8.006280   -5.536800
  C     -5.645130   -0.865140   -2.140830
  O     -6.656600   -0.254320   -2.410520
  C     -4.460060   -0.413390   -1.370190
  C     -4.203100    0.854990   -0.934420
  C     -5.090450    1.966990   -0.788790
  C     -4.534020    3.262830   -0.839770
  C     -5.344940    4.355710   -0.696550
  C     -6.725620    4.194700   -0.459330
  C     -7.276160    2.922750   -0.356990
  C     -6.462810    1.823750   -0.524860
  C     -7.325930    5.499590   -0.338690
  C     -6.323800    6.473730   -0.500480
  C     -4.981860    5.821880   -0.740070
  C     -3.976400    6.184150    0.369120
  C     -4.479400    5.829590    1.763250
  C     -4.401750    6.215840   -2.111170
  C     -5.341080    5.890660   -3.266340
  C     -6.632040    7.808250   -0.428520
  C     -7.956760    8.214040   -0.189070
  C     -8.942120    7.226460   -0.032900
  C     -8.640740    5.883950   -0.105420
  C     -8.232800    9.627940   -0.118650
  C     -9.422140   10.199940    0.154740
  C     -9.691440   11.612670    0.222080
  C    -11.003220   12.076810    0.578680
  C    -12.123520   11.346090    0.881360
  S    -13.471960   12.334670    1.241580
  C    -12.564250   13.756130    0.998020
  C    -11.258640   13.490270    0.647790
  C    -10.230140   14.454780    0.379560
  N    -10.561810   15.767480    0.398310
  C     -8.965740   13.973820    0.022620
  C     -8.750490   12.574910   -0.046020
  C     -7.811490   14.783530   -0.357450
  N     -6.918120   14.150820   -1.106330
  N     -5.813360   14.666820   -1.538870
  C     -5.393720   15.890300   -1.250630
  C     -6.240000   16.681640   -0.410680
  C     -7.494660   16.122260    0.019740
  N     -8.171220   16.976840    0.786370
  S     -7.320080   18.341170    0.958950
  N     -6.055990   17.908560    0.063090
  C     -4.135200   16.334400   -1.794970
  C     -3.336400   15.486850   -2.637540
  C     -3.581100   14.197930   -3.042210
  S     -2.340160   13.583420   -4.042350
  C     -1.455500   15.037050   -3.951650
  C     -2.090210   15.977600   -3.171610
  C     -1.648170   17.301860   -2.874180
  N     -0.448830   17.754980   -3.343980
  C     -2.444070   18.076800   -2.055060
  C     -3.647090   17.602410   -1.534010
  H     -7.059860   -2.737940   -3.736720
  H     -2.531400   -4.155420   -2.131200
  H     -7.139520   -5.265760   -4.950130
  H     -3.171720    1.079850   -0.685310
  H     -3.473490    3.374990   -1.015850
  H     -8.326740    2.794640   -0.145060
  H     -6.879860    0.836770   -0.419940
  H     -3.774370    7.256100    0.319000
  H     -3.038900    5.657960    0.177860
  H     -5.403360    6.359420    1.984740
  H     -3.737220    6.104740    2.508950
  H     -4.667840    4.761360    1.844600
  H     -3.454540    5.691200   -2.253990
  H     -4.192360    7.287510   -2.106090
  H     -5.552110    4.824090   -3.303830
  H     -4.888290    6.185320   -4.210310
  H     -6.283330    6.422780   -3.155890
  H     -5.865320    8.559910   -0.552720
  H     -9.964740    7.520840    0.144680
  H     -9.415850    5.141750    0.015930
  H     -7.375640   10.260860   -0.302810
  H    -10.272800    9.564290    0.350820
  H    -12.249030   10.283300    0.915760
  H    -13.056980   14.699920    1.125450
  H    -11.452820   16.017110    0.789260
  H     -9.809550   16.441620    0.508400
  H     -7.757280   12.280470   -0.340150
  H     -4.428060   13.592350   -2.798440
  H     -0.518650   15.111040   -4.467170
  H     -0.018860   17.275500   -4.114550
  H     -0.258850   18.739570   -3.265270
  H     -2.127750   19.081210   -1.813150
  H     -4.222360   18.261450   -0.904150

 Total Charge           Charge          ....    0
 Multiplicity           Mult            ....    1
 Number of Electrons    NEL             ....  520
 Basis Dimension        Dim             .... 1151

ORBITAL ENERGIES
----------------

  NO   OCC          E(Eh)            E(eV)
   0   2.0000    -482.881527    -13139.8744
   1   2.0000     -89.040502     -2422.9152
   2   2.0000     -88.970374     -2421.0070
   3   2.0000     -88.958802     -2420.6921
   4   2.0000     -88.952254     -2420.5139
   5   2.0000     -62.559249     -1702.3237
   6   2.0000     -56.393197     -1534.5369
   7   2.0000     -56.390488     -1534.4632
   8   2.0000     -56.390451     -1534.4622
   9   2.0000     -19.207425      -522.6606
  10   2.0000     -14.458162      -393.4266
  11   2.0000     -14.455744      -393.3608
  12   2.0000     -14.429498      -392.6466
  13   2.0000     -14.422333      -392.4516
  14   2.0000     -14.419229      -392.3672
  15   2.0000     -14.409699      -392.1078
  16   2.0000     -14.407451      -392.0467
  17   2.0000     -14.407040      -392.0355
  18   2.0000     -10.360126      -281.9133
  19   2.0000     -10.354134      -281.7503
  20   2.0000     -10.339475      -281.3514
  21   2.0000     -10.335590      -281.2457
  22   2.0000     -10.333451      -281.1875
  23   2.0000     -10.332884      -281.1721
  24   2.0000     -10.321721      -280.8683
  25   2.0000     -10.321705      -280.8679
  26   2.0000     -10.319936      -280.8197
  27   2.0000     -10.318207      -280.7727
  28   2.0000     -10.316839      -280.7355
  29   2.0000     -10.310733      -280.5693
  30   2.0000     -10.310354      -280.5590
  31   2.0000     -10.307972      -280.4942
  32   2.0000     -10.302071      -280.3336
  33   2.0000     -10.301233      -280.3108
  34   2.0000     -10.299318      -280.2587
  35   2.0000     -10.294579      -280.1297
  36   2.0000     -10.293095      -280.0893
  37   2.0000     -10.291961      -280.0585
  38   2.0000     -10.287818      -279.9458
  39   2.0000     -10.287611      -279.9401
  40   2.0000     -10.285205      -279.8747
  41   2.0000     -10.281553      -279.7753
  42   2.0000     -10.278627      -279.6957
  43   2.0000     -10.274943      -279.5954
  44   2.0000     -10.274236      -279.5762
  45   2.0000     -10.273338      -279.5517
  46   2.0000     -10.272010      -279.5156
  47   2.0000     -10.271409      -279.4992
  48   2.0000     -10.271149      -279.4922
  49   2.0000     -10.269948      -279.4595
  50   2.0000     -10.269844      -279.4567
  51   2.0000     -10.267963      -279.4055
  52   2.0000     -10.266180      -279.3569
  53   2.0000     -10.266149      -279.3561
  54   2.0000     -10.265468      -279.3376
  55   2.0000     -10.264399      -279.3085
  56   2.0000     -10.264249      -279.3044
  57   2.0000     -10.262345      -279.2526
  58   2.0000     -10.261349      -279.2255
  59   2.0000     -10.261239      -279.2225
  60   2.0000     -10.260654      -279.2066
  61   2.0000     -10.259272      -279.1690
  62   2.0000     -10.259160      -279.1659
  63   2.0000     -10.257709      -279.1265
  64   2.0000     -10.256149      -279.0840
  65   2.0000     -10.255562      -279.0680
  66   2.0000     -10.252709      -278.9904
  67   2.0000     -10.252638      -278.9885
  68   2.0000     -10.251108      -278.9468
  69   2.0000     -10.251014      -278.9443
  70   2.0000     -10.238987      -278.6170
  71   2.0000     -10.238101      -278.5929
  72   2.0000      -8.788678      -239.1521
  73   2.0000      -8.132197      -221.2883
  74   2.0000      -8.066370      -219.4971
  75   2.0000      -8.054688      -219.1792
  76   2.0000      -8.048214      -219.0030
  77   2.0000      -6.624971      -180.2746
  78   2.0000      -6.610400      -179.8781
  79   2.0000      -6.610237      -179.8737
  80   2.0000      -6.103560      -166.0863
  81   2.0000      -6.095702      -165.8725
  82   2.0000      -6.094370      -165.8362
  83   2.0000      -6.036068      -164.2498
  84   2.0000      -6.031795      -164.1335
  85   2.0000      -6.027584      -164.0189
  86   2.0000      -6.023650      -163.9119
  87   2.0000      -6.019248      -163.7921
  88   2.0000      -6.017778      -163.7521
  89   2.0000      -6.017046      -163.7321
  90   2.0000      -6.012644      -163.6124
  91   2.0000      -6.011559      -163.5828
  92   2.0000      -2.740832       -74.5818
  93   2.0000      -2.736782       -74.4716
  94   2.0000      -2.736597       -74.4666
  95   2.0000      -2.725053       -74.1525
  96   2.0000      -2.725034       -74.1520
  97   2.0000      -1.141528       -31.0625
  98   2.0000      -1.123099       -30.5611
  99   2.0000      -1.102441       -29.9990
 100   2.0000      -1.020368       -27.7656
 101   2.0000      -1.018173       -27.7059
 102   2.0000      -1.016513       -27.6607
 103   2.0000      -1.006383       -27.3851
 104   2.0000      -0.994034       -27.0490
 105   2.0000      -0.985956       -26.8292
 106   2.0000      -0.983758       -26.7694
 107   2.0000      -0.981604       -26.7108
 108   2.0000      -0.974269       -26.5112
 109   2.0000      -0.972100       -26.4522
 110   2.0000      -0.944515       -25.7015
 111   2.0000      -0.937462       -25.5096
 112   2.0000      -0.934228       -25.4216
 113   2.0000      -0.919879       -25.0312
 114   2.0000      -0.914652       -24.8889
 115   2.0000      -0.903820       -24.5942
 116   2.0000      -0.902087       -24.5470
 117   2.0000      -0.896069       -24.3833
 118   2.0000      -0.889791       -24.2124
 119   2.0000      -0.879930       -23.9441
 120   2.0000      -0.875131       -23.8135
 121   2.0000      -0.860980       -23.4285
 122   2.0000      -0.844615       -22.9831
 123   2.0000      -0.837347       -22.7854
 124   2.0000      -0.829824       -22.5807
 125   2.0000      -0.829587       -22.5742
 126   2.0000      -0.825170       -22.4540
 127   2.0000      -0.823206       -22.4006
 128   2.0000      -0.819408       -22.2972
 129   2.0000      -0.817482       -22.2448
 130   2.0000      -0.813295       -22.1309
 131   2.0000      -0.795853       -21.6563
 132   2.0000      -0.787988       -21.4423
 133   2.0000      -0.775304       -21.0971
 134   2.0000      -0.766555       -20.8590
 135   2.0000      -0.755581       -20.5604
 136   2.0000      -0.754221       -20.5234
 137   2.0000      -0.748712       -20.3735
 138   2.0000      -0.732734       -19.9387
 139   2.0000      -0.724045       -19.7023
 140   2.0000      -0.718219       -19.5437
 141   2.0000      -0.711358       -19.3570
 142   2.0000      -0.700095       -19.0505
 143   2.0000      -0.693237       -18.8639
 144   2.0000      -0.683822       -18.6077
 145   2.0000      -0.682453       -18.5705
 146   2.0000      -0.676801       -18.4167
 147   2.0000      -0.671346       -18.2683
 148   2.0000      -0.666708       -18.1421
 149   2.0000      -0.662081       -18.0161
 150   2.0000      -0.660364       -17.9694
 151   2.0000      -0.658462       -17.9177
 152   2.0000      -0.652407       -17.7529
 153   2.0000      -0.649320       -17.6689
 154   2.0000      -0.641127       -17.4460
 155   2.0000      -0.639094       -17.3906
 156   2.0000      -0.633305       -17.2331
 157   2.0000      -0.618954       -16.8426
 158   2.0000      -0.616467       -16.7749
 159   2.0000      -0.611055       -16.6276
 160   2.0000      -0.608341       -16.5538
 161   2.0000      -0.600703       -16.3459
 162   2.0000      -0.593372       -16.1465
 163   2.0000      -0.590159       -16.0590
 164   2.0000      -0.588019       -16.0008
 165   2.0000      -0.584047       -15.8927
 166   2.0000      -0.583250       -15.8710
 167   2.0000      -0.575430       -15.6582
 168   2.0000      -0.567407       -15.4399
 169   2.0000      -0.564630       -15.3644
 170   2.0000      -0.562104       -15.2956
 171   2.0000      -0.552455       -15.0331
 172   2.0000      -0.544220       -14.8090
 173   2.0000      -0.541248       -14.7281
 174   2.0000      -0.538563       -14.6550
 175   2.0000      -0.536296       -14.5934
 176   2.0000      -0.534145       -14.5348
 177   2.0000      -0.530330       -14.4310
 178   2.0000      -0.528749       -14.3880
 179   2.0000      -0.527028       -14.3412
 180   2.0000      -0.523985       -14.2583
 181   2.0000      -0.520363       -14.1598
 182   2.0000      -0.519631       -14.1399
 183   2.0000      -0.512049       -13.9336
 184   2.0000      -0.510182       -13.8827
 185   2.0000      -0.508706       -13.8426
 186   2.0000      -0.505196       -13.7471
 187   2.0000      -0.504634       -13.7318
 188   2.0000      -0.501823       -13.6553
 189   2.0000      -0.501161       -13.6373
 190   2.0000      -0.495721       -13.4893
 191   2.0000      -0.494366       -13.4524
 192   2.0000      -0.492361       -13.3978
 193   2.0000      -0.488287       -13.2870
 194   2.0000      -0.487669       -13.2702
 195   2.0000      -0.484816       -13.1925
 196   2.0000      -0.483756       -13.1637
 197   2.0000      -0.482259       -13.1229
 198   2.0000      -0.476337       -12.9618
 199   2.0000      -0.473928       -12.8962
 200   2.0000      -0.469886       -12.7862
 201   2.0000      -0.468641       -12.7524
 202   2.0000      -0.465989       -12.6802
 203   2.0000      -0.462624       -12.5886
 204   2.0000      -0.459847       -12.5131
 205   2.0000      -0.454260       -12.3611
 206   2.0000      -0.452515       -12.3136
 207   2.0000      -0.449054       -12.2194
 208   2.0000      -0.446920       -12.1613
 209   2.0000      -0.444007       -12.0821
 210   2.0000      -0.442471       -12.0402
 211   2.0000      -0.441288       -12.0080
 212   2.0000      -0.439271       -11.9532
 213   2.0000      -0.436911       -11.8890
 214   2.0000      -0.435793       -11.8585
 215   2.0000      -0.434769       -11.8307
 216   2.0000      -0.432987       -11.7822
 217   2.0000      -0.432353       -11.7649
 218   2.0000      -0.428161       -11.6509
 219   2.0000      -0.424693       -11.5565
 220   2.0000      -0.420584       -11.4447
 221   2.0000      -0.419947       -11.4273
 222   2.0000      -0.418992       -11.4014
 223   2.0000      -0.418249       -11.3811
 224   2.0000      -0.417188       -11.3523
 225   2.0000      -0.414170       -11.2701
 226   2.0000      -0.413431       -11.2500
 227   2.0000      -0.411148       -11.1879
 228   2.0000      -0.408018       -11.1027
 229   2.0000      -0.405321       -11.0293
 230   2.0000      -0.403833       -10.9888
 231   2.0000      -0.399810       -10.8794
 232   2.0000      -0.398991       -10.8571
 233   2.0000      -0.392187       -10.6720
 234   2.0000      -0.388735       -10.5780
 235   2.0000      -0.383181       -10.4269
 236   2.0000      -0.383051       -10.4233
 237   2.0000      -0.381369       -10.3776
 238   2.0000      -0.376516       -10.2455
 239   2.0000      -0.375451       -10.2165
 240   2.0000      -0.370968       -10.0945
 241   2.0000      -0.370219       -10.0742
 242   2.0000      -0.365719        -9.9517
 243   2.0000      -0.360896        -9.8205
 244   2.0000      -0.346933        -9.4405
 245   2.0000      -0.335155        -9.1200
 246   2.0000      -0.331511        -9.0209
 247   2.0000      -0.314394        -8.5551
 248   2.0000      -0.313002        -8.5172
 249   2.0000      -0.310644        -8.4531
 250   2.0000      -0.309693        -8.4272
 251   2.0000      -0.307320        -8.3626
 252   2.0000      -0.305164        -8.3039
 253   2.0000      -0.299360        -8.1460
 254   2.0000      -0.291257        -7.9255
 255   2.0000      -0.287228        -7.8159
 256   2.0000      -0.278899        -7.5892
 257   2.0000      -0.262261        -7.1365
 258   2.0000      -0.235028        -6.3954
 259   2.0000      -0.211167        -5.7461
 260   0.0000      -0.082037        -2.2323
 261   0.0000      -0.079323        -2.1585
 262   0.0000      -0.052690        -1.4338
 263   0.0000      -0.024862        -0.6765
 264   0.0000      -0.015811        -0.4303

MULLIKEN ATOMIC CHARGES
-----------------------
   0 C :    0.300300
   1 C :   -0.349905
   2 C :   -0.184358
   3 N :    0.146350
   4 C :   -0.205051
   5 N :    0.154675
   6 C :    0.016011
   7 C :   -0.018566
   8 C :   -0.072473
   9 C :    0.118441
  10 C :   -0.091045
  11 C :   -0.020129
  12 S :    0.183883
  13 C :   -0.122840
  14 C :    0.039264
  15 Br:    0.020219
  16 C :    0.140798
  17 O :   -0.145358
  18 C :   -0.075664
  19 C :   -0.036518
  20 C :    0.077780
  21 C :   -0.093721
  22 C :    0.011291
  23 C :    0.126016
  24 C :   -0.064072
  25 C :    0.066074
  26 C :    0.096496
  27 C :    0.025716
  28 C :   -0.137750
  29 C :    0.067912
  30 C :    0.025175
  31 C :    0.068576
  32 C :    0.026528
  33 C :   -0.119905
  34 C :    0.141819
  35 C :   -0.019093
  36 C :   -0.039493
  37 C :   -0.001214
  38 C :    0.003553
  39 C :    0.154992
  40 C :    0.103237
  41 C :   -0.186926
  42 S :    0.146262
  43 C :   -0.215478
  44 C :    0.080587
  45 C :   -0.034646
  46 N :    0.002528
  47 C :   -0.004371
  48 C :   -0.111033
  49 C :   -0.038687
  50 N :   -0.068861
  51 N :   -0.088905
  52 C :    0.022297
  53 C :    0.009598
  54 C :    0.087443
  55 N :   -0.337625
  56 S :    0.530342
  57 N :   -0.265257
  58 C :    0.080129
  59 C :    0.041674
  60 C :   -0.147571
  61 S :    0.145546
  62 C :   -0.211589
  63 C :    0.091603
  64 C :    0.071315
  65 N :   -0.039636
  66 C :   -0.075050
  67 C :   -0.047986
  68 H :   -0.012413
  69 H :   -0.006951
  70 H :   -0.004712
  71 H :    0.025086
  72 H :   -0.028178
  73 H :   -0.031614
  74 H :   -0.016829
  75 H :   -0.000758
  76 H :   -0.001225
  77 H :    0.022658
  78 H :    0.010579
  79 H :    0.020971
  80 H :   -0.004516
  81 H :    0.000067
  82 H :    0.020928
  83 H :    0.007248
  84 H :    0.023139
  85 H :   -0.038935
  86 H :   -0.038138
  87 H :   -0.037449
  88 H :   -0.029766
  89 H :   -0.050763
  90 H :    0.017624
  91 H :    0.013436
  92 H :    0.101305
  93 H :    0.105494
  94 H :   -0.018044
  95 H :    0.040406
  96 H :    0.005953
  97 H :    0.113008
  98 H :    0.115550
  99 H :   -0.057654
 100 H :   -0.019160
Sum of atomic charges:   -0.0000000

LOEWDIN ATOMIC CHARGES
----------------------
   0 C :    0.077402
   1 C :   -0.145035
   2 C :   -0.017726
   3 N :   -0.058626
   4 C :   -0.025312
   5 N :   -0.054454
   6 C :   -0.021586
   7 C :   -0.049526
   8 C :    0.020603
   9 C :   -0.033289
  10 C :   -0.144098
  11 C :   -0.010554
  12 S :    0.429865
  13 C :   -0.272145
  14 C :   -0.070531
  15 Br:    0.134219
  16 C :    0.081110
  17 O :   -0.138957
  18 C :   -0.104890
  19 C :    0.087609
  20 C :   -0.049299
  21 C :    0.002637
  22 C :   -0.005078
  23 C :    0.014429
  24 C :   -0.026542
  25 C :    0.029024
  26 C :   -0.034432
  27 C :    0.009514
  28 C :   -0.035374
  29 C :   -0.011298
  30 C :   -0.057706
  31 C :   -0.011676
  32 C :   -0.057622
  33 C :   -0.027912
  34 C :   -0.006516
  35 C :   -0.021334
  36 C :   -0.010750
  37 C :   -0.033774
  38 C :   -0.002840
  39 C :   -0.067215
  40 C :   -0.033789
  41 C :   -0.214182
  42 S :    0.481057
  43 C :   -0.206034
  44 C :   -0.069368
  45 C :    0.065878
  46 N :    0.003909
  47 C :   -0.107606
  48 C :    0.025278
  49 C :   -0.009490
  50 N :   -0.048398
  51 N :   -0.056331
  52 C :   -0.001194
  53 C :   -0.043411
  54 C :   -0.042689
  55 N :   -0.272825
  56 S :    0.645267
  57 N :   -0.260717
  58 C :   -0.072997
  59 C :   -0.039321
  60 C :   -0.192511
  61 S :    0.483856
  62 C :   -0.214512
  63 C :   -0.072089
  64 C :    0.059677
  65 N :   -0.000060
  66 C :   -0.106461
  67 C :    0.013172
  68 H :    0.040133
  69 H :    0.040642
  70 H :    0.038497
  71 H :    0.044821
  72 H :    0.028614
  73 H :    0.028780
  74 H :    0.030549
  75 H :    0.020704
  76 H :    0.020175
  77 H :    0.025851
  78 H :    0.024879
  79 H :    0.025045
  80 H :    0.019046
  81 H :    0.020945
  82 H :    0.024998
  83 H :    0.023612
  84 H :    0.026437
  85 H :    0.024272
  86 H :    0.023208
  87 H :    0.026489
  88 H :    0.026027
  89 H :    0.020279
  90 H :    0.018828
  91 H :    0.015416
  92 H :    0.069032
  93 H :    0.037683
  94 H :    0.026493
  95 H :    0.023611
  96 H :    0.013888
  97 H :    0.073006
  98 H :    0.077597
  99 H :    0.020027
 100 H :    0.025992

  Mayer bond orders larger than 0.100000
B(  0-C ,  1-C ) :   1.6301 B(  0-C ,  6-C ) :   1.0012 B(  0-C , 18-C ) :   1.0698
B(  1-C ,  2-C ) :   1.1423 B(  1-C ,  4-C ) :   1.1425 B(  2-C ,  3-N ) :   2.9700
B(  4-C ,  5-N ) :   2.9888 B(  6-C ,  7-C ) :   1.2761 B(  6-C , 11-C ) :   1.4063
B(  7-C ,  8-C ) :   1.4237 B(  7-C , 16-C ) :   0.9408 B(  8-C ,  9-C ) :   1.2445
B(  8-C , 68-H ) :   1.0168 B(  9-C , 10-C ) :   1.3094 B(  9-C , 14-C ) :   1.1617
B( 10-C , 11-C ) :   1.3301 B( 10-C , 12-S ) :   1.0844 B( 11-C , 69-H ) :   0.9800
B( 12-S , 13-C ) :   1.0858 B( 13-C , 14-C ) :   1.6195 B( 13-C , 15-Br) :   1.0165
B( 14-C , 70-H ) :   0.9997 B( 16-C , 17-O ) :   2.2276 B( 16-C , 18-C ) :   0.9402
B( 18-C , 19-C ) :   1.5665 B( 19-C , 20-C ) :   1.1229 B( 19-C , 71-H ) :   0.9530
B( 20-C , 21-C ) :   1.2357 B( 20-C , 25-C ) :   1.3345 B( 21-C , 22-C ) :   1.4060
B( 21-C , 72-H ) :   1.0136 B( 22-C , 23-C ) :   1.3420 B( 22-C , 28-C ) :   0.9116
B( 23-C , 24-C ) :   1.3206 B( 23-C , 26-C ) :   1.0141 B( 24-C , 25-C ) :   1.4113
B( 24-C , 73-H ) :   0.9930 B( 25-C , 74-H ) :   0.9756 B( 26-C , 27-C ) :   1.3611
B( 26-C , 36-C ) :   1.3159 B( 27-C , 28-C ) :   0.9171 B( 27-C , 33-C ) :   1.3751
B( 28-C , 29-C ) :   1.0391 B( 28-C , 31-C ) :   1.0391 B( 29-C , 30-C ) :   1.1021
B( 29-C , 75-H ) :   0.9391 B( 29-C , 76-H ) :   0.9390 B( 30-C , 77-H ) :   0.9642
B( 30-C , 78-H ) :   0.9638 B( 30-C , 79-H ) :   0.9643 B( 31-C , 32-C ) :   1.1015
B( 31-C , 80-H ) :   0.9391 B( 31-C , 81-H ) :   0.9391 B( 32-C , 82-H ) :   0.9641
B( 32-C , 83-H ) :   0.9639 B( 32-C , 84-H ) :   0.9641 B( 33-C , 34-C ) :   1.2812
B( 33-C , 85-H ) :   1.0162 B( 34-C , 35-C ) :   1.3313 B( 34-C , 37-C ) :   1.0725
B( 35-C , 36-C ) :   1.4146 B( 35-C , 86-H ) :   0.9853 B( 36-C , 87-H ) :   0.9886
B( 37-C , 38-C ) :   1.6866 B( 37-C , 88-H ) :   0.9835 B( 38-C , 39-C ) :   1.0953
B( 38-C , 89-H ) :   0.9706 B( 39-C , 40-C ) :   1.0825 B( 39-C , 48-C ) :   1.4458
B( 40-C , 41-C ) :   1.4909 B( 40-C , 44-C ) :   1.2255 B( 41-C , 42-S ) :   1.1854
B( 41-C , 90-H ) :   0.9531 B( 42-S , 43-C ) :   1.2267 B( 43-C , 44-C ) :   1.4155
B( 43-C , 91-H ) :   0.9698 B( 44-C , 45-C ) :   1.1106 B( 45-C , 46-N ) :   1.4273
B( 45-C , 47-C ) :   1.3942 B( 46-N , 92-H ) :   0.9262 B( 46-N , 93-H ) :   0.8886
B( 47-C , 48-C ) :   1.2355 B( 47-C , 49-C ) :   0.9990 B( 48-C , 94-H ) :   0.9829
B( 49-C , 50-N ) :   1.6818 B( 49-C , 52-C ) :   0.1112 B( 49-C , 54-C ) :   1.1157
B( 50-N , 51-N ) :   1.2148 B( 51-N , 52-C ) :   1.6295 B( 52-C , 53-C ) :   1.1025
B( 52-C , 58-C ) :   1.1293 B( 53-C , 54-C ) :   1.1887 B( 53-C , 57-N ) :   1.5527
B( 54-C , 55-N ) :   1.4504 B( 55-N , 56-S ) :   1.2296 B( 55-N , 57-N ) :   0.1397
B( 55-N , 93-H ) :   0.1194 B( 56-S , 57-N ) :   1.2639 B( 58-C , 59-C ) :   1.1008
B( 58-C , 67-C ) :   1.4502 B( 59-C , 60-C ) :   1.5064 B( 59-C , 63-C ) :   1.2185
B( 60-C , 61-S ) :   1.1828 B( 60-C , 95-H ) :   0.9327 B( 61-S , 62-C ) :   1.2237
B( 62-C , 63-C ) :   1.4112 B( 62-C , 96-H ) :   0.9722 B( 63-C , 64-C ) :   1.1270
B( 64-C , 65-N ) :   1.3124 B( 64-C , 66-C ) :   1.4119 B( 65-N , 97-H ) :   0.9457
B( 65-N , 98-H ) :   0.9420 B( 66-C , 67-C ) :   1.2379 B( 66-C , 99-H ) :   0.9935
B( 67-C ,100-H ) :   0.9600

-----------------------------------------------------------------------------
         ABSORPTION SPECTRUM VIA TRANSITION ELECTRIC DIPOLE MOMENTS
-----------------------------------------------------------------------------
State   Energy  Wavelength   fosc         T2         TX        TY        TZ
        (cm-1)    (nm)                  (au**2)     (au)      (au)      (au)
-----------------------------------------------------------------------------
   0   11847.8    844.0   0.278033261   7.72565   2.11288   1.62151  -0.79504
   1   17411.5    574.3   0.122184609   2.31023  -0.96175  -0.90891   0.74776
   2   18069.7    553.4   1.184816180  21.58620   2.15119  -4.05109  -0.73975
   3   18281.3    547.0   0.002882699   0.05191  -0.17023  -0.02542   0.14929
   4   23937.6    417.8   0.271014746   3.72725   0.93436  -1.67381  -0.22929
   5   24420.5    409.5   0.394465061   5.31778   0.72285  -2.15428  -0.39285
   6   25691.7    389.2   0.081431140   1.04346  -0.82173   0.58136   0.17390
   7   26749.3    373.8   0.063502811   0.78155  -0.81569   0.33296   0.07305
   8   26958.6    370.9   0.073644390   0.89933  -0.12306   0.92906  -0.14503
   9   27756.4    360.3   0.400791287   4.75369   1.66995   1.22238  -0.68611
  10   28570.1    350.0   0.206508716   2.37959  -0.12535  -1.19470  -0.96777
  11   29135.6    343.2   0.136595083   1.54343  -0.89481  -0.47035  -0.72216
  12   29752.6    336.1   0.045944587   0.50838  -0.33002  -0.59871  -0.20251
  13   29975.3    333.6   0.007068981   0.07764   0.16045  -0.18154   0.13761
  14   30544.4    327.4   0.219957290   2.37073   0.10932  -1.50527  -0.30486
  15   30843.5    324.2   0.164902255   1.76010   0.47070   1.17705   0.39127
  16   31253.2    320.0   0.094562167   0.99609   0.83256  -0.05218  -0.54792
  17   31629.6    316.2   0.064786330   0.67432  -0.01399  -0.81532  -0.09686
  18   32089.2    311.6   0.068095029   0.69861  -0.62580   0.54915   0.07360
  19   32682.7    306.0   0.026211219   0.26403   0.39686  -0.31638   0.08020
  20   33050.0    302.6   0.039245785   0.39093   0.53697  -0.02421  -0.31939
  21   33352.3    299.8   0.003275013   0.03233   0.12584   0.06716  -0.10946
  22   33477.5    298.7   0.025118078   0.24701   0.20395  -0.00479  -0.45320
  23   33735.5    296.4   0.064877719   0.63312  -0.39340  -0.69136  -0.01927
  24   33947.1    294.6   0.051647748   0.50087   0.49650   0.42788   0.26696
  25   34034.7    293.8   0.534042337   5.16570   1.44851   1.28159   1.19376
  26   34218.7    292.2   0.065795092   0.63300  -0.20923  -0.24161  -0.72860
  27   34509.3    289.8   0.032712085   0.31207   0.10229  -0.52624   0.15708
  28   34568.6    289.3   0.016442675   0.15659  -0.25896   0.29740   0.03298
  29   35283.8    283.4   0.092907291   0.86686  -0.21875   0.86255   0.27391
  30   35883.9    278.7   0.284981015   2.61452   1.53790   0.38491  -0.31818
  31   36193.7    276.3   0.004586111   0.04171   0.16947   0.02201  -0.11185
  32   36610.3    273.1   0.033302691   0.29947  -0.39786   0.23872  -0.29016
  33   36823.8    271.6   0.048956204   0.43768   0.59744  -0.26337  -0.10665
  34   37488.4    266.7   0.014563828   0.12790   0.30314  -0.18825   0.02375
  35   37519.5    266.5   0.025060056   0.21989  -0.42001  -0.18138  -0.10284
  36   37855.0    264.2   0.015798345   0.13739   0.15842   0.32907  -0.06333
  37   38165.4    262.0   0.076098442   0.65642   0.57426  -0.48158  -0.30779
  38   38522.3    259.6   0.056940336   0.48661   0.67405  -0.00731  -0.17949
  39   38905.3    257.0   0.000461636   0.00391  -0.05194  -0.00918   0.03353
  40   39106.4    255.7   0.001208793   0.01018  -0.01494   0.05440   0.08363
  41   39210.0    255.0   0.000270406   0.00227  -0.04733   0.00094   0.00538
  42   39450.4    253.5   0.053003428   0.44231   0.65295  -0.00962  -0.12601
  43   39570.3    252.7   0.240358791   1.99970   0.78520  -1.16809  -0.13691
  44   39809.2    251.2   0.007335365   0.06066   0.18407  -0.12030   0.11095
  45   40152.7    249.0   0.049015349   0.40188   0.51893  -0.01560   0.36379
  46   40310.9    248.1   0.011117577   0.09080  -0.02150  -0.27739  -0.11571

FINAL SINGLE POINT ENERGY     -6753.745278056849

DIPOLE MOMENT
-------------
                                X             Y             Z
Electronic contribution:     -2.71463    -182.47960     -50.59038
Nuclear contribution   :      1.32781     186.87247      49.69857
                        -----------------------------------------
Total Dipole Moment    :     -1.38683       4.39287      -0.89181
                        -----------------------------------------
Magnitude (a.u.)       :      4.69211
Magnitude (Debye)      :     11.92640

Rotational constants in cm-1:     0.001468     0.000211     0.000194
Rotational constants in MHz :    44.000081     6.316195     5.806788

                             ****ORCA TERMINATED NORMALLY****
TOTAL RUN TIME: 0 days 0 hours 9 minutes 43 seconds 508 msec
