                         Program Version 4.2.0 -  RELEASE  -
|  1> # ORCA input file
|  2> # SCF done       -175.338697534745          0.000880512108
|  3> ! CAM-B3LYP def2-SVP def2/J RIJCOSX Grid4 TightSCF
|  4> %maxcore 5000
|  5> %tddft
|  6>     Mode sTDDFT
|  7>     Ethresh 5.0
|  8>     maxcore 5000
|  9> end
| 10>
| 11> %pal
| 12>   nprocs 6
| 13>   end
| 14> * xyz 0 1
| 15>    C      -16.66222       -13.62536         0.92955
| 16>    C      -16.78946       -14.32067         2.11538
| 17>    C      -15.76676       -14.43768         3.07146
| 18>    N      -14.96237       -14.56586         3.88308
| 19>    C      -17.94844       -15.02074         2.49350
| 20>    N      -18.86920       -15.60954         2.85021
| 21>    C      -15.47361       -12.87186         0.51561
| 22>    C      -15.69992       -12.34956        -0.77877
| 23>    C      -14.81180       -11.52690        -1.42237
| 24>    C      -13.63226       -11.19504        -0.74852
| 25>    C      -13.39815       -11.73996         0.53312
| 26>    C      -14.30036       -12.57680         1.18261
| 27>    S      -11.86773       -11.21505         1.17416
| 28>    C      -11.58351       -10.27297        -0.26471
| 29>    C      -12.57512       -10.34727        -1.18050
| 30>   Br      -10.00521        -9.27987        -0.43244
| 31>    C      -17.02845       -12.79132        -1.24556
| 32>    O      -17.44061       -12.74715        -2.38672
| 33>    C      -17.66952       -13.42421        -0.06480
| 34>    C      -19.02652       -13.73574        -0.03303
| 35>    C      -19.96243       -13.01945        -0.77455
| 36>    C      -19.76219       -11.70340        -1.18339
| 37>    C      -20.37712       -10.99904        -2.22971
| 38>    C      -19.80620        -9.77715        -2.49495
| 39>    C      -18.75498        -9.44724        -1.62686
| 40>    S      -18.58626       -10.66934        -0.39374
| 41>    C      -17.77996        -8.45895        -1.70593
| 42>    C      -17.52941        -7.51189        -2.71525
| 43>    C      -16.34808        -6.84394        -2.55269
| 44>    C      -15.62170        -7.21354        -1.39589
| 45>    S      -16.51349        -8.43085        -0.50544
| 46>    C      -14.39125        -6.72019        -1.01901
| 47>    C      -13.65916        -7.04276         0.12807
| 48>    S      -14.22070        -8.25320         1.26074
| 49>    C      -12.79110        -8.09015         2.19526
| 50>    C      -11.90996        -7.18463         1.69345
| 51>    C      -10.60114        -6.87663         2.34256
| 52>    C      -12.39556        -6.54749         0.51082
| 53>    C      -11.62124        -5.53465        -0.13077
| 54>    C      -12.02983        -4.48310        -0.88422
| 55>    C      -11.11286        -3.50795        -1.35151
| 56>    C      -11.46926        -2.34448        -1.94852
| 57>    C      -10.55018        -1.30455        -2.24491
| 58>    S       -8.83091        -1.63080        -2.24757
| 59>    C       -8.48059        -0.00892        -2.68371
| 60>    C       -9.60108         0.74059        -2.81124
| 61>    C      -10.80346         0.03003        -2.53907
| 62>    C      -12.06155         0.73861        -2.61880
| 63>    C      -13.22475         0.62727        -1.94356
| 64>    C      -14.35159         1.55602        -2.33234
| 65>    C      -14.42088         2.72399        -1.39813
| 66>    S      -15.73964         3.85207        -1.51903
| 67>    C      -15.09250         4.82569        -0.22890
| 68>    C      -15.82469         6.05849         0.18716
| 69>    C      -15.09837         6.84931         1.26855
| 70>    C      -13.94031         4.28832         0.24275
| 71>    C      -13.55760         3.09636        -0.42141
| 72>    C      -13.54458        -0.25076        -0.84011
| 73>    C      -12.70706        -0.74522         0.08902
| 74>    C      -13.14832        -1.70752         1.05686
| 75>    C      -12.37940        -2.41021         1.90082
| 76>    C      -10.90205        -2.22823         2.05646
| 77>    C      -12.97902        -3.50543         2.74789
| 78>    N      -14.19018        -4.03427         2.17483
| 79>    C      -15.09086        -4.74581         2.93049
| 80>    C      -16.01388        -5.56659         2.44075
| 81>    H      -15.02303       -11.14081        -2.40744
| 82>    H      -14.07778       -12.95754         2.16551
| 83>    H      -12.56539        -9.82904        -2.12234
| 84>    H      -19.37259       -14.56835         0.56529
| 85>    H      -20.90619       -13.48447        -1.02499
| 86>    H      -21.15983       -11.43868        -2.82229
| 87>    H      -20.10221        -9.13705        -3.30735
| 88>    H      -18.20069        -7.36725        -3.54258
| 89>    H      -15.97299        -6.10255        -3.23651
| 90>    H      -13.93549        -6.01942        -1.70419
| 91>    H      -12.67904        -8.68559         3.08054
| 92>    H      -10.49658        -7.45043         3.25931
| 93>    H      -10.52720        -5.81687         2.58253
| 94>    H       -9.77575        -7.13178         1.67919
| 95>    H      -10.56068        -5.59327         0.08171
| 96>    H      -13.07682        -4.28976        -1.07153
| 97>    H      -10.06331        -3.68667        -1.15059
| 98>    H      -12.50667        -2.14754        -2.17558
| 99>    H       -7.46019         0.29016        -2.82021
|100>    H       -9.58808         1.78482        -3.07074
|101>    H      -12.01829         1.54223        -3.34749
|102>    H      -15.30628         1.02188        -2.30532
|103>    H      -14.21375         1.92499        -3.35357
|104>    H      -16.81927         5.77615         0.54785
|105>    H      -15.97398         6.69411        -0.69148
|106>    H      -14.98140         6.25061         2.16855
|107>    H      -15.66806         7.74050         1.52030
|108>    H      -14.11419         7.15595         0.92255
|109>    H      -13.36318         4.71772         1.04121
|110>    H      -12.67031         2.54217        -0.17213
|111>    H      -14.59529        -0.50756        -0.75593
|112>    H      -11.66608        -0.46085         0.08063
|113>    H      -14.20843        -1.92737         1.04370
|114>    H      -10.37055        -2.90417         1.38500
|115>    H      -10.59785        -2.45656         3.07649
|116>    H      -10.59708        -1.21274         1.82273
|117>    H      -13.22103        -3.10704         3.74105
|118>    H      -12.21900        -4.29257         2.89127
|119>    H      -14.08856        -4.35859         1.22316
|120>    H      -15.03930        -4.53848         3.99133
|121>    H      -16.08770        -5.77184         1.38640
|122>    H      -16.73408        -6.04124         3.07840
|123> *
|124>
|125>                          ****END OF INPUT****

CARTESIAN COORDINATES (ANGSTROEM)
---------------------------------
  C    -16.662220  -13.625360    0.929550
  C    -16.789460  -14.320670    2.115380
  C    -15.766760  -14.437680    3.071460
  N    -14.962370  -14.565860    3.883080
  C    -17.948440  -15.020740    2.493500
  N    -18.869200  -15.609540    2.850210
  C    -15.473610  -12.871860    0.515610
  C    -15.699920  -12.349560   -0.778770
  C    -14.811800  -11.526900   -1.422370
  C    -13.632260  -11.195040   -0.748520
  C    -13.398150  -11.739960    0.533120
  C    -14.300360  -12.576800    1.182610
  S    -11.867730  -11.215050    1.174160
  C    -11.583510  -10.272970   -0.264710
  C    -12.575120  -10.347270   -1.180500
  Br   -10.005210   -9.279870   -0.432440
  C    -17.028450  -12.791320   -1.245560
  O    -17.440610  -12.747150   -2.386720
  C    -17.669520  -13.424210   -0.064800
  C    -19.026520  -13.735740   -0.033030
  C    -19.962430  -13.019450   -0.774550
  C    -19.762190  -11.703400   -1.183390
  C    -20.377120  -10.999040   -2.229710
  C    -19.806200   -9.777150   -2.494950
  C    -18.754980   -9.447240   -1.626860
  S    -18.586260  -10.669340   -0.393740
  C    -17.779960   -8.458950   -1.705930
  C    -17.529410   -7.511890   -2.715250
  C    -16.348080   -6.843940   -2.552690
  C    -15.621700   -7.213540   -1.395890
  S    -16.513490   -8.430850   -0.505440
  C    -14.391250   -6.720190   -1.019010
  C    -13.659160   -7.042760    0.128070
  S    -14.220700   -8.253200    1.260740
  C    -12.791100   -8.090150    2.195260
  C    -11.909960   -7.184630    1.693450
  C    -10.601140   -6.876630    2.342560
  C    -12.395560   -6.547490    0.510820
  C    -11.621240   -5.534650   -0.130770
  C    -12.029830   -4.483100   -0.884220
  C    -11.112860   -3.507950   -1.351510
  C    -11.469260   -2.344480   -1.948520
  C    -10.550180   -1.304550   -2.244910
  S     -8.830910   -1.630800   -2.247570
  C     -8.480590   -0.008920   -2.683710
  C     -9.601080    0.740590   -2.811240
  C    -10.803460    0.030030   -2.539070
  C    -12.061550    0.738610   -2.618800
  C    -13.224750    0.627270   -1.943560
  C    -14.351590    1.556020   -2.332340
  C    -14.420880    2.723990   -1.398130
  S    -15.739640    3.852070   -1.519030
  C    -15.092500    4.825690   -0.228900
  C    -15.824690    6.058490    0.187160
  C    -15.098370    6.849310    1.268550
  C    -13.940310    4.288320    0.242750
  C    -13.557600    3.096360   -0.421410
  C    -13.544580   -0.250760   -0.840110
  C    -12.707060   -0.745220    0.089020
  C    -13.148320   -1.707520    1.056860
  C    -12.379400   -2.410210    1.900820
  C    -10.902050   -2.228230    2.056460
  C    -12.979020   -3.505430    2.747890
  N    -14.190180   -4.034270    2.174830
  C    -15.090860   -4.745810    2.930490
  C    -16.013880   -5.566590    2.440750
  H    -15.023030  -11.140810   -2.407440
  H    -14.077780  -12.957540    2.165510
  H    -12.565390   -9.829040   -2.122340
  H    -19.372590  -14.568350    0.565290
  H    -20.906190  -13.484470   -1.024990
  H    -21.159830  -11.438680   -2.822290
  H    -20.102210   -9.137050   -3.307350
  H    -18.200690   -7.367250   -3.542580
  H    -15.972990   -6.102550   -3.236510
  H    -13.935490   -6.019420   -1.704190
  H    -12.679040   -8.685590    3.080540
  H    -10.496580   -7.450430    3.259310
  H    -10.527200   -5.816870    2.582530
  H     -9.775750   -7.131780    1.679190
  H    -10.560680   -5.593270    0.081710
  H    -13.076820   -4.289760   -1.071530
  H    -10.063310   -3.686670   -1.150590
  H    -12.506670   -2.147540   -2.175580
  H     -7.460190    0.290160   -2.820210
  H     -9.588080    1.784820   -3.070740
  H    -12.018290    1.542230   -3.347490
  H    -15.306280    1.021880   -2.305320
  H    -14.213750    1.924990   -3.353570
  H    -16.819270    5.776150    0.547850
  H    -15.973980    6.694110   -0.691480
  H    -14.981400    6.250610    2.168550
  H    -15.668060    7.740500    1.520300
  H    -14.114190    7.155950    0.922550
  H    -13.363180    4.717720    1.041210
  H    -12.670310    2.542170   -0.172130
  H    -14.595290   -0.507560   -0.755930
  H    -11.666080   -0.460850    0.080630
  H    -14.208430   -1.927370    1.043700
  H    -10.370550   -2.904170    1.385000
  H    -10.597850   -2.456560    3.076490
  H    -10.597080   -1.212740    1.822730
  H    -13.221030   -3.107040    3.741050
  H    -12.219000   -4.292570    2.891270
  H    -14.088560   -4.358590    1.223160
  H    -15.039300   -4.538480    3.991330
  H    -16.087700   -5.771840    1.386400
  H    -16.734080   -6.041240    3.078400

 Total Charge           Charge          ....    0
 Multiplicity           Mult            ....    1
 Number of Electrons    NEL             ....  532
 Basis Dimension        Dim             .... 1176

ORBITAL ENERGIES
----------------

  NO   OCC          E(Eh)            E(eV)
   0   2.0000    -482.882985    -13139.9141
   1   2.0000     -88.966571     -2420.9035
   2   2.0000     -88.966181     -2420.8929
   3   2.0000     -88.962908     -2420.8038
   4   2.0000     -88.955292     -2420.5966
   5   2.0000     -88.954240     -2420.5679
   6   2.0000     -88.933371     -2420.0001
   7   2.0000     -62.560284     -1702.3519
   8   2.0000     -56.394180     -1534.5636
   9   2.0000     -56.391599     -1534.4934
  10   2.0000     -56.391523     -1534.4913
  11   2.0000     -19.191176      -522.2184
  12   2.0000     -14.405375      -391.9902
  13   2.0000     -14.389232      -391.5509
  14   2.0000     -14.389141      -391.5484
  15   2.0000     -10.348827      -281.6059
  16   2.0000     -10.345692      -281.5206
  17   2.0000     -10.333796      -281.1969
  18   2.0000     -10.325252      -280.9644
  19   2.0000     -10.322941      -280.9015
  20   2.0000     -10.317539      -280.7545
  21   2.0000     -10.316236      -280.7190
  22   2.0000     -10.314701      -280.6773
  23   2.0000     -10.312470      -280.6166
  24   2.0000     -10.312355      -280.6134
  25   2.0000     -10.309035      -280.5231
  26   2.0000     -10.306902      -280.4651
  27   2.0000     -10.305369      -280.4233
  28   2.0000     -10.300997      -280.3044
  29   2.0000     -10.300936      -280.3027
  30   2.0000     -10.300618      -280.2941
  31   2.0000     -10.300419      -280.2887
  32   2.0000     -10.297335      -280.2047
  33   2.0000     -10.296778      -280.1896
  34   2.0000     -10.294320      -280.1227
  35   2.0000     -10.293629      -280.1039
  36   2.0000     -10.293374      -280.0970
  37   2.0000     -10.292422      -280.0710
  38   2.0000     -10.292097      -280.0622
  39   2.0000     -10.291371      -280.0425
  40   2.0000     -10.290160      -280.0095
  41   2.0000     -10.289563      -279.9933
  42   2.0000     -10.288374      -279.9609
  43   2.0000     -10.288145      -279.9547
  44   2.0000     -10.287913      -279.9483
  45   2.0000     -10.287162      -279.9279
  46   2.0000     -10.285776      -279.8902
  47   2.0000     -10.285602      -279.8855
  48   2.0000     -10.284450      -279.8541
  49   2.0000     -10.283123      -279.8180
  50   2.0000     -10.282599      -279.8038
  51   2.0000     -10.282437      -279.7993
  52   2.0000     -10.281633      -279.7775
  53   2.0000     -10.278142      -279.6825
  54   2.0000     -10.275981      -279.6237
  55   2.0000     -10.275680      -279.6155
  56   2.0000     -10.275635      -279.6143
  57   2.0000     -10.273971      -279.5690
  58   2.0000     -10.273771      -279.5635
  59   2.0000     -10.273341      -279.5518
  60   2.0000     -10.270656      -279.4788
  61   2.0000     -10.269830      -279.4563
  62   2.0000     -10.269249      -279.4405
  63   2.0000     -10.266927      -279.3773
  64   2.0000     -10.265934      -279.3503
  65   2.0000     -10.256051      -279.0813
  66   2.0000     -10.255890      -279.0770
  67   2.0000     -10.253015      -278.9987
  68   2.0000     -10.252777      -278.9922
  69   2.0000     -10.225453      -278.2487
  70   2.0000      -8.789601      -239.1772
  71   2.0000      -8.061964      -219.3772
  72   2.0000      -8.061501      -219.3646
  73   2.0000      -8.057471      -219.2549
  74   2.0000      -8.051172      -219.0835
  75   2.0000      -8.049662      -219.0424
  76   2.0000      -8.029744      -218.5005
  77   2.0000      -6.625671      -180.2937
  78   2.0000      -6.611412      -179.9057
  79   2.0000      -6.611327      -179.9034
  80   2.0000      -6.031726      -164.1316
  81   2.0000      -6.031212      -164.1176
  82   2.0000      -6.027424      -164.0145
  83   2.0000      -6.026943      -164.0015
  84   2.0000      -6.026907      -164.0005
  85   2.0000      -6.023223      -163.9002
  86   2.0000      -6.022710      -163.8863
  87   2.0000      -6.022460      -163.8795
  88   2.0000      -6.020463      -163.8251
  89   2.0000      -6.019677      -163.8037
  90   2.0000      -6.019367      -163.7953
  91   2.0000      -6.016207      -163.7093
  92   2.0000      -6.015273      -163.6839
  93   2.0000      -6.013421      -163.6335
  94   2.0000      -6.010764      -163.5612
  95   2.0000      -5.999092      -163.2436
  96   2.0000      -5.994815      -163.1272
  97   2.0000      -5.991868      -163.0470
  98   2.0000      -2.741588       -74.6024
  99   2.0000      -2.737619       -74.4944
 100   2.0000      -2.737476       -74.4905
 101   2.0000      -2.726184       -74.1832
 102   2.0000      -2.726160       -74.1826
 103   2.0000      -1.107694       -30.1419
 104   2.0000      -1.013771       -27.5861
 105   2.0000      -1.010299       -27.4916
 106   2.0000      -1.007987       -27.4287
 107   2.0000      -0.996520       -27.1167
 108   2.0000      -0.990280       -26.9469
 109   2.0000      -0.985361       -26.8130
 110   2.0000      -0.984534       -26.7905
 111   2.0000      -0.969566       -26.3832
 112   2.0000      -0.968567       -26.3561
 113   2.0000      -0.966168       -26.2908
 114   2.0000      -0.929529       -25.2938
 115   2.0000      -0.925550       -25.1855
 116   2.0000      -0.922625       -25.1059
 117   2.0000      -0.913996       -24.8711
 118   2.0000      -0.902837       -24.5674
 119   2.0000      -0.898851       -24.4590
 120   2.0000      -0.891775       -24.2664
 121   2.0000      -0.884256       -24.0618
 122   2.0000      -0.873847       -23.7786
 123   2.0000      -0.871255       -23.7080
 124   2.0000      -0.869671       -23.6650
 125   2.0000      -0.858308       -23.3558
 126   2.0000      -0.856574       -23.3086
 127   2.0000      -0.853927       -23.2365
 128   2.0000      -0.843732       -22.9591
 129   2.0000      -0.840039       -22.8586
 130   2.0000      -0.833293       -22.6751
 131   2.0000      -0.822173       -22.3725
 132   2.0000      -0.816674       -22.2228
 133   2.0000      -0.815105       -22.1801
 134   2.0000      -0.809508       -22.0278
 135   2.0000      -0.798983       -21.7414
 136   2.0000      -0.793998       -21.6058
 137   2.0000      -0.781391       -21.2627
 138   2.0000      -0.772792       -21.0287
 139   2.0000      -0.765938       -20.8422
 140   2.0000      -0.753092       -20.4927
 141   2.0000      -0.748485       -20.3673
 142   2.0000      -0.745828       -20.2950
 143   2.0000      -0.737377       -20.0651
 144   2.0000      -0.727325       -19.7915
 145   2.0000      -0.714133       -19.4325
 146   2.0000      -0.703851       -19.1528
 147   2.0000      -0.698217       -18.9995
 148   2.0000      -0.692028       -18.8310
 149   2.0000      -0.685625       -18.6568
 150   2.0000      -0.680118       -18.5069
 151   2.0000      -0.669191       -18.2096
 152   2.0000      -0.667138       -18.1537
 153   2.0000      -0.665435       -18.1074
 154   2.0000      -0.657777       -17.8990
 155   2.0000      -0.646316       -17.5872
 156   2.0000      -0.642502       -17.4834
 157   2.0000      -0.640707       -17.4345
 158   2.0000      -0.635482       -17.2924
 159   2.0000      -0.634735       -17.2720
 160   2.0000      -0.625787       -17.0285
 161   2.0000      -0.615024       -16.7356
 162   2.0000      -0.613237       -16.6870
 163   2.0000      -0.609076       -16.5738
 164   2.0000      -0.605813       -16.4850
 165   2.0000      -0.603726       -16.4282
 166   2.0000      -0.602442       -16.3933
 167   2.0000      -0.590953       -16.0806
 168   2.0000      -0.588474       -16.0132
 169   2.0000      -0.578796       -15.7499
 170   2.0000      -0.576669       -15.6920
 171   2.0000      -0.570863       -15.5340
 172   2.0000      -0.569360       -15.4931
 173   2.0000      -0.564440       -15.3592
 174   2.0000      -0.561999       -15.2928
 175   2.0000      -0.555725       -15.1220
 176   2.0000      -0.552487       -15.0339
 177   2.0000      -0.544383       -14.8134
 178   2.0000      -0.542201       -14.7540
 179   2.0000      -0.538711       -14.6591
 180   2.0000      -0.533555       -14.5188
 181   2.0000      -0.532832       -14.4991
 182   2.0000      -0.530886       -14.4461
 183   2.0000      -0.528106       -14.3705
 184   2.0000      -0.522299       -14.2125
 185   2.0000      -0.519760       -14.1434
 186   2.0000      -0.518314       -14.1040
 187   2.0000      -0.516386       -14.0516
 188   2.0000      -0.514355       -13.9963
 189   2.0000      -0.511754       -13.9255
 190   2.0000      -0.509807       -13.8726
 191   2.0000      -0.505958       -13.7678
 192   2.0000      -0.504583       -13.7304
 193   2.0000      -0.502640       -13.6775
 194   2.0000      -0.500114       -13.6088
 195   2.0000      -0.499341       -13.5878
 196   2.0000      -0.498601       -13.5676
 197   2.0000      -0.496322       -13.5056
 198   2.0000      -0.491512       -13.3747
 199   2.0000      -0.486502       -13.2384
 200   2.0000      -0.483644       -13.1606
 201   2.0000      -0.482783       -13.1372
 202   2.0000      -0.481641       -13.1061
 203   2.0000      -0.479332       -13.0433
 204   2.0000      -0.476315       -12.9612
 205   2.0000      -0.474487       -12.9114
 206   2.0000      -0.472775       -12.8649
 207   2.0000      -0.471364       -12.8265
 208   2.0000      -0.469909       -12.7869
 209   2.0000      -0.468933       -12.7603
 210   2.0000      -0.466252       -12.6874
 211   2.0000      -0.462191       -12.5769
 212   2.0000      -0.461725       -12.5642
 213   2.0000      -0.456412       -12.4196
 214   2.0000      -0.453227       -12.3329
 215   2.0000      -0.452038       -12.3006
 216   2.0000      -0.451611       -12.2890
 217   2.0000      -0.448808       -12.2127
 218   2.0000      -0.445996       -12.1362
 219   2.0000      -0.445753       -12.1296
 220   2.0000      -0.444179       -12.0867
 221   2.0000      -0.440972       -11.9994
 222   2.0000      -0.437020       -11.8919
 223   2.0000      -0.433644       -11.8000
 224   2.0000      -0.430089       -11.7033
 225   2.0000      -0.427812       -11.6414
 226   2.0000      -0.426480       -11.6051
 227   2.0000      -0.426016       -11.5925
 228   2.0000      -0.425151       -11.5690
 229   2.0000      -0.421850       -11.4791
 230   2.0000      -0.420527       -11.4431
 231   2.0000      -0.419693       -11.4204
 232   2.0000      -0.416080       -11.3221
 233   2.0000      -0.411201       -11.1893
 234   2.0000      -0.409499       -11.1430
 235   2.0000      -0.407986       -11.1019
 236   2.0000      -0.402790       -10.9605
 237   2.0000      -0.400285       -10.8923
 238   2.0000      -0.399654       -10.8751
 239   2.0000      -0.397935       -10.8284
 240   2.0000      -0.396477       -10.7887
 241   2.0000      -0.393834       -10.7168
 242   2.0000      -0.391521       -10.6538
 243   2.0000      -0.389005       -10.5854
 244   2.0000      -0.386084       -10.5059
 245   2.0000      -0.377532       -10.2732
 246   2.0000      -0.372567       -10.1381
 247   2.0000      -0.370313       -10.0767
 248   2.0000      -0.367842       -10.0095
 249   2.0000      -0.357091        -9.7169
 250   2.0000      -0.350314        -9.5325
 251   2.0000      -0.344861        -9.3842
 252   2.0000      -0.329602        -8.9689
 253   2.0000      -0.320505        -8.7214
 254   2.0000      -0.317659        -8.6439
 255   2.0000      -0.314932        -8.5697
 256   2.0000      -0.311965        -8.4890
 257   2.0000      -0.304807        -8.2942
 258   2.0000      -0.301994        -8.2177
 259   2.0000      -0.283307        -7.7092
 260   2.0000      -0.279013        -7.5923
 261   2.0000      -0.276397        -7.5211
 262   2.0000      -0.260926        -7.1002
 263   2.0000      -0.256840        -6.9890
 264   2.0000      -0.248616        -6.7652
 265   2.0000      -0.218906        -5.9567
 266   0.0000      -0.112598        -3.0640
 267   0.0000      -0.061084        -1.6622
 268   0.0000      -0.047090        -1.2814
 269   0.0000      -0.036807        -1.0016
 270   0.0000      -0.011970        -0.3257

MULLIKEN ATOMIC CHARGES
-----------------------
   0 C :    0.325709
   1 C :   -0.376158
   2 C :   -0.180418
   3 N :    0.123437
   4 C :   -0.193636
   5 N :    0.130118
   6 C :    0.036905
   7 C :    0.016478
   8 C :   -0.076222
   9 C :    0.113463
  10 C :   -0.083016
  11 C :   -0.045280
  12 S :    0.160334
  13 C :   -0.128400
  14 C :    0.057252
  15 Br:    0.006622
  16 C :    0.107382
  17 O :   -0.160572
  18 C :   -0.200611
  19 C :    0.044834
  20 C :    0.009398
  21 C :   -0.023302
  22 C :    0.057657
  23 C :    0.042388
  24 C :   -0.050826
  25 S :    0.086807
  26 C :   -0.005029
  27 C :    0.028611
  28 C :    0.041007
  29 C :   -0.058999
  30 S :    0.098280
  31 C :    0.008842
  32 C :   -0.162666
  33 S :    0.123495
  34 C :   -0.073384
  35 C :   -0.093897
  36 C :    0.136450
  37 C :    0.162170
  38 C :   -0.078380
  39 C :    0.032904
  40 C :   -0.041649
  41 C :    0.069119
  42 C :   -0.161592
  43 S :    0.093199
  44 C :   -0.053831
  45 C :    0.014339
  46 C :    0.111186
  47 C :   -0.051838
  48 C :   -0.055103
  49 C :    0.233834
  50 C :   -0.233446
  51 S :    0.081153
  52 C :   -0.197428
  53 C :    0.100482
  54 C :   -0.002562
  55 C :    0.005951
  56 C :    0.048280
  57 C :   -0.070463
  58 C :    0.077957
  59 C :   -0.033035
  60 C :   -0.230468
  61 C :    0.094991
  62 C :    0.245915
  63 N :   -0.205388
  64 C :    0.040452
  65 C :   -0.071644
  66 H :   -0.022196
  67 H :   -0.012431
  68 H :   -0.010756
  69 H :    0.031696
  70 H :    0.001716
  71 H :   -0.004781
  72 H :   -0.005106
  73 H :   -0.007942
  74 H :   -0.003937
  75 H :   -0.004409
  76 H :    0.024817
  77 H :    0.011693
  78 H :    0.017187
  79 H :    0.022662
  80 H :   -0.014463
  81 H :   -0.003225
  82 H :    0.000195
  83 H :   -0.001129
  84 H :    0.028266
  85 H :   -0.013166
  86 H :   -0.014434
  87 H :    0.012321
  88 H :    0.015286
  89 H :    0.019928
  90 H :    0.017066
  91 H :    0.021005
  92 H :    0.014098
  93 H :    0.018689
  94 H :   -0.029334
  95 H :   -0.022684
  96 H :   -0.016585
  97 H :    0.000642
  98 H :   -0.017131
  99 H :    0.020668
 100 H :    0.012401
 101 H :    0.025015
 102 H :    0.023208
 103 H :   -0.011519
 104 H :    0.117567
 105 H :   -0.005176
 106 H :   -0.012554
 107 H :    0.008668
Sum of atomic charges:   -0.0000000

LOEWDIN ATOMIC CHARGES
----------------------
   0 C :    0.068105
   1 C :   -0.170125
   2 C :   -0.020440
   3 N :   -0.081240
   4 C :   -0.019731
   5 N :   -0.073541
   6 C :   -0.009345
   7 C :   -0.049576
   8 C :    0.014353
   9 C :   -0.043529
  10 C :   -0.146531
  11 C :   -0.019988
  12 S :    0.424426
  13 C :   -0.279820
  14 C :   -0.067730
  15 Br:    0.138580
  16 C :    0.056421
  17 O :   -0.162913
  18 C :   -0.137096
  19 C :    0.055594
  20 C :   -0.078684
  21 C :   -0.080636
  22 C :   -0.038639
  23 C :    0.001035
  24 C :   -0.194195
  25 S :    0.439271
  26 C :   -0.145714
  27 C :   -0.046133
  28 C :   -0.011701
  29 C :   -0.173344
  30 S :    0.408448
  31 C :   -0.037006
  32 C :   -0.180538
  33 S :    0.466852
  34 C :   -0.166958
  35 C :   -0.062584
  36 C :   -0.046698
  37 C :   -0.043587
  38 C :   -0.032215
  39 C :   -0.015198
  40 C :   -0.038636
  41 C :   -0.014592
  42 C :   -0.178369
  43 S :    0.424976
  44 C :   -0.176283
  45 C :   -0.057497
  46 C :   -0.057482
  47 C :   -0.039859
  48 C :   -0.019942
  49 C :   -0.027006
  50 C :   -0.176836
  51 S :    0.389520
  52 C :   -0.171579
  53 C :   -0.046667
  54 C :   -0.051700
  55 C :   -0.081346
  56 C :   -0.071946
  57 C :   -0.046658
  58 C :   -0.000193
  59 C :   -0.055577
  60 C :   -0.029495
  61 C :   -0.048630
  62 C :    0.040680
  63 N :   -0.036977
  64 C :    0.019671
  65 C :   -0.157438
  66 H :    0.035814
  67 H :    0.038813
  68 H :    0.035982
  69 H :    0.042172
  70 H :    0.037554
  71 H :    0.037132
  72 H :    0.035576
  73 H :    0.035044
  74 H :    0.036520
  75 H :    0.042105
  76 H :    0.023839
  77 H :    0.035790
  78 H :    0.028157
  79 H :    0.026111
  80 H :    0.030034
  81 H :    0.023486
  82 H :    0.018291
  83 H :    0.036927
  84 H :    0.024819
  85 H :    0.030190
  86 H :    0.031449
  87 H :    0.032862
  88 H :    0.033445
  89 H :    0.032403
  90 H :    0.031182
  91 H :    0.024938
  92 H :    0.026729
  93 H :    0.024781
  94 H :    0.023942
  95 H :    0.026401
  96 H :    0.024358
  97 H :    0.026321
  98 H :    0.023539
  99 H :    0.034246
 100 H :    0.029872
 101 H :    0.032373
 102 H :    0.034799
 103 H :    0.009649
 104 H :    0.066050
 105 H :    0.021372
 106 H :    0.006227
 107 H :    0.020913

  Mayer bond orders larger than 0.100000
B(  0-C ,  1-C ) :   1.5610 B(  0-C ,  6-C ) :   0.9835 B(  0-C , 18-C ) :   1.1700
B(  1-C ,  2-C ) :   1.1499 B(  1-C ,  4-C ) :   1.1597 B(  2-C ,  3-N ) :   2.9567
B(  4-C ,  5-N ) :   2.9680 B(  6-C ,  7-C ) :   1.2886 B(  6-C , 11-C ) :   1.4145
B(  7-C ,  8-C ) :   1.4265 B(  7-C , 16-C ) :   0.8990 B(  8-C ,  9-C ) :   1.2355
B(  8-C , 66-H ) :   1.0195 B(  9-C , 10-C ) :   1.3238 B(  9-C , 14-C ) :   1.1591
B( 10-C , 11-C ) :   1.3151 B( 10-C , 12-S ) :   1.0774 B( 11-C , 67-H ) :   0.9815
B( 12-S , 13-C ) :   1.0810 B( 13-C , 14-C ) :   1.6180 B( 13-C , 15-Br) :   1.0067
B( 14-C , 68-H ) :   1.0000 B( 16-C , 17-O ) :   2.2427 B( 16-C , 18-C ) :   0.9532
B( 18-C , 19-C ) :   1.4021 B( 19-C , 20-C ) :   1.3598 B( 19-C , 69-H ) :   0.9448
B( 20-C , 21-C ) :   1.3903 B( 20-C , 70-H ) :   0.9585 B( 21-C , 22-C ) :   1.2415
B( 21-C , 25-S ) :   1.0909 B( 22-C , 23-C ) :   1.4976 B( 22-C , 71-H ) :   0.9962
B( 23-C , 24-C ) :   1.2583 B( 23-C , 72-H ) :   0.9933 B( 24-C , 25-S ) :   1.0509
B( 24-C , 26-C ) :   1.4105 B( 26-C , 27-C ) :   1.2189 B( 26-C , 30-S ) :   1.0928
B( 27-C , 28-C ) :   1.5514 B( 27-C , 73-H ) :   0.9944 B( 28-C , 29-C ) :   1.1661
B( 28-C , 74-H ) :   1.0000 B( 29-C , 30-S ) :   1.0349 B( 29-C , 31-C ) :   1.5218
B( 31-C , 32-C ) :   1.2389 B( 31-C , 75-H ) :   0.9595 B( 32-C , 33-S ) :   1.1109
B( 32-C , 37-C ) :   1.3538 B( 33-S , 34-C ) :   1.1583 B( 34-C , 35-C ) :   1.5776
B( 34-C , 76-H ) :   0.9625 B( 35-C , 36-C ) :   1.0987 B( 35-C , 37-C ) :   1.2409
B( 36-C , 77-H ) :   0.9455 B( 36-C , 78-H ) :   0.9400 B( 36-C , 79-H ) :   0.9292
B( 37-C , 38-C ) :   1.1038 B( 38-C , 39-C ) :   1.6378 B( 38-C , 80-H ) :   0.9574
B( 39-C , 40-C ) :   1.1440 B( 39-C , 81-H ) :   0.9728 B( 40-C , 41-C ) :   1.6411
B( 40-C , 82-H ) :   0.9806 B( 41-C , 42-C ) :   1.1719 B( 41-C , 83-H ) :   0.9564
B( 42-C , 43-S ) :   1.1032 B( 42-C , 46-C ) :   1.4679 B( 43-S , 44-C ) :   1.1547
B( 44-C , 45-C ) :   1.5784 B( 44-C , 84-H ) :   0.9727 B( 45-C , 46-C ) :   1.2244
B( 45-C , 85-H ) :   0.9996 B( 46-C , 47-C ) :   1.0456 B( 47-C , 48-C ) :   1.7828
B( 47-C , 86-H ) :   0.9463 B( 48-C , 49-C ) :   1.0371 B( 48-C , 57-C ) :   1.0387
B( 49-C , 50-C ) :   1.0093 B( 49-C , 87-H ) :   0.9087 B( 49-C , 88-H ) :   0.9104
B( 50-C , 51-S ) :   1.1215 B( 50-C , 56-C ) :   1.6551 B( 51-S , 52-C ) :   1.1251
B( 52-C , 53-C ) :   1.0201 B( 52-C , 55-C ) :   1.6487 B( 53-C , 54-C ) :   1.1410
B( 53-C , 89-H ) :   0.9246 B( 53-C , 90-H ) :   0.9265 B( 54-C , 91-H ) :   0.9656
B( 54-C , 92-H ) :   0.9644 B( 54-C , 93-H ) :   0.9677 B( 55-C , 56-C ) :   1.1674
B( 55-C , 94-H ) :   0.9941 B( 56-C , 95-H ) :   0.9875 B( 57-C , 58-C ) :   1.7573
B( 57-C , 96-H ) :   0.9643 B( 58-C , 59-C ) :   1.0934 B( 58-C , 97-H ) :   0.9538
B( 59-C , 60-C ) :   1.7869 B( 59-C , 98-H ) :   0.9695 B( 60-C , 61-C ) :   1.0822
B( 60-C , 62-C ) :   1.0051 B( 61-C , 99-H ) :   0.9374 B( 61-C ,100-H ) :   0.9512
B( 61-C ,101-H ) :   0.9505 B( 62-C , 63-N ) :   1.0405 B( 62-C ,102-H ) :   0.9103
B( 62-C ,103-H ) :   0.9329 B( 63-N , 64-C ) :   1.1454 B( 63-N ,104-H ) :   0.9352
B( 64-C , 65-C ) :   1.9059 B( 64-C ,105-H ) :   0.9612 B( 65-C ,106-H ) :   0.9540
B( 65-C ,107-H ) :   0.9525

-----------------------------------------------------------------------------
         ABSORPTION SPECTRUM VIA TRANSITION ELECTRIC DIPOLE MOMENTS
-----------------------------------------------------------------------------
State   Energy  Wavelength   fosc         T2         TX        TY        TZ
        (cm-1)    (nm)                  (au**2)     (au)      (au)      (au)
-----------------------------------------------------------------------------
   0    8054.9   1241.5   0.425934728  17.40847  -1.55127  -3.83551   0.53937
   1   14172.0    705.6   0.011357842   0.26384   0.38285   0.30679  -0.15213
   2   17069.7    585.8   0.183668724   3.54230  -1.44343  -1.16635  -0.31375
   3   18228.3    548.6   0.003215111   0.05807  -0.06228  -0.22788   0.04750
   4   19170.5    521.6   0.383155426   6.57986   2.19952   1.31106   0.15199
   5   19616.5    509.8   0.120306034   2.01903  -1.27494  -0.59265  -0.20572
   6   20516.1    487.4   0.028825492   0.46255  -0.35992   0.13360  -0.56139
   7   21074.6    474.5   0.193102182   3.01650   0.98544  -0.55216   1.31929
   8   23248.6    430.1   0.038530486   0.54561  -0.44535   0.42339  -0.40990
   9   24124.0    414.5   0.117827578   1.60795   0.50655   1.15402  -0.14000
  10   25055.0    399.1   0.017433970   0.22908  -0.45455   0.14744   0.02683
  11   25599.7    390.6   0.272330305   3.50216   1.69905  -0.19641   0.75949
  12   26627.5    375.6   0.028834860   0.35650   0.28509  -0.02827  -0.52386
  13   26896.4    371.8   0.002501234   0.03062  -0.00429  -0.12219  -0.12516
  14   27168.6    368.1   0.029276510   0.35475   0.52049   0.16612   0.23717
  15   28431.2    351.7   0.145180539   1.68108   1.03806  -0.56805   0.52994
  16   28515.8    350.7   0.139552562   1.61112   0.24250   1.07309  -0.63308
  17   29590.3    337.9   0.024946050   0.27754  -0.24879   0.22056  -0.40866
  18   30159.3    331.6   0.052058848   0.56826   0.34991   0.60418   0.28424
  19   30467.5    328.2   0.009612191   0.10386   0.28540   0.00350   0.14966
  20   31190.0    320.6   0.007359569   0.07768  -0.18635  -0.20404   0.03634
  21   31431.3    318.2   0.098071343   1.02720  -0.98569   0.19758   0.12872
  22   31664.5    315.8   0.051836473   0.53894  -0.55009   0.45366   0.17473
  23   31988.5    312.6   0.000539669   0.00555   0.04912   0.05555  -0.00746
  24   32229.3    310.3   0.029657147   0.30294   0.16023   0.51918  -0.08782
  25   32500.3    307.7   0.289248673   2.92995   1.19155   1.08473  -0.57750
  26   32811.9    304.8   0.007492713   0.07518   0.24839  -0.11548   0.01192
  27   32919.1    303.8   0.226624995   2.26640  -0.55269  -1.17359   0.76395
  28   33102.1    302.1   0.001442168   0.01434   0.00571   0.08744  -0.08163
  29   33461.5    298.9   0.078333591   0.77069  -0.11018  -0.61399   0.61770
  30   33851.6    295.4   0.029321686   0.28516  -0.38804   0.12594  -0.34456
  31   33935.0    294.7   0.138482798   1.34345   0.46480   1.02399  -0.28081
  32   34063.1    293.6   0.013731508   0.13271   0.33269  -0.11791  -0.09014
  33   34785.1    287.5   0.285770968   2.70458  -0.60393  -1.05444   1.10816
  34   34875.9    286.7   0.081440367   0.76876   0.14591  -0.60872   0.61394
  35   35128.3    284.7   0.009441511   0.08848   0.04557   0.18574  -0.22783
  36   35439.2    282.2   0.011705002   0.10873  -0.27853  -0.17304  -0.03484
  37   35828.8    279.1   0.082514772   0.75818   0.72110   0.25156  -0.41823
  38   36106.2    277.0   0.171716546   1.56569  -0.71980  -0.72568   0.72179
  39   36670.9    272.7   0.067090074   0.60230  -0.49237   0.09175  -0.59283
  40   37337.5    267.8   0.480392644   4.23572  -1.10476  -1.20270   1.25249
  41   37715.1    265.1   0.176341403   1.53927  -0.01348  -0.84212   0.91100
  42   37897.2    263.9   0.016508164   0.14341  -0.02374  -0.23343   0.29724
  43   38046.2    262.8   0.095336034   0.82494  -0.48004  -0.56164   0.52826
  44   38460.4    260.0   0.221262879   1.89396  -1.15511  -0.73492   0.13992
  45   38783.6    257.8   0.121520705   1.03152   0.31625  -0.33609   0.90474
  46   38973.2    256.6   0.090656775   0.76579   0.33416  -0.71477   0.37846
  47   39413.9    253.7   0.044085523   0.36823   0.04294  -0.60388   0.04144
  48   39647.1    252.2   0.005838836   0.04848  -0.21128  -0.06129  -0.00928
  49   39704.3    251.9   0.033650803   0.27902  -0.38637  -0.18939   0.30638
  50   40235.8    248.5   0.011789136   0.09646   0.10250  -0.25105   0.15141

FINAL SINGLE POINT ENERGY     -7319.741010122812

DIPOLE MOMENT
-------------
                                X             Y             Z
Electronic contribution:     28.97790    -145.50302     -14.29053
Nuclear contribution   :    -27.41574     150.53743      11.99636
                        -----------------------------------------
Total Dipole Moment    :      1.56216       5.03441      -2.29418
                        -----------------------------------------
Magnitude (a.u.)       :      5.74882
Magnitude (Debye)      :     14.61233

Rotational constants in cm-1:     0.001573     0.000429     0.000379
Rotational constants in MHz :    47.170912    12.867153    11.348381

                             ****ORCA TERMINATED NORMALLY****
TOTAL RUN TIME: 0 days 0 hours 16 minutes 38 seconds 525 msec
