                         Program Version 4.2.0 -  RELEASE  -
|  1> # ORCA input file
|  2> # SCF done       -163.800313608790          0.000716807822
|  3> ! CAM-B3LYP def2-SVP def2/J RIJCOSX Grid4 TightSCF
|  4> %maxcore 5000
|  5> %tddft
|  6>     Mode sTDDFT
|  7>     Ethresh 5.0
|  8>     maxcore 5000
|  9> end
| 10>
| 11> %pal
| 12>   nprocs 6
| 13>   end
| 14> * xyz 0 1
| 15>    C       -1.69815         0.25144         0.21557
| 16>    C       -1.81966        -0.93461        -0.47653
| 17>    C       -0.74489        -1.75962        -0.84929
| 18>    N        0.05674        -2.49923        -1.21545
| 19>    C       -3.01650        -1.49907        -0.95348
| 20>    N       -3.91578        -2.06909        -1.38958
| 21>    C       -0.43452         0.80572         0.69585
| 22>    C       -0.68925         2.07247         1.27311
| 23>    C        0.29803         2.83914         1.83834
| 24>    C        1.60164         2.32738         1.83938
| 25>    C        1.84575         1.06093         1.26101
| 26>    C        0.84490         0.28685         0.68402
| 27>    S        3.52158         0.61514         1.38091
| 28>    C        3.86547         2.11635         2.19769
| 29>    C        2.78387         2.91210         2.37077
| 30>   Br        5.61958         2.48970         2.74936
| 31>    C       -2.13783         2.36435         1.17788
| 32>    O       -2.68804         3.38108         1.55483
| 33>    C       -2.74354         1.17199         0.55609
| 34>    C       -4.10609         0.97488         0.39928
| 35>    C       -5.07703         1.92001         0.69660
| 36>    C       -6.43827         1.66998         0.64513
| 37>    C       -7.46589         2.59976         0.91719
| 38>    C       -8.72540         2.07712         0.84711
| 39>    C       -8.75002         0.70509         0.52541
| 40>    S       -7.12304         0.10601         0.27631
| 41>    C       -9.84624        -0.13714         0.44591
| 42>    C      -11.21014         0.17992         0.68401
| 43>    C      -12.04318        -0.88625         0.60182
| 44>    C      -11.38506        -2.11811         0.30739
| 45>    S       -9.65835        -1.82931         0.10390
| 46>    C      -11.99983        -3.31907         0.14997
| 47>    N      -11.37873        -4.51493        -0.09408
| 48>    C      -10.12834        -4.94000         0.37299
| 49>    S       -9.30226        -4.23276         1.62422
| 50>    C       -9.83002        -6.15539        -0.25794
| 51>    C      -10.91426        -6.54577        -1.03411
| 52>    C      -11.92347        -5.50692        -0.88556
| 53>    S      -13.40839        -5.43600        -1.57402
| 54>    C      -11.08694        -7.66706        -1.85644
| 55>    C      -10.06503        -8.44242        -2.36003
| 56>    C      -10.18619        -9.56758        -3.20932
| 57>    C       -8.99723       -10.04293        -3.68614
| 58>    C       -7.87938        -9.30573        -3.24890
| 59>    S       -8.37559        -8.04139        -2.15029
| 60>    C       -6.54699        -9.40507        -3.62023
| 61>    C       -5.91201       -10.34498        -4.46030
| 62>    C       -4.59047       -10.08387        -4.66996
| 63>    C       -4.11638        -8.91635        -4.01905
| 64>    S       -5.41009        -8.19270        -3.08465
| 65>    C       -2.86056        -8.37324        -4.11898
| 66>    C       -2.41398        -7.17547        -3.53925
| 67>    S       -3.38480        -6.11606        -2.51862
| 68>    C       -2.14257        -4.96347        -2.31726
| 69>    C       -1.00369        -5.34145        -2.99303
| 70>    C       -1.16495        -6.58331        -3.67505
| 71>    O       -0.04227        -6.91804        -4.33346
| 72>    C        0.83850        -5.90405        -4.07924
| 73>    N        2.12170        -6.00102        -4.67420
| 74>    O        2.89361        -5.08966        -4.45351
| 75>    O        2.35416        -6.97481        -5.35730
| 76>    C        0.32588        -4.92246        -3.27686
| 77>    H        0.07447         3.80049         2.27362
| 78>    H        1.08032        -0.67562         0.26085
| 79>    H        2.81570         3.87092         2.85522
| 80>    H       -4.44775         0.01154         0.03766
| 81>    H       -4.76402         2.90761         1.00370
| 82>    H       -7.24278         3.62272         1.16261
| 83>    H       -9.62428         2.63868         1.02768
| 84>    H      -11.52769         1.18153         0.91101
| 85>    H      -13.10725        -0.84792         0.75136
| 86>    H      -13.08233        -3.36698         0.14949
| 87>    H       -8.93505        -6.70769        -0.05343
| 88>    H      -12.09611        -7.88915        -2.17738
| 89>    H      -11.14813        -9.98204        -3.45361
| 90>    H       -8.90431       -10.87590        -4.35969
| 91>    H       -6.44133       -11.17888        -4.88483
| 92>    H       -3.94200       -10.68227        -5.28494
| 93>    H       -2.13202        -8.89548        -4.72582
| 94>    H       -2.32374        -4.08204        -1.73767
| 95>    H        0.82179        -4.03875        -2.92977
| 96> *
| 97>
| 98>                          ****END OF INPUT****

CARTESIAN COORDINATES (ANGSTROEM)
---------------------------------
  C     -1.698150    0.251440    0.215570
  C     -1.819660   -0.934610   -0.476530
  C     -0.744890   -1.759620   -0.849290
  N      0.056740   -2.499230   -1.215450
  C     -3.016500   -1.499070   -0.953480
  N     -3.915780   -2.069090   -1.389580
  C     -0.434520    0.805720    0.695850
  C     -0.689250    2.072470    1.273110
  C      0.298030    2.839140    1.838340
  C      1.601640    2.327380    1.839380
  C      1.845750    1.060930    1.261010
  C      0.844900    0.286850    0.684020
  S      3.521580    0.615140    1.380910
  C      3.865470    2.116350    2.197690
  C      2.783870    2.912100    2.370770
  Br     5.619580    2.489700    2.749360
  C     -2.137830    2.364350    1.177880
  O     -2.688040    3.381080    1.554830
  C     -2.743540    1.171990    0.556090
  C     -4.106090    0.974880    0.399280
  C     -5.077030    1.920010    0.696600
  C     -6.438270    1.669980    0.645130
  C     -7.465890    2.599760    0.917190
  C     -8.725400    2.077120    0.847110
  C     -8.750020    0.705090    0.525410
  S     -7.123040    0.106010    0.276310
  C     -9.846240   -0.137140    0.445910
  C    -11.210140    0.179920    0.684010
  C    -12.043180   -0.886250    0.601820
  C    -11.385060   -2.118110    0.307390
  S     -9.658350   -1.829310    0.103900
  C    -11.999830   -3.319070    0.149970
  N    -11.378730   -4.514930   -0.094080
  C    -10.128340   -4.940000    0.372990
  S     -9.302260   -4.232760    1.624220
  C     -9.830020   -6.155390   -0.257940
  C    -10.914260   -6.545770   -1.034110
  C    -11.923470   -5.506920   -0.885560
  S    -13.408390   -5.436000   -1.574020
  C    -11.086940   -7.667060   -1.856440
  C    -10.065030   -8.442420   -2.360030
  C    -10.186190   -9.567580   -3.209320
  C     -8.997230  -10.042930   -3.686140
  C     -7.879380   -9.305730   -3.248900
  S     -8.375590   -8.041390   -2.150290
  C     -6.546990   -9.405070   -3.620230
  C     -5.912010  -10.344980   -4.460300
  C     -4.590470  -10.083870   -4.669960
  C     -4.116380   -8.916350   -4.019050
  S     -5.410090   -8.192700   -3.084650
  C     -2.860560   -8.373240   -4.118980
  C     -2.413980   -7.175470   -3.539250
  S     -3.384800   -6.116060   -2.518620
  C     -2.142570   -4.963470   -2.317260
  C     -1.003690   -5.341450   -2.993030
  C     -1.164950   -6.583310   -3.675050
  O     -0.042270   -6.918040   -4.333460
  C      0.838500   -5.904050   -4.079240
  N      2.121700   -6.001020   -4.674200
  O      2.893610   -5.089660   -4.453510
  O      2.354160   -6.974810   -5.357300
  C      0.325880   -4.922460   -3.276860
  H      0.074470    3.800490    2.273620
  H      1.080320   -0.675620    0.260850
  H      2.815700    3.870920    2.855220
  H     -4.447750    0.011540    0.037660
  H     -4.764020    2.907610    1.003700
  H     -7.242780    3.622720    1.162610
  H     -9.624280    2.638680    1.027680
  H    -11.527690    1.181530    0.911010
  H    -13.107250   -0.847920    0.751360
  H    -13.082330   -3.366980    0.149490
  H     -8.935050   -6.707690   -0.053430
  H    -12.096110   -7.889150   -2.177380
  H    -11.148130   -9.982040   -3.453610
  H     -8.904310  -10.875900   -4.359690
  H     -6.441330  -11.178880   -4.884830
  H     -3.942000  -10.682270   -5.284940
  H     -2.132020   -8.895480   -4.725820
  H     -2.323740   -4.082040   -1.737670
  H      0.821790   -4.038750   -2.929770

 Total Charge           Charge          ....    0
 Multiplicity           Mult            ....    1
 Number of Electrons    NEL             ....  512
 Basis Dimension        Dim             .... 1013

ORBITAL ENERGIES
----------------

  NO   OCC          E(Eh)            E(eV)
   0   2.0000    -482.877858    -13139.7745
   1   2.0000     -88.976674     -2421.1784
   2   2.0000     -88.966021     -2420.8885
   3   2.0000     -88.964938     -2420.8590
   4   2.0000     -88.961435     -2420.7637
   5   2.0000     -88.959344     -2420.7068
   6   2.0000     -88.958559     -2420.6855
   7   2.0000     -88.904592     -2419.2169
   8   2.0000     -88.893949     -2418.9273
   9   2.0000     -62.555537     -1702.2227
  10   2.0000     -56.389478     -1534.4357
  11   2.0000     -56.386781     -1534.3623
  12   2.0000     -56.386745     -1534.3613
  13   2.0000     -19.307155      -525.3744
  14   2.0000     -19.235606      -523.4274
  15   2.0000     -19.234122      -523.3871
  16   2.0000     -19.199776      -522.4525
  17   2.0000     -14.647977      -398.5917
  18   2.0000     -14.490660      -394.3109
  19   2.0000     -14.410977      -392.1426
  20   2.0000     -14.408092      -392.0641
  21   2.0000     -10.378101      -282.4025
  22   2.0000     -10.371420      -282.2207
  23   2.0000     -10.355921      -281.7989
  24   2.0000     -10.350906      -281.6625
  25   2.0000     -10.350240      -281.6443
  26   2.0000     -10.349409      -281.6217
  27   2.0000     -10.343009      -281.4476
  28   2.0000     -10.336741      -281.2770
  29   2.0000     -10.332810      -281.1701
  30   2.0000     -10.327369      -281.0220
  31   2.0000     -10.327315      -281.0205
  32   2.0000     -10.324144      -280.9342
  33   2.0000     -10.323555      -280.9182
  34   2.0000     -10.322995      -280.9030
  35   2.0000     -10.319062      -280.7960
  36   2.0000     -10.318956      -280.7931
  37   2.0000     -10.318788      -280.7885
  38   2.0000     -10.318013      -280.7674
  39   2.0000     -10.317408      -280.7510
  40   2.0000     -10.314422      -280.6697
  41   2.0000     -10.314155      -280.6624
  42   2.0000     -10.313542      -280.6457
  43   2.0000     -10.312602      -280.6202
  44   2.0000     -10.309869      -280.5458
  45   2.0000     -10.305672      -280.4316
  46   2.0000     -10.305330      -280.4223
  47   2.0000     -10.305072      -280.4153
  48   2.0000     -10.301847      -280.3275
  49   2.0000     -10.301724      -280.3242
  50   2.0000     -10.301451      -280.3167
  51   2.0000     -10.298765      -280.2436
  52   2.0000     -10.298388      -280.2334
  53   2.0000     -10.296297      -280.1765
  54   2.0000     -10.295291      -280.1491
  55   2.0000     -10.294747      -280.1343
  56   2.0000     -10.293055      -280.0883
  57   2.0000     -10.291465      -280.0450
  58   2.0000     -10.289713      -279.9973
  59   2.0000     -10.288873      -279.9745
  60   2.0000     -10.287547      -279.9384
  61   2.0000     -10.283988      -279.8415
  62   2.0000     -10.283618      -279.8315
  63   2.0000     -10.278759      -279.6993
  64   2.0000     -10.274289      -279.5776
  65   2.0000     -10.270516      -279.4750
  66   2.0000      -8.784943      -239.0504
  67   2.0000      -8.071325      -219.6319
  68   2.0000      -8.062029      -219.3790
  69   2.0000      -8.060330      -219.3327
  70   2.0000      -8.057816      -219.2643
  71   2.0000      -8.055310      -219.1961
  72   2.0000      -8.054614      -219.1772
  73   2.0000      -8.001165      -217.7228
  74   2.0000      -7.990118      -217.4222
  75   2.0000      -6.621182      -180.1715
  76   2.0000      -6.606698      -179.7774
  77   2.0000      -6.606521      -179.7726
  78   2.0000      -6.040638      -164.3741
  79   2.0000      -6.036142      -164.2518
  80   2.0000      -6.033818      -164.1885
  81   2.0000      -6.031737      -164.1319
  82   2.0000      -6.029990      -164.0844
  83   2.0000      -6.027543      -164.0178
  84   2.0000      -6.027455      -164.0154
  85   2.0000      -6.025751      -163.9690
  86   2.0000      -6.024838      -163.9442
  87   2.0000      -6.024210      -163.9271
  88   2.0000      -6.023335      -163.9033
  89   2.0000      -6.023229      -163.9004
  90   2.0000      -6.021485      -163.8529
  91   2.0000      -6.020857      -163.8358
  92   2.0000      -6.020067      -163.8144
  93   2.0000      -6.018782      -163.7794
  94   2.0000      -6.016601      -163.7200
  95   2.0000      -6.015882      -163.7005
  96   2.0000      -5.970253      -162.4589
  97   2.0000      -5.968725      -162.4173
  98   2.0000      -5.960936      -162.2053
  99   2.0000      -5.959402      -162.1636
 100   2.0000      -5.957859      -162.1216
 101   2.0000      -5.949526      -161.8948
 102   2.0000      -2.737088       -74.4800
 103   2.0000      -2.732974       -74.3680
 104   2.0000      -2.732867       -74.3651
 105   2.0000      -2.721334       -74.0513
 106   2.0000      -2.721331       -74.0512
 107   2.0000      -1.319802       -35.9136
 108   2.0000      -1.226693       -33.3800
 109   2.0000      -1.136171       -30.9168
 110   2.0000      -1.121973       -30.5304
 111   2.0000      -1.113202       -30.2918
 112   2.0000      -1.013318       -27.5738
 113   2.0000      -1.012103       -27.5407
 114   2.0000      -1.011457       -27.5231
 115   2.0000      -1.006234       -27.3810
 116   2.0000      -0.998140       -27.1608
 117   2.0000      -0.989449       -26.9243
 118   2.0000      -0.988791       -26.9064
 119   2.0000      -0.985273       -26.8106
 120   2.0000      -0.978015       -26.6131
 121   2.0000      -0.948669       -25.8146
 122   2.0000      -0.932049       -25.3624
 123   2.0000      -0.930152       -25.3107
 124   2.0000      -0.910652       -24.7801
 125   2.0000      -0.907347       -24.6902
 126   2.0000      -0.904674       -24.6174
 127   2.0000      -0.897821       -24.4309
 128   2.0000      -0.889282       -24.1986
 129   2.0000      -0.881048       -23.9745
 130   2.0000      -0.875036       -23.8109
 131   2.0000      -0.872468       -23.7411
 132   2.0000      -0.864493       -23.5240
 133   2.0000      -0.862668       -23.4744
 134   2.0000      -0.853608       -23.2278
 135   2.0000      -0.840293       -22.8655
 136   2.0000      -0.838386       -22.8136
 137   2.0000      -0.832326       -22.6487
 138   2.0000      -0.824226       -22.4283
 139   2.0000      -0.822201       -22.3732
 140   2.0000      -0.818375       -22.2691
 141   2.0000      -0.799112       -21.7449
 142   2.0000      -0.788529       -21.4570
 143   2.0000      -0.778805       -21.1923
 144   2.0000      -0.764493       -20.8029
 145   2.0000      -0.750916       -20.4335
 146   2.0000      -0.747023       -20.3275
 147   2.0000      -0.732573       -19.9343
 148   2.0000      -0.713353       -19.4113
 149   2.0000      -0.707352       -19.2480
 150   2.0000      -0.703651       -19.1473
 151   2.0000      -0.698282       -19.0012
 152   2.0000      -0.692631       -18.8474
 153   2.0000      -0.683514       -18.5994
 154   2.0000      -0.679939       -18.5021
 155   2.0000      -0.678404       -18.4603
 156   2.0000      -0.666788       -18.1442
 157   2.0000      -0.658676       -17.9235
 158   2.0000      -0.648016       -17.6334
 159   2.0000      -0.646780       -17.5998
 160   2.0000      -0.642093       -17.4722
 161   2.0000      -0.633874       -17.2486
 162   2.0000      -0.633304       -17.2331
 163   2.0000      -0.632032       -17.1985
 164   2.0000      -0.628173       -17.0935
 165   2.0000      -0.626498       -17.0479
 166   2.0000      -0.618977       -16.8432
 167   2.0000      -0.614570       -16.7233
 168   2.0000      -0.612034       -16.6543
 169   2.0000      -0.605129       -16.4664
 170   2.0000      -0.600967       -16.3531
 171   2.0000      -0.591659       -16.0999
 172   2.0000      -0.588296       -16.0083
 173   2.0000      -0.582934       -15.8625
 174   2.0000      -0.578553       -15.7432
 175   2.0000      -0.574223       -15.6254
 176   2.0000      -0.567699       -15.4479
 177   2.0000      -0.563942       -15.3456
 178   2.0000      -0.560531       -15.2528
 179   2.0000      -0.555210       -15.1080
 180   2.0000      -0.550074       -14.9683
 181   2.0000      -0.547012       -14.8850
 182   2.0000      -0.535430       -14.5698
 183   2.0000      -0.531345       -14.4586
 184   2.0000      -0.530290       -14.4299
 185   2.0000      -0.527320       -14.3491
 186   2.0000      -0.524105       -14.2616
 187   2.0000      -0.520657       -14.1678
 188   2.0000      -0.517181       -14.0732
 189   2.0000      -0.514502       -14.0003
 190   2.0000      -0.512486       -13.9455
 191   2.0000      -0.510634       -13.8951
 192   2.0000      -0.508665       -13.8415
 193   2.0000      -0.504225       -13.7207
 194   2.0000      -0.502744       -13.6804
 195   2.0000      -0.502503       -13.6738
 196   2.0000      -0.499710       -13.5978
 197   2.0000      -0.499156       -13.5827
 198   2.0000      -0.495677       -13.4881
 199   2.0000      -0.492846       -13.4110
 200   2.0000      -0.484969       -13.1967
 201   2.0000      -0.483673       -13.1614
 202   2.0000      -0.482707       -13.1351
 203   2.0000      -0.481516       -13.1027
 204   2.0000      -0.479911       -13.0590
 205   2.0000      -0.476997       -12.9798
 206   2.0000      -0.474460       -12.9107
 207   2.0000      -0.462759       -12.5923
 208   2.0000      -0.461482       -12.5576
 209   2.0000      -0.460629       -12.5344
 210   2.0000      -0.455291       -12.3891
 211   2.0000      -0.452325       -12.3084
 212   2.0000      -0.449536       -12.2325
 213   2.0000      -0.448432       -12.2024
 214   2.0000      -0.444913       -12.1067
 215   2.0000      -0.444413       -12.0931
 216   2.0000      -0.441598       -12.0165
 217   2.0000      -0.440611       -11.9896
 218   2.0000      -0.439357       -11.9555
 219   2.0000      -0.437030       -11.8922
 220   2.0000      -0.430269       -11.7082
 221   2.0000      -0.427228       -11.6255
 222   2.0000      -0.424661       -11.5556
 223   2.0000      -0.423313       -11.5189
 224   2.0000      -0.418093       -11.3769
 225   2.0000      -0.416778       -11.3411
 226   2.0000      -0.414089       -11.2679
 227   2.0000      -0.405297       -11.0287
 228   2.0000      -0.403579       -10.9819
 229   2.0000      -0.401626       -10.9288
 230   2.0000      -0.395792       -10.7700
 231   2.0000      -0.386935       -10.5290
 232   2.0000      -0.382007       -10.3949
 233   2.0000      -0.380430       -10.3520
 234   2.0000      -0.375802       -10.2261
 235   2.0000      -0.372195       -10.1279
 236   2.0000      -0.367324        -9.9954
 237   2.0000      -0.364448        -9.9171
 238   2.0000      -0.363824        -9.9001
 239   2.0000      -0.357379        -9.7248
 240   2.0000      -0.350868        -9.5476
 241   2.0000      -0.349157        -9.5011
 242   2.0000      -0.339325        -9.2335
 243   2.0000      -0.337021        -9.1708
 244   2.0000      -0.332925        -9.0594
 245   2.0000      -0.320234        -8.7140
 246   2.0000      -0.316646        -8.6164
 247   2.0000      -0.305905        -8.3241
 248   2.0000      -0.305160        -8.3038
 249   2.0000      -0.303116        -8.2482
 250   2.0000      -0.293514        -7.9869
 251   2.0000      -0.284816        -7.7502
 252   2.0000      -0.284154        -7.7322
 253   2.0000      -0.274418        -7.4673
 254   2.0000      -0.234302        -6.3757
 255   2.0000      -0.219845        -5.9823
 256   0.0000      -0.114025        -3.1028
 257   0.0000      -0.102519        -2.7897
 258   0.0000      -0.073135        -1.9901
 259   0.0000      -0.058217        -1.5842
 260   0.0000      -0.051043        -1.3890

MULLIKEN ATOMIC CHARGES
-----------------------
   0 C :    0.334195
   1 C :   -0.357218
   2 C :   -0.191077
   3 N :    0.120186
   4 C :   -0.189943
   5 N :    0.110746
   6 C :    0.006824
   7 C :   -0.002719
   8 C :   -0.076825
   9 C :    0.113875
  10 C :   -0.090511
  11 C :   -0.027902
  12 S :    0.179129
  13 C :   -0.125054
  14 C :    0.040222
  15 Br:    0.015943
  16 C :    0.138817
  17 O :   -0.165708
  18 C :   -0.102478
  19 C :   -0.033463
  20 C :   -0.030910
  21 C :    0.008326
  22 C :    0.020166
  23 C :    0.048068
  24 C :   -0.063594
  25 S :    0.118569
  26 C :   -0.035656
  27 C :    0.025643
  28 C :    0.057729
  29 C :   -0.027821
  30 S :    0.154999
  31 C :    0.093990
  32 N :   -0.141276
  33 C :    0.035097
  34 S :   -0.121991
  35 C :   -0.041967
  36 C :    0.061842
  37 C :    0.052456
  38 S :   -0.138558
  39 C :   -0.017700
  40 C :   -0.012542
  41 C :    0.024615
  42 C :    0.044968
  43 C :   -0.061435
  44 S :    0.083243
  45 C :   -0.010465
  46 C :    0.018493
  47 C :    0.056336
  48 C :   -0.046525
  49 S :    0.077965
  50 C :    0.030792
  51 C :   -0.214454
  52 S :    0.157494
  53 C :   -0.084527
  54 C :    0.113146
  55 C :    0.206403
  56 O :   -0.185612
  57 C :    0.233071
  58 N :    0.272438
  59 O :   -0.244544
  60 O :   -0.238171
  61 C :   -0.048420
  62 H :   -0.016015
  63 H :   -0.011611
  64 H :   -0.006819
  65 H :    0.014918
  66 H :    0.016464
  67 H :   -0.001592
  68 H :   -0.004946
  69 H :   -0.007408
  70 H :    0.004192
  71 H :    0.026651
  72 H :    0.011306
  73 H :   -0.004326
  74 H :   -0.005706
  75 H :   -0.005992
  76 H :   -0.008202
  77 H :    0.000514
  78 H :    0.015386
  79 H :    0.034437
  80 H :    0.022025
Sum of atomic charges:   -0.0000000

LOEWDIN ATOMIC CHARGES
----------------------
   0 C :    0.080152
   1 C :   -0.177041
   2 C :   -0.004427
   3 N :   -0.089414
   4 C :   -0.019547
   5 N :   -0.081199
   6 C :   -0.019859
   7 C :   -0.046331
   8 C :    0.017229
   9 C :   -0.035496
  10 C :   -0.146904
  11 C :   -0.015667
  12 S :    0.427136
  13 C :   -0.274554
  14 C :   -0.070619
  15 Br:    0.130825
  16 C :    0.082468
  17 O :   -0.158233
  18 C :   -0.119579
  19 C :    0.051503
  20 C :   -0.081857
  21 C :   -0.097889
  22 C :   -0.049519
  23 C :   -0.002065
  24 C :   -0.202538
  25 S :    0.414542
  26 C :   -0.141414
  27 C :   -0.045323
  28 C :    0.005147
  29 C :   -0.173343
  30 S :    0.434860
  31 C :    0.035073
  32 N :    0.013804
  33 C :   -0.132041
  34 S :    0.022307
  35 C :   -0.067246
  36 C :   -0.040164
  37 C :   -0.088051
  38 S :    0.031209
  39 C :   -0.070624
  40 C :   -0.116581
  41 C :   -0.044045
  42 C :   -0.015505
  43 C :   -0.200377
  44 S :    0.412814
  45 C :   -0.145575
  46 C :   -0.048759
  47 C :   -0.004187
  48 C :   -0.172377
  49 S :    0.387140
  50 C :   -0.023577
  51 C :   -0.221433
  52 S :    0.489848
  53 C :   -0.143123
  54 C :   -0.083536
  55 C :    0.035847
  56 O :    0.000813
  57 C :    0.018796
  58 N :    0.271479
  59 O :   -0.205802
  60 O :   -0.199282
  61 C :    0.011169
  62 H :    0.038830
  63 H :    0.038668
  64 H :    0.037628
  65 H :    0.031728
  66 H :    0.038439
  67 H :    0.038117
  68 H :    0.035586
  69 H :    0.034097
  70 H :    0.040123
  71 H :    0.033050
  72 H :    0.026235
  73 H :    0.033769
  74 H :    0.035912
  75 H :    0.034973
  76 H :    0.034274
  77 H :    0.038747
  78 H :    0.051099
  79 H :    0.032396
  80 H :    0.047274

  Mayer bond orders larger than 0.100000
B(  0-C ,  1-C ) :   1.5252 B(  0-C ,  6-C ) :   0.9871 B(  0-C , 18-C ) :   1.1488
B(  1-C ,  2-C ) :   1.1699 B(  1-C ,  4-C ) :   1.1650 B(  2-C ,  3-N ) :   2.9072
B(  4-C ,  5-N ) :   2.9105 B(  6-C ,  7-C ) :   1.2768 B(  6-C , 11-C ) :   1.4227
B(  7-C ,  8-C ) :   1.4376 B(  7-C , 16-C ) :   0.9311 B(  8-C ,  9-C ) :   1.2358
B(  8-C , 62-H ) :   1.0156 B(  9-C , 10-C ) :   1.3202 B(  9-C , 14-C ) :   1.1617
B( 10-C , 11-C ) :   1.3206 B( 10-C , 12-S ) :   1.0820 B( 11-C , 63-H ) :   0.9792
B( 12-S , 13-C ) :   1.0870 B( 13-C , 14-C ) :   1.6199 B( 13-C , 15-Br) :   1.0144
B( 14-C , 64-H ) :   0.9993 B( 16-C , 17-O ) :   2.1841 B( 16-C , 18-C ) :   0.9725
B( 18-C , 19-C ) :   1.4207 B( 19-C , 20-C ) :   1.3133 B( 19-C , 65-H ) :   0.9477
B( 20-C , 21-C ) :   1.3738 B( 20-C , 66-H ) :   0.9755 B( 21-C , 22-C ) :   1.2016
B( 21-C , 25-S ) :   1.1041 B( 22-C , 23-C ) :   1.5199 B( 22-C , 67-H ) :   1.0019
B( 23-C , 24-C ) :   1.2312 B( 23-C , 68-H ) :   0.9948 B( 24-C , 25-S ) :   1.0418
B( 24-C , 26-C ) :   1.4543 B( 26-C , 27-C ) :   1.1658 B( 26-C , 30-S ) :   1.1101
B( 27-C , 28-C ) :   1.6240 B( 27-C , 69-H ) :   0.9935 B( 28-C , 29-C ) :   1.1322
B( 28-C , 70-H ) :   0.9967 B( 29-C , 30-S ) :   1.0105 B( 29-C , 31-C ) :   1.6394
B( 31-C , 32-N ) :   1.0706 B( 31-C , 71-H ) :   0.9526 B( 32-N , 33-C ) :   1.0172
B( 32-N , 37-C ) :   1.0945 B( 33-C , 34-S ) :   1.5854 B( 33-C , 35-C ) :   1.1816
B( 35-C , 36-C ) :   1.4482 B( 35-C , 72-H ) :   0.9986 B( 36-C , 37-C ) :   1.0232
B( 36-C , 39-C ) :   1.2314 B( 37-C , 38-S ) :   1.7010 B( 39-C , 40-C ) :   1.4895
B( 39-C , 73-H ) :   0.9590 B( 40-C , 41-C ) :   1.1794 B( 40-C , 44-S ) :   1.0796
B( 41-C , 42-C ) :   1.5472 B( 41-C , 74-H ) :   0.9997 B( 42-C , 43-C ) :   1.2195
B( 42-C , 75-H ) :   0.9948 B( 43-C , 44-S ) :   1.0396 B( 43-C , 45-C ) :   1.4599
B( 45-C , 46-C ) :   1.2011 B( 45-C , 49-S ) :   1.0811 B( 46-C , 47-C ) :   1.5714
B( 46-C , 76-H ) :   0.9951 B( 47-C , 48-C ) :   1.1549 B( 47-C , 77-H ) :   1.0001
B( 48-C , 49-S ) :   1.0260 B( 48-C , 50-C ) :   1.5463 B( 50-C , 51-C ) :   1.2011
B( 50-C , 78-H ) :   0.9748 B( 51-C , 52-S ) :   1.0855 B( 51-C , 53-C ) :   0.1006
B( 51-C , 55-C ) :   1.4124 B( 52-S , 53-C ) :   1.2259 B( 53-C , 54-C ) :   1.4013
B( 53-C , 79-H ) :   0.9713 B( 54-C , 55-C ) :   1.2314 B( 54-C , 61-C ) :   1.0746
B( 55-C , 56-O ) :   1.1489 B( 56-O , 57-C ) :   1.0986 B( 57-C , 58-N ) :   0.9139
B( 57-C , 61-C ) :   1.5575 B( 58-N , 59-O ) :   1.5386 B( 58-N , 60-O ) :   1.5096
B( 59-O , 60-O ) :   0.2784 B( 61-C , 80-H ) :   1.0178

-----------------------------------------------------------------------------
         ABSORPTION SPECTRUM VIA TRANSITION ELECTRIC DIPOLE MOMENTS
-----------------------------------------------------------------------------
State   Energy  Wavelength   fosc         T2         TX        TY        TZ
        (cm-1)    (nm)                  (au**2)     (au)      (au)      (au)
-----------------------------------------------------------------------------
   0    8556.8   1168.7   0.248239546   9.55070   0.40473  -2.57180  -1.66515
   1   12236.2    817.2   0.194797500   5.24096  -2.12626  -0.84312  -0.09548
   2   13342.3    749.5   0.865247121  21.34944  -4.49471  -0.66906   0.83632
   3   15142.2    660.4   0.493044365  10.71948  -3.26706  -0.01166   0.21363
   4   15817.9    632.2   0.002840896   0.05913  -0.10244  -0.04642  -0.21559
   5   18214.0    549.0   0.546822920   9.88365  -3.03820  -0.76365   0.26421
   6   19620.2    509.7   0.012052232   0.20223   0.02803  -0.44215  -0.07709
   7   20414.3    489.9   0.004025514   0.06492   0.06812   0.24107   0.04648
   8   21604.3    462.9   0.074505591   1.13533  -0.03782  -1.04199  -0.21944
   9   22042.1    453.7   0.176812751   2.64080  -0.63335  -1.41676  -0.48215
  10   22807.4    438.5   0.302710271   4.36946  -1.55525  -1.32598  -0.43867
  11   23675.4    422.4   0.300365075   4.17664   0.19144   1.74746   1.04229
  12   24261.9    412.2   0.046516374   0.63118  -0.52262   0.59833   0.00700
  13   24885.5    401.8   0.036415747   0.48175  -0.35190   0.58864  -0.10685
  14   25826.5    387.2   0.183718412   2.34187  -1.33917  -0.52486  -0.52250
  15   26066.1    383.6   0.145210916   1.83400   0.99312   0.73619   0.55293
  16   26252.1    380.9   0.145349620   1.82275  -0.47945  -0.98687  -0.78674
  17   27037.2    369.9   0.123092775   1.49881  -0.88383   0.84653   0.03212
  18   27605.8    362.2   0.010637517   0.12686   0.11561   0.32835   0.07536
  19   27821.1    359.4   0.053499670   0.63307   0.28679   0.72621   0.15310
  20   28091.0    356.0   0.142646530   1.67174  -0.29026   1.22915   0.27691
  21   28267.6    353.8   0.106810100   1.24394  -0.43010  -1.00999  -0.19715
  22   28710.1    348.3   0.025267978   0.28974  -0.49825  -0.02163   0.20255
  23   28965.6    345.2   0.027339772   0.31073   0.19748  -0.49600  -0.16036
  24   29338.5    340.8   0.031620114   0.35481  -0.52326  -0.19306  -0.20915
  25   29606.2    337.8   0.153855047   1.71082  -1.06566  -0.61568  -0.44287
  26   29950.0    333.9   0.058080748   0.63843  -0.33317  -0.67926  -0.25697
  27   30332.4    329.7   0.049637896   0.53874   0.38753  -0.59826  -0.17509
  28   31078.4    321.8   0.045628394   0.48334   0.12924  -0.48666  -0.47937
  29   31133.4    321.2   0.018391223   0.19447   0.30926  -0.28333  -0.13622
  30   31307.5    319.4   0.000174450   0.00183  -0.03771  -0.01120  -0.01694
  31   31648.1    316.0   0.070116443   0.72937   0.67593  -0.51606   0.07857
  32   32046.3    312.0   0.040865463   0.41981   0.09773   0.56978   0.29259
  33   32264.3    309.9   0.382807765   3.90602   1.59891   0.76040   0.87824
  34   32895.0    304.0   0.079878177   0.79942   0.01385   0.78954   0.41935
  35   33175.2    301.4   0.123023512   1.22082  -0.16743  -1.00573  -0.42579
  36   33197.2    301.2   0.000320936   0.00318  -0.05014  -0.02540   0.00484
  37   33504.9    298.5   0.004261096   0.04187  -0.13159  -0.11806  -0.10302
  38   33935.8    294.7   0.033079584   0.32091  -0.04489   0.54955   0.12994
  39   34052.2    293.7   0.012037744   0.11638   0.31450  -0.12240  -0.04989
  40   34166.1    292.7   0.070525976   0.67956   0.02035   0.58693   0.57850
  41   34393.0    290.8   0.042394095   0.40580  -0.57200   0.23184   0.15771
  42   34900.1    286.5   0.069894592   0.65931  -0.42158   0.26938   0.63954
  43   35096.9    284.9   0.203655465   1.91031   1.27077   0.42692   0.33643
  44   35202.4    284.1   0.089880250   0.84056  -0.88825  -0.14609   0.17388
  45   35529.1    281.5   0.014456017   0.13395  -0.01252   0.34932  -0.10849
  46   36182.1    276.4   0.012956103   0.11788   0.00093   0.33936  -0.05215
  47   36238.3    276.0   0.230644481   2.09532  -0.64561  -1.05573  -0.75096
  48   36384.9    274.8   0.015401766   0.13936  -0.31942   0.12912   0.14372
  49   36450.6    274.3   0.075543434   0.68229  -0.62957   0.52866   0.08027
  50   36475.1    274.2   0.046484861   0.41956  -0.18858   0.53413   0.31416
  51   36795.5    271.8   0.022577490   0.20200  -0.04654   0.43703  -0.09402
  52   36936.5    270.7   0.028874112   0.25735  -0.35584  -0.29927  -0.20289
  53   37386.0    267.5   0.044508947   0.39194  -0.53834   0.13812   0.28817
  54   37616.6    265.8   0.033907840   0.29675  -0.38875  -0.34084   0.17162
  55   37809.4    264.5   0.081674892   0.71116  -0.81317  -0.20929   0.07817
  56   38087.3    262.6   0.133091652   1.15039  -1.04322   0.06178   0.24139
  57   38640.7    258.8   0.039077687   0.33294   0.42457  -0.13415   0.36699
  58   38834.8    257.5   0.023142257   0.19618  -0.15285   0.41437  -0.03342
  59   39262.5    254.7   0.111090222   0.93148   0.86690  -0.41324  -0.09593
  60   39303.2    254.4   0.000225678   0.00189  -0.03733   0.02192  -0.00402
  61   39536.8    252.9   0.010473170   0.08721  -0.18572   0.22528  -0.04431
  62   39598.2    252.5   0.011578647   0.09626  -0.19820   0.23726  -0.02622
  63   39667.1    252.1   0.003662840   0.03040   0.13143  -0.11213   0.02349
  64   40064.9    249.6   0.013692415   0.11251  -0.19963  -0.13283  -0.23456
  65   40109.8    249.3   0.123581609   1.01433  -0.92058  -0.27992   0.29749

FINAL SINGLE POINT ENERGY     -8001.593697998023

DIPOLE MOMENT
-------------
                                X             Y             Z
Electronic contribution:    120.75100      54.98763      37.64910
Nuclear contribution   :   -124.20548     -55.29382     -37.27982
                        -----------------------------------------
Total Dipole Moment    :     -3.45447      -0.30619       0.36927
                        -----------------------------------------
Magnitude (a.u.)       :      3.48762
Magnitude (Debye)      :      8.86483

Rotational constants in cm-1:     0.000986     0.000443     0.000315
Rotational constants in MHz :    29.562318    13.270352     9.441385

                             ****ORCA TERMINATED NORMALLY****
TOTAL RUN TIME: 0 days 0 hours 8 minutes 38 seconds 807 msec
