                         Program Version 4.2.0 -  RELEASE  -
|  1> # ORCA input file
|  2> # SCF done       -179.585126916107          0.000603088720
|  3> ! CAM-B3LYP def2-SVP def2/J RIJCOSX Grid4 TightSCF
|  4> %maxcore 5000
|  5> %tddft
|  6>     Mode sTDDFT
|  7>     Ethresh 5.0
|  8>     maxcore 5000
|  9> end
| 10>
| 11> %pal
| 12>   nprocs 6
| 13>   end
| 14> * xyz 0 1
| 15>    C       -4.43476        -0.74605        -3.21020
| 16>    C       -5.32707        -1.18760        -4.15374
| 17>    C       -5.16253        -2.36937        -4.90457
| 18>    N       -5.08661        -3.32512        -5.53627
| 19>    C       -6.50134        -0.50282        -4.53030
| 20>    N       -7.45219         0.01545        -4.91332
| 21>    C       -3.15110        -1.35947        -2.89550
| 22>    C       -2.46681        -0.52608        -1.97740
| 23>    C       -1.22196        -0.83378        -1.48651
| 24>    C       -0.62080        -2.01820        -1.92709
| 25>    C       -1.31303        -2.84453        -2.84364
| 26>    C       -2.57420        -2.53503        -3.33771
| 27>    S       -0.39253        -4.26186        -3.24842
| 28>    C        0.89286        -3.73133        -2.19696
| 29>    C        0.64751        -2.55429        -1.57354
| 30>   Br        2.43668        -4.78179        -2.01985
| 31>    C       -3.31138         0.64100        -1.64801
| 32>    O       -3.06212         1.49650        -0.82092
| 33>    C       -4.55146         0.46694        -2.42580
| 34>    C       -5.70966         1.17929        -2.25000
| 35>    C       -5.88558         2.45753        -1.68833
| 36>    S       -7.44123         2.78483        -0.95669
| 37>    C       -7.00446         4.43214        -0.63800
| 38>    C       -5.73442         4.71375        -1.12245
| 39>    C       -5.10097         3.60929        -1.71346
| 40>    C       -3.77797         3.73168        -2.38200
| 41>    C       -3.47187         5.18522        -2.72412
| 42>    C       -3.63828         6.05424        -1.46834
| 43>    N       -3.18294         7.42571        -1.61178
| 44>    C       -5.11487         6.07474        -1.06436
| 45>    C       -7.90083         5.32870         0.01651
| 46>    C       -9.10108         4.94651         0.49731
| 47>    C      -10.10410         5.74657         1.14677
| 48>    C      -10.37640         7.04985         0.98597
| 49>    C       -9.63898         7.96712         0.06387
| 50>    C      -11.52431         7.71618         1.71683
| 51>    N      -12.32936         6.82201         2.50316
| 52>    C      -12.38942         6.76148         3.84925
| 53>    C      -11.93288         7.68478         4.73961
| 54>    C      -12.06047         7.51321         6.12867
| 55>    C      -11.74335         8.46230         7.06550
| 56>    C      -11.82286         8.33878         8.47210
| 57>    C      -11.48977         9.46914         9.15553
| 58>    C      -11.14307        10.55921         8.32647
| 59>    S      -11.20952        10.09055         6.64737
| 60>    C      -10.83075        11.85000         8.71642
| 61>    C      -10.72585        12.35973        10.02492
| 62>    C      -10.45205        13.69532        10.07545
| 63>    C      -10.33671        14.31389         8.80961
| 64>    S      -10.55460        13.12774         7.54462
| 65>    C      -10.11582        15.65826         8.59293
| 66>    C      -10.04842        16.32149         7.37074
| 67>    S      -10.19925        15.52414         5.83079
| 68>    C      -10.02747        16.99040         4.95590
| 69>    C       -9.86069        18.07425         5.78155
| 70>    C       -9.86835        17.71235         7.17607
| 71>    C       -9.74505        18.70355         8.14399
| 72>    C       -9.59556        20.02360         7.76654
| 73>    N       -9.64146        21.03281         8.77355
| 74>    O       -9.39223        20.70028         9.91705
| 75>    O       -9.97964        22.14987         8.43026
| 76>    C       -9.53409        20.37464         6.38980
| 77>    N       -9.17431        21.71727         5.96931
| 78>    O       -8.16342        22.17510         6.44705
| 79>    O       -9.84878        22.22358         5.10544
| 80>    C       -9.67790        19.43014         5.41675
| 81>    H       -0.72536        -0.18243        -0.78448
| 82>    H       -3.06575        -3.19977        -4.02832
| 83>    H        1.33106        -2.08334        -0.89096
| 84>    H       -6.63411         0.69294        -2.54251
| 85>    H       -3.74799         3.09766        -3.27267
| 86>    H       -3.01238         3.35239        -1.69538
| 87>    H       -4.15007         5.54023        -3.50537
| 88>    H       -2.44953         5.26396        -3.10102
| 89>    H       -3.05332         5.60680        -0.65633
| 90>    H       -3.64230         7.87039        -2.40054
| 91>    H       -2.18378         7.45466        -1.78034
| 92>    H       -5.65454         6.74279        -1.74504
| 93>    H       -5.20390         6.49457        -0.06107
| 94>    H       -7.54542         6.33893         0.14226
| 95>    H       -9.35309         3.89454         0.41657
| 96>    H      -10.73882         5.17377         1.81198
| 97>    H       -9.27879         7.42777        -0.80918
| 98>    H       -8.78083         8.40812         0.57139
| 99>    H      -10.28265         8.78130        -0.26314
|100>    H      -12.16627         8.20804         0.97305
|101>    H      -11.11985         8.49681         2.36459
|102>    H      -12.76334         6.07450         1.98478
|103>    H      -12.90588         5.88969         4.23113
|104>    H      -11.46905         8.60085         4.40502
|105>    H      -12.44389         6.56915         6.49400
|106>    H      -12.12647         7.41631         8.93528
|107>    H      -11.49995         9.55357        10.22706
|108>    H      -10.85308        11.73745        10.89235
|109>    H      -10.34001        14.25878        10.98465
|110>    H      -10.00027        16.26819         9.47842
|111>    H      -10.06487        16.97722         3.88568
|112>    H       -9.79380        18.47813         9.19826
|113>    H       -9.62547        19.70816         4.37551
|114> *
|115>
|116>                          ****END OF INPUT****

CARTESIAN COORDINATES (ANGSTROEM)
---------------------------------
  C     -4.434760   -0.746050   -3.210200
  C     -5.327070   -1.187600   -4.153740
  C     -5.162530   -2.369370   -4.904570
  N     -5.086610   -3.325120   -5.536270
  C     -6.501340   -0.502820   -4.530300
  N     -7.452190    0.015450   -4.913320
  C     -3.151100   -1.359470   -2.895500
  C     -2.466810   -0.526080   -1.977400
  C     -1.221960   -0.833780   -1.486510
  C     -0.620800   -2.018200   -1.927090
  C     -1.313030   -2.844530   -2.843640
  C     -2.574200   -2.535030   -3.337710
  S     -0.392530   -4.261860   -3.248420
  C      0.892860   -3.731330   -2.196960
  C      0.647510   -2.554290   -1.573540
  Br     2.436680   -4.781790   -2.019850
  C     -3.311380    0.641000   -1.648010
  O     -3.062120    1.496500   -0.820920
  C     -4.551460    0.466940   -2.425800
  C     -5.709660    1.179290   -2.250000
  C     -5.885580    2.457530   -1.688330
  S     -7.441230    2.784830   -0.956690
  C     -7.004460    4.432140   -0.638000
  C     -5.734420    4.713750   -1.122450
  C     -5.100970    3.609290   -1.713460
  C     -3.777970    3.731680   -2.382000
  C     -3.471870    5.185220   -2.724120
  C     -3.638280    6.054240   -1.468340
  N     -3.182940    7.425710   -1.611780
  C     -5.114870    6.074740   -1.064360
  C     -7.900830    5.328700    0.016510
  C     -9.101080    4.946510    0.497310
  C    -10.104100    5.746570    1.146770
  C    -10.376400    7.049850    0.985970
  C     -9.638980    7.967120    0.063870
  C    -11.524310    7.716180    1.716830
  N    -12.329360    6.822010    2.503160
  C    -12.389420    6.761480    3.849250
  C    -11.932880    7.684780    4.739610
  C    -12.060470    7.513210    6.128670
  C    -11.743350    8.462300    7.065500
  C    -11.822860    8.338780    8.472100
  C    -11.489770    9.469140    9.155530
  C    -11.143070   10.559210    8.326470
  S    -11.209520   10.090550    6.647370
  C    -10.830750   11.850000    8.716420
  C    -10.725850   12.359730   10.024920
  C    -10.452050   13.695320   10.075450
  C    -10.336710   14.313890    8.809610
  S    -10.554600   13.127740    7.544620
  C    -10.115820   15.658260    8.592930
  C    -10.048420   16.321490    7.370740
  S    -10.199250   15.524140    5.830790
  C    -10.027470   16.990400    4.955900
  C     -9.860690   18.074250    5.781550
  C     -9.868350   17.712350    7.176070
  C     -9.745050   18.703550    8.143990
  C     -9.595560   20.023600    7.766540
  N     -9.641460   21.032810    8.773550
  O     -9.392230   20.700280    9.917050
  O     -9.979640   22.149870    8.430260
  C     -9.534090   20.374640    6.389800
  N     -9.174310   21.717270    5.969310
  O     -8.163420   22.175100    6.447050
  O     -9.848780   22.223580    5.105440
  C     -9.677900   19.430140    5.416750
  H     -0.725360   -0.182430   -0.784480
  H     -3.065750   -3.199770   -4.028320
  H      1.331060   -2.083340   -0.890960
  H     -6.634110    0.692940   -2.542510
  H     -3.747990    3.097660   -3.272670
  H     -3.012380    3.352390   -1.695380
  H     -4.150070    5.540230   -3.505370
  H     -2.449530    5.263960   -3.101020
  H     -3.053320    5.606800   -0.656330
  H     -3.642300    7.870390   -2.400540
  H     -2.183780    7.454660   -1.780340
  H     -5.654540    6.742790   -1.745040
  H     -5.203900    6.494570   -0.061070
  H     -7.545420    6.338930    0.142260
  H     -9.353090    3.894540    0.416570
  H    -10.738820    5.173770    1.811980
  H     -9.278790    7.427770   -0.809180
  H     -8.780830    8.408120    0.571390
  H    -10.282650    8.781300   -0.263140
  H    -12.166270    8.208040    0.973050
  H    -11.119850    8.496810    2.364590
  H    -12.763340    6.074500    1.984780
  H    -12.905880    5.889690    4.231130
  H    -11.469050    8.600850    4.405020
  H    -12.443890    6.569150    6.494000
  H    -12.126470    7.416310    8.935280
  H    -11.499950    9.553570   10.227060
  H    -10.853080   11.737450   10.892350
  H    -10.340010   14.258780   10.984650
  H    -10.000270   16.268190    9.478420
  H    -10.064870   16.977220    3.885680
  H     -9.793800   18.478130    9.198260
  H     -9.625470   19.708160    4.375510

 Total Charge           Charge          ....    0
 Multiplicity           Mult            ....    1
 Number of Electrons    NEL             ....  524
 Basis Dimension        Dim             .... 1127

ORBITAL ENERGIES
----------------

  NO   OCC          E(Eh)            E(eV)
   0   2.0000    -482.887674    -13140.0416
   1   2.0000     -88.977280     -2421.1949
   2   2.0000     -88.968389     -2420.9529
   3   2.0000     -88.964120     -2420.8368
   4   2.0000     -88.949403     -2420.4363
   5   2.0000     -88.948865     -2420.4217
   6   2.0000     -62.565368     -1702.4902
   7   2.0000     -56.399321     -1534.7036
   8   2.0000     -56.396602     -1534.6296
   9   2.0000     -56.396573     -1534.6288
  10   2.0000     -19.227537      -523.2079
  11   2.0000     -19.226284      -523.1738
  12   2.0000     -19.224021      -523.1122
  13   2.0000     -19.222058      -523.0588
  14   2.0000     -19.217115      -522.9243
  15   2.0000     -14.632901      -398.1815
  16   2.0000     -14.630554      -398.1176
  17   2.0000     -14.464354      -393.5951
  18   2.0000     -14.415941      -392.2777
  19   2.0000     -14.415519      -392.2662
  20   2.0000     -14.387849      -391.5133
  21   2.0000     -10.367785      -282.1218
  22   2.0000     -10.360845      -281.9329
  23   2.0000     -10.343565      -281.4627
  24   2.0000     -10.342426      -281.4317
  25   2.0000     -10.341189      -281.3980
  26   2.0000     -10.336563      -281.2722
  27   2.0000     -10.328117      -281.0424
  28   2.0000     -10.326983      -281.0115
  29   2.0000     -10.323553      -280.9182
  30   2.0000     -10.321791      -280.8702
  31   2.0000     -10.320202      -280.8270
  32   2.0000     -10.319192      -280.7995
  33   2.0000     -10.318911      -280.7918
  34   2.0000     -10.318723      -280.7867
  35   2.0000     -10.313687      -280.6497
  36   2.0000     -10.312773      -280.6248
  37   2.0000     -10.311012      -280.5769
  38   2.0000     -10.309310      -280.5306
  39   2.0000     -10.308867      -280.5185
  40   2.0000     -10.307210      -280.4734
  41   2.0000     -10.306043      -280.4417
  42   2.0000     -10.302941      -280.3573
  43   2.0000     -10.302792      -280.3532
  44   2.0000     -10.302609      -280.3482
  45   2.0000     -10.299435      -280.2619
  46   2.0000     -10.299282      -280.2577
  47   2.0000     -10.299215      -280.2559
  48   2.0000     -10.298906      -280.2475
  49   2.0000     -10.298643      -280.2403
  50   2.0000     -10.298224      -280.2289
  51   2.0000     -10.297936      -280.2211
  52   2.0000     -10.297157      -280.1999
  53   2.0000     -10.294110      -280.1170
  54   2.0000     -10.293766      -280.1076
  55   2.0000     -10.293162      -280.0912
  56   2.0000     -10.291245      -280.0390
  57   2.0000     -10.289446      -279.9901
  58   2.0000     -10.289063      -279.9796
  59   2.0000     -10.287381      -279.9339
  60   2.0000     -10.286890      -279.9205
  61   2.0000     -10.286713      -279.9157
  62   2.0000     -10.285675      -279.8874
  63   2.0000     -10.285564      -279.8844
  64   2.0000     -10.278523      -279.6928
  65   2.0000     -10.278394      -279.6893
  66   2.0000     -10.277796      -279.6730
  67   2.0000     -10.275644      -279.6145
  68   2.0000     -10.270998      -279.4881
  69   2.0000     -10.266800      -279.3738
  70   2.0000      -8.794778      -239.3181
  71   2.0000      -8.073320      -219.6862
  72   2.0000      -8.063282      -219.4131
  73   2.0000      -8.059955      -219.3225
  74   2.0000      -8.045600      -218.9319
  75   2.0000      -8.044749      -218.9087
  76   2.0000      -6.631084      -180.4410
  77   2.0000      -6.616523      -180.0448
  78   2.0000      -6.616294      -180.0385
  79   2.0000      -6.043002      -164.4385
  80   2.0000      -6.038738      -164.3224
  81   2.0000      -6.034532      -164.2080
  82   2.0000      -6.032343      -164.1484
  83   2.0000      -6.029178      -164.0623
  84   2.0000      -6.027947      -164.0288
  85   2.0000      -6.026223      -163.9819
  86   2.0000      -6.025273      -163.9560
  87   2.0000      -6.021900      -163.8642
  88   2.0000      -6.015259      -163.6835
  89   2.0000      -6.014440      -163.6612
  90   2.0000      -6.011359      -163.5774
  91   2.0000      -6.010326      -163.5493
  92   2.0000      -6.006582      -163.4474
  93   2.0000      -6.005890      -163.4286
  94   2.0000      -2.746949       -74.7483
  95   2.0000      -2.742833       -74.6363
  96   2.0000      -2.742750       -74.6340
  97   2.0000      -2.731129       -74.3178
  98   2.0000      -2.731120       -74.3176
  99   2.0000      -1.310522       -35.6611
 100   2.0000      -1.301005       -35.4021
 101   2.0000      -1.131206       -30.7817
 102   2.0000      -1.130153       -30.7530
 103   2.0000      -1.121223       -30.5100
 104   2.0000      -1.062500       -28.9121
 105   2.0000      -1.024300       -27.8726
 106   2.0000      -1.014424       -27.6039
 107   2.0000      -1.005463       -27.3600
 108   2.0000      -1.003863       -27.3165
 109   2.0000      -0.995971       -27.1017
 110   2.0000      -0.994432       -27.0599
 111   2.0000      -0.990509       -26.9531
 112   2.0000      -0.978159       -26.6171
 113   2.0000      -0.975657       -26.5490
 114   2.0000      -0.961805       -26.1720
 115   2.0000      -0.945435       -25.7266
 116   2.0000      -0.939989       -25.5784
 117   2.0000      -0.916711       -24.9450
 118   2.0000      -0.909770       -24.7561
 119   2.0000      -0.908742       -24.7281
 120   2.0000      -0.905573       -24.6419
 121   2.0000      -0.898116       -24.4390
 122   2.0000      -0.887668       -24.1547
 123   2.0000      -0.886645       -24.1268
 124   2.0000      -0.882728       -24.0203
 125   2.0000      -0.871398       -23.7119
 126   2.0000      -0.868289       -23.6274
 127   2.0000      -0.855116       -23.2689
 128   2.0000      -0.844937       -22.9919
 129   2.0000      -0.842473       -22.9248
 130   2.0000      -0.830802       -22.6073
 131   2.0000      -0.829839       -22.5811
 132   2.0000      -0.823578       -22.4107
 133   2.0000      -0.820211       -22.3191
 134   2.0000      -0.811412       -22.0797
 135   2.0000      -0.806161       -21.9367
 136   2.0000      -0.790803       -21.5189
 137   2.0000      -0.783919       -21.3315
 138   2.0000      -0.767637       -20.8885
 139   2.0000      -0.761668       -20.7260
 140   2.0000      -0.755510       -20.5585
 141   2.0000      -0.754431       -20.5291
 142   2.0000      -0.726521       -19.7696
 143   2.0000      -0.722098       -19.6493
 144   2.0000      -0.718835       -19.5605
 145   2.0000      -0.701051       -19.0766
 146   2.0000      -0.699306       -19.0291
 147   2.0000      -0.692361       -18.8401
 148   2.0000      -0.691435       -18.8149
 149   2.0000      -0.686830       -18.6896
 150   2.0000      -0.669758       -18.2251
 151   2.0000      -0.666193       -18.1280
 152   2.0000      -0.664909       -18.0931
 153   2.0000      -0.657604       -17.8943
 154   2.0000      -0.656139       -17.8545
 155   2.0000      -0.647918       -17.6307
 156   2.0000      -0.645156       -17.5556
 157   2.0000      -0.631924       -17.1955
 158   2.0000      -0.629462       -17.1285
 159   2.0000      -0.627205       -17.0671
 160   2.0000      -0.624880       -17.0039
 161   2.0000      -0.623687       -16.9714
 162   2.0000      -0.619240       -16.8504
 163   2.0000      -0.614407       -16.7189
 164   2.0000      -0.608113       -16.5476
 165   2.0000      -0.605861       -16.4863
 166   2.0000      -0.600553       -16.3419
 167   2.0000      -0.599213       -16.3054
 168   2.0000      -0.598243       -16.2790
 169   2.0000      -0.590709       -16.0740
 170   2.0000      -0.587901       -15.9976
 171   2.0000      -0.583993       -15.8912
 172   2.0000      -0.582116       -15.8402
 173   2.0000      -0.579021       -15.7560
 174   2.0000      -0.569001       -15.4833
 175   2.0000      -0.567022       -15.4294
 176   2.0000      -0.566397       -15.4124
 177   2.0000      -0.557771       -15.1777
 178   2.0000      -0.551033       -14.9944
 179   2.0000      -0.545557       -14.8453
 180   2.0000      -0.543420       -14.7872
 181   2.0000      -0.543301       -14.7840
 182   2.0000      -0.538334       -14.6488
 183   2.0000      -0.537290       -14.6204
 184   2.0000      -0.533135       -14.5073
 185   2.0000      -0.532239       -14.4830
 186   2.0000      -0.530921       -14.4471
 187   2.0000      -0.526910       -14.3379
 188   2.0000      -0.524176       -14.2636
 189   2.0000      -0.521493       -14.1905
 190   2.0000      -0.516910       -14.0658
 191   2.0000      -0.514643       -14.0041
 192   2.0000      -0.510825       -13.9003
 193   2.0000      -0.509297       -13.8587
 194   2.0000      -0.505902       -13.7663
 195   2.0000      -0.504589       -13.7306
 196   2.0000      -0.503446       -13.6995
 197   2.0000      -0.501929       -13.6582
 198   2.0000      -0.499895       -13.6028
 199   2.0000      -0.495967       -13.4960
 200   2.0000      -0.495546       -13.4845
 201   2.0000      -0.493829       -13.4378
 202   2.0000      -0.491619       -13.3776
 203   2.0000      -0.489037       -13.3074
 204   2.0000      -0.488027       -13.2799
 205   2.0000      -0.482276       -13.1234
 206   2.0000      -0.478235       -13.0134
 207   2.0000      -0.476741       -12.9728
 208   2.0000      -0.473075       -12.8730
 209   2.0000      -0.472655       -12.8616
 210   2.0000      -0.467780       -12.7289
 211   2.0000      -0.465748       -12.6736
 212   2.0000      -0.460677       -12.5357
 213   2.0000      -0.457724       -12.4553
 214   2.0000      -0.454821       -12.3763
 215   2.0000      -0.451658       -12.2902
 216   2.0000      -0.449515       -12.2319
 217   2.0000      -0.444505       -12.0956
 218   2.0000      -0.443993       -12.0817
 219   2.0000      -0.441471       -12.0130
 220   2.0000      -0.440741       -11.9932
 221   2.0000      -0.439614       -11.9625
 222   2.0000      -0.436737       -11.8842
 223   2.0000      -0.431451       -11.7404
 224   2.0000      -0.430529       -11.7153
 225   2.0000      -0.430205       -11.7065
 226   2.0000      -0.428327       -11.6554
 227   2.0000      -0.427107       -11.6222
 228   2.0000      -0.421900       -11.4805
 229   2.0000      -0.417983       -11.3739
 230   2.0000      -0.417280       -11.3548
 231   2.0000      -0.412027       -11.2118
 232   2.0000      -0.408884       -11.1263
 233   2.0000      -0.406355       -11.0575
 234   2.0000      -0.403676       -10.9846
 235   2.0000      -0.400019       -10.8851
 236   2.0000      -0.392839       -10.6897
 237   2.0000      -0.388743       -10.5782
 238   2.0000      -0.381611       -10.3842
 239   2.0000      -0.377347       -10.2681
 240   2.0000      -0.376946       -10.2572
 241   2.0000      -0.374763       -10.1978
 242   2.0000      -0.368863       -10.0373
 243   2.0000      -0.365749        -9.9525
 244   2.0000      -0.364160        -9.9093
 245   2.0000      -0.355715        -9.6795
 246   2.0000      -0.354860        -9.6562
 247   2.0000      -0.349065        -9.4986
 248   2.0000      -0.345228        -9.3941
 249   2.0000      -0.341364        -9.2890
 250   2.0000      -0.337450        -9.1825
 251   2.0000      -0.327953        -8.9241
 252   2.0000      -0.322172        -8.7667
 253   2.0000      -0.320812        -8.7298
 254   2.0000      -0.316582        -8.6146
 255   2.0000      -0.315956        -8.5976
 256   2.0000      -0.310227        -8.4417
 257   2.0000      -0.302777        -8.2390
 258   2.0000      -0.295520        -8.0415
 259   2.0000      -0.266768        -7.2591
 260   2.0000      -0.261409        -7.1133
 261   2.0000      -0.204175        -5.5559
 262   0.0000      -0.095711        -2.6044
 263   0.0000      -0.083229        -2.2648
 264   0.0000      -0.064594        -1.7577
 265   0.0000      -0.036773        -1.0007
 266   0.0000      -0.032163        -0.8752

MULLIKEN ATOMIC CHARGES
-----------------------
   0 C :    0.294636
   1 C :   -0.340563
   2 C :   -0.186897
   3 N :    0.147564
   4 C :   -0.211327
   5 N :    0.161667
   6 C :    0.021428
   7 C :   -0.012998
   8 C :   -0.077764
   9 C :    0.122651
  10 C :   -0.089485
  11 C :   -0.027738
  12 S :    0.185628
  13 C :   -0.121840
  14 C :    0.034465
  15 Br:    0.023299
  16 C :    0.142169
  17 O :   -0.165088
  18 C :   -0.101381
  19 C :   -0.000173
  20 C :   -0.126560
  21 S :    0.118107
  22 C :   -0.089079
  23 C :   -0.080343
  24 C :   -0.035600
  25 C :    0.118659
  26 C :    0.071946
  27 C :   -0.074011
  28 N :   -0.166838
  29 C :    0.167370
  30 C :   -0.014577
  31 C :    0.015869
  32 C :    0.013653
  33 C :   -0.220260
  34 C :    0.077381
  35 C :    0.208980
  36 N :   -0.140970
  37 C :    0.075180
  38 C :   -0.059837
  39 C :    0.009649
  40 C :   -0.051647
  41 C :    0.054729
  42 C :    0.004042
  43 C :   -0.025882
  44 S :    0.067041
  45 C :   -0.056351
  46 C :    0.038014
  47 C :    0.013864
  48 C :   -0.024374
  49 S :    0.063613
  50 C :   -0.041937
  51 C :   -0.087898
  52 S :    0.138308
  53 C :   -0.130983
  54 C :    0.111788
  55 C :    0.142285
  56 C :   -0.078589
  57 C :    0.134893
  58 N :    0.258811
  59 O :   -0.249934
  60 O :   -0.241899
  61 C :    0.070242
  62 N :    0.251088
  63 O :   -0.224828
  64 O :   -0.233193
  65 C :   -0.027955
  66 H :   -0.013074
  67 H :   -0.005962
  68 H :   -0.003880
  69 H :    0.034426
  70 H :    0.009786
  71 H :    0.052450
  72 H :   -0.009649
  73 H :   -0.011553
  74 H :    0.004645
  75 H :    0.086156
  76 H :    0.090325
  77 H :    0.000930
  78 H :    0.024687
  79 H :   -0.009060
  80 H :    0.005012
  81 H :   -0.030982
  82 H :    0.036903
  83 H :    0.048211
  84 H :    0.013456
  85 H :    0.032648
  86 H :    0.042536
  87 H :    0.133622
  88 H :    0.009957
  89 H :   -0.000960
  90 H :   -0.014548
  91 H :   -0.013156
  92 H :   -0.013680
  93 H :   -0.014868
  94 H :   -0.013201
  95 H :   -0.016526
  96 H :    0.016180
  97 H :    0.000511
  98 H :   -0.011557
Sum of atomic charges:   -0.0000000

LOEWDIN ATOMIC CHARGES
----------------------
   0 C :    0.075219
   1 C :   -0.143454
   2 C :   -0.018841
   3 N :   -0.055209
   4 C :   -0.026626
   5 N :   -0.053797
   6 C :   -0.022120
   7 C :   -0.049001
   8 C :    0.018891
   9 C :   -0.032904
  10 C :   -0.145011
  11 C :   -0.010058
  12 S :    0.432218
  13 C :   -0.271671
  14 C :   -0.071045
  15 Br:    0.136561
  16 C :    0.082191
  17 O :   -0.147457
  18 C :   -0.106075
  19 C :    0.050485
  20 C :   -0.179755
  21 S :    0.439334
  22 C :   -0.144798
  23 C :   -0.058935
  24 C :    0.000227
  25 C :   -0.032668
  26 C :   -0.042006
  27 C :    0.013353
  28 N :   -0.102277
  29 C :   -0.025871
  30 C :   -0.042764
  31 C :   -0.014108
  32 C :   -0.065779
  33 C :   -0.019962
  34 C :   -0.049617
  35 C :    0.044802
  36 N :    0.015741
  37 C :    0.059738
  38 C :   -0.130213
  39 C :   -0.011426
  40 C :   -0.183001
  41 C :   -0.013692
  42 C :   -0.056003
  43 C :   -0.150134
  44 S :    0.367413
  45 C :   -0.208423
  46 C :   -0.024416
  47 C :   -0.052668
  48 C :   -0.136532
  49 S :    0.369902
  50 C :   -0.102619
  51 C :   -0.151590
  52 S :    0.474829
  53 C :   -0.215852
  54 C :   -0.044036
  55 C :   -0.064164
  56 C :    0.035691
  57 C :   -0.056653
  58 N :    0.286274
  59 O :   -0.217593
  60 O :   -0.207132
  61 C :   -0.018468
  62 N :    0.281491
  63 O :   -0.193485
  64 O :   -0.195620
  65 C :    0.007920
  66 H :    0.039719
  67 H :    0.041042
  68 H :    0.038538
  69 H :    0.044304
  70 H :    0.033494
  71 H :    0.041361
  72 H :    0.016921
  73 H :    0.020053
  74 H :    0.023108
  75 H :    0.050138
  76 H :    0.054073
  77 H :    0.028944
  78 H :    0.035401
  79 H :    0.033008
  80 H :    0.023941
  81 H :    0.019878
  82 H :    0.039119
  83 H :    0.042134
  84 H :    0.030319
  85 H :    0.034761
  86 H :    0.042237
  87 H :    0.081948
  88 H :    0.031929
  89 H :    0.018437
  90 H :    0.033202
  91 H :    0.033693
  92 H :    0.031118
  93 H :    0.031873
  94 H :    0.032720
  95 H :    0.037947
  96 H :    0.023509
  97 H :    0.041949
  98 H :    0.042433

  Mayer bond orders larger than 0.100000
B(  0-C ,  1-C ) :   1.6339 B(  0-C ,  6-C ) :   1.0053 B(  0-C , 18-C ) :   1.0717
B(  1-C ,  2-C ) :   1.1411 B(  1-C ,  4-C ) :   1.1417 B(  2-C ,  3-N ) :   2.9713
B(  4-C ,  5-N ) :   2.9999 B(  6-C ,  7-C ) :   1.2729 B(  6-C , 11-C ) :   1.4103
B(  7-C ,  8-C ) :   1.4258 B(  7-C , 16-C ) :   0.9329 B(  8-C ,  9-C ) :   1.2434
B(  8-C , 66-H ) :   1.0171 B(  9-C , 10-C ) :   1.3073 B(  9-C , 14-C ) :   1.1618
B( 10-C , 11-C ) :   1.3268 B( 10-C , 12-S ) :   1.0850 B( 11-C , 67-H ) :   0.9816
B( 12-S , 13-C ) :   1.0866 B( 13-C , 14-C ) :   1.6180 B( 13-C , 15-Br) :   1.0185
B( 14-C , 68-H ) :   1.0011 B( 16-C , 17-O ) :   2.1619 B( 16-C , 18-C ) :   0.9778
B( 18-C , 19-C ) :   1.5569 B( 19-C , 20-C ) :   1.2054 B( 19-C , 69-H ) :   0.9315
B( 20-C , 21-S ) :   1.0842 B( 20-C , 24-C ) :   1.4402 B( 21-S , 22-C ) :   1.1376
B( 22-C , 23-C ) :   1.4623 B( 22-C , 30-C ) :   1.1508 B( 23-C , 24-C ) :   1.3425
B( 23-C , 29-C ) :   1.0225 B( 24-C , 25-C ) :   1.0749 B( 25-C , 26-C ) :   1.0692
B( 25-C , 70-H ) :   0.9081 B( 25-C , 71-H ) :   0.8707 B( 26-C , 27-C ) :   1.0309
B( 26-C , 72-H ) :   0.9267 B( 26-C , 73-H ) :   0.9280 B( 27-C , 28-N ) :   1.1024
B( 27-C , 29-C ) :   1.0497 B( 27-C , 74-H ) :   0.9259 B( 28-N , 75-H ) :   0.9696
B( 28-N , 76-H ) :   0.9695 B( 29-C , 77-H ) :   0.9045 B( 29-C , 78-H ) :   0.9088
B( 30-C , 31-C ) :   1.7047 B( 30-C , 79-H ) :   0.9682 B( 31-C , 32-C ) :   1.1029
B( 31-C , 80-H ) :   0.9542 B( 32-C , 33-C ) :   1.8388 B( 32-C , 81-H ) :   0.9328
B( 33-C , 34-C ) :   1.0883 B( 33-C , 35-C ) :   1.0070 B( 34-C , 82-H ) :   0.9418
B( 34-C , 83-H ) :   0.9430 B( 34-C , 84-H ) :   0.9492 B( 35-C , 36-N ) :   1.0150
B( 35-C , 85-H ) :   0.9297 B( 35-C , 86-H ) :   0.9264 B( 36-N , 37-C ) :   1.2443
B( 36-N , 87-H ) :   0.9332 B( 37-C , 38-C ) :   1.5946 B( 37-C , 88-H ) :   0.9657
B( 38-C , 39-C ) :   1.1891 B( 38-C , 89-H ) :   0.9599 B( 39-C , 40-C ) :   1.5664
B( 39-C , 90-H ) :   0.9792 B( 40-C , 41-C ) :   1.1590 B( 40-C , 44-S ) :   1.0073
B( 41-C , 42-C ) :   1.5720 B( 41-C , 91-H ) :   0.9972 B( 42-C , 43-C ) :   1.2013
B( 42-C , 92-H ) :   0.9951 B( 43-C , 44-S ) :   1.0750 B( 43-C , 45-C ) :   1.4736
B( 45-C , 46-C ) :   1.2160 B( 45-C , 49-S ) :   1.0231 B( 46-C , 47-C ) :   1.5544
B( 46-C , 93-H ) :   0.9930 B( 47-C , 48-C ) :   1.1734 B( 47-C , 94-H ) :   1.0011
B( 48-C , 49-S ) :   1.0637 B( 48-C , 50-C ) :   1.5044 B( 50-C , 51-C ) :   1.2624
B( 50-C , 95-H ) :   0.9601 B( 51-C , 52-S ) :   1.1602 B( 51-C , 55-C ) :   1.2666
B( 52-S , 53-C ) :   1.1420 B( 53-C , 54-C ) :   1.4564 B( 53-C , 96-H ) :   0.9690
B( 54-C , 55-C ) :   1.1856 B( 54-C , 65-C ) :   1.1161 B( 55-C , 56-C ) :   1.1987
B( 56-C , 57-C ) :   1.4929 B( 56-C , 97-H ) :   0.9904 B( 57-C , 58-N ) :   0.9103
B( 57-C , 61-C ) :   1.2101 B( 58-N , 59-O ) :   1.5289 B( 58-N , 60-O ) :   1.5435
B( 59-O , 60-O ) :   0.2607 B( 61-C , 62-N ) :   0.8524 B( 61-C , 65-C ) :   1.5873
B( 62-N , 63-O ) :   1.5626 B( 62-N , 64-O ) :   1.5500 B( 63-O , 64-O ) :   0.2774
B( 65-C , 98-H ) :   1.0057

-----------------------------------------------------------------------------
         ABSORPTION SPECTRUM VIA TRANSITION ELECTRIC DIPOLE MOMENTS
-----------------------------------------------------------------------------
State   Energy  Wavelength   fosc         T2         TX        TY        TZ
        (cm-1)    (nm)                  (au**2)     (au)      (au)      (au)
-----------------------------------------------------------------------------
   0   12937.1    773.0   1.356466300  34.51804  -0.88641  -5.74324  -0.86461
   1   15932.8    627.6   0.000288055   0.00595  -0.05541   0.04605   0.02759
   2   20797.3    480.8   1.152116154  18.23752  -1.99792   3.17543   2.04021
   3   21633.0    462.3   0.053143621   0.80874  -0.60639  -0.42839  -0.50746
   4   23520.8    425.2   0.000085779   0.00120  -0.03255   0.00591  -0.01030
   5   23969.7    417.2   0.145104921   1.99294   0.20757  -0.27684   1.36866
   6   24713.9    404.6   0.183081983   2.43882   0.14067   0.63509   1.41975
   7   26276.1    380.6   0.037355304   0.46802  -0.53322   0.37448   0.20848
   8   27944.8    357.8   0.019479785   0.22949   0.43303  -0.19291   0.06897
   9   28052.5    356.5   0.489892579   5.74916  -2.13393   1.02044  -0.39272
  10   29119.4    343.4   0.000135785   0.00154   0.02162  -0.01333   0.02984
  11   29393.4    340.2   0.127428739   1.42723   0.91074  -0.73147  -0.25048
  12   29834.2    335.2   0.228513514   2.52158  -0.10836   0.12782   1.57908
  13   29905.2    334.4   0.065831415   0.72471   0.51105  -0.43165   0.52651
  14   30501.3    327.9   0.011679068   0.12606  -0.03176   0.07234  -0.34614
  15   30511.5    327.7   0.033237847   0.35863   0.44952   0.38474  -0.09238
  16   30791.2    324.8   0.004370839   0.04673   0.01155   0.10857  -0.18658
  17   31090.4    321.6   0.002612273   0.02766   0.10214   0.08618  -0.09899
  18   31697.8    315.5   0.189295520   1.96601  -0.05152  -0.55613   1.28611
  19   32683.0    306.0   0.018505243   0.18640   0.22996  -0.33522  -0.14542
  20   32739.2    305.4   0.060706928   0.61044   0.01094  -0.33751  -0.70457
  21   32974.4    303.3   0.562237767   5.61330  -2.15669   0.51094  -0.83722
  22   34056.6    293.6   0.135526214   1.31008   0.11869  -0.01030   1.13837
  23   34083.5    293.4   0.060395047   0.58335   0.15534   0.56495   0.48995
  24   34220.5    292.2   0.049116528   0.47252  -0.03370  -0.26408   0.63375
  25   35458.8    282.0   0.089932269   0.83496   0.43547  -0.28954  -0.74933
  26   35594.0    280.9   0.034857674   0.32240   0.52879  -0.11081  -0.17466
  27   35835.4    279.1   0.003511545   0.03226  -0.12552   0.06084   0.11315
  28   36444.1    274.4   0.207366537   1.87321  -0.15858  -1.07138  -0.83678
  29   36794.5    271.8   0.000327544   0.00293   0.03006  -0.04315  -0.01285
  30   37180.3    269.0   0.159388124   1.41130   0.15183   1.06512   0.50375
  31   37311.2    268.0   0.118249615   1.04336   0.23309   0.98999  -0.09461
  32   37515.2    266.6   0.001663189   0.01460  -0.07855  -0.09083   0.01322
  33   38209.3    261.7   0.047481553   0.40910   0.18506  -0.45985  -0.40421
  34   38756.7    258.0   0.006957581   0.05910  -0.17014   0.02117   0.17235
  35   39421.1    253.7   0.028813146   0.24062  -0.09871   0.31909   0.35925
  36   39492.2    253.2   0.005721914   0.04770  -0.04655  -0.14467  -0.15685
  37   39902.6    250.6   0.087270484   0.72002   0.57296   0.08526   0.62005
  38   40072.0    249.6   0.133247981   1.09470   0.20019   1.02544   0.05570

FINAL SINGLE POINT ENERGY     -7152.471216609800

DIPOLE MOMENT
-------------
                                X             Y             Z
Electronic contribution:    115.71234    -128.96583     -34.83145
Nuclear contribution   :   -115.85146     122.87271      34.02889
                        -----------------------------------------
Total Dipole Moment    :     -0.13912      -6.09312      -0.80256
                        -----------------------------------------
Magnitude (a.u.)       :      6.14732
Magnitude (Debye)      :     15.62525

Rotational constants in cm-1:     0.001415     0.000156     0.000152
Rotational constants in MHz :    42.413675     4.661788     4.545171

                             ****ORCA TERMINATED NORMALLY****
TOTAL RUN TIME: 0 days 0 hours 11 minutes 40 seconds 9 msec
