                         Program Version 4.2.0 -  RELEASE  -
|  1> # ORCA input file
|  2> # SCF done       -160.950544794227          0.000682767827
|  3> ! CAM-B3LYP def2-SVP def2/J RIJCOSX Grid4 TightSCF
|  4> %maxcore 5000
|  5> %tddft
|  6>     Mode sTDDFT
|  7>     Ethresh 5.0
|  8>     maxcore 5000
|  9> end
| 10>
| 11> %pal
| 12>   nprocs 6
| 13>   end
| 14> * xyz 0 1
| 15>    C       -4.31749        -2.16880        -0.65611
| 16>    C       -4.83640        -3.20804        -1.37548
| 17>    C       -4.22442        -4.47541        -1.49445
| 18>    N       -3.77750        -5.52451        -1.62171
| 19>    C       -6.05092        -3.16947        -2.09558
| 20>    N       -7.01976        -3.21857        -2.70836
| 21>    C       -3.06263        -2.17565         0.07954
| 22>    C       -2.86088        -0.90409         0.67448
| 23>    C       -1.75689        -0.61131         1.43942
| 24>    C       -0.80516        -1.61768         1.62794
| 25>    C       -1.01422        -2.88533         1.03038
| 26>    C       -2.12806        -3.18237         0.25762
| 27>    S        0.28044        -3.98470         1.39588
| 28>    C        1.07313        -2.74594         2.33270
| 29>    C        0.40537        -1.56804         2.37093
| 30>   Br        2.70451        -3.12454         3.17435
| 31>    C       -3.99700        -0.02107         0.35555
| 32>    O       -4.17267         1.11093         0.73887
| 33>    C       -4.91250        -0.84205        -0.49583
| 34>    C       -6.09166        -0.38879        -0.94577
| 35>    C       -6.54140         0.99389        -0.70729
| 36>    N       -7.53633         1.14829         0.15963
| 37>    C       -7.92206         2.39413         0.39370
| 38>    C       -7.34142         3.48023        -0.23006
| 39>    C       -6.32663         3.20920        -1.15890
| 40>    N       -5.94239         1.94986        -1.39192
| 41>    C       -5.66520         4.26280        -1.88549
| 42>    C       -4.69117         4.00525        -2.77684
| 43>    N       -4.02963         4.96837        -3.47381
| 44>    C       -3.06839         4.76203        -4.41045
| 45>    S       -2.60526         3.15794        -4.86814
| 46>    C       -1.47966         3.82944        -6.00979
| 47>    N       -0.71814         2.93539        -6.76068
| 48>    O        0.06865         3.39391        -7.57092
| 49>    O       -0.89711         1.74539        -6.54481
| 50>    C       -1.46939         5.19761        -6.02628
| 51>    C       -2.37519         5.76730        -5.10732
| 52>    C       -2.56032         7.16816        -4.88398
| 53>    C       -1.94906         8.15802        -5.58738
| 54>    C       -2.12572         9.52831        -5.32616
| 55>    C       -1.52092        10.53065        -6.04125
| 56>    C       -1.63925        11.92646        -5.82388
| 57>    C       -0.92472        12.69217        -6.69315
| 58>    C       -0.20137        11.94927        -7.65316
| 59>    S       -0.45576        10.23338        -7.40650
| 60>    C        0.60009        12.42489        -8.67024
| 61>    C        0.89475        13.77246        -8.98638
| 62>    C        1.71359        13.91675       -10.06085
| 63>    C        2.11555        12.69430       -10.66425
| 64>    S        1.40663        11.34590        -9.78950
| 65>    C        2.92716        12.58537       -11.76008
| 66>    C        3.34375        11.41464       -12.42514
| 67>    S        2.79846         9.82565       -11.94776
| 68>    C        3.67763         9.11134       -13.22873
| 69>    C        4.36331        10.01644       -13.99149
| 70>    C        4.18660        11.34123       -13.53190
| 71>    C        4.85401        12.54241       -14.12648
| 72>    C        6.01977        13.02495       -13.25826
| 73>    C        5.18939         9.59457       -15.16905
| 74>    C        6.67188         9.47370       -14.81472
| 75>    H       -1.63388         0.36567         1.87990
| 76>    H       -2.24235        -4.16270        -0.17379
| 77>    H        0.75052        -0.69974         2.90169
| 78>    H       -6.78427        -1.02119        -1.48312
| 79>    H       -8.72594         2.50682         1.10996
| 80>    H       -7.65490         4.49011        -0.02075
| 81>    H       -5.97902         5.27611        -1.67620
| 82>    H       -4.39795         2.98313        -2.96743
| 83>    H       -4.28333         5.93169        -3.28887
| 84>    H       -0.82012         5.75301        -6.67712
| 85>    H       -3.23046         7.45960        -4.08469
| 86>    H       -1.28327         7.90695        -6.40090
| 87>    H       -2.77285         9.82053        -4.50925
| 88>    H       -2.24961        12.31723        -5.02867
| 89>    H       -0.89957        13.76705        -6.67231
| 90>    H        0.49553        14.59083        -8.41452
| 91>    H        2.04553        14.86363       -10.44979
| 92>    H        3.28082        13.51956       -12.17633
| 93>    H        3.63845         8.04777       -13.36045
| 94>    H        4.12923        13.35268       -14.23812
| 95>    H        5.22903        12.29539       -15.11974
| 96>    H        5.67162        13.31261       -12.26939
| 97>    H        6.50387        13.88215       -13.72079
| 98>    H        6.75701        12.23522       -13.13650
| 99>    H        5.06531        10.30951       -15.98538
|100>    H        4.82759         8.62513       -15.51719
|101>    H        7.08049        10.43828       -14.52478
|102>    H        7.23300         9.10610       -15.67087
|103>    H        6.80627         8.77964       -13.98784
|104> *
|105>
|106>                          ****END OF INPUT****

CARTESIAN COORDINATES (ANGSTROEM)
---------------------------------
  C     -4.317490   -2.168800   -0.656110
  C     -4.836400   -3.208040   -1.375480
  C     -4.224420   -4.475410   -1.494450
  N     -3.777500   -5.524510   -1.621710
  C     -6.050920   -3.169470   -2.095580
  N     -7.019760   -3.218570   -2.708360
  C     -3.062630   -2.175650    0.079540
  C     -2.860880   -0.904090    0.674480
  C     -1.756890   -0.611310    1.439420
  C     -0.805160   -1.617680    1.627940
  C     -1.014220   -2.885330    1.030380
  C     -2.128060   -3.182370    0.257620
  S      0.280440   -3.984700    1.395880
  C      1.073130   -2.745940    2.332700
  C      0.405370   -1.568040    2.370930
  Br     2.704510   -3.124540    3.174350
  C     -3.997000   -0.021070    0.355550
  O     -4.172670    1.110930    0.738870
  C     -4.912500   -0.842050   -0.495830
  C     -6.091660   -0.388790   -0.945770
  C     -6.541400    0.993890   -0.707290
  N     -7.536330    1.148290    0.159630
  C     -7.922060    2.394130    0.393700
  C     -7.341420    3.480230   -0.230060
  C     -6.326630    3.209200   -1.158900
  N     -5.942390    1.949860   -1.391920
  C     -5.665200    4.262800   -1.885490
  C     -4.691170    4.005250   -2.776840
  N     -4.029630    4.968370   -3.473810
  C     -3.068390    4.762030   -4.410450
  S     -2.605260    3.157940   -4.868140
  C     -1.479660    3.829440   -6.009790
  N     -0.718140    2.935390   -6.760680
  O      0.068650    3.393910   -7.570920
  O     -0.897110    1.745390   -6.544810
  C     -1.469390    5.197610   -6.026280
  C     -2.375190    5.767300   -5.107320
  C     -2.560320    7.168160   -4.883980
  C     -1.949060    8.158020   -5.587380
  C     -2.125720    9.528310   -5.326160
  C     -1.520920   10.530650   -6.041250
  C     -1.639250   11.926460   -5.823880
  C     -0.924720   12.692170   -6.693150
  C     -0.201370   11.949270   -7.653160
  S     -0.455760   10.233380   -7.406500
  C      0.600090   12.424890   -8.670240
  C      0.894750   13.772460   -8.986380
  C      1.713590   13.916750  -10.060850
  C      2.115550   12.694300  -10.664250
  S      1.406630   11.345900   -9.789500
  C      2.927160   12.585370  -11.760080
  C      3.343750   11.414640  -12.425140
  S      2.798460    9.825650  -11.947760
  C      3.677630    9.111340  -13.228730
  C      4.363310   10.016440  -13.991490
  C      4.186600   11.341230  -13.531900
  C      4.854010   12.542410  -14.126480
  C      6.019770   13.024950  -13.258260
  C      5.189390    9.594570  -15.169050
  C      6.671880    9.473700  -14.814720
  H     -1.633880    0.365670    1.879900
  H     -2.242350   -4.162700   -0.173790
  H      0.750520   -0.699740    2.901690
  H     -6.784270   -1.021190   -1.483120
  H     -8.725940    2.506820    1.109960
  H     -7.654900    4.490110   -0.020750
  H     -5.979020    5.276110   -1.676200
  H     -4.397950    2.983130   -2.967430
  H     -4.283330    5.931690   -3.288870
  H     -0.820120    5.753010   -6.677120
  H     -3.230460    7.459600   -4.084690
  H     -1.283270    7.906950   -6.400900
  H     -2.772850    9.820530   -4.509250
  H     -2.249610   12.317230   -5.028670
  H     -0.899570   13.767050   -6.672310
  H      0.495530   14.590830   -8.414520
  H      2.045530   14.863630  -10.449790
  H      3.280820   13.519560  -12.176330
  H      3.638450    8.047770  -13.360450
  H      4.129230   13.352680  -14.238120
  H      5.229030   12.295390  -15.119740
  H      5.671620   13.312610  -12.269390
  H      6.503870   13.882150  -13.720790
  H      6.757010   12.235220  -13.136500
  H      5.065310   10.309510  -15.985380
  H      4.827590    8.625130  -15.517190
  H      7.080490   10.438280  -14.524780
  H      7.233000    9.106100  -15.670870
  H      6.806270    8.779640  -13.987840

 Total Charge           Charge          ....    0
 Multiplicity           Mult            ....    1
 Number of Electrons    NEL             ....  480
 Basis Dimension        Dim             .... 1023

ORBITAL ENERGIES
----------------

  NO   OCC          E(Eh)            E(eV)
   0   2.0000    -482.887354    -13140.0329
   1   2.0000     -88.978357     -2421.2242
   2   2.0000     -88.977734     -2421.2072
   3   2.0000     -88.942771     -2420.2559
   4   2.0000     -88.941164     -2420.2121
   5   2.0000     -88.940150     -2420.1845
   6   2.0000     -62.565062     -1702.4819
   7   2.0000     -56.399017     -1534.6953
   8   2.0000     -56.396291     -1534.6211
   9   2.0000     -56.396263     -1534.6203
  10   2.0000     -19.226852      -523.1892
  11   2.0000     -19.226393      -523.1767
  12   2.0000     -19.219688      -522.9943
  13   2.0000     -14.638623      -398.3372
  14   2.0000     -14.485013      -394.1572
  15   2.0000     -14.419006      -392.3611
  16   2.0000     -14.418365      -392.3437
  17   2.0000     -14.407049      -392.0357
  18   2.0000     -14.404455      -391.9651
  19   2.0000     -10.369627      -282.1719
  20   2.0000     -10.364192      -282.0240
  21   2.0000     -10.361608      -281.9537
  22   2.0000     -10.348148      -281.5874
  23   2.0000     -10.346868      -281.5526
  24   2.0000     -10.344861      -281.4980
  25   2.0000     -10.335967      -281.2560
  26   2.0000     -10.333460      -281.1877
  27   2.0000     -10.329937      -281.0919
  28   2.0000     -10.328695      -281.0581
  29   2.0000     -10.321028      -280.8494
  30   2.0000     -10.320161      -280.8258
  31   2.0000     -10.318491      -280.7804
  32   2.0000     -10.313113      -280.6341
  33   2.0000     -10.311881      -280.6006
  34   2.0000     -10.310952      -280.5753
  35   2.0000     -10.308591      -280.5110
  36   2.0000     -10.307387      -280.4782
  37   2.0000     -10.305208      -280.4190
  38   2.0000     -10.305022      -280.4139
  39   2.0000     -10.303897      -280.3833
  40   2.0000     -10.303301      -280.3671
  41   2.0000     -10.301695      -280.3234
  42   2.0000     -10.301352      -280.3141
  43   2.0000     -10.298842      -280.2457
  44   2.0000     -10.295571      -280.1567
  45   2.0000     -10.293881      -280.1108
  46   2.0000     -10.288311      -279.9592
  47   2.0000     -10.286451      -279.9086
  48   2.0000     -10.286087      -279.8986
  49   2.0000     -10.283000      -279.8146
  50   2.0000     -10.282974      -279.8139
  51   2.0000     -10.281944      -279.7859
  52   2.0000     -10.281809      -279.7823
  53   2.0000     -10.281042      -279.7614
  54   2.0000     -10.280059      -279.7346
  55   2.0000     -10.278358      -279.6883
  56   2.0000     -10.277375      -279.6616
  57   2.0000     -10.275083      -279.5992
  58   2.0000     -10.268604      -279.4229
  59   2.0000     -10.267740      -279.3994
  60   2.0000     -10.265179      -279.3297
  61   2.0000     -10.264434      -279.3095
  62   2.0000     -10.256145      -279.0839
  63   2.0000     -10.253626      -279.0153
  64   2.0000      -8.794490      -239.3102
  65   2.0000      -8.073737      -219.6976
  66   2.0000      -8.073735      -219.6975
  67   2.0000      -8.038394      -218.7358
  68   2.0000      -8.037145      -218.7018
  69   2.0000      -8.036421      -218.6821
  70   2.0000      -6.630814      -180.4336
  71   2.0000      -6.616231      -180.0368
  72   2.0000      -6.615993      -180.0303
  73   2.0000      -6.043442      -164.4504
  74   2.0000      -6.043431      -164.4501
  75   2.0000      -6.039142      -164.3334
  76   2.0000      -6.039070      -164.3315
  77   2.0000      -6.035093      -164.2232
  78   2.0000      -6.034943      -164.2192
  79   2.0000      -6.007622      -163.4757
  80   2.0000      -6.006965      -163.4578
  81   2.0000      -6.006173      -163.4363
  82   2.0000      -6.003388      -163.3605
  83   2.0000      -6.002820      -163.3450
  84   2.0000      -6.002229      -163.3289
  85   2.0000      -6.000735      -163.2883
  86   2.0000      -5.997984      -163.2135
  87   2.0000      -5.997229      -163.1929
  88   2.0000      -2.746682       -74.7410
  89   2.0000      -2.742588       -74.6296
  90   2.0000      -2.742426       -74.6252
  91   2.0000      -2.730829       -74.3096
  92   2.0000      -2.730813       -74.3092
  93   2.0000      -1.306637       -35.5554
  94   2.0000      -1.135581       -30.9007
  95   2.0000      -1.125429       -30.6245
  96   2.0000      -1.090646       -29.6780
  97   2.0000      -1.081624       -29.4325
  98   2.0000      -1.025555       -27.9068
  99   2.0000      -1.016096       -27.6494
 100   2.0000      -0.998001       -27.1570
 101   2.0000      -0.996948       -27.1283
 102   2.0000      -0.991881       -26.9904
 103   2.0000      -0.991854       -26.9897
 104   2.0000      -0.979458       -26.6524
 105   2.0000      -0.976850       -26.5814
 106   2.0000      -0.965695       -26.2779
 107   2.0000      -0.945759       -25.7354
 108   2.0000      -0.920230       -25.0407
 109   2.0000      -0.916237       -24.9321
 110   2.0000      -0.911253       -24.7964
 111   2.0000      -0.897572       -24.4242
 112   2.0000      -0.889386       -24.2014
 113   2.0000      -0.888725       -24.1834
 114   2.0000      -0.882934       -24.0259
 115   2.0000      -0.876089       -23.8396
 116   2.0000      -0.870012       -23.6742
 117   2.0000      -0.858662       -23.3654
 118   2.0000      -0.855326       -23.2746
 119   2.0000      -0.843714       -22.9586
 120   2.0000      -0.843201       -22.9447
 121   2.0000      -0.831772       -22.6337
 122   2.0000      -0.828000       -22.5310
 123   2.0000      -0.818817       -22.2811
 124   2.0000      -0.799396       -21.7527
 125   2.0000      -0.791573       -21.5398
 126   2.0000      -0.786356       -21.3978
 127   2.0000      -0.782642       -21.2968
 128   2.0000      -0.766154       -20.8481
 129   2.0000      -0.762122       -20.7384
 130   2.0000      -0.743326       -20.2269
 131   2.0000      -0.735226       -20.0065
 132   2.0000      -0.723710       -19.6931
 133   2.0000      -0.717379       -19.5209
 134   2.0000      -0.704238       -19.1633
 135   2.0000      -0.698924       -19.0187
 136   2.0000      -0.697797       -18.9880
 137   2.0000      -0.693481       -18.8706
 138   2.0000      -0.687116       -18.6974
 139   2.0000      -0.678295       -18.4574
 140   2.0000      -0.670014       -18.2320
 141   2.0000      -0.659150       -17.9364
 142   2.0000      -0.657372       -17.8880
 143   2.0000      -0.650352       -17.6970
 144   2.0000      -0.642626       -17.4867
 145   2.0000      -0.630277       -17.1507
 146   2.0000      -0.626951       -17.0602
 147   2.0000      -0.622439       -16.9374
 148   2.0000      -0.621160       -16.9026
 149   2.0000      -0.619773       -16.8649
 150   2.0000      -0.615091       -16.7375
 151   2.0000      -0.609368       -16.5818
 152   2.0000      -0.605115       -16.4660
 153   2.0000      -0.600103       -16.3296
 154   2.0000      -0.592938       -16.1347
 155   2.0000      -0.591379       -16.0922
 156   2.0000      -0.585387       -15.9292
 157   2.0000      -0.583230       -15.8705
 158   2.0000      -0.577042       -15.7021
 159   2.0000      -0.569351       -15.4928
 160   2.0000      -0.566920       -15.4267
 161   2.0000      -0.558269       -15.1913
 162   2.0000      -0.552224       -15.0268
 163   2.0000      -0.546912       -14.8822
 164   2.0000      -0.543305       -14.7841
 165   2.0000      -0.541490       -14.7347
 166   2.0000      -0.540686       -14.7128
 167   2.0000      -0.539438       -14.6788
 168   2.0000      -0.534579       -14.5466
 169   2.0000      -0.532332       -14.4855
 170   2.0000      -0.528364       -14.3775
 171   2.0000      -0.516700       -14.0601
 172   2.0000      -0.514045       -13.9879
 173   2.0000      -0.510955       -13.9038
 174   2.0000      -0.510285       -13.8856
 175   2.0000      -0.505975       -13.7683
 176   2.0000      -0.504882       -13.7385
 177   2.0000      -0.503287       -13.6951
 178   2.0000      -0.499695       -13.5974
 179   2.0000      -0.498181       -13.5562
 180   2.0000      -0.497080       -13.5262
 181   2.0000      -0.495398       -13.4805
 182   2.0000      -0.493053       -13.4167
 183   2.0000      -0.492672       -13.4063
 184   2.0000      -0.489686       -13.3250
 185   2.0000      -0.485129       -13.2010
 186   2.0000      -0.483878       -13.1670
 187   2.0000      -0.477468       -12.9926
 188   2.0000      -0.472389       -12.8543
 189   2.0000      -0.470099       -12.7920
 190   2.0000      -0.467873       -12.7315
 191   2.0000      -0.463655       -12.6167
 192   2.0000      -0.461139       -12.5482
 193   2.0000      -0.460215       -12.5231
 194   2.0000      -0.458417       -12.4742
 195   2.0000      -0.456383       -12.4188
 196   2.0000      -0.451029       -12.2731
 197   2.0000      -0.449806       -12.2398
 198   2.0000      -0.446087       -12.1386
 199   2.0000      -0.444924       -12.1070
 200   2.0000      -0.443259       -12.0617
 201   2.0000      -0.441630       -12.0174
 202   2.0000      -0.439079       -11.9480
 203   2.0000      -0.432752       -11.7758
 204   2.0000      -0.430740       -11.7210
 205   2.0000      -0.429664       -11.6918
 206   2.0000      -0.426402       -11.6030
 207   2.0000      -0.419922       -11.4267
 208   2.0000      -0.417228       -11.3533
 209   2.0000      -0.414091       -11.2680
 210   2.0000      -0.413206       -11.2439
 211   2.0000      -0.412314       -11.2196
 212   2.0000      -0.409238       -11.1359
 213   2.0000      -0.405828       -11.0431
 214   2.0000      -0.405033       -11.0215
 215   2.0000      -0.399860       -10.8807
 216   2.0000      -0.390334       -10.6215
 217   2.0000      -0.381651       -10.3853
 218   2.0000      -0.379700       -10.3322
 219   2.0000      -0.378034       -10.2868
 220   2.0000      -0.377355       -10.2683
 221   2.0000      -0.376532       -10.2460
 222   2.0000      -0.375272       -10.2117
 223   2.0000      -0.367701       -10.0056
 224   2.0000      -0.367103        -9.9894
 225   2.0000      -0.355355        -9.6697
 226   2.0000      -0.349234        -9.5031
 227   2.0000      -0.338019        -9.1980
 228   2.0000      -0.336053        -9.1445
 229   2.0000      -0.335504        -9.1295
 230   2.0000      -0.326968        -8.8973
 231   2.0000      -0.321907        -8.7595
 232   2.0000      -0.321308        -8.7432
 233   2.0000      -0.317573        -8.6416
 234   2.0000      -0.313122        -8.5205
 235   2.0000      -0.296310        -8.0630
 236   2.0000      -0.295598        -8.0436
 237   2.0000      -0.280775        -7.6403
 238   2.0000      -0.255227        -6.9451
 239   2.0000      -0.203661        -5.5419
 240   0.0000      -0.086434        -2.3520
 241   0.0000      -0.074847        -2.0367
 242   0.0000      -0.054576        -1.4851
 243   0.0000      -0.053142        -1.4461
 244   0.0000      -0.021812        -0.5935

MULLIKEN ATOMIC CHARGES
-----------------------
   0 C :    0.326302
   1 C :   -0.338549
   2 C :   -0.185447
   3 N :    0.156097
   4 C :   -0.192131
   5 N :    0.166279
   6 C :    0.010611
   7 C :   -0.017133
   8 C :   -0.065321
   9 C :    0.119641
  10 C :   -0.090040
  11 C :   -0.015383
  12 S :    0.191068
  13 C :   -0.123770
  14 C :    0.041592
  15 Br:    0.027984
  16 C :    0.154652
  17 O :   -0.132526
  18 C :   -0.062131
  19 C :    0.007938
  20 C :   -0.034607
  21 N :   -0.093217
  22 C :    0.086616
  23 C :   -0.041445
  24 C :    0.062254
  25 N :   -0.075253
  26 C :   -0.049028
  27 C :    0.114454
  28 N :   -0.016839
  29 C :   -0.118473
  30 S :    0.156010
  31 C :   -0.008957
  32 N :    0.280139
  33 O :   -0.256367
  34 O :   -0.271527
  35 C :    0.005413
  36 C :    0.146650
  37 C :   -0.051561
  38 C :    0.011512
  39 C :   -0.023454
  40 C :   -0.012385
  41 C :    0.029428
  42 C :    0.029274
  43 C :   -0.053284
  44 S :    0.064922
  45 C :   -0.034581
  46 C :    0.025127
  47 C :    0.035447
  48 C :   -0.041315
  49 S :    0.071166
  50 C :   -0.009373
  51 C :   -0.135433
  52 S :    0.102867
  53 C :   -0.110368
  54 C :   -0.060547
  55 C :   -0.033768
  56 C :    0.078133
  57 C :    0.020089
  58 C :    0.079367
  59 C :    0.022905
  60 H :   -0.010498
  61 H :   -0.005700
  62 H :   -0.002681
  63 H :    0.054028
  64 H :    0.007359
  65 H :   -0.011958
  66 H :   -0.030036
  67 H :    0.041602
  68 H :    0.136175
  69 H :    0.010881
  70 H :   -0.047313
  71 H :    0.000423
  72 H :   -0.025757
  73 H :   -0.016811
  74 H :   -0.013361
  75 H :   -0.018020
  76 H :   -0.015305
  77 H :   -0.016443
  78 H :    0.013793
  79 H :    0.008989
  80 H :   -0.006593
  81 H :    0.011074
  82 H :    0.012749
  83 H :    0.015342
  84 H :    0.008916
  85 H :   -0.003185
  86 H :    0.005845
  87 H :    0.013111
  88 H :    0.013653
Sum of atomic charges:   -0.0000000

LOEWDIN ATOMIC CHARGES
----------------------
   0 C :    0.075551
   1 C :   -0.126128
   2 C :   -0.016810
   3 N :   -0.045170
   4 C :   -0.019630
   5 N :   -0.039964
   6 C :   -0.021364
   7 C :   -0.051484
   8 C :    0.024133
   9 C :   -0.029774
  10 C :   -0.141879
  11 C :   -0.006947
  12 S :    0.435727
  13 C :   -0.269368
  14 C :   -0.070123
  15 Br:    0.140613
  16 C :    0.087018
  17 O :   -0.127277
  18 C :   -0.068601
  19 C :    0.084632
  20 C :    0.025270
  21 N :   -0.098066
  22 C :    0.055799
  23 C :   -0.068169
  24 C :    0.048733
  25 N :   -0.090093
  26 C :   -0.104647
  27 C :    0.066504
  28 N :    0.045929
  29 C :   -0.102386
  30 S :    0.458730
  31 C :   -0.211417
  32 N :    0.274322
  33 O :   -0.222340
  34 O :   -0.238176
  35 C :    0.006921
  36 C :   -0.102754
  37 C :   -0.044875
  38 C :   -0.022839
  39 C :   -0.071684
  40 C :   -0.139182
  41 C :   -0.042345
  42 C :   -0.027487
  43 C :   -0.185477
  44 S :    0.363757
  45 C :   -0.172403
  46 C :   -0.043906
  47 C :   -0.026658
  48 C :   -0.160964
  49 S :    0.367168
  50 C :   -0.060847
  51 C :   -0.186242
  52 S :    0.430570
  53 C :   -0.192566
  54 C :   -0.062536
  55 C :   -0.048041
  56 C :   -0.030919
  57 C :   -0.049208
  58 C :   -0.027060
  59 C :   -0.050707
  60 H :    0.041437
  61 H :    0.041674
  62 H :    0.039268
  63 H :    0.052424
  64 H :    0.027004
  65 H :    0.031492
  66 H :    0.024064
  67 H :    0.030808
  68 H :    0.095787
  69 H :    0.044684
  70 H :    0.017225
  71 H :    0.022496
  72 H :    0.028492
  73 H :    0.031550
  74 H :    0.031701
  75 H :    0.030131
  76 H :    0.032234
  77 H :    0.036244
  78 H :    0.020776
  79 H :    0.028092
  80 H :    0.026883
  81 H :    0.022204
  82 H :    0.023059
  83 H :    0.023253
  84 H :    0.025722
  85 H :    0.028979
  86 H :    0.020328
  87 H :    0.023788
  88 H :    0.025337

  Mayer bond orders larger than 0.100000
B(  0-C ,  1-C ) :   1.6686 B(  0-C ,  6-C ) :   1.0194 B(  0-C , 18-C ) :   1.0096
B(  1-C ,  2-C ) :   1.1346 B(  1-C ,  4-C ) :   1.1467 B(  2-C ,  3-N ) :   2.9724
B(  4-C ,  5-N ) :   2.9774 B(  6-C ,  7-C ) :   1.2732 B(  6-C , 11-C ) :   1.3973
B(  7-C ,  8-C ) :   1.4204 B(  7-C , 16-C ) :   0.9434 B(  8-C ,  9-C ) :   1.2518
B(  8-C , 60-H ) :   1.0158 B(  9-C , 10-C ) :   1.2977 B(  9-C , 14-C ) :   1.1624
B( 10-C , 11-C ) :   1.3436 B( 10-C , 12-S ) :   1.0862 B( 11-C , 61-H ) :   0.9785
B( 12-S , 13-C ) :   1.0872 B( 13-C , 14-C ) :   1.6171 B( 13-C , 15-Br) :   1.0216
B( 14-C , 62-H ) :   1.0004 B( 16-C , 17-O ) :   2.2394 B( 16-C , 18-C ) :   0.9122
B( 18-C , 19-C ) :   1.8709 B( 19-C , 20-C ) :   0.9217 B( 19-C , 63-H ) :   0.9289
B( 20-C , 21-N ) :   1.5123 B( 20-C , 25-N ) :   1.5251 B( 21-N , 22-C ) :   1.5165
B( 22-C , 23-C ) :   1.3990 B( 22-C , 64-H ) :   0.9802 B( 23-C , 24-C ) :   1.3257
B( 23-C , 65-H ) :   0.9745 B( 24-C , 25-N ) :   1.4881 B( 24-C , 26-C ) :   1.1196
B( 26-C , 27-C ) :   1.6785 B( 26-C , 66-H ) :   0.9685 B( 27-C , 28-N ) :   1.1383
B( 27-C , 67-H ) :   0.9400 B( 28-N , 29-C ) :   1.2182 B( 28-N , 68-H ) :   0.9149
B( 29-C , 30-S ) :   1.1354 B( 29-C , 36-C ) :   1.3455 B( 30-S , 31-C ) :   1.0628
B( 31-C , 32-N ) :   0.9818 B( 31-C , 35-C ) :   1.4972 B( 32-N , 33-O ) :   1.5240
B( 32-N , 34-O ) :   1.5028 B( 33-O , 34-O ) :   0.2537 B( 35-C , 36-C ) :   1.2252
B( 35-C , 69-H ) :   0.9992 B( 36-C , 37-C ) :   1.0624 B( 37-C , 38-C ) :   1.6792
B( 37-C , 70-H ) :   0.9760 B( 38-C , 39-C ) :   1.1487 B( 38-C , 71-H ) :   0.9697
B( 39-C , 40-C ) :   1.5620 B( 39-C , 72-H ) :   0.9839 B( 40-C , 41-C ) :   1.1395
B( 40-C , 44-S ) :   1.0359 B( 41-C , 42-C ) :   1.5896 B( 41-C , 73-H ) :   0.9989
B( 42-C , 43-C ) :   1.1898 B( 42-C , 74-H ) :   0.9929 B( 43-C , 44-S ) :   1.0350
B( 43-C , 45-C ) :   1.5200 B( 45-C , 46-C ) :   1.1768 B( 45-C , 49-S ) :   1.0453
B( 46-C , 47-C ) :   1.6008 B( 46-C , 75-H ) :   0.9926 B( 47-C , 48-C ) :   1.1337
B( 47-C , 76-H ) :   0.9996 B( 48-C , 49-S ) :   1.0244 B( 48-C , 50-C ) :   1.5986
B( 50-C , 51-C ) :   1.1776 B( 50-C , 77-H ) :   0.9554 B( 51-C , 52-S ) :   1.1129
B( 51-C , 55-C ) :   1.4520 B( 52-S , 53-C ) :   1.1583 B( 53-C , 54-C ) :   1.5489
B( 53-C , 78-H ) :   0.9677 B( 54-C , 55-C ) :   1.3231 B( 54-C , 58-C ) :   1.0568
B( 55-C , 56-C ) :   1.0888 B( 56-C , 57-C ) :   1.1050 B( 56-C , 79-H ) :   0.9127
B( 56-C , 80-H ) :   0.9163 B( 57-C , 81-H ) :   0.9677 B( 57-C , 82-H ) :   0.9660
B( 57-C , 83-H ) :   0.9636 B( 58-C , 59-C ) :   1.0993 B( 58-C , 84-H ) :   0.9282
B( 58-C , 85-H ) :   0.9234 B( 59-C , 86-H ) :   0.9714 B( 59-C , 87-H ) :   0.9645
B( 59-C , 88-H ) :   0.9681

-----------------------------------------------------------------------------
         ABSORPTION SPECTRUM VIA TRANSITION ELECTRIC DIPOLE MOMENTS
-----------------------------------------------------------------------------
State   Energy  Wavelength   fosc         T2         TX        TY        TZ
        (cm-1)    (nm)                  (au**2)     (au)      (au)      (au)
-----------------------------------------------------------------------------
   0   14979.0    667.6   1.539717757  33.84019   3.16233   2.69430  -4.07192
   1   17716.0    564.5   0.000223764   0.00416  -0.05386   0.02559   0.02454
   2   19590.5    510.5   0.132977698   2.23465  -1.01007  -0.10627   1.09687
   3   23855.0    419.2   0.033467244   0.46187   0.15938   0.63387  -0.18621
   4   23914.2    418.2   0.001716857   0.02363  -0.09673  -0.11240   0.04056
   5   25763.0    388.2   0.005899826   0.07539   0.16174  -0.21874  -0.03719
   6   26730.7    374.1   0.762880780   9.39553   0.08560   3.06401   0.00493
   7   28504.5    350.8   0.656453257   7.58170   1.49017  -0.83241  -2.16059
   8   28657.7    348.9   0.455537279   5.23309   2.05835   0.17878   0.98199
   9   29593.2    337.9   0.012747862   0.14181  -0.07433   0.26839   0.25349
  10   29744.6    336.2   0.025699755   0.28444  -0.15486   0.47491   0.18688
  11   30634.4    326.4   0.086660820   0.93130   0.78674   0.28756   0.47921
  12   31246.0    320.0   0.029951303   0.31557   0.54038  -0.15330   0.00749
  13   31359.8    318.9   0.001279300   0.01343  -0.08651  -0.04991  -0.05879
  14   31544.4    317.0   0.129805997   1.35472   0.36774  -1.06729  -0.28349
  15   31608.8    316.4   0.016231842   0.16906  -0.08728   0.37912   0.13307
  16   32059.8    311.9   0.049476392   0.50806   0.42969  -0.28321  -0.49317
  17   32093.5    311.6   0.001596989   0.01638  -0.04022   0.05882   0.10632
  18   33047.4    302.6   0.001273027   0.01268   0.06367  -0.08632  -0.03430
  19   33278.6    300.5   0.000080827   0.00080   0.00137   0.00093   0.02823
  20   34319.7    291.4   0.544797442   5.22597  -1.64144  -0.85700  -1.34059
  21   34926.8    286.3   0.005084657   0.04793   0.08952  -0.18125  -0.08403
  22   35178.1    284.3   0.116727820   1.09239  -0.68102   0.32109   0.72492
  23   35294.7    283.3   0.015719455   0.14662   0.19189  -0.15453  -0.29312
  24   35775.8    279.5   0.136369953   1.25489   0.21498  -0.98935  -0.47944
  25   36029.8    277.5   0.065527782   0.59874  -0.08529  -0.76876   0.02170
  26   36397.8    274.7   0.024728387   0.22366  -0.19948   0.21856   0.36892
  27   36523.7    273.8   0.013377450   0.12058  -0.32719   0.11081  -0.03536
  28   37518.5    266.5   0.272449246   2.39065   0.33722   1.33809  -0.69746
  29   38030.2    262.9   0.067435727   0.58376  -0.67477   0.34294   0.10410
  30   38130.9    262.3   0.011409005   0.09850  -0.26804   0.12899   0.10011
  31   38690.7    258.5   0.000931938   0.00793   0.08566  -0.00612  -0.02356
  32   38785.5    257.8   0.007879050   0.06688  -0.24948   0.05979  -0.03257
  33   39489.7    253.2   0.002562787   0.02137  -0.12157   0.06063  -0.05394
  34   40024.3    249.8   0.054891396   0.45150  -0.16078   0.59746   0.26208
  35   40129.5    249.2   0.052568350   0.43126  -0.48166   0.44414  -0.04472

FINAL SINGLE POINT ENERGY     -6847.665485945666

DIPOLE MOMENT
-------------
                                X             Y             Z
Electronic contribution:     -5.94878    -171.36125     162.43134
Nuclear contribution   :      6.80048     176.06101    -161.15486
                        -----------------------------------------
Total Dipole Moment    :      0.85170       4.69977       1.27648
                        -----------------------------------------
Magnitude (a.u.)       :      4.94395
Magnitude (Debye)      :     12.56652

Rotational constants in cm-1:     0.001305     0.000262     0.000241
Rotational constants in MHz :    39.134770     7.848861     7.221430

                             ****ORCA TERMINATED NORMALLY****
TOTAL RUN TIME: 0 days 0 hours 6 minutes 55 seconds 814 msec
