                         Program Version 4.2.0 -  RELEASE  -
|  1> # ORCA input file
|  2> # SCF done       -208.156871166717          0.000987628192
|  3> ! CAM-B3LYP def2-SVP def2/J RIJCOSX Grid4 TightSCF
|  4> %maxcore 5000
|  5> %tddft
|  6>     Mode sTDDFT
|  7>     Ethresh 5.0
|  8>     maxcore 5000
|  9> end
| 10>
| 11> %pal
| 12>   nprocs 6
| 13>   end
| 14> * xyz 0 1
| 15>    C        2.00832        12.54191        -3.02100
| 16>    C        2.51654        13.49318        -2.17606
| 17>    C        3.80038        14.06244        -2.30240
| 18>    N        4.83499        14.55623        -2.35645
| 19>    C        1.82364        14.01040        -1.06214
| 20>    N        1.29639        14.45110        -0.14294
| 21>    C        2.69593        11.96508        -4.17327
| 22>    C        1.85927        10.98296        -4.76503
| 23>    C        2.23222        10.26837        -5.87803
| 24>    C        3.48599        10.53506        -6.43731
| 25>    C        4.31326        11.51579        -5.83971
| 26>    C        3.93808        12.23711        -4.71197
| 27>    S        5.81607        11.68943        -6.69102
| 28>    C        5.32166        10.46044        -7.82427
| 29>    C        4.09335         9.94438        -7.57843
| 30>   Br        6.46993         9.97435        -9.22455
| 31>    C        0.60666        10.90824        -4.00597
| 32>    O       -0.34117        10.15044        -4.20747
| 33>    C        0.71038        11.91052        -2.94311
| 34>    C       -0.32991        12.16362        -2.08170
| 35>    N       -1.47558        11.48996        -2.21256
| 36>    C       -2.61720        11.62740        -1.49424
| 37>    S       -2.73488        12.67672        -0.12086
| 38>    C       -4.40525        12.23920         0.03700
| 39>    N       -5.13275        12.80438         1.09642
| 40>    O       -6.30299        12.49478         1.20266
| 41>    O       -4.52857        13.56635         1.82811
| 42>    C       -4.83961        11.35405        -0.91284
| 43>    C       -3.81891        10.97844        -1.80533
| 44>    C       -3.94064        10.08045        -2.92393
| 45>    C       -5.10059         9.77987        -3.53569
| 46>    C       -5.25034         8.95283        -4.69208
| 47>    S       -6.83652         8.30188        -4.99133
| 48>    C       -6.28641         7.45532        -6.40544
| 49>    C       -4.93736         7.67985        -6.62091
| 50>    C       -4.35925         8.54991        -5.67304
| 51>    C       -2.94107         9.04552        -5.81672
| 52>    C       -2.86916        10.47448        -5.60032
| 53>    N       -2.79844        11.60802        -5.47003
| 54>    C       -2.39307         8.74441        -7.22102
| 55>    C       -2.65975         7.28798        -7.56735
| 56>    C       -4.16430         7.07398        -7.77040
| 57>    O       -4.50382         5.72114        -8.02415
| 58>    C       -4.23414         4.80503        -6.98651
| 59>    C       -7.17748         6.66786        -7.19089
| 60>    C       -8.50524         6.61688        -6.97661
| 61>    N       -9.35559         5.83914        -7.71528
| 62>    C      -10.70176         5.84665        -7.62130
| 63>    S      -11.51258         7.01280        -6.62872
| 64>    C      -13.04198         6.34487        -7.11879
| 65>    N      -14.19386         6.92330        -6.57468
| 66>    O      -15.27002         6.45701        -6.89513
| 67>    O      -14.02057         7.85755        -5.80976
| 68>    C      -12.92803         5.29795        -7.98640
| 69>    C      -11.58705         4.97664        -8.28891
| 70>    C      -11.16567         3.89184        -9.11551
| 71>    C      -11.99590         3.06009        -9.79165
| 72>    C      -11.52384         1.95902       -10.54366
| 73>    C      -12.25660         1.14781       -11.35629
| 74>    C      -13.60281         1.27410       -11.87180
| 75>    C      -14.25077         2.44417       -12.17252
| 76>    C      -15.53753         2.49961       -12.74718
| 77>    N      -16.58577         2.59249       -13.20483
| 78>    C      -13.65729         3.71844       -12.05322
| 79>    N      -13.19687         4.76921       -12.01421
| 80>    C      -14.04983        -0.06481       -12.24066
| 81>    C      -12.93965        -0.94623       -12.18284
| 82>    C      -11.75200        -0.20479       -11.71261
| 83>    O      -10.62012        -0.61301       -11.58602
| 84>    C      -13.04057        -2.27796       -12.50456
| 85>    C      -14.29508        -2.76420       -12.88817
| 86>    C      -15.39843        -1.87791       -12.93138
| 87>    C      -15.29574        -0.52838       -12.61623
| 88>    S      -16.85417        -2.69198       -13.41541
| 89>    C      -15.97416        -4.19101       -13.55515
| 90>    C      -14.65760        -4.08927       -13.25419
| 91>   Br      -16.87741        -5.74846       -14.07924
| 92>    H        1.57792         9.52666        -6.30847
| 93>    H        4.60267        12.97514        -4.29525
| 94>    H        3.63474         9.17968        -8.17814
| 95>    H       -0.27130        12.90513        -1.29560
| 96>    H       -1.47679        10.83473        -3.01189
| 97>    H       -5.84828        10.98467        -0.93494
| 98>    H       -3.01911         9.65215        -3.28377
| 99>    H       -6.02651        10.17284        -3.13887
|100>    H       -2.28949         8.56037        -5.07757
|101>    H       -1.32269         8.95468        -7.23448
|102>    H       -2.87597         9.39565        -7.95361
|103>    H       -2.30123         6.65315        -6.75462
|104>    H       -2.13616         7.00337        -8.48081
|105>    H       -4.46869         7.58119        -8.69784
|106>    H       -4.59929         5.16986        -6.02111
|107>    H       -3.16631         4.57867        -6.90934
|108>    H       -4.76567         3.89175        -7.24821
|109>    H       -6.72772         6.10332        -7.99539
|110>    H       -8.97298         7.19560        -6.19247
|111>    H       -8.93622         5.23401        -8.41115
|112>    H      -13.78913         4.78963        -8.37777
|113>    H      -10.10004         3.72380        -9.21015
|114>    H      -13.06253         3.21129        -9.73643
|115>    H      -10.49120         1.65929       -10.39801
|116>    H      -12.17986        -2.92657       -12.45948
|117>    H      -16.16374         0.10891       -12.65568
|118>    H      -13.96954        -4.91410       -13.28650
|119> *
|120>
|121>                          ****END OF INPUT****

CARTESIAN COORDINATES (ANGSTROEM)
---------------------------------
  C      2.008320   12.541910   -3.021000
  C      2.516540   13.493180   -2.176060
  C      3.800380   14.062440   -2.302400
  N      4.834990   14.556230   -2.356450
  C      1.823640   14.010400   -1.062140
  N      1.296390   14.451100   -0.142940
  C      2.695930   11.965080   -4.173270
  C      1.859270   10.982960   -4.765030
  C      2.232220   10.268370   -5.878030
  C      3.485990   10.535060   -6.437310
  C      4.313260   11.515790   -5.839710
  C      3.938080   12.237110   -4.711970
  S      5.816070   11.689430   -6.691020
  C      5.321660   10.460440   -7.824270
  C      4.093350    9.944380   -7.578430
  Br     6.469930    9.974350   -9.224550
  C      0.606660   10.908240   -4.005970
  O     -0.341170   10.150440   -4.207470
  C      0.710380   11.910520   -2.943110
  C     -0.329910   12.163620   -2.081700
  N     -1.475580   11.489960   -2.212560
  C     -2.617200   11.627400   -1.494240
  S     -2.734880   12.676720   -0.120860
  C     -4.405250   12.239200    0.037000
  N     -5.132750   12.804380    1.096420
  O     -6.302990   12.494780    1.202660
  O     -4.528570   13.566350    1.828110
  C     -4.839610   11.354050   -0.912840
  C     -3.818910   10.978440   -1.805330
  C     -3.940640   10.080450   -2.923930
  C     -5.100590    9.779870   -3.535690
  C     -5.250340    8.952830   -4.692080
  S     -6.836520    8.301880   -4.991330
  C     -6.286410    7.455320   -6.405440
  C     -4.937360    7.679850   -6.620910
  C     -4.359250    8.549910   -5.673040
  C     -2.941070    9.045520   -5.816720
  C     -2.869160   10.474480   -5.600320
  N     -2.798440   11.608020   -5.470030
  C     -2.393070    8.744410   -7.221020
  C     -2.659750    7.287980   -7.567350
  C     -4.164300    7.073980   -7.770400
  O     -4.503820    5.721140   -8.024150
  C     -4.234140    4.805030   -6.986510
  C     -7.177480    6.667860   -7.190890
  C     -8.505240    6.616880   -6.976610
  N     -9.355590    5.839140   -7.715280
  C    -10.701760    5.846650   -7.621300
  S    -11.512580    7.012800   -6.628720
  C    -13.041980    6.344870   -7.118790
  N    -14.193860    6.923300   -6.574680
  O    -15.270020    6.457010   -6.895130
  O    -14.020570    7.857550   -5.809760
  C    -12.928030    5.297950   -7.986400
  C    -11.587050    4.976640   -8.288910
  C    -11.165670    3.891840   -9.115510
  C    -11.995900    3.060090   -9.791650
  C    -11.523840    1.959020  -10.543660
  C    -12.256600    1.147810  -11.356290
  C    -13.602810    1.274100  -11.871800
  C    -14.250770    2.444170  -12.172520
  C    -15.537530    2.499610  -12.747180
  N    -16.585770    2.592490  -13.204830
  C    -13.657290    3.718440  -12.053220
  N    -13.196870    4.769210  -12.014210
  C    -14.049830   -0.064810  -12.240660
  C    -12.939650   -0.946230  -12.182840
  C    -11.752000   -0.204790  -11.712610
  O    -10.620120   -0.613010  -11.586020
  C    -13.040570   -2.277960  -12.504560
  C    -14.295080   -2.764200  -12.888170
  C    -15.398430   -1.877910  -12.931380
  C    -15.295740   -0.528380  -12.616230
  S    -16.854170   -2.691980  -13.415410
  C    -15.974160   -4.191010  -13.555150
  C    -14.657600   -4.089270  -13.254190
  Br   -16.877410   -5.748460  -14.079240
  H      1.577920    9.526660   -6.308470
  H      4.602670   12.975140   -4.295250
  H      3.634740    9.179680   -8.178140
  H     -0.271300   12.905130   -1.295600
  H     -1.476790   10.834730   -3.011890
  H     -5.848280   10.984670   -0.934940
  H     -3.019110    9.652150   -3.283770
  H     -6.026510   10.172840   -3.138870
  H     -2.289490    8.560370   -5.077570
  H     -1.322690    8.954680   -7.234480
  H     -2.875970    9.395650   -7.953610
  H     -2.301230    6.653150   -6.754620
  H     -2.136160    7.003370   -8.480810
  H     -4.468690    7.581190   -8.697840
  H     -4.599290    5.169860   -6.021110
  H     -3.166310    4.578670   -6.909340
  H     -4.765670    3.891750   -7.248210
  H     -6.727720    6.103320   -7.995390
  H     -8.972980    7.195600   -6.192470
  H     -8.936220    5.234010   -8.411150
  H    -13.789130    4.789630   -8.377770
  H    -10.100040    3.723800   -9.210150
  H    -13.062530    3.211290   -9.736430
  H    -10.491200    1.659290  -10.398010
  H    -12.179860   -2.926570  -12.459480
  H    -16.163740    0.108910  -12.655680
  H    -13.969540   -4.914100  -13.286500

 Total Charge           Charge          ....    0
 Multiplicity           Mult            ....    1
 Number of Electrons    NEL             ....  620
 Basis Dimension        Dim             .... 1269

ORBITAL ENERGIES
----------------

  NO   OCC          E(Eh)            E(eV)
   0   2.0000    -482.894139    -13140.2176
   1   2.0000    -482.888020    -13140.0510
   2   2.0000     -88.995181     -2421.6820
   3   2.0000     -88.994648     -2421.6675
   4   2.0000     -88.985599     -2421.4213
   5   2.0000     -88.978465     -2421.2271
   6   2.0000     -88.972141     -2421.0551
   7   2.0000     -62.571850     -1702.6666
   8   2.0000     -62.565730     -1702.5001
   9   2.0000     -56.405811     -1534.8802
  10   2.0000     -56.403076     -1534.8057
  11   2.0000     -56.403046     -1534.8049
  12   2.0000     -56.399685     -1534.7135
  13   2.0000     -56.396960     -1534.6393
  14   2.0000     -56.396931     -1534.6385
  15   2.0000     -19.243210      -523.6344
  16   2.0000     -19.242927      -523.6267
  17   2.0000     -19.242254      -523.6084
  18   2.0000     -19.240420      -523.5584
  19   2.0000     -19.239911      -523.5446
  20   2.0000     -19.236789      -523.4596
  21   2.0000     -19.218100      -522.9511
  22   2.0000     -14.654524      -398.7699
  23   2.0000     -14.652183      -398.7062
  24   2.0000     -14.501763      -394.6130
  25   2.0000     -14.501535      -394.6068
  26   2.0000     -14.424977      -392.5236
  27   2.0000     -14.420873      -392.4119
  28   2.0000     -14.418880      -392.3577
  29   2.0000     -14.417617      -392.3233
  30   2.0000     -14.409680      -392.1073
  31   2.0000     -10.388746      -282.6921
  32   2.0000     -10.386524      -282.6317
  33   2.0000     -10.376421      -282.3568
  34   2.0000     -10.376321      -282.3540
  35   2.0000     -10.369255      -282.1618
  36   2.0000     -10.368424      -282.1392
  37   2.0000     -10.361594      -281.9533
  38   2.0000     -10.352726      -281.7120
  39   2.0000     -10.352317      -281.7009
  40   2.0000     -10.348868      -281.6070
  41   2.0000     -10.348332      -281.5924
  42   2.0000     -10.347661      -281.5742
  43   2.0000     -10.346973      -281.5555
  44   2.0000     -10.345816      -281.5240
  45   2.0000     -10.345262      -281.5089
  46   2.0000     -10.335983      -281.2564
  47   2.0000     -10.334676      -281.2208
  48   2.0000     -10.328984      -281.0660
  49   2.0000     -10.327215      -281.0178
  50   2.0000     -10.326042      -280.9859
  51   2.0000     -10.323960      -280.9292
  52   2.0000     -10.322549      -280.8908
  53   2.0000     -10.322474      -280.8888
  54   2.0000     -10.321406      -280.8597
  55   2.0000     -10.321227      -280.8549
  56   2.0000     -10.320121      -280.8248
  57   2.0000     -10.319628      -280.8114
  58   2.0000     -10.319327      -280.8032
  59   2.0000     -10.318396      -280.7778
  60   2.0000     -10.318364      -280.7770
  61   2.0000     -10.316879      -280.7366
  62   2.0000     -10.315925      -280.7106
  63   2.0000     -10.315270      -280.6928
  64   2.0000     -10.312441      -280.6158
  65   2.0000     -10.312150      -280.6079
  66   2.0000     -10.312115      -280.6069
  67   2.0000     -10.310744      -280.5696
  68   2.0000     -10.310609      -280.5659
  69   2.0000     -10.309128      -280.5256
  70   2.0000     -10.306870      -280.4642
  71   2.0000     -10.306694      -280.4594
  72   2.0000     -10.306441      -280.4525
  73   2.0000     -10.305674      -280.4317
  74   2.0000     -10.304769      -280.4070
  75   2.0000     -10.304512      -280.4000
  76   2.0000     -10.303743      -280.3791
  77   2.0000     -10.301853      -280.3277
  78   2.0000     -10.299611      -280.2667
  79   2.0000     -10.299441      -280.2620
  80   2.0000     -10.299107      -280.2530
  81   2.0000     -10.298686      -280.2415
  82   2.0000     -10.296376      -280.1786
  83   2.0000     -10.296088      -280.1708
  84   2.0000     -10.290531      -280.0196
  85   2.0000      -8.801281      -239.4950
  86   2.0000      -8.795154      -239.3283
  87   2.0000      -8.090375      -220.1503
  88   2.0000      -8.090137      -220.1438
  89   2.0000      -8.081590      -219.9113
  90   2.0000      -8.074491      -219.7181
  91   2.0000      -8.068091      -219.5439
  92   2.0000      -6.637643      -180.6195
  93   2.0000      -6.631476      -180.4516
  94   2.0000      -6.622992      -180.2208
  95   2.0000      -6.622773      -180.2148
  96   2.0000      -6.616889      -180.0547
  97   2.0000      -6.616664      -180.0486
  98   2.0000      -6.059984      -164.9005
  99   2.0000      -6.059935      -164.8992
 100   2.0000      -6.055644      -164.7825
 101   2.0000      -6.055383      -164.7753
 102   2.0000      -6.051892      -164.6804
 103   2.0000      -6.051438      -164.6680
 104   2.0000      -6.051258      -164.6631
 105   2.0000      -6.046969      -164.5464
 106   2.0000      -6.044152      -164.4697
 107   2.0000      -6.042852      -164.4344
 108   2.0000      -6.039910      -164.3543
 109   2.0000      -6.037208      -164.2808
 110   2.0000      -6.035722      -164.2403
 111   2.0000      -6.033373      -164.1764
 112   2.0000      -6.030168      -164.0892
 113   2.0000      -2.753462       -74.9255
 114   2.0000      -2.749391       -74.8147
 115   2.0000      -2.749269       -74.8114
 116   2.0000      -2.747335       -74.7588
 117   2.0000      -2.743248       -74.6476
 118   2.0000      -2.743105       -74.6437
 119   2.0000      -2.737600       -74.4939
 120   2.0000      -2.737582       -74.4934
 121   2.0000      -2.731504       -74.3280
 122   2.0000      -2.731477       -74.3273
 123   2.0000      -1.324909       -36.0526
 124   2.0000      -1.321632       -35.9634
 125   2.0000      -1.155943       -31.4548
 126   2.0000      -1.144252       -31.1367
 127   2.0000      -1.141116       -31.0514
 128   2.0000      -1.137060       -30.9410
 129   2.0000      -1.133057       -30.8320
 130   2.0000      -1.109993       -30.2044
 131   2.0000      -1.107702       -30.1421
 132   2.0000      -1.033458       -28.1218
 133   2.0000      -1.026252       -27.9257
 134   2.0000      -1.022480       -27.8231
 135   2.0000      -1.017412       -27.6852
 136   2.0000      -1.016244       -27.6534
 137   2.0000      -1.015326       -27.6284
 138   2.0000      -1.012940       -27.5635
 139   2.0000      -1.002598       -27.2821
 140   2.0000      -0.999330       -27.1932
 141   2.0000      -0.997087       -27.1321
 142   2.0000      -0.996450       -27.1148
 143   2.0000      -0.992825       -27.0161
 144   2.0000      -0.952145       -25.9092
 145   2.0000      -0.950028       -25.8516
 146   2.0000      -0.947938       -25.7947
 147   2.0000      -0.937910       -25.5218
 148   2.0000      -0.935025       -25.4433
 149   2.0000      -0.919281       -25.0149
 150   2.0000      -0.918460       -24.9926
 151   2.0000      -0.911630       -24.8067
 152   2.0000      -0.909555       -24.7503
 153   2.0000      -0.899415       -24.4743
 154   2.0000      -0.896774       -24.4025
 155   2.0000      -0.891367       -24.2553
 156   2.0000      -0.889236       -24.1973
 157   2.0000      -0.884795       -24.0765
 158   2.0000      -0.876262       -23.8443
 159   2.0000      -0.870080       -23.6761
 160   2.0000      -0.860923       -23.4269
 161   2.0000      -0.858321       -23.3561
 162   2.0000      -0.847905       -23.0727
 163   2.0000      -0.840380       -22.8679
 164   2.0000      -0.835269       -22.7288
 165   2.0000      -0.830817       -22.6077
 166   2.0000      -0.820549       -22.3283
 167   2.0000      -0.804562       -21.8932
 168   2.0000      -0.800859       -21.7925
 169   2.0000      -0.787113       -21.4184
 170   2.0000      -0.774470       -21.0744
 171   2.0000      -0.772073       -21.0092
 172   2.0000      -0.764259       -20.7965
 173   2.0000      -0.757046       -20.6003
 174   2.0000      -0.744876       -20.2691
 175   2.0000      -0.739040       -20.1103
 176   2.0000      -0.733390       -19.9566
 177   2.0000      -0.732105       -19.9216
 178   2.0000      -0.725947       -19.7540
 179   2.0000      -0.710184       -19.3251
 180   2.0000      -0.709124       -19.2963
 181   2.0000      -0.700868       -19.0716
 182   2.0000      -0.698878       -19.0174
 183   2.0000      -0.688926       -18.7466
 184   2.0000      -0.685380       -18.6501
 185   2.0000      -0.675428       -18.3793
 186   2.0000      -0.670014       -18.2320
 187   2.0000      -0.668205       -18.1828
 188   2.0000      -0.665220       -18.1015
 189   2.0000      -0.660267       -17.9668
 190   2.0000      -0.654608       -17.8128
 191   2.0000      -0.644580       -17.5399
 192   2.0000      -0.642769       -17.4906
 193   2.0000      -0.641308       -17.4509
 194   2.0000      -0.638171       -17.3655
 195   2.0000      -0.635991       -17.3062
 196   2.0000      -0.633619       -17.2416
 197   2.0000      -0.631928       -17.1956
 198   2.0000      -0.628950       -17.1146
 199   2.0000      -0.626950       -17.0602
 200   2.0000      -0.616480       -16.7753
 201   2.0000      -0.615255       -16.7420
 202   2.0000      -0.611901       -16.6507
 203   2.0000      -0.604765       -16.4565
 204   2.0000      -0.602978       -16.4079
 205   2.0000      -0.601999       -16.3812
 206   2.0000      -0.601251       -16.3609
 207   2.0000      -0.593006       -16.1365
 208   2.0000      -0.589263       -16.0347
 209   2.0000      -0.587586       -15.9890
 210   2.0000      -0.584259       -15.8985
 211   2.0000      -0.578893       -15.7525
 212   2.0000      -0.573477       -15.6051
 213   2.0000      -0.569629       -15.5004
 214   2.0000      -0.566218       -15.4076
 215   2.0000      -0.563343       -15.3293
 216   2.0000      -0.560654       -15.2562
 217   2.0000      -0.558545       -15.1988
 218   2.0000      -0.556570       -15.1450
 219   2.0000      -0.551302       -15.0017
 220   2.0000      -0.549983       -14.9658
 221   2.0000      -0.548235       -14.9182
 222   2.0000      -0.543984       -14.8026
 223   2.0000      -0.542225       -14.7547
 224   2.0000      -0.541031       -14.7222
 225   2.0000      -0.540184       -14.6991
 226   2.0000      -0.536815       -14.6075
 227   2.0000      -0.532898       -14.5009
 228   2.0000      -0.530317       -14.4306
 229   2.0000      -0.529266       -14.4021
 230   2.0000      -0.527030       -14.3412
 231   2.0000      -0.524078       -14.2609
 232   2.0000      -0.520018       -14.1504
 233   2.0000      -0.518075       -14.0975
 234   2.0000      -0.515288       -14.0217
 235   2.0000      -0.511377       -13.9153
 236   2.0000      -0.508366       -13.8333
 237   2.0000      -0.507918       -13.8211
 238   2.0000      -0.506790       -13.7905
 239   2.0000      -0.503865       -13.7109
 240   2.0000      -0.501170       -13.6375
 241   2.0000      -0.497978       -13.5507
 242   2.0000      -0.497069       -13.5259
 243   2.0000      -0.493475       -13.4281
 244   2.0000      -0.489559       -13.3216
 245   2.0000      -0.486786       -13.2461
 246   2.0000      -0.481968       -13.1150
 247   2.0000      -0.480255       -13.0684
 248   2.0000      -0.478350       -13.0166
 249   2.0000      -0.475996       -12.9525
 250   2.0000      -0.472133       -12.8474
 251   2.0000      -0.469801       -12.7839
 252   2.0000      -0.466161       -12.6849
 253   2.0000      -0.465517       -12.6674
 254   2.0000      -0.461766       -12.5653
 255   2.0000      -0.460108       -12.5202
 256   2.0000      -0.457601       -12.4519
 257   2.0000      -0.456200       -12.4138
 258   2.0000      -0.455073       -12.3832
 259   2.0000      -0.453452       -12.3391
 260   2.0000      -0.451379       -12.2826
 261   2.0000      -0.450814       -12.2673
 262   2.0000      -0.450068       -12.2470
 263   2.0000      -0.449048       -12.2192
 264   2.0000      -0.447361       -12.1733
 265   2.0000      -0.445496       -12.1226
 266   2.0000      -0.442468       -12.0402
 267   2.0000      -0.442332       -12.0365
 268   2.0000      -0.439768       -11.9667
 269   2.0000      -0.435154       -11.8412
 270   2.0000      -0.434910       -11.8345
 271   2.0000      -0.433659       -11.8005
 272   2.0000      -0.429122       -11.6770
 273   2.0000      -0.425894       -11.5892
 274   2.0000      -0.424432       -11.5494
 275   2.0000      -0.422273       -11.4906
 276   2.0000      -0.417835       -11.3699
 277   2.0000      -0.412810       -11.2331
 278   2.0000      -0.410580       -11.1724
 279   2.0000      -0.406218       -11.0538
 280   2.0000      -0.402705       -10.9582
 281   2.0000      -0.398384       -10.8406
 282   2.0000      -0.395045       -10.7497
 283   2.0000      -0.390884       -10.6365
 284   2.0000      -0.389668       -10.6034
 285   2.0000      -0.387867       -10.5544
 286   2.0000      -0.386266       -10.5108
 287   2.0000      -0.383632       -10.4391
 288   2.0000      -0.381661       -10.3855
 289   2.0000      -0.381245       -10.3742
 290   2.0000      -0.379037       -10.3141
 291   2.0000      -0.377384       -10.2691
 292   2.0000      -0.374742       -10.1973
 293   2.0000      -0.371895       -10.1198
 294   2.0000      -0.369153       -10.0452
 295   2.0000      -0.365885        -9.9562
 296   2.0000      -0.354677        -9.6512
 297   2.0000      -0.352812        -9.6005
 298   2.0000      -0.349390        -9.5074
 299   2.0000      -0.344082        -9.3629
 300   2.0000      -0.338930        -9.2227
 301   2.0000      -0.335021        -9.1164
 302   2.0000      -0.328061        -8.9270
 303   2.0000      -0.321785        -8.7562
 304   2.0000      -0.318532        -8.6677
 305   2.0000      -0.304780        -8.2935
 306   2.0000      -0.298653        -8.1268
 307   2.0000      -0.296581        -8.0704
 308   2.0000      -0.279192        -7.5972
 309   2.0000      -0.251698        -6.8490
 310   0.0000      -0.097196        -2.6448
 311   0.0000      -0.093904        -2.5553
 312   0.0000      -0.077811        -2.1173
 313   0.0000      -0.068485        -1.8636
 314   0.0000      -0.062696        -1.7060

MULLIKEN ATOMIC CHARGES
-----------------------
   0 C :    0.326341
   1 C :   -0.339868
   2 C :   -0.186868
   3 N :    0.153487
   4 C :   -0.197049
   5 N :    0.148468
   6 C :    0.010329
   7 C :    0.004669
   8 C :   -0.071869
   9 C :    0.120784
  10 C :   -0.092814
  11 C :   -0.018961
  12 S :    0.195256
  13 C :   -0.123600
  14 C :    0.036216
  15 Br:    0.028989
  16 C :    0.184655
  17 O :   -0.237311
  18 C :   -0.131474
  19 C :    0.038934
  20 N :   -0.003267
  21 C :   -0.111455
  22 S :    0.185842
  23 C :   -0.000844
  24 N :    0.273939
  25 O :   -0.244053
  26 O :   -0.254861
  27 C :    0.010035
  28 C :    0.114780
  29 C :   -0.018581
  30 C :    0.047720
  31 C :   -0.135482
  32 S :    0.114126
  33 C :   -0.124484
  34 C :   -0.076894
  35 C :   -0.000583
  36 C :    0.031387
  37 C :   -0.293238
  38 N :    0.113694
  39 C :    0.022452
  40 C :    0.094994
  41 C :    0.204256
  42 O :   -0.386873
  43 C :    0.183358
  44 C :   -0.014519
  45 C :    0.049876
  46 N :   -0.020333
  47 C :   -0.099588
  48 S :    0.158376
  49 C :   -0.006048
  50 N :    0.278850
  51 O :   -0.245073
  52 O :   -0.264625
  53 C :    0.027679
  54 C :    0.127396
  55 C :   -0.018419
  56 C :    0.011474
  57 C :    0.027497
  58 C :   -0.114294
  59 C :    0.267231
  60 C :   -0.328173
  61 C :   -0.179471
  62 N :    0.157217
  63 C :   -0.218568
  64 N :    0.167973
  65 C :    0.007221
  66 C :   -0.003815
  67 C :    0.142266
  68 O :   -0.146225
  69 C :   -0.073489
  70 C :    0.112489
  71 C :   -0.086861
  72 C :   -0.020961
  73 S :    0.187455
  74 C :   -0.125892
  75 C :    0.041419
  76 Br:    0.025436
  77 H :   -0.024188
  78 H :   -0.004446
  79 H :   -0.005304
  80 H :    0.046397
  81 H :    0.182219
  82 H :    0.014304
  83 H :   -0.009531
  84 H :   -0.009363
  85 H :    0.060758
  86 H :    0.021610
  87 H :    0.027753
  88 H :   -0.003917
  89 H :    0.015724
  90 H :    0.011257
  91 H :    0.020716
  92 H :    0.016884
  93 H :    0.026017
  94 H :    0.009808
  95 H :    0.036502
  96 H :    0.141728
  97 H :    0.016391
  98 H :   -0.024194
  99 H :    0.018121
 100 H :    0.009484
 101 H :   -0.008967
 102 H :   -0.001215
 103 H :   -0.002336
Sum of atomic charges:   -0.0000000

LOEWDIN ATOMIC CHARGES
----------------------
   0 C :    0.079145
   1 C :   -0.145947
   2 C :   -0.020013
   3 N :   -0.051615
   4 C :   -0.020697
   5 N :   -0.050442
   6 C :   -0.016442
   7 C :   -0.049906
   8 C :    0.020319
   9 C :   -0.033876
  10 C :   -0.143254
  11 C :   -0.006025
  12 S :    0.440640
  13 C :   -0.270856
  14 C :   -0.071651
  15 Br:    0.140886
  16 C :    0.103852
  17 O :   -0.184183
  18 C :   -0.144248
  19 C :    0.118260
  20 N :    0.088342
  21 C :   -0.111232
  22 S :    0.478016
  23 C :   -0.198889
  24 N :    0.272804
  25 O :   -0.210711
  26 O :   -0.220735
  27 C :    0.002839
  28 C :   -0.080321
  29 C :   -0.018149
  30 C :   -0.034065
  31 C :   -0.165951
  32 S :    0.440360
  33 C :   -0.160574
  34 C :   -0.081477
  35 C :   -0.053021
  36 C :   -0.045841
  37 C :   -0.025633
  38 N :   -0.079800
  39 C :   -0.004246
  40 C :   -0.036128
  41 C :    0.069334
  42 O :   -0.166642
  43 C :    0.064875
  44 C :   -0.081579
  45 C :    0.013113
  46 N :    0.049482
  47 C :   -0.083412
  48 S :    0.461329
  49 C :   -0.207111
  50 N :    0.273612
  51 O :   -0.211353
  52 O :   -0.230940
  53 C :    0.019306
  54 C :   -0.115651
  55 C :    0.025971
  56 C :   -0.034076
  57 C :    0.063686
  58 C :   -0.094979
  59 C :    0.069793
  60 C :   -0.140406
  61 C :   -0.020829
  62 N :   -0.048099
  63 C :   -0.024622
  64 N :   -0.050236
  65 C :   -0.018637
  66 C :   -0.052797
  67 C :    0.082699
  68 O :   -0.146490
  69 C :    0.022417
  70 C :   -0.033339
  71 C :   -0.143269
  72 C :   -0.011541
  73 S :    0.434367
  74 C :   -0.271544
  75 C :   -0.070365
  76 Br:    0.138170
  77 H :    0.036746
  78 H :    0.042622
  79 H :    0.037856
  80 H :    0.037800
  81 H :    0.085128
  82 H :    0.046217
  83 H :    0.026599
  84 H :    0.030135
  85 H :    0.055067
  86 H :    0.032999
  87 H :    0.033778
  88 H :    0.023940
  89 H :    0.032769
  90 H :    0.031516
  91 H :    0.011032
  92 H :    0.009470
  93 H :    0.023578
  94 H :    0.034831
  95 H :    0.018250
  96 H :    0.099044
  97 H :    0.047927
  98 H :    0.026412
  99 H :    0.032201
 100 H :    0.042421
 101 H :    0.041379
 102 H :    0.041467
 103 H :    0.039039

  Mayer bond orders larger than 0.100000
B(  0-C ,  1-C ) :   1.6305 B(  0-C ,  6-C ) :   1.0047 B(  0-C , 18-C ) :   1.0984
B(  1-C ,  2-C ) :   1.1421 B(  1-C ,  4-C ) :   1.1469 B(  2-C ,  3-N ) :   2.9691
B(  4-C ,  5-N ) :   2.9567 B(  6-C ,  7-C ) :   1.2761 B(  6-C , 11-C ) :   1.4236
B(  7-C ,  8-C ) :   1.4172 B(  7-C , 16-C ) :   0.9843 B(  8-C ,  9-C ) :   1.2464
B(  8-C , 77-H ) :   1.0186 B(  9-C , 10-C ) :   1.3094 B(  9-C , 14-C ) :   1.1621
B( 10-C , 11-C ) :   1.3190 B( 10-C , 12-S ) :   1.0915 B( 11-C , 78-H ) :   0.9807
B( 12-S , 13-C ) :   1.0894 B( 13-C , 14-C ) :   1.6165 B( 13-C , 15-Br) :   1.0216
B( 14-C , 79-H ) :   1.0006 B( 16-C , 17-O ) :   1.9848 B( 16-C , 18-C ) :   1.0146
B( 17-O , 81-H ) :   0.1350 B( 18-C , 19-C ) :   1.4482 B( 19-C , 20-N ) :   1.3468
B( 19-C , 80-H ) :   0.9307 B( 20-N , 21-C ) :   1.1895 B( 20-N , 81-H ) :   0.8271
B( 21-C , 22-S ) :   1.1366 B( 21-C , 28-C ) :   1.3847 B( 22-S , 23-C ) :   1.0881
B( 23-C , 24-N ) :   0.9605 B( 23-C , 27-C ) :   1.4995 B( 24-N , 25-O ) :   1.5395
B( 24-N , 26-O ) :   1.5189 B( 25-O , 26-O ) :   0.2631 B( 27-C , 28-C ) :   1.2269
B( 27-C , 82-H ) :   0.9999 B( 28-C , 29-C ) :   1.0867 B( 29-C , 30-C ) :   1.7465
B( 29-C , 83-H ) :   0.9449 B( 30-C , 31-C ) :   1.1054 B( 30-C , 84-H ) :   0.9487
B( 31-C , 32-S ) :   1.1204 B( 31-C , 35-C ) :   1.5243 B( 32-S , 33-C ) :   1.1180
B( 33-C , 34-C ) :   1.5199 B( 33-C , 44-C ) :   1.1702 B( 34-C , 35-C ) :   1.3304
B( 34-C , 41-C ) :   0.9594 B( 35-C , 36-C ) :   0.9781 B( 36-C , 37-C ) :   1.0618
B( 36-C , 39-C ) :   1.0961 B( 36-C , 85-H ) :   0.8248 B( 37-C , 38-N ) :   3.0550
B( 39-C , 40-C ) :   1.0849 B( 39-C , 86-H ) :   0.9276 B( 39-C , 87-H ) :   0.9324
B( 40-C , 41-C ) :   1.0769 B( 40-C , 88-H ) :   0.9151 B( 40-C , 89-H ) :   0.9257
B( 41-C , 42-O ) :   1.0110 B( 41-C , 90-H ) :   0.8930 B( 42-O , 43-C ) :   0.9675
B( 43-C , 91-H ) :   0.9631 B( 43-C , 92-H ) :   0.9683 B( 43-C , 93-H ) :   0.9815
B( 44-C , 45-C ) :   1.6652 B( 44-C , 94-H ) :   0.9507 B( 45-C , 46-N ) :   1.1044
B( 45-C , 95-H ) :   0.9563 B( 46-N , 47-C ) :   1.2647 B( 46-N , 96-H ) :   0.9141
B( 47-C , 48-S ) :   1.1441 B( 47-C , 54-C ) :   1.3120 B( 48-S , 49-C ) :   1.0521
B( 49-C , 50-N ) :   0.9716 B( 49-C , 53-C ) :   1.5267 B( 50-N , 51-O ) :   1.5347
B( 50-N , 52-O ) :   1.5072 B( 51-O , 52-O ) :   0.2587 B( 53-C , 54-C ) :   1.2128
B( 53-C , 97-H ) :   0.9963 B( 54-C , 55-C ) :   1.0869 B( 55-C , 56-C ) :   1.6726
B( 55-C , 98-H ) :   0.9792 B( 56-C , 57-C ) :   1.1365 B( 56-C , 99-H ) :   0.9575
B( 57-C , 58-C ) :   1.6111 B( 57-C ,100-H ) :   0.9564 B( 58-C , 59-C ) :   1.0406
B( 58-C , 67-C ) :   0.9411 B( 59-C , 60-C ) :   1.6455 B( 59-C , 65-C ) :   1.0143
B( 60-C , 61-C ) :   1.1279 B( 60-C , 63-C ) :   1.1580 B( 61-C , 62-N ) :   2.9896
B( 63-C , 64-N ) :   3.0163 B( 65-C , 66-C ) :   1.2735 B( 65-C , 72-C ) :   1.4162
B( 66-C , 67-C ) :   0.9231 B( 66-C , 69-C ) :   1.4236 B( 67-C , 68-O ) :   2.2640
B( 69-C , 70-C ) :   1.2519 B( 69-C ,101-H ) :   1.0173 B( 70-C , 71-C ) :   1.3074
B( 70-C , 75-C ) :   1.1650 B( 71-C , 72-C ) :   1.3236 B( 71-C , 73-S ) :   1.0854
B( 72-C ,102-H ) :   0.9843 B( 73-S , 74-C ) :   1.0883 B( 74-C , 75-C ) :   1.6159
B( 74-C , 76-Br) :   1.0198 B( 75-C ,103-H ) :   1.0007

-----------------------------------------------------------------------------
         ABSORPTION SPECTRUM VIA TRANSITION ELECTRIC DIPOLE MOMENTS
-----------------------------------------------------------------------------
State   Energy  Wavelength   fosc         T2         TX        TY        TZ
        (cm-1)    (nm)                  (au**2)     (au)      (au)      (au)
-----------------------------------------------------------------------------
   0   19041.3    525.2   1.603262604  27.71942   3.55299   3.00983   2.45694
   1   20987.3    476.5   0.569398459   8.93172  -2.80888  -0.10314   1.01553
   2   23845.7    419.4   0.074910055   1.03420   1.01050  -0.05291  -0.10144
   3   24366.6    410.4   0.388757055   5.25242   1.82463   0.84327   1.10093
   4   26600.4    375.9   0.191394169   2.36873  -1.14709   0.08271   1.02278
   5   26854.8    372.4   0.239269766   2.93319   1.64187   0.26125  -0.41135
   6   27454.3    364.2   0.072647067   0.87113  -0.64186   0.51833  -0.43644
   7   28486.2    351.0   0.695707590   8.04022   0.45723   2.45043   1.35150
   8   29020.4    344.6   0.065589403   0.74406   0.48052  -0.18850  -0.69110
   9   29434.7    339.7   0.049017727   0.54824  -0.45616   0.13273   0.56793
  10   29658.6    337.2   0.014867653   0.16503   0.19085  -0.27785  -0.22673
  11   30022.4    333.1   0.610172848   6.69088   1.21712  -1.01455  -2.04455
  12   30538.3    327.5   0.011880998   0.12808  -0.09088   0.34604   0.00882
  13   30972.4    322.9   0.125220674   1.33100  -0.75574   0.30999   0.81472
  14   31938.0    313.1   0.240308055   2.47705  -0.57348   0.59895   1.33770
  15   32372.5    308.9   0.046470839   0.47258  -0.38026  -0.47243  -0.32371
  16   32729.3    305.5   0.059948270   0.60300   0.45668  -0.56950  -0.26479
  17   33124.6    301.9   0.075705896   0.75241  -0.02720  -0.82266   0.27368
  18   33454.1    298.9   0.429902883   4.23055  -0.14039  -1.77154  -1.03560
  19   33737.4    296.4   0.217261412   2.12005  -0.12238  -1.41061   0.33950
  20   34341.4    291.2   0.024070033   0.23075  -0.05303   0.25051   0.40642
  21   34447.5    290.3   0.356229890   3.40446  -0.12941  -1.17110  -1.41994
  22   34936.0    286.2   0.274969496   2.59112  -0.01365   1.42503   0.74847
  23   35206.7    284.0   0.038784155   0.36266  -0.26154   0.38483   0.38232
  24   36526.8    273.8   0.289743826   2.61143  -0.34243   0.90371   1.29518
  25   36759.7    272.0   0.073666243   0.65974  -0.31159  -0.56471  -0.49371
  26   36931.5    270.8   0.001232379   0.01099   0.02097  -0.04548  -0.09207
  27   37553.8    266.3   0.004947019   0.04337   0.10149  -0.16876  -0.06774
  28   37796.6    264.6   0.025354146   0.22084   0.07388  -0.33487  -0.32132
  29   38276.1    261.3   0.179524252   1.54408   1.16961   0.38020  -0.17764
  30   38494.9    259.8   0.048112360   0.41146   0.60337   0.17068  -0.13518
  31   38582.2    259.2   0.044382656   0.37871  -0.52332   0.08080  -0.31354
  32   38765.7    258.0   0.021761156   0.18480   0.29868  -0.03592  -0.30709
  33   39012.0    256.3   0.001762880   0.01488  -0.02402  -0.08495  -0.08417
  34   39292.2    254.5   0.007012424   0.05875   0.23787   0.04389   0.01564
  35   39426.8    253.6   0.082431615   0.68830  -0.80861   0.06684   0.17315
  36   39858.1    250.9   0.112757868   0.93134   0.93132   0.16301   0.19341
  37   39948.6    250.3   0.105504851   0.86945   0.05937  -0.56013  -0.74309

FINAL SINGLE POINT ENERGY    -10227.457743963188

DIPOLE MOMENT
-------------
                                X             Y             Z
Electronic contribution:      5.16998     -82.93345     -86.43761
Nuclear contribution   :     -2.07596      77.96841      84.10982
                        -----------------------------------------
Total Dipole Moment    :      3.09402      -4.96504      -2.32779
                        -----------------------------------------
Magnitude (a.u.)       :      6.29628
Magnitude (Debye)      :     16.00388

Rotational constants in cm-1:     0.000893     0.000143     0.000127
Rotational constants in MHz :    26.778962     4.295857     3.796505

                             ****ORCA TERMINATED NORMALLY****
TOTAL RUN TIME: 0 days 0 hours 16 minutes 37 seconds 819 msec
