                         Program Version 4.2.0 -  RELEASE  -
|  1> # ORCA input file
|  2> # SCF done       -164.368222513281          0.000444252084
|  3> ! CAM-B3LYP def2-SVP def2/J RIJCOSX Grid4 TightSCF
|  4> %maxcore 5000
|  5> %tddft
|  6>     Mode sTDDFT
|  7>     Ethresh 5.0
|  8>     maxcore 5000
|  9> end
| 10>
| 11> %pal
| 12>   nprocs 6
| 13>   end
| 14> * xyz 0 1
| 15>    C       -1.69455        -2.94247         2.21930
| 16>    C       -0.40196        -2.55924         2.47064
| 17>    C        0.61277        -3.43587         2.90685
| 18>    N        1.48038        -4.10228         3.25538
| 19>    C        0.08761        -1.24007         2.36646
| 20>    N        0.55696        -0.19234         2.33494
| 21>    C       -2.24518        -4.27321         2.43238
| 22>    C       -3.63728        -4.23987         2.17052
| 23>    C       -4.43487        -5.35454         2.27794
| 24>    C       -3.83403        -6.55463         2.67603
| 25>    C       -2.44535        -6.56904         2.95042
| 26>    C       -1.63537        -5.44793         2.82872
| 27>    S       -1.90458        -8.14126         3.44778
| 28>    C       -3.52934        -8.74827         3.27936
| 29>    C       -4.43423        -7.83061         2.86924
| 30>   Br       -3.85178       -10.54423         3.69086
| 31>    C       -4.03225        -2.86754         1.78528
| 32>    O       -5.14478        -2.49631         1.47407
| 33>    C       -2.77590        -2.07932         1.78603
| 34>    C       -2.60113        -0.83533         1.24376
| 35>    C       -3.55376         0.15210         0.90463
| 36>    S       -3.16481         1.13933        -0.48012
| 37>    C       -4.62220         2.01282        -0.30021
| 38>    C       -5.35424         1.64529         0.78835
| 39>    C       -6.66530         2.29116         1.09004
| 40>    C       -4.73931         0.58177         1.52122
| 41>    C       -5.15746         0.03345         2.77247
| 42>    C       -6.12010         0.48677         3.61029
| 43>    C       -6.53106        -0.21313         4.78541
| 44>    C       -6.44202        -1.55822         4.92150
| 45>    C       -6.93131        -2.26469         6.04909
| 46>    O       -6.92176        -3.62616         6.01753
| 47>    C       -7.48905        -1.86563         7.24997
| 48>    C       -7.88737        -0.70812         8.05033
| 49>    O       -7.81100         0.47495         7.82815
| 50>    N       -8.42661        -1.27281         9.20241
| 51>    C       -8.43494        -2.66897         9.23571
| 52>    O       -8.86539        -3.33561        10.14234
| 53>    C       -7.82590        -3.04462         7.96242
| 54>    C       -7.47190        -4.11776         7.16405
| 55>    C       -7.64861        -5.50991         7.33795
| 56>    C       -7.34268        -6.39800         6.35432
| 57>    C       -7.55305        -7.78800         6.38890
| 58>    S       -7.19522        -8.70191         4.93912
| 59>    C       -7.71311       -10.21735         5.62661
| 60>    C       -8.12759       -10.00051         6.92984
| 61>    C       -8.04807        -8.64630         7.37146
| 62>    C       -8.51934        -8.63750         8.71169
| 63>    C       -8.85215        -9.92470         9.01729
| 64>    N       -8.62126       -10.75309         7.94933
| 65>    C       -7.65543       -11.39581         4.85031
| 66>    S       -8.07297       -12.99474         5.43098
| 67>    C       -7.69888       -13.77151         3.94115
| 68>    C       -7.26650       -12.85250         3.01813
| 69>    C       -7.25515       -11.52184         3.53962
| 70>    O       -6.82579       -10.63881         2.61499
| 71>    C       -6.54287       -11.39046         1.51699
| 72>    N       -6.00726       -10.70947         0.39870
| 73>    O       -5.78622       -11.37237        -0.59466
| 74>    O       -5.79828        -9.51915         0.51526
| 75>    C       -6.78882       -12.72576         1.68236
| 76>    H       -5.49075        -5.30662         2.06223
| 77>    H       -0.58022        -5.51457         3.03474
| 78>    H       -5.47053        -8.04623         2.68635
| 79>    H       -1.58751        -0.57340         0.95787
| 80>    H       -4.87501         2.76433        -1.02328
| 81>    H       -6.99934         2.86192         0.22644
| 82>    H       -6.57507         2.97864         1.93067
| 83>    H       -7.41492         1.53925         1.32626
| 84>    H       -4.59033        -0.82176         3.10251
| 85>    H       -6.61751         1.42622         3.43413
| 86>    H       -7.00608         0.36174         5.56944
| 87>    H       -6.05004        -2.17133         4.12235
| 88>    H       -8.79437        -0.71233         9.95773
| 89>    H       -8.08027        -5.81833         8.27529
| 90>    H       -6.92371        -6.00906         5.43500
| 91>    H       -8.60114        -7.79439         9.36571
| 92>    H       -9.24494       -10.31841         9.93466
| 93>    H       -8.78108       -11.74553         7.92792
| 94>    H       -7.81586       -14.83071         3.85118
| 95>    H       -6.63506       -13.49116         0.95051
| 96> *
| 97>
| 98>                          ****END OF INPUT****

CARTESIAN COORDINATES (ANGSTROEM)
---------------------------------
  C     -1.694550   -2.942470    2.219300
  C     -0.401960   -2.559240    2.470640
  C      0.612770   -3.435870    2.906850
  N      1.480380   -4.102280    3.255380
  C      0.087610   -1.240070    2.366460
  N      0.556960   -0.192340    2.334940
  C     -2.245180   -4.273210    2.432380
  C     -3.637280   -4.239870    2.170520
  C     -4.434870   -5.354540    2.277940
  C     -3.834030   -6.554630    2.676030
  C     -2.445350   -6.569040    2.950420
  C     -1.635370   -5.447930    2.828720
  S     -1.904580   -8.141260    3.447780
  C     -3.529340   -8.748270    3.279360
  C     -4.434230   -7.830610    2.869240
  Br    -3.851780  -10.544230    3.690860
  C     -4.032250   -2.867540    1.785280
  O     -5.144780   -2.496310    1.474070
  C     -2.775900   -2.079320    1.786030
  C     -2.601130   -0.835330    1.243760
  C     -3.553760    0.152100    0.904630
  S     -3.164810    1.139330   -0.480120
  C     -4.622200    2.012820   -0.300210
  C     -5.354240    1.645290    0.788350
  C     -6.665300    2.291160    1.090040
  C     -4.739310    0.581770    1.521220
  C     -5.157460    0.033450    2.772470
  C     -6.120100    0.486770    3.610290
  C     -6.531060   -0.213130    4.785410
  C     -6.442020   -1.558220    4.921500
  C     -6.931310   -2.264690    6.049090
  O     -6.921760   -3.626160    6.017530
  C     -7.489050   -1.865630    7.249970
  C     -7.887370   -0.708120    8.050330
  O     -7.811000    0.474950    7.828150
  N     -8.426610   -1.272810    9.202410
  C     -8.434940   -2.668970    9.235710
  O     -8.865390   -3.335610   10.142340
  C     -7.825900   -3.044620    7.962420
  C     -7.471900   -4.117760    7.164050
  C     -7.648610   -5.509910    7.337950
  C     -7.342680   -6.398000    6.354320
  C     -7.553050   -7.788000    6.388900
  S     -7.195220   -8.701910    4.939120
  C     -7.713110  -10.217350    5.626610
  C     -8.127590  -10.000510    6.929840
  C     -8.048070   -8.646300    7.371460
  C     -8.519340   -8.637500    8.711690
  C     -8.852150   -9.924700    9.017290
  N     -8.621260  -10.753090    7.949330
  C     -7.655430  -11.395810    4.850310
  S     -8.072970  -12.994740    5.430980
  C     -7.698880  -13.771510    3.941150
  C     -7.266500  -12.852500    3.018130
  C     -7.255150  -11.521840    3.539620
  O     -6.825790  -10.638810    2.614990
  C     -6.542870  -11.390460    1.516990
  N     -6.007260  -10.709470    0.398700
  O     -5.786220  -11.372370   -0.594660
  O     -5.798280   -9.519150    0.515260
  C     -6.788820  -12.725760    1.682360
  H     -5.490750   -5.306620    2.062230
  H     -0.580220   -5.514570    3.034740
  H     -5.470530   -8.046230    2.686350
  H     -1.587510   -0.573400    0.957870
  H     -4.875010    2.764330   -1.023280
  H     -6.999340    2.861920    0.226440
  H     -6.575070    2.978640    1.930670
  H     -7.414920    1.539250    1.326260
  H     -4.590330   -0.821760    3.102510
  H     -6.617510    1.426220    3.434130
  H     -7.006080    0.361740    5.569440
  H     -6.050040   -2.171330    4.122350
  H     -8.794370   -0.712330    9.957730
  H     -8.080270   -5.818330    8.275290
  H     -6.923710   -6.009060    5.435000
  H     -8.601140   -7.794390    9.365710
  H     -9.244940  -10.318410    9.934660
  H     -8.781080  -11.745530    7.927920
  H     -7.815860  -14.830710    3.851180
  H     -6.635060  -13.491160    0.950510

 Total Charge           Charge          ....    0
 Multiplicity           Mult            ....    1
 Number of Electrons    NEL             ....  474
 Basis Dimension        Dim             ....  988

ORBITAL ENERGIES
----------------

  NO   OCC          E(Eh)            E(eV)
   0   2.0000    -482.882522    -13139.9014
   1   2.0000     -88.991775     -2421.5893
   2   2.0000     -88.968738     -2420.9624
   3   2.0000     -88.966373     -2420.8981
   4   2.0000     -88.962365     -2420.7890
   5   2.0000     -62.559817     -1702.3392
   6   2.0000     -56.393732     -1534.5515
   7   2.0000     -56.391091     -1534.4796
   8   2.0000     -56.391078     -1534.4792
   9   2.0000     -19.319465      -525.7094
  10   2.0000     -19.300364      -525.1896
  11   2.0000     -19.255471      -523.9680
  12   2.0000     -19.253871      -523.9245
  13   2.0000     -19.212957      -522.8111
  14   2.0000     -19.203642      -522.5577
  15   2.0000     -19.200537      -522.4732
  16   2.0000     -14.666466      -399.0948
  17   2.0000     -14.472537      -393.8178
  18   2.0000     -14.445653      -393.0862
  19   2.0000     -14.410100      -392.1187
  20   2.0000     -14.409445      -392.1009
  21   2.0000     -10.398694      -282.9628
  22   2.0000     -10.391588      -282.7695
  23   2.0000     -10.389838      -282.7219
  24   2.0000     -10.364034      -282.0197
  25   2.0000     -10.354977      -281.7732
  26   2.0000     -10.352009      -281.6925
  27   2.0000     -10.351740      -281.6852
  28   2.0000     -10.350754      -281.6583
  29   2.0000     -10.336735      -281.2769
  30   2.0000     -10.335570      -281.2452
  31   2.0000     -10.335399      -281.2405
  32   2.0000     -10.323700      -280.9222
  33   2.0000     -10.323571      -280.9186
  34   2.0000     -10.321204      -280.8542
  35   2.0000     -10.320660      -280.8394
  36   2.0000     -10.319819      -280.8165
  37   2.0000     -10.319804      -280.8161
  38   2.0000     -10.319235      -280.8006
  39   2.0000     -10.313143      -280.6349
  40   2.0000     -10.312514      -280.6178
  41   2.0000     -10.310875      -280.5732
  42   2.0000     -10.310303      -280.5576
  43   2.0000     -10.308387      -280.5055
  44   2.0000     -10.302507      -280.3455
  45   2.0000     -10.302249      -280.3384
  46   2.0000     -10.301296      -280.3125
  47   2.0000     -10.299765      -280.2709
  48   2.0000     -10.297124      -280.1990
  49   2.0000     -10.295914      -280.1661
  50   2.0000     -10.294988      -280.1409
  51   2.0000     -10.293858      -280.1101
  52   2.0000     -10.288605      -279.9672
  53   2.0000     -10.287881      -279.9475
  54   2.0000     -10.286866      -279.9198
  55   2.0000     -10.284310      -279.8503
  56   2.0000     -10.283621      -279.8315
  57   2.0000     -10.282248      -279.7942
  58   2.0000     -10.280409      -279.7441
  59   2.0000     -10.279637      -279.7232
  60   2.0000     -10.278998      -279.7057
  61   2.0000     -10.278752      -279.6990
  62   2.0000     -10.278529      -279.6930
  63   2.0000     -10.273045      -279.5438
  64   2.0000     -10.270550      -279.4759
  65   2.0000      -8.789139      -239.1646
  66   2.0000      -8.086422      -220.0427
  67   2.0000      -8.064808      -219.4546
  68   2.0000      -8.060777      -219.3449
  69   2.0000      -8.058600      -219.2856
  70   2.0000      -6.625238      -180.2819
  71   2.0000      -6.611077      -179.8965
  72   2.0000      -6.610704      -179.8864
  73   2.0000      -6.055904      -164.7895
  74   2.0000      -6.051531      -164.6705
  75   2.0000      -6.048640      -164.5919
  76   2.0000      -6.034483      -164.2066
  77   2.0000      -6.030362      -164.0945
  78   2.0000      -6.030247      -164.0914
  79   2.0000      -6.027834      -164.0257
  80   2.0000      -6.026023      -163.9764
  81   2.0000      -6.025935      -163.9740
  82   2.0000      -6.023565      -163.9095
  83   2.0000      -6.022741      -163.8871
  84   2.0000      -6.020838      -163.8353
  85   2.0000      -2.741208       -74.5921
  86   2.0000      -2.737220       -74.4835
  87   2.0000      -2.736947       -74.4761
  88   2.0000      -2.725685       -74.1697
  89   2.0000      -2.725676       -74.1694
  90   2.0000      -1.338245       -36.4155
  91   2.0000      -1.240641       -33.7596
  92   2.0000      -1.215959       -33.0879
  93   2.0000      -1.154691       -31.4207
  94   2.0000      -1.145992       -31.1840
  95   2.0000      -1.127156       -30.6715
  96   2.0000      -1.125239       -30.6193
  97   2.0000      -1.092542       -29.7296
  98   2.0000      -1.033193       -28.1146
  99   2.0000      -1.017481       -27.6871
 100   2.0000      -1.011790       -27.5322
 101   2.0000      -1.007727       -27.4217
 102   2.0000      -0.995537       -27.0899
 103   2.0000      -0.988394       -26.8956
 104   2.0000      -0.983742       -26.7690
 105   2.0000      -0.980707       -26.6864
 106   2.0000      -0.946031       -25.7428
 107   2.0000      -0.938281       -25.5319
 108   2.0000      -0.928741       -25.2723
 109   2.0000      -0.916346       -24.9350
 110   2.0000      -0.909517       -24.7492
 111   2.0000      -0.903967       -24.5982
 112   2.0000      -0.902931       -24.5700
 113   2.0000      -0.901357       -24.5272
 114   2.0000      -0.889646       -24.2085
 115   2.0000      -0.879795       -23.9404
 116   2.0000      -0.878028       -23.8923
 117   2.0000      -0.869955       -23.6727
 118   2.0000      -0.857984       -23.3469
 119   2.0000      -0.846257       -23.0278
 120   2.0000      -0.835601       -22.7378
 121   2.0000      -0.826005       -22.4767
 122   2.0000      -0.822310       -22.3762
 123   2.0000      -0.804782       -21.8992
 124   2.0000      -0.799077       -21.7440
 125   2.0000      -0.786470       -21.4009
 126   2.0000      -0.775745       -21.1091
 127   2.0000      -0.757278       -20.6066
 128   2.0000      -0.757084       -20.6013
 129   2.0000      -0.755746       -20.5649
 130   2.0000      -0.746377       -20.3100
 131   2.0000      -0.734609       -19.9897
 132   2.0000      -0.720028       -19.5929
 133   2.0000      -0.712012       -19.3748
 134   2.0000      -0.705773       -19.2051
 135   2.0000      -0.701137       -19.0789
 136   2.0000      -0.695578       -18.9276
 137   2.0000      -0.689153       -18.7528
 138   2.0000      -0.686734       -18.6870
 139   2.0000      -0.685832       -18.6624
 140   2.0000      -0.675019       -18.3682
 141   2.0000      -0.657271       -17.8853
 142   2.0000      -0.654739       -17.8164
 143   2.0000      -0.652208       -17.7475
 144   2.0000      -0.651271       -17.7220
 145   2.0000      -0.646631       -17.5957
 146   2.0000      -0.634135       -17.2557
 147   2.0000      -0.628901       -17.1133
 148   2.0000      -0.621283       -16.9060
 149   2.0000      -0.617566       -16.8048
 150   2.0000      -0.616674       -16.7805
 151   2.0000      -0.607147       -16.5213
 152   2.0000      -0.597856       -16.2685
 153   2.0000      -0.592223       -16.1152
 154   2.0000      -0.589936       -16.0530
 155   2.0000      -0.587334       -15.9822
 156   2.0000      -0.582053       -15.8385
 157   2.0000      -0.580076       -15.7847
 158   2.0000      -0.575078       -15.6487
 159   2.0000      -0.574448       -15.6315
 160   2.0000      -0.572286       -15.5727
 161   2.0000      -0.562052       -15.2942
 162   2.0000      -0.551958       -15.0195
 163   2.0000      -0.547393       -14.8953
 164   2.0000      -0.544989       -14.8299
 165   2.0000      -0.541435       -14.7332
 166   2.0000      -0.538737       -14.6598
 167   2.0000      -0.537123       -14.6159
 168   2.0000      -0.536462       -14.5979
 169   2.0000      -0.533901       -14.5282
 170   2.0000      -0.530964       -14.4483
 171   2.0000      -0.530143       -14.4259
 172   2.0000      -0.525775       -14.3071
 173   2.0000      -0.524366       -14.2687
 174   2.0000      -0.521539       -14.1918
 175   2.0000      -0.516832       -14.0637
 176   2.0000      -0.516776       -14.0622
 177   2.0000      -0.509341       -13.8599
 178   2.0000      -0.508590       -13.8394
 179   2.0000      -0.506810       -13.7910
 180   2.0000      -0.503098       -13.6900
 181   2.0000      -0.497892       -13.5483
 182   2.0000      -0.493608       -13.4318
 183   2.0000      -0.490826       -13.3561
 184   2.0000      -0.488791       -13.3007
 185   2.0000      -0.487640       -13.2694
 186   2.0000      -0.484449       -13.1825
 187   2.0000      -0.481955       -13.1147
 188   2.0000      -0.477662       -12.9978
 189   2.0000      -0.473909       -12.8957
 190   2.0000      -0.473023       -12.8716
 191   2.0000      -0.469913       -12.7870
 192   2.0000      -0.465444       -12.6654
 193   2.0000      -0.460290       -12.5251
 194   2.0000      -0.456549       -12.4233
 195   2.0000      -0.454448       -12.3661
 196   2.0000      -0.452157       -12.3038
 197   2.0000      -0.448985       -12.2175
 198   2.0000      -0.447077       -12.1656
 199   2.0000      -0.444059       -12.0835
 200   2.0000      -0.443142       -12.0585
 201   2.0000      -0.440335       -11.9821
 202   2.0000      -0.438322       -11.9273
 203   2.0000      -0.433473       -11.7954
 204   2.0000      -0.428147       -11.6505
 205   2.0000      -0.426471       -11.6049
 206   2.0000      -0.421892       -11.4803
 207   2.0000      -0.421306       -11.4643
 208   2.0000      -0.418522       -11.3886
 209   2.0000      -0.416429       -11.3316
 210   2.0000      -0.414185       -11.2705
 211   2.0000      -0.409595       -11.1456
 212   2.0000      -0.402662       -10.9570
 213   2.0000      -0.401132       -10.9154
 214   2.0000      -0.394512       -10.7352
 215   2.0000      -0.390280       -10.6200
 216   2.0000      -0.384172       -10.4539
 217   2.0000      -0.381631       -10.3847
 218   2.0000      -0.376429       -10.2432
 219   2.0000      -0.371444       -10.1075
 220   2.0000      -0.369896       -10.0654
 221   2.0000      -0.368516       -10.0278
 222   2.0000      -0.360092        -9.7986
 223   2.0000      -0.355415        -9.6713
 224   2.0000      -0.347215        -9.4482
 225   2.0000      -0.341157        -9.2834
 226   2.0000      -0.337365        -9.1802
 227   2.0000      -0.337118        -9.1734
 228   2.0000      -0.333342        -9.0707
 229   2.0000      -0.322676        -8.7805
 230   2.0000      -0.309689        -8.4271
 231   2.0000      -0.307751        -8.3743
 232   2.0000      -0.301036        -8.1916
 233   2.0000      -0.289951        -7.8900
 234   2.0000      -0.284586        -7.7440
 235   2.0000      -0.262862        -7.1528
 236   2.0000      -0.226694        -6.1687
 237   0.0000      -0.091367        -2.4862
 238   0.0000      -0.080265        -2.1841
 239   0.0000      -0.064651        -1.7592
 240   0.0000      -0.058015        -1.5787
 241   0.0000      -0.037760        -1.0275

MULLIKEN ATOMIC CHARGES
-----------------------
   0 C :    0.299275
   1 C :   -0.344576
   2 C :   -0.182641
   3 N :    0.146507
   4 C :   -0.211080
   5 N :    0.163736
   6 C :    0.018183
   7 C :   -0.020200
   8 C :   -0.072707
   9 C :    0.115060
  10 C :   -0.093101
  11 C :   -0.022019
  12 S :    0.182470
  13 C :   -0.129062
  14 C :    0.053584
  15 Br:    0.009644
  16 C :    0.134005
  17 O :   -0.148971
  18 C :   -0.092216
  19 C :   -0.002956
  20 C :   -0.165183
  21 S :    0.145513
  22 C :   -0.094017
  23 C :   -0.120722
  24 C :    0.114412
  25 C :    0.190128
  26 C :    0.026222
  27 C :   -0.008741
  28 C :    0.009760
  29 C :   -0.001170
  30 C :    0.130428
  31 O :   -0.214849
  32 C :   -0.077936
  33 C :    0.177631
  34 O :   -0.160427
  35 N :   -0.163778
  36 C :    0.154709
  37 O :   -0.151159
  38 C :   -0.025562
  39 C :    0.079793
  40 C :   -0.039660
  41 C :    0.073165
  42 C :   -0.128822
  43 S :    0.145928
  44 C :   -0.160944
  45 C :    0.065684
  46 C :    0.105805
  47 C :   -0.075534
  48 C :    0.093901
  49 N :   -0.053580
  50 C :   -0.169496
  51 S :    0.129779
  52 C :   -0.148881
  53 C :    0.143199
  54 C :    0.164385
  55 O :   -0.195371
  56 C :    0.247270
  57 N :    0.273704
  58 O :   -0.238792
  59 O :   -0.226470
  60 C :   -0.071644
  61 H :   -0.009484
  62 H :   -0.007034
  63 H :    0.006769
  64 H :    0.038264
  65 H :    0.024069
  66 H :    0.008636
  67 H :    0.045315
  68 H :    0.039821
  69 H :   -0.019168
  70 H :   -0.015280
  71 H :    0.014888
  72 H :   -0.009310
  73 H :    0.134637
  74 H :   -0.004682
  75 H :   -0.008790
  76 H :   -0.003198
  77 H :    0.006920
  78 H :    0.125617
  79 H :    0.034517
  80 H :    0.015879
Sum of atomic charges:   -0.0000000

LOEWDIN ATOMIC CHARGES
----------------------
   0 C :    0.075195
   1 C :   -0.142328
   2 C :   -0.017752
   3 N :   -0.055322
   4 C :   -0.027413
   5 N :   -0.051203
   6 C :   -0.022671
   7 C :   -0.052158
   8 C :    0.021030
   9 C :   -0.031021
  10 C :   -0.143590
  11 C :   -0.010257
  12 S :    0.429430
  13 C :   -0.273502
  14 C :   -0.063390
  15 Br:    0.137072
  16 C :    0.075099
  17 O :   -0.143012
  18 C :   -0.103717
  19 C :    0.049753
  20 C :   -0.175458
  21 S :    0.458523
  22 C :   -0.168580
  23 C :   -0.051656
  24 C :   -0.043988
  25 C :   -0.015728
  26 C :    0.004351
  27 C :   -0.018418
  28 C :    0.008080
  29 C :   -0.038793
  30 C :    0.069847
  31 O :    0.009999
  32 C :   -0.103773
  33 C :    0.086365
  34 O :   -0.168286
  35 N :   -0.006424
  36 C :    0.083486
  37 O :   -0.169204
  38 C :   -0.104939
  39 C :    0.071809
  40 C :   -0.051996
  41 C :   -0.016980
  42 C :   -0.179301
  43 S :    0.470279
  44 C :   -0.222503
  45 C :   -0.016906
  46 C :   -0.053748
  47 C :   -0.083408
  48 C :    0.035606
  49 N :    0.057216
  50 C :   -0.209680
  51 S :    0.456207
  52 C :   -0.193018
  53 C :   -0.077426
  54 C :    0.000078
  55 O :   -0.003980
  56 C :    0.025258
  57 N :    0.275062
  58 O :   -0.199724
  59 O :   -0.191049
  60 C :   -0.006294
  61 H :    0.040937
  62 H :    0.040764
  63 H :    0.029246
  64 H :    0.046025
  65 H :    0.026338
  66 H :    0.034131
  67 H :    0.037722
  68 H :    0.038899
  69 H :    0.030176
  70 H :    0.030625
  71 H :    0.035196
  72 H :    0.036250
  73 H :    0.092772
  74 H :    0.041607
  75 H :    0.031147
  76 H :    0.030450
  77 H :    0.026831
  78 H :    0.081327
  79 H :    0.029784
  80 H :    0.048625

  Mayer bond orders larger than 0.100000
B(  0-C ,  1-C ) :   1.6357 B(  0-C ,  6-C ) :   1.0114 B(  0-C , 18-C ) :   1.0657
B(  1-C ,  2-C ) :   1.1406 B(  1-C ,  4-C ) :   1.1389 B(  2-C ,  3-N ) :   2.9690
B(  4-C ,  5-N ) :   2.9981 B(  6-C ,  7-C ) :   1.2666 B(  6-C , 11-C ) :   1.4076
B(  7-C ,  8-C ) :   1.4231 B(  7-C , 16-C ) :   0.9349 B(  8-C ,  9-C ) :   1.2466
B(  8-C , 61-H ) :   1.0158 B(  9-C , 10-C ) :   1.3018 B(  9-C , 14-C ) :   1.1635
B( 10-C , 11-C ) :   1.3280 B( 10-C , 12-S ) :   1.0891 B( 11-C , 62-H ) :   0.9791
B( 12-S , 13-C ) :   1.0781 B( 13-C , 14-C ) :   1.6284 B( 13-C , 15-Br) :   1.0183
B( 14-C , 63-H ) :   0.9860 B( 16-C , 17-O ) :   2.2050 B( 16-C , 18-C ) :   0.9456
B( 18-C , 19-C ) :   1.6017 B( 19-C , 20-C ) :   1.1820 B( 19-C , 64-H ) :   0.9288
B( 20-C , 21-S ) :   1.1249 B( 20-C , 25-C ) :   1.3795 B( 21-S , 22-C ) :   1.1682
B( 22-C , 23-C ) :   1.5741 B( 22-C , 65-H ) :   0.9660 B( 23-C , 24-C ) :   1.0922
B( 23-C , 25-C ) :   1.2320 B( 24-C , 66-H ) :   0.9441 B( 24-C , 67-H ) :   0.9371
B( 24-C , 68-H ) :   0.9468 B( 25-C , 26-C ) :   1.1524 B( 26-C , 27-C ) :   1.6858
B( 26-C , 69-H ) :   0.9502 B( 27-C , 28-C ) :   1.1136 B( 27-C , 70-H ) :   0.9662
B( 28-C , 29-C ) :   1.6689 B( 28-C , 71-H ) :   0.9536 B( 29-C , 30-C ) :   1.1663
B( 29-C , 72-H ) :   0.9518 B( 30-C , 31-O ) :   1.1359 B( 30-C , 32-C ) :   1.4134
B( 31-O , 39-C ) :   1.1423 B( 32-C , 33-C ) :   0.8897 B( 32-C , 38-C ) :   1.2677
B( 33-C , 34-O ) :   2.1831 B( 33-C , 35-N ) :   1.0975 B( 35-N , 36-C ) :   1.0710
B( 35-N , 73-H ) :   0.9156 B( 36-C , 37-O ) :   2.2623 B( 36-C , 38-C ) :   0.8897
B( 38-C , 39-C ) :   1.3770 B( 39-C , 40-C ) :   1.2127 B( 40-C , 41-C ) :   1.5976
B( 40-C , 74-H ) :   0.9610 B( 41-C , 42-C ) :   1.1607 B( 41-C , 75-H ) :   0.9599
B( 42-C , 43-S ) :   1.1026 B( 42-C , 44-C ) :   0.1091 B( 42-C , 46-C ) :   1.3489
B( 43-S , 44-C ) :   1.1205 B( 44-C , 45-C ) :   1.4026 B( 44-C , 50-C ) :   1.2081
B( 45-C , 46-C ) :   1.2477 B( 45-C , 49-N ) :   1.1993 B( 46-C , 47-C ) :   1.1867
B( 47-C , 48-C ) :   1.5769 B( 47-C , 76-H ) :   1.0099 B( 48-C , 49-N ) :   1.1599
B( 48-C , 77-H ) :   0.9854 B( 49-N , 78-H ) :   0.9361 B( 50-C , 51-S ) :   1.1181
B( 50-C , 52-C ) :   0.1136 B( 50-C , 54-C ) :   1.4781 B( 51-S , 52-C ) :   1.1661
B( 52-C , 53-C ) :   1.4404 B( 52-C , 79-H ) :   0.9752 B( 53-C , 54-C ) :   1.2161
B( 53-C , 60-C ) :   1.0538 B( 54-C , 55-O ) :   1.0943 B( 55-O , 56-C ) :   1.1056
B( 56-C , 57-N ) :   0.9128 B( 56-C , 60-C ) :   1.5902 B( 57-N , 58-O ) :   1.5402
B( 57-N , 59-O ) :   1.5141 B( 58-O , 59-O ) :   0.2787 B( 60-C , 80-H ) :   1.0269

-----------------------------------------------------------------------------
         ABSORPTION SPECTRUM VIA TRANSITION ELECTRIC DIPOLE MOMENTS
-----------------------------------------------------------------------------
State   Energy  Wavelength   fosc         T2         TX        TY        TZ
        (cm-1)    (nm)                  (au**2)     (au)      (au)      (au)
-----------------------------------------------------------------------------
   0   15497.7    645.3   0.333749747   7.08972  -1.57620  -1.99335   0.79491
   1   17640.9    566.9   0.405197467   7.56173  -0.56815   2.38520   1.24490
   2   20733.3    482.3   0.367746902   5.83923   0.20646   2.40021   0.18864
   3   21994.2    454.7   0.747671592  11.19123   1.27510  -2.92505  -1.00470
   4   22275.6    448.9   0.076860609   1.13592   0.61954  -0.06752   0.86460
   5   25270.0    395.7   0.104596785   1.36267   0.59856  -0.63767   0.77315
   6   26063.7    383.7   0.042994629   0.54307   0.27256  -0.57894  -0.36552
   7   26854.8    372.4   0.386075790   4.73288  -0.59658  -1.93324   0.79971
   8   27015.6    370.2   0.263537756   3.21147   0.23653   0.27404  -1.75511
   9   27774.3    360.0   0.040679557   0.48218   0.23569   0.18962   0.62504
  10   29008.0    344.7   0.001207397   0.01370  -0.00567  -0.09211   0.07202
  11   29110.9    343.5   0.105073206   1.18826  -0.50969   0.96186  -0.05752
  12   29334.3    340.9   0.025174650   0.28253  -0.28888   0.42979  -0.11983
  13   30430.0    328.6   0.141632800   1.53228  -0.12662  -0.91780   0.82090
  14   30933.5    323.3   0.025709024   0.27361  -0.37615  -0.24880   0.26499
  15   31308.7    319.4   0.149629643   1.57336   0.49548   1.07590  -0.41268
  16   31976.9    312.7   0.207022268   2.13136  -0.63709  -1.24891  -0.40707
  17   32085.0    311.7   0.369493624   3.79124   1.26462   1.41538  -0.43439
  18   32491.9    307.8   0.044380218   0.44967   0.19073  -0.14566  -0.62616
  19   32966.2    303.3   0.684766620   6.83832   0.67174   1.75257  -1.82088
  20   33609.9    297.5   0.081069544   0.79408   0.42808   0.50952  -0.59264
  21   33733.0    296.4   0.015650986   0.15274  -0.18684  -0.32004  -0.12412
  22   33935.4    294.7   0.001698922   0.01648   0.06704  -0.02708  -0.10608
  23   34199.5    292.4   0.003783994   0.03643   0.11455  -0.05366  -0.14292
  24   34299.8    291.5   0.033752408   0.32396  -0.36728  -0.42890   0.07146
  25   34746.6    287.8   0.071091653   0.67357  -0.03944   0.41659   0.70602
  26   35240.8    283.8   0.118632497   1.10824  -0.44522  -0.48676   0.82042
  27   35407.3    282.4   0.042572702   0.39583  -0.62078  -0.10189   0.00914
  28   36125.4    276.8   0.138370588   1.26097  -0.48897  -0.01397   1.01079
  29   36198.9    276.3   0.119858962   1.09006  -0.75575   0.64212  -0.32646
  30   36416.9    274.6   0.005239870   0.04737  -0.19791   0.03439  -0.08376
  31   37077.4    269.7   0.189183066   1.67977  -0.86765  -0.59772   0.75478
  32   37233.6    268.6   0.055326465   0.48918  -0.10369  -0.38496  -0.57466
  33   38108.5    262.4   0.041879246   0.36179   0.04217   0.12530   0.58678
  34   38292.6    261.1   0.106887505   0.91894  -0.08158  -0.21132   0.93146
  35   38338.9    260.8   0.032172551   0.27626  -0.03571  -0.13092   0.50779
  36   38378.1    260.6   0.103342042   0.88648  -0.38295  -0.43079   0.74448
  37   38751.0    258.1   0.026525303   0.22535  -0.07273   0.05239  -0.46617
  38   38961.1    256.7   0.022005977   0.18595  -0.29763  -0.30216   0.07786
  39   39503.5    253.1   0.050998309   0.42501   0.48189  -0.38475  -0.21154
  40   39645.5    252.2   0.016759222   0.13917   0.22010  -0.25022  -0.16766
  41   39944.5    250.3   0.091248073   0.75204   0.40923  -0.69582   0.31688
  42   39975.3    250.2   0.123322098   1.01561   0.67169  -0.74390  -0.10513

FINAL SINGLE POINT ENERGY     -6652.035778146959

DIPOLE MOMENT
-------------
                                X             Y             Z
Electronic contribution:     30.84138     -79.99620      -5.92025
Nuclear contribution   :    -33.99616      76.93482       6.24954
                        -----------------------------------------
Total Dipole Moment    :     -3.15478      -3.06138       0.32929
                        -----------------------------------------
Magnitude (a.u.)       :      4.40830
Magnitude (Debye)      :     11.20501

Rotational constants in cm-1:     0.001378     0.000707     0.000541
Rotational constants in MHz :    41.318454    21.185116    16.227501

                             ****ORCA TERMINATED NORMALLY****
TOTAL RUN TIME: 0 days 0 hours 7 minutes 58 seconds 435 msec
