                         Program Version 4.2.0 -  RELEASE  -
|  1> # ORCA input file
|  2> # SCF done       -201.244992218840          0.000532675747
|  3> ! CAM-B3LYP def2-SVP def2/J RIJCOSX Grid4 TightSCF
|  4> %maxcore 5000
|  5> %tddft
|  6>     Mode sTDDFT
|  7>     Ethresh 5.0
|  8>     maxcore 5000
|  9> end
| 10>
| 11> %pal
| 12>   nprocs 6
| 13>   end
| 14> * xyz 0 1
| 15>    C       -9.04291         6.04910        -9.32684
| 16>    C       -9.01233         4.94341       -10.14188
| 17>    C       -8.60160         4.96473       -11.48992
| 18>    N       -8.28036         4.91157       -12.59152
| 19>    C       -9.38625         3.63550        -9.77302
| 20>    N       -9.67105         2.54233        -9.56225
| 21>    C       -8.66427         7.39973        -9.73704
| 22>    C       -8.85349         8.27539        -8.64153
| 23>    C       -8.58580         9.62014        -8.71151
| 24>    C       -8.10517        10.12856        -9.92290
| 25>    C       -7.91704         9.24644       -11.01181
| 26>    C       -8.18933         7.88538       -10.94073
| 27>    S       -7.31415        10.08056       -12.41302
| 28>    C       -7.32372        11.58196       -11.52690
| 29>    C       -7.75522        11.46787       -10.24884
| 30>   Br       -6.76299        13.16050       -12.37237
| 31>    C       -9.35786         7.50768        -7.48288
| 32>    O       -9.62587         7.96926        -6.38980
| 33>    C       -9.45394         6.10735        -7.94218
| 34>    C       -9.85329         5.04934        -7.15899
| 35>    C      -10.24092         5.15292        -5.81623
| 36>    C      -10.60771         4.06602        -5.07090
| 37>    C      -10.99040         4.15947        -3.72328
| 38>    O      -11.02965         5.36435        -3.09116
| 39>    C      -11.41811         5.17020        -1.81088
| 40>    C      -11.63724         3.81089        -1.60046
| 41>    C      -11.36782         3.16147        -2.81746
| 42>    O      -11.44904         1.84602        -3.07755
| 43>    O      -12.03614         3.15914        -0.47210
| 44>    C      -11.54459         6.27886        -0.93221
| 45>    C      -11.31601         7.55342        -1.33553
| 46>    C      -11.42821         8.69904        -0.50840
| 47>    C      -11.21683         9.94784        -0.97997
| 48>    N      -11.35177        11.07458        -0.22756
| 49>    C      -11.05447        12.36194        -0.63583
| 50>    C      -10.31403        12.70965        -1.72941
| 51>    S      -10.15944        14.41082        -1.89888
| 52>    C      -11.09510        14.68356        -0.48952
| 53>    C      -11.51702        13.51810         0.08450
| 54>    N      -12.31170        13.39985         1.21252
| 55>    C      -12.66152        14.39056         2.06077
| 56>    C      -13.51976        14.20661         3.09356
| 57>    C      -13.90886        15.22383         3.99392
| 58>    S      -13.33369        16.85603         3.89569
| 59>    C      -14.30603        17.35290         5.25736
| 60>    C      -15.02915        16.26886         5.75559
| 61>    C      -14.80558        15.08258         5.05355
| 62>    S      -15.53043        13.51269         5.38121
| 63>    C      -16.65097        13.66108         6.73373
| 64>    O      -17.23280        12.66480         7.06523
| 65>    C      -16.90189        14.95075         7.48784
| 66>    O      -17.68481        14.95452         8.39606
| 67>    S      -16.09244        16.48424         7.13574
| 68>    C      -14.35075        18.68413         5.70634
| 69>    C      -13.63339        19.70437         5.15634
| 70>    C      -13.76579        21.03452         5.59125
| 71>    C      -13.20759        22.16345         5.05927
| 72>    C      -12.47264        22.41471         3.84126
| 73>    C      -12.55478        21.72490         2.65696
| 74>    C      -11.81885        22.05756         1.50083
| 75>    N      -11.23010        22.25947         0.53585
| 76>    C      -13.44144        20.66304         2.38587
| 77>    N      -14.15730        19.82414         2.06482
| 78>    C      -11.76934        23.68498         4.01501
| 79>    C      -12.22480        24.29998         5.20834
| 80>    C      -13.18939        23.40429         5.87634
| 81>    O      -13.80701        23.60849         6.89706
| 82>    C      -11.78019        25.53128         5.62317
| 83>    C      -10.83280        26.18511         4.82812
| 84>    C      -10.37317        25.55746         3.64605
| 85>    C      -10.82802        24.31432         3.22280
| 86>    S       -9.19735        26.53466         2.81998
| 87>    C       -9.34114        27.75815         4.05421
| 88>    C      -10.22160        27.45180         5.03640
| 89>   Br       -8.31331        29.32203         3.93061
| 90>    H       -8.74111        10.26124        -7.85788
| 91>    H       -8.02790         7.25682       -11.80014
| 92>    H       -7.82473        12.29237        -9.56295
| 93>    H       -9.86832         4.05860        -7.59431
| 94>    H      -10.24440         6.12777        -5.35302
| 95>    H      -10.61286         3.07244        -5.49673
| 96>    H      -11.73321         1.39038        -2.27369
| 97>    H      -12.16872         3.79379         0.23933
| 98>    H      -11.83853         6.06892         0.08757
| 99>    H      -11.03039         7.71470        -2.36520
|100>    H      -11.69611         8.55264         0.53046
|101>    H      -10.95727        10.10801        -2.01454
|102>    H      -11.58768        10.93800         0.74561
|103>    H       -9.83727        12.06735        -2.44012
|104>    H      -11.29774        15.68849        -0.18213
|105>    H      -12.76280        12.50586         1.35750
|106>    H      -12.20578        15.35370         1.88943
|107>    H      -13.96736        13.23543         3.25777
|108>    H      -15.04039        18.89079         6.51509
|109>    H      -12.93912        19.47323         4.36143
|110>    H      -14.33509        21.19954         6.50080
|111>    H      -12.15201        25.97715         6.53226
|112>    H      -10.44253        23.87608         2.31735
|113>    H      -10.43274        28.09101         5.87412
|114> *
|115>
|116>                          ****END OF INPUT****

CARTESIAN COORDINATES (ANGSTROEM)
---------------------------------
  C     -9.042910    6.049100   -9.326840
  C     -9.012330    4.943410  -10.141880
  C     -8.601600    4.964730  -11.489920
  N     -8.280360    4.911570  -12.591520
  C     -9.386250    3.635500   -9.773020
  N     -9.671050    2.542330   -9.562250
  C     -8.664270    7.399730   -9.737040
  C     -8.853490    8.275390   -8.641530
  C     -8.585800    9.620140   -8.711510
  C     -8.105170   10.128560   -9.922900
  C     -7.917040    9.246440  -11.011810
  C     -8.189330    7.885380  -10.940730
  S     -7.314150   10.080560  -12.413020
  C     -7.323720   11.581960  -11.526900
  C     -7.755220   11.467870  -10.248840
  Br    -6.762990   13.160500  -12.372370
  C     -9.357860    7.507680   -7.482880
  O     -9.625870    7.969260   -6.389800
  C     -9.453940    6.107350   -7.942180
  C     -9.853290    5.049340   -7.158990
  C    -10.240920    5.152920   -5.816230
  C    -10.607710    4.066020   -5.070900
  C    -10.990400    4.159470   -3.723280
  O    -11.029650    5.364350   -3.091160
  C    -11.418110    5.170200   -1.810880
  C    -11.637240    3.810890   -1.600460
  C    -11.367820    3.161470   -2.817460
  O    -11.449040    1.846020   -3.077550
  O    -12.036140    3.159140   -0.472100
  C    -11.544590    6.278860   -0.932210
  C    -11.316010    7.553420   -1.335530
  C    -11.428210    8.699040   -0.508400
  C    -11.216830    9.947840   -0.979970
  N    -11.351770   11.074580   -0.227560
  C    -11.054470   12.361940   -0.635830
  C    -10.314030   12.709650   -1.729410
  S    -10.159440   14.410820   -1.898880
  C    -11.095100   14.683560   -0.489520
  C    -11.517020   13.518100    0.084500
  N    -12.311700   13.399850    1.212520
  C    -12.661520   14.390560    2.060770
  C    -13.519760   14.206610    3.093560
  C    -13.908860   15.223830    3.993920
  S    -13.333690   16.856030    3.895690
  C    -14.306030   17.352900    5.257360
  C    -15.029150   16.268860    5.755590
  C    -14.805580   15.082580    5.053550
  S    -15.530430   13.512690    5.381210
  C    -16.650970   13.661080    6.733730
  O    -17.232800   12.664800    7.065230
  C    -16.901890   14.950750    7.487840
  O    -17.684810   14.954520    8.396060
  S    -16.092440   16.484240    7.135740
  C    -14.350750   18.684130    5.706340
  C    -13.633390   19.704370    5.156340
  C    -13.765790   21.034520    5.591250
  C    -13.207590   22.163450    5.059270
  C    -12.472640   22.414710    3.841260
  C    -12.554780   21.724900    2.656960
  C    -11.818850   22.057560    1.500830
  N    -11.230100   22.259470    0.535850
  C    -13.441440   20.663040    2.385870
  N    -14.157300   19.824140    2.064820
  C    -11.769340   23.684980    4.015010
  C    -12.224800   24.299980    5.208340
  C    -13.189390   23.404290    5.876340
  O    -13.807010   23.608490    6.897060
  C    -11.780190   25.531280    5.623170
  C    -10.832800   26.185110    4.828120
  C    -10.373170   25.557460    3.646050
  C    -10.828020   24.314320    3.222800
  S     -9.197350   26.534660    2.819980
  C     -9.341140   27.758150    4.054210
  C    -10.221600   27.451800    5.036400
  Br    -8.313310   29.322030    3.930610
  H     -8.741110   10.261240   -7.857880
  H     -8.027900    7.256820  -11.800140
  H     -7.824730   12.292370   -9.562950
  H     -9.868320    4.058600   -7.594310
  H    -10.244400    6.127770   -5.353020
  H    -10.612860    3.072440   -5.496730
  H    -11.733210    1.390380   -2.273690
  H    -12.168720    3.793790    0.239330
  H    -11.838530    6.068920    0.087570
  H    -11.030390    7.714700   -2.365200
  H    -11.696110    8.552640    0.530460
  H    -10.957270   10.108010   -2.014540
  H    -11.587680   10.938000    0.745610
  H     -9.837270   12.067350   -2.440120
  H    -11.297740   15.688490   -0.182130
  H    -12.762800   12.505860    1.357500
  H    -12.205780   15.353700    1.889430
  H    -13.967360   13.235430    3.257770
  H    -15.040390   18.890790    6.515090
  H    -12.939120   19.473230    4.361430
  H    -14.335090   21.199540    6.500800
  H    -12.152010   25.977150    6.532260
  H    -10.442530   23.876080    2.317350
  H    -10.432740   28.091010    5.874120

 Total Charge           Charge          ....    0
 Multiplicity           Mult            ....    1
 Number of Electrons    NEL             ....  612
 Basis Dimension        Dim             .... 1230

ORBITAL ENERGIES
----------------

  NO   OCC          E(Eh)            E(eV)
   0   2.0000    -482.886456    -13140.0085
   1   2.0000    -482.879515    -13139.8196
   2   2.0000     -88.983443     -2421.3626
   3   2.0000     -88.981778     -2421.3173
   4   2.0000     -88.979163     -2421.2461
   5   2.0000     -88.976527     -2421.1744
   6   2.0000     -88.971287     -2421.0318
   7   2.0000     -88.967138     -2420.9189
   8   2.0000     -62.564184     -1702.4580
   9   2.0000     -62.557220     -1702.2685
  10   2.0000     -56.398134     -1534.6712
  11   2.0000     -56.395418     -1534.5974
  12   2.0000     -56.395383     -1534.5964
  13   2.0000     -56.391161     -1534.4815
  14   2.0000     -56.388463     -1534.4081
  15   2.0000     -56.388428     -1534.4071
  16   2.0000     -19.294884      -525.0405
  17   2.0000     -19.275164      -524.5039
  18   2.0000     -19.273067      -524.4468
  19   2.0000     -19.250921      -523.8442
  20   2.0000     -19.248290      -523.7726
  21   2.0000     -19.213044      -522.8135
  22   2.0000     -19.202328      -522.5219
  23   2.0000     -14.489566      -394.2811
  24   2.0000     -14.479274      -394.0011
  25   2.0000     -14.417423      -392.3180
  26   2.0000     -14.416782      -392.3006
  27   2.0000     -14.402025      -391.8990
  28   2.0000     -14.400471      -391.8567
  29   2.0000     -10.415883      -283.4306
  30   2.0000     -10.414714      -283.3988
  31   2.0000     -10.363666      -282.0097
  32   2.0000     -10.359728      -281.9025
  33   2.0000     -10.357798      -281.8500
  34   2.0000     -10.355184      -281.7789
  35   2.0000     -10.352934      -281.7177
  36   2.0000     -10.351172      -281.6697
  37   2.0000     -10.349647      -281.6282
  38   2.0000     -10.346443      -281.5410
  39   2.0000     -10.345626      -281.5188
  40   2.0000     -10.345116      -281.5049
  41   2.0000     -10.344064      -281.4763
  42   2.0000     -10.344028      -281.4753
  43   2.0000     -10.343459      -281.4598
  44   2.0000     -10.342442      -281.4322
  45   2.0000     -10.341020      -281.3935
  46   2.0000     -10.334959      -281.2285
  47   2.0000     -10.333923      -281.2003
  48   2.0000     -10.329368      -281.0764
  49   2.0000     -10.326381      -280.9951
  50   2.0000     -10.326306      -280.9931
  51   2.0000     -10.324428      -280.9420
  52   2.0000     -10.320657      -280.8394
  53   2.0000     -10.320177      -280.8263
  54   2.0000     -10.319952      -280.8202
  55   2.0000     -10.315626      -280.7024
  56   2.0000     -10.315466      -280.6981
  57   2.0000     -10.309391      -280.5328
  58   2.0000     -10.308953      -280.5209
  59   2.0000     -10.308015      -280.4954
  60   2.0000     -10.306764      -280.4613
  61   2.0000     -10.306309      -280.4489
  62   2.0000     -10.305722      -280.4330
  63   2.0000     -10.304572      -280.4017
  64   2.0000     -10.301424      -280.3160
  65   2.0000     -10.300619      -280.2941
  66   2.0000     -10.300576      -280.2929
  67   2.0000     -10.298497      -280.2364
  68   2.0000     -10.297916      -280.2206
  69   2.0000     -10.297466      -280.2083
  70   2.0000     -10.296110      -280.1714
  71   2.0000     -10.295821      -280.1635
  72   2.0000     -10.295359      -280.1510
  73   2.0000     -10.294324      -280.1228
  74   2.0000     -10.293934      -280.1122
  75   2.0000     -10.292625      -280.0766
  76   2.0000     -10.291198      -280.0377
  77   2.0000     -10.290788      -280.0266
  78   2.0000     -10.289463      -279.9905
  79   2.0000     -10.283796      -279.8363
  80   2.0000     -10.280181      -279.7380
  81   2.0000     -10.276981      -279.6509
  82   2.0000     -10.266680      -279.3706
  83   2.0000      -8.793619      -239.2865
  84   2.0000      -8.786633      -239.0964
  85   2.0000      -8.078803      -219.8354
  86   2.0000      -8.078335      -219.8227
  87   2.0000      -8.075628      -219.7490
  88   2.0000      -8.072462      -219.6629
  89   2.0000      -8.067169      -219.5188
  90   2.0000      -8.063175      -219.4101
  91   2.0000      -6.629928      -180.4095
  92   2.0000      -6.622886      -180.2179
  93   2.0000      -6.615336      -180.0124
  94   2.0000      -6.615163      -180.0077
  95   2.0000      -6.608391      -179.8235
  96   2.0000      -6.608202      -179.8183
  97   2.0000      -6.048204      -164.5800
  98   2.0000      -6.048082      -164.5767
  99   2.0000      -6.045489      -164.5061
 100   2.0000      -6.044288      -164.4734
 101   2.0000      -6.043569      -164.4539
 102   2.0000      -6.042165      -164.4157
 103   2.0000      -6.040941      -164.3824
 104   2.0000      -6.040494      -164.3702
 105   2.0000      -6.039216      -164.3354
 106   2.0000      -6.037872      -164.2989
 107   2.0000      -6.036676      -164.2663
 108   2.0000      -6.036518      -164.2620
 109   2.0000      -6.033708      -164.1855
 110   2.0000      -6.032843      -164.1620
 111   2.0000      -6.032259      -164.1461
 112   2.0000      -6.029099      -164.0601
 113   2.0000      -6.028611      -164.0468
 114   2.0000      -6.024384      -163.9318
 115   2.0000      -2.745793       -74.7168
 116   2.0000      -2.741730       -74.6063
 117   2.0000      -2.741538       -74.6010
 118   2.0000      -2.738766       -74.5256
 119   2.0000      -2.734687       -74.4146
 120   2.0000      -2.734572       -74.4115
 121   2.0000      -2.729976       -74.2864
 122   2.0000      -2.729958       -74.2859
 123   2.0000      -2.723040       -74.0977
 124   2.0000      -2.723013       -74.0970
 125   2.0000      -1.218138       -33.1472
 126   2.0000      -1.188165       -32.3316
 127   2.0000      -1.172434       -31.9035
 128   2.0000      -1.156165       -31.4608
 129   2.0000      -1.155486       -31.4424
 130   2.0000      -1.128148       -30.6985
 131   2.0000      -1.115639       -30.3581
 132   2.0000      -1.099281       -29.9130
 133   2.0000      -1.071229       -29.1496
 134   2.0000      -1.030601       -28.0441
 135   2.0000      -1.023729       -27.8571
 136   2.0000      -1.014798       -27.6140
 137   2.0000      -1.011877       -27.5346
 138   2.0000      -1.000937       -27.2369
 139   2.0000      -0.995928       -27.1006
 140   2.0000      -0.990567       -26.9547
 141   2.0000      -0.990153       -26.9434
 142   2.0000      -0.980377       -26.6774
 143   2.0000      -0.976545       -26.5731
 144   2.0000      -0.949990       -25.8505
 145   2.0000      -0.945576       -25.7304
 146   2.0000      -0.940711       -25.5981
 147   2.0000      -0.935067       -25.4445
 148   2.0000      -0.930184       -25.3116
 149   2.0000      -0.915378       -24.9087
 150   2.0000      -0.913464       -24.8566
 151   2.0000      -0.909210       -24.7409
 152   2.0000      -0.900292       -24.4982
 153   2.0000      -0.898599       -24.4521
 154   2.0000      -0.897373       -24.4188
 155   2.0000      -0.887080       -24.1387
 156   2.0000      -0.886627       -24.1264
 157   2.0000      -0.884459       -24.0674
 158   2.0000      -0.875722       -23.8296
 159   2.0000      -0.869583       -23.6625
 160   2.0000      -0.855923       -23.2908
 161   2.0000      -0.848180       -23.0802
 162   2.0000      -0.843496       -22.9527
 163   2.0000      -0.833199       -22.6725
 164   2.0000      -0.829476       -22.5712
 165   2.0000      -0.826087       -22.4790
 166   2.0000      -0.819186       -22.2912
 167   2.0000      -0.805156       -21.9094
 168   2.0000      -0.797092       -21.6900
 169   2.0000      -0.779089       -21.2001
 170   2.0000      -0.768508       -20.9122
 171   2.0000      -0.763701       -20.7814
 172   2.0000      -0.759783       -20.6747
 173   2.0000      -0.751576       -20.4514
 174   2.0000      -0.746869       -20.3233
 175   2.0000      -0.742388       -20.2014
 176   2.0000      -0.725624       -19.7452
 177   2.0000      -0.717962       -19.5368
 178   2.0000      -0.711510       -19.3612
 179   2.0000      -0.705031       -19.1849
 180   2.0000      -0.701328       -19.0841
 181   2.0000      -0.700428       -19.0596
 182   2.0000      -0.691928       -18.8283
 183   2.0000      -0.687586       -18.7102
 184   2.0000      -0.680534       -18.5183
 185   2.0000      -0.675351       -18.3772
 186   2.0000      -0.672270       -18.2934
 187   2.0000      -0.669037       -18.2054
 188   2.0000      -0.664955       -18.0943
 189   2.0000      -0.661434       -17.9985
 190   2.0000      -0.654375       -17.8065
 191   2.0000      -0.651490       -17.7279
 192   2.0000      -0.645988       -17.5782
 193   2.0000      -0.643714       -17.5164
 194   2.0000      -0.637905       -17.3583
 195   2.0000      -0.633330       -17.2338
 196   2.0000      -0.624142       -16.9838
 197   2.0000      -0.619840       -16.8667
 198   2.0000      -0.614438       -16.7197
 199   2.0000      -0.613155       -16.6848
 200   2.0000      -0.608471       -16.5573
 201   2.0000      -0.603458       -16.4209
 202   2.0000      -0.597263       -16.2523
 203   2.0000      -0.594043       -16.1647
 204   2.0000      -0.585383       -15.9291
 205   2.0000      -0.583561       -15.8795
 206   2.0000      -0.579279       -15.7630
 207   2.0000      -0.577718       -15.7205
 208   2.0000      -0.571659       -15.5556
 209   2.0000      -0.568770       -15.4770
 210   2.0000      -0.563519       -15.3341
 211   2.0000      -0.560994       -15.2654
 212   2.0000      -0.556931       -15.1549
 213   2.0000      -0.554857       -15.0984
 214   2.0000      -0.552368       -15.0307
 215   2.0000      -0.545789       -14.8517
 216   2.0000      -0.545350       -14.8397
 217   2.0000      -0.541285       -14.7291
 218   2.0000      -0.538106       -14.6426
 219   2.0000      -0.536900       -14.6098
 220   2.0000      -0.535986       -14.5849
 221   2.0000      -0.531005       -14.4494
 222   2.0000      -0.528519       -14.3817
 223   2.0000      -0.527345       -14.3498
 224   2.0000      -0.526964       -14.3394
 225   2.0000      -0.525740       -14.3061
 226   2.0000      -0.521977       -14.2037
 227   2.0000      -0.516651       -14.0588
 228   2.0000      -0.515361       -14.0237
 229   2.0000      -0.512138       -13.9360
 230   2.0000      -0.511047       -13.9063
 231   2.0000      -0.508615       -13.8401
 232   2.0000      -0.507470       -13.8090
 233   2.0000      -0.503737       -13.7074
 234   2.0000      -0.499804       -13.6004
 235   2.0000      -0.498929       -13.5766
 236   2.0000      -0.498622       -13.5682
 237   2.0000      -0.497816       -13.5463
 238   2.0000      -0.495788       -13.4911
 239   2.0000      -0.495035       -13.4706
 240   2.0000      -0.493034       -13.4161
 241   2.0000      -0.492202       -13.3935
 242   2.0000      -0.489961       -13.3325
 243   2.0000      -0.488747       -13.2995
 244   2.0000      -0.486804       -13.2466
 245   2.0000      -0.482612       -13.1326
 246   2.0000      -0.480681       -13.0800
 247   2.0000      -0.480069       -13.0633
 248   2.0000      -0.479605       -13.0507
 249   2.0000      -0.471586       -12.8325
 250   2.0000      -0.464174       -12.6308
 251   2.0000      -0.462835       -12.5944
 252   2.0000      -0.462223       -12.5777
 253   2.0000      -0.459861       -12.5135
 254   2.0000      -0.458217       -12.4687
 255   2.0000      -0.455165       -12.3857
 256   2.0000      -0.452362       -12.3094
 257   2.0000      -0.450288       -12.2530
 258   2.0000      -0.448399       -12.2015
 259   2.0000      -0.447304       -12.1718
 260   2.0000      -0.445878       -12.1330
 261   2.0000      -0.445073       -12.1111
 262   2.0000      -0.444849       -12.1050
 263   2.0000      -0.439150       -11.9499
 264   2.0000      -0.438584       -11.9345
 265   2.0000      -0.436167       -11.8687
 266   2.0000      -0.435752       -11.8574
 267   2.0000      -0.432104       -11.7581
 268   2.0000      -0.431077       -11.7302
 269   2.0000      -0.428466       -11.6591
 270   2.0000      -0.428363       -11.6564
 271   2.0000      -0.426105       -11.5949
 272   2.0000      -0.424698       -11.5566
 273   2.0000      -0.419341       -11.4109
 274   2.0000      -0.414435       -11.2773
 275   2.0000      -0.412154       -11.2153
 276   2.0000      -0.410620       -11.1735
 277   2.0000      -0.410429       -11.1683
 278   2.0000      -0.409533       -11.1440
 279   2.0000      -0.398660       -10.8481
 280   2.0000      -0.394959       -10.7474
 281   2.0000      -0.394044       -10.7225
 282   2.0000      -0.392991       -10.6938
 283   2.0000      -0.386089       -10.5060
 284   2.0000      -0.378223       -10.2920
 285   2.0000      -0.375880       -10.2282
 286   2.0000      -0.370891       -10.0925
 287   2.0000      -0.369034       -10.0419
 288   2.0000      -0.362873        -9.8743
 289   2.0000      -0.360557        -9.8112
 290   2.0000      -0.351065        -9.5530
 291   2.0000      -0.347828        -9.4649
 292   2.0000      -0.339308        -9.2330
 293   2.0000      -0.329374        -8.9627
 294   2.0000      -0.324617        -8.8333
 295   2.0000      -0.322215        -8.7679
 296   2.0000      -0.316062        -8.6005
 297   2.0000      -0.313686        -8.5358
 298   2.0000      -0.312639        -8.5073
 299   2.0000      -0.305952        -8.3254
 300   2.0000      -0.299613        -8.1529
 301   2.0000      -0.294490        -8.0135
 302   2.0000      -0.285661        -7.7732
 303   2.0000      -0.276389        -7.5209
 304   2.0000      -0.252649        -6.8749
 305   2.0000      -0.233247        -6.3470
 306   0.0000      -0.103001        -2.8028
 307   0.0000      -0.086061        -2.3418
 308   0.0000      -0.067595        -1.8394
 309   0.0000      -0.062004        -1.6872
 310   0.0000      -0.051778        -1.4090

MULLIKEN ATOMIC CHARGES
-----------------------
   0 C :    0.333695
   1 C :   -0.367523
   2 C :   -0.188021
   3 N :    0.139812
   4 C :   -0.188254
   5 N :    0.136423
   6 C :    0.011496
   7 C :   -0.005181
   8 C :   -0.080649
   9 C :    0.120314
  10 C :   -0.091504
  11 C :   -0.025100
  12 S :    0.181354
  13 C :   -0.123334
  14 C :    0.035545
  15 Br:    0.015953
  16 C :    0.138135
  17 O :   -0.170681
  18 C :   -0.078413
  19 C :   -0.029114
  20 C :   -0.011854
  21 C :   -0.000141
  22 C :    0.078431
  23 O :   -0.218568
  24 C :    0.122259
  25 C :    0.067081
  26 C :    0.111709
  27 O :   -0.158152
  28 O :   -0.201005
  29 C :   -0.084631
  30 C :    0.030264
  31 C :   -0.012512
  32 C :    0.071504
  33 N :   -0.062578
  34 C :    0.135417
  35 C :   -0.208349
  36 S :    0.143395
  37 C :   -0.211616
  38 C :    0.124797
  39 N :   -0.044183
  40 C :    0.078107
  41 C :   -0.050435
  42 C :   -0.074036
  43 S :    0.148291
  44 C :   -0.105190
  45 C :    0.003548
  46 C :   -0.040988
  47 S :    0.069755
  48 C :    0.080042
  49 O :   -0.131898
  50 C :    0.078238
  51 O :   -0.123586
  52 S :    0.090740
  53 C :    0.003663
  54 C :   -0.002348
  55 C :    0.020174
  56 C :   -0.114199
  57 C :    0.296422
  58 C :   -0.344436
  59 C :   -0.183829
  60 N :    0.144994
  61 C :   -0.221314
  62 N :    0.161378
  63 C :    0.003676
  64 C :   -0.005657
  65 C :    0.137613
  66 O :   -0.146861
  67 C :   -0.068524
  68 C :    0.111196
  69 C :   -0.088069
  70 C :   -0.020855
  71 S :    0.183737
  72 C :   -0.125614
  73 C :    0.042096
  74 Br:    0.023144
  75 H :   -0.021525
  76 H :   -0.009170
  77 H :   -0.007933
  78 H :    0.005563
  79 H :    0.024762
  80 H :    0.021453
  81 H :    0.199582
  82 H :    0.192103
  83 H :   -0.036182
  84 H :    0.019324
  85 H :   -0.026505
  86 H :    0.025308
  87 H :    0.115682
  88 H :    0.025510
  89 H :    0.026711
  90 H :    0.117671
  91 H :    0.029189
  92 H :   -0.004297
  93 H :    0.020347
  94 H :    0.020351
  95 H :    0.015794
  96 H :   -0.010003
  97 H :   -0.006059
  98 H :   -0.002872
Sum of atomic charges:   -0.0000000

LOEWDIN ATOMIC CHARGES
----------------------
   0 C :    0.076023
   1 C :   -0.153710
   2 C :   -0.018478
   3 N :   -0.066071
   4 C :   -0.020113
   5 N :   -0.063855
   6 C :   -0.018913
   7 C :   -0.048594
   8 C :    0.015344
   9 C :   -0.035703
  10 C :   -0.145619
  11 C :   -0.012269
  12 S :    0.428600
  13 C :   -0.274093
  14 C :   -0.072327
  15 Br:    0.130716
  16 C :    0.083059
  17 O :   -0.163007
  18 C :   -0.115126
  19 C :    0.067734
  20 C :   -0.051291
  21 C :    0.027761
  22 C :   -0.014981
  23 O :    0.008472
  24 C :    0.020108
  25 C :   -0.035242
  26 C :    0.022811
  27 O :   -0.030212
  28 O :   -0.064843
  29 C :   -0.089625
  30 C :    0.013885
  31 C :   -0.098832
  32 C :    0.054762
  33 N :    0.023145
  34 C :   -0.030828
  35 C :   -0.226223
  36 S :    0.460447
  37 C :   -0.225890
  38 C :   -0.033685
  39 N :    0.039539
  40 C :    0.068377
  41 C :   -0.132501
  42 C :   -0.147887
  43 S :    0.465546
  44 C :   -0.204551
  45 C :   -0.191156
  46 C :   -0.241583
  47 S :    0.380783
  48 C :   -0.113238
  49 O :   -0.104710
  50 C :   -0.109012
  51 O :   -0.096582
  52 S :    0.393809
  53 C :    0.011422
  54 C :   -0.046724
  55 C :    0.066674
  56 C :   -0.102543
  57 C :    0.073069
  58 C :   -0.147792
  59 C :   -0.019628
  60 N :   -0.058036
  61 C :   -0.024941
  62 N :   -0.059916
  63 C :   -0.018465
  64 C :   -0.051642
  65 C :    0.081180
  66 O :   -0.146958
  67 C :    0.022253
  68 C :   -0.033607
  69 C :   -0.143911
  70 C :   -0.013311
  71 S :    0.430895
  72 C :   -0.272069
  73 C :   -0.069934
  74 Br:    0.136433
  75 H :    0.036518
  76 H :    0.040301
  77 H :    0.036777
  78 H :    0.040321
  79 H :    0.031406
  80 H :    0.047640
  81 H :    0.108810
  82 H :    0.099177
  83 H :    0.022248
  84 H :    0.038707
  85 H :    0.021055
  86 H :    0.037064
  87 H :    0.079299
  88 H :    0.025264
  89 H :    0.025313
  90 H :    0.083438
  91 H :    0.032037
  92 H :    0.024236
  93 H :    0.036914
  94 H :    0.025067
  95 H :    0.045304
  96 H :    0.041308
  97 H :    0.040155
  98 H :    0.039021

  Mayer bond orders larger than 0.100000
B(  0-C ,  1-C ) :   1.5992 B(  0-C ,  6-C ) :   0.9910 B(  0-C , 18-C ) :   1.0963
B(  1-C ,  2-C ) :   1.1472 B(  1-C ,  4-C ) :   1.1510 B(  2-C ,  3-N ) :   2.9633
B(  4-C ,  5-N ) :   2.9587 B(  6-C ,  7-C ) :   1.2809 B(  6-C , 11-C ) :   1.4162
B(  7-C ,  8-C ) :   1.4239 B(  7-C , 16-C ) :   0.9403 B(  8-C ,  9-C ) :   1.2424
B(  8-C , 75-H ) :   1.0162 B(  9-C , 10-C ) :   1.3145 B(  9-C , 14-C ) :   1.1595
B( 10-C , 11-C ) :   1.3231 B( 10-C , 12-S ) :   1.0830 B( 11-C , 76-H ) :   0.9793
B( 12-S , 13-C ) :   1.0869 B( 13-C , 14-C ) :   1.6191 B( 13-C , 15-Br) :   1.0142
B( 14-C , 77-H ) :   1.0006 B( 16-C , 17-O ) :   2.1834 B( 16-C , 18-C ) :   0.9682
B( 18-C , 19-C ) :   1.4571 B( 19-C , 20-C ) :   1.2163 B( 19-C , 78-H ) :   0.9620
B( 20-C , 21-C ) :   1.4466 B( 20-C , 79-H ) :   0.9919 B( 21-C , 22-C ) :   1.2207
B( 21-C , 80-H ) :   0.9811 B( 22-C , 23-O ) :   1.0930 B( 22-C , 24-C ) :   0.1044
B( 22-C , 26-C ) :   1.3214 B( 23-O , 24-C ) :   1.1472 B( 24-C , 25-C ) :   1.2910
B( 24-C , 29-C ) :   1.1422 B( 25-C , 26-C ) :   1.2549 B( 25-C , 28-O ) :   1.2295
B( 26-C , 27-O ) :   1.3014 B( 27-O , 81-H ) :   0.9494 B( 28-O , 82-H ) :   0.9577
B( 29-C , 30-C ) :   1.6395 B( 29-C , 83-H ) :   0.9640 B( 30-C , 31-C ) :   1.1536
B( 30-C , 84-H ) :   0.9910 B( 31-C , 32-C ) :   1.6260 B( 31-C , 85-H ) :   0.9732
B( 32-C , 33-N ) :   1.1609 B( 32-C , 86-H ) :   0.9705 B( 33-N , 34-C ) :   1.0941
B( 33-N , 87-H ) :   0.9212 B( 34-C , 35-C ) :   1.5212 B( 34-C , 38-C ) :   1.2492
B( 35-C , 36-S ) :   1.1562 B( 35-C , 88-H ) :   0.9772 B( 36-S , 37-C ) :   1.1626
B( 37-C , 38-C ) :   1.5151 B( 37-C , 89-H ) :   0.9791 B( 38-C , 39-N ) :   1.0897
B( 39-N , 40-C ) :   1.2153 B( 39-N , 90-H ) :   0.9171 B( 40-C , 41-C ) :   1.5919
B( 40-C , 91-H ) :   0.9720 B( 41-C , 42-C ) :   1.2162 B( 41-C , 92-H ) :   0.9510
B( 42-C , 43-S ) :   1.1465 B( 42-C , 46-C ) :   1.5073 B( 43-S , 44-C ) :   1.0861
B( 44-C , 45-C ) :   1.4955 B( 44-C , 53-C ) :   1.2026 B( 45-C , 46-C ) :   1.3317
B( 45-C , 52-S ) :   0.9802 B( 46-C , 47-S ) :   0.9540 B( 47-S , 48-C ) :   1.0599
B( 47-S , 49-O ) :   0.1425 B( 48-C , 49-O ) :   2.1549 B( 48-C , 50-C ) :   0.7737
B( 50-C , 51-O ) :   2.1661 B( 50-C , 52-S ) :   1.0439 B( 51-O , 52-S ) :   0.1358
B( 53-C , 54-C ) :   1.5830 B( 53-C , 93-H ) :   0.9734 B( 54-C , 55-C ) :   1.1742
B( 54-C , 94-H ) :   0.9617 B( 55-C , 56-C ) :   1.5699 B( 55-C , 95-H ) :   0.9553
B( 56-C , 57-C ) :   1.0522 B( 56-C , 65-C ) :   0.9470 B( 57-C , 58-C ) :   1.6190
B( 57-C , 63-C ) :   1.0133 B( 58-C , 59-C ) :   1.1309 B( 58-C , 61-C ) :   1.1620
B( 59-C , 60-N ) :   2.9799 B( 61-C , 62-N ) :   3.0095 B( 63-C , 64-C ) :   1.2760
B( 63-C , 70-C ) :   1.4130 B( 64-C , 65-C ) :   0.9230 B( 64-C , 67-C ) :   1.4280
B( 65-C , 66-O ) :   2.2581 B( 67-C , 68-C ) :   1.2481 B( 67-C , 96-H ) :   1.0169
B( 68-C , 69-C ) :   1.3107 B( 68-C , 73-C ) :   1.1625 B( 69-C , 70-C ) :   1.3257
B( 69-C , 71-S ) :   1.0838 B( 70-C , 97-H ) :   0.9816 B( 71-S , 72-C ) :   1.0871
B( 72-C , 73-C ) :   1.6194 B( 72-C , 74-Br) :   1.0182 B( 73-C , 98-H ) :   1.0000

-----------------------------------------------------------------------------
         ABSORPTION SPECTRUM VIA TRANSITION ELECTRIC DIPOLE MOMENTS
-----------------------------------------------------------------------------
State   Energy  Wavelength   fosc         T2         TX        TY        TZ
        (cm-1)    (nm)                  (au**2)     (au)      (au)      (au)
-----------------------------------------------------------------------------
   0   16316.7    612.9   1.207827194  24.36954   0.55413  -3.62049  -3.30976
   1   17015.1    587.7   0.762046715  14.74427  -1.23461  -2.23377   2.86885
   2   20569.9    486.1   0.035592286   0.56964  -0.37493  -0.55171   0.35310
   3   23832.6    419.6   0.046940797   0.64842  -0.46150   0.09410   0.65313
   4   23918.4    418.1   0.006418009   0.08834  -0.05057  -0.29087   0.03430
   5   25534.2    391.6   0.101058017   1.30294   0.70857  -0.48558  -0.75172
   6   26452.6    378.0   0.347076122   4.31948  -0.01800   1.76097   1.10369
   7   26758.1    373.7   0.212300863   2.61199  -0.31333  -0.17225   1.57612
   8   27911.1    358.3   0.517312928   6.10172  -1.47879  -1.70319   1.00699
   9   28159.4    355.1   0.216923649   2.53606  -0.44692  -1.43667   0.52182
  10   28447.4    351.5   0.001977904   0.02289   0.07422   0.09270   0.09374
  11   28679.4    348.7   0.001680761   0.01929  -0.04137  -0.12569   0.04225
  12   28764.9    347.6   0.098915626   1.13208  -0.39668  -0.72801   0.66689
  13   28863.1    346.5   0.054226034   0.61850   0.49058   0.47705  -0.38762
  14   29229.6    342.1   0.006508883   0.07331   0.19744   0.02074  -0.18411
  15   29659.0    337.2   0.005282882   0.05864   0.13552   0.19748   0.03573
  16   29745.9    336.2   0.012657191   0.14008  -0.09734   0.19456   0.30455
  17   29934.2    334.1   0.000425990   0.00468   0.03832   0.03830  -0.04182
  18   30370.4    329.3   0.353343901   3.83021   0.26324   1.92942  -0.19555
  19   30454.5    328.4   0.131931946   1.42618  -0.55434  -0.95023   0.46472
  20   30593.5    326.9   0.694780925   7.47643  -0.36068  -2.67468   0.43867
  21   31811.1    314.4   0.533956825   5.52589   1.26836   0.60179  -1.88547
  22   31953.2    313.0   0.001748790   0.01802  -0.06957  -0.09839   0.05915
  23   32810.7    304.8   0.210165836   2.10873   0.67672   1.23726   0.34635
  24   33444.1    299.0   0.589095682   5.79885  -1.21978  -2.06524  -0.21399
  25   33589.6    297.7   0.945359969   9.26549   0.56408   2.97255  -0.33354
  26   33861.5    295.3   0.015207947   0.14786   0.11238   0.36773   0.00205
  27   34043.1    293.7   0.000372279   0.00360  -0.01188   0.04632   0.03625
  28   34378.2    290.9   0.031008214   0.29694  -0.13996  -0.49712  -0.17384
  29   34474.8    290.1   0.071889888   0.68650  -0.50380  -0.44267   0.48655
  30   34580.8    289.2   0.037504321   0.35704  -0.03338  -0.50970  -0.31006
  31   35524.9    281.5   0.039711144   0.36801   0.30916   0.17405  -0.49207
  32   35945.4    278.2   0.021196117   0.19413  -0.02541  -0.33494  -0.28512
  33   36129.2    276.8   0.001182250   0.01077   0.02538  -0.06047   0.08045
  34   36708.4    272.4   0.009907735   0.08886   0.01092  -0.15591  -0.25383
  35   36797.9    271.8   0.055826211   0.49945  -0.05905   0.51236   0.48316
  36   37000.0    270.3   0.045419553   0.40413   0.36721   0.49203  -0.16489
  37   37293.9    268.1   0.175566128   1.54981   0.35412   0.94720  -0.72609
  38   37999.2    263.2   0.017211840   0.14912  -0.09668  -0.35494   0.11742
  39   38118.2    262.3   0.018846866   0.16277  -0.13372   0.09506   0.36859
  40   38360.6    260.7   0.004912348   0.04216  -0.04300  -0.19872  -0.02859
  41   38466.2    260.0   0.004491136   0.03844  -0.06570   0.01451   0.18415
  42   38519.4    259.6   0.120477895   1.02968   0.40484   0.37095  -0.85334
  43   38699.4    258.4   0.000331269   0.00282   0.03024  -0.02669  -0.03452
  44   38948.4    256.8   0.319450243   2.70016   0.56333  -0.06874  -1.54211
  45   39233.7    254.9   0.114851461   0.96372   0.53105  -0.17475  -0.80695
  46   39674.6    252.1   0.038685829   0.32101  -0.34867  -0.13066   0.42704
  47   40326.9    248.0   0.059252748   0.48371   0.25588   0.51237  -0.39461

FINAL SINGLE POINT ENERGY    -10459.825671319990

DIPOLE MOMENT
-------------
                                X             Y             Z
Electronic contribution:     72.28669     174.89373     -62.89252
Nuclear contribution   :    -71.34630    -173.60256      66.89333
                        -----------------------------------------
Total Dipole Moment    :      0.94040       1.29118       4.00081
                        -----------------------------------------
Magnitude (a.u.)       :      4.30789
Magnitude (Debye)      :     10.94979

Rotational constants in cm-1:     0.000551     0.000158     0.000124
Rotational constants in MHz :    16.504463     4.722574     3.730433

                             ****ORCA TERMINATED NORMALLY****
TOTAL RUN TIME: 0 days 0 hours 8 minutes 58 seconds 954 msec
