                         Program Version 4.2.0 -  RELEASE  -
|  1> # ORCA input file
|  2> # SCF done       -199.945132003969          0.000802858731
|  3> ! CAM-B3LYP def2-SVP def2/J RIJCOSX Grid4 TightSCF
|  4> %maxcore 5000
|  5> %tddft
|  6>     Mode sTDDFT
|  7>     Ethresh 5.0
|  8>     maxcore 5000
|  9> end
| 10>
| 11> %pal
| 12>   nprocs 6
| 13>   end
| 14> * xyz 0 1
| 15>    C      -14.12319         3.88075        -0.33247
| 16>    C      -13.70650         3.86742         0.96790
| 17>    C      -14.12281         2.91494         1.92463
| 18>    N      -14.42419         2.16860         2.74212
| 19>    C      -12.78562         4.77809         1.53240
| 20>    N      -12.04078         5.47238         2.06110
| 21>    C      -15.03979         2.93544        -0.95150
| 22>    C      -15.12435         3.20628        -2.34126
| 23>    C      -15.90969         2.46587        -3.19230
| 24>    C      -16.65572         1.41613        -2.64797
| 25>    C      -16.57077         1.15690        -1.25728
| 26>    C      -15.77265         1.89890        -0.39797
| 27>    S      -17.57512        -0.18295        -0.79470
| 28>    C      -18.08764        -0.37570        -2.45016
| 29>    C      -17.53670         0.51708        -3.30757
| 30>   Br      -19.29981        -1.73575        -2.89004
| 31>    C      -14.25321         4.34799        -2.67652
| 32>    O      -13.97445         4.75867        -3.77651
| 33>    C      -13.71755         4.83348        -1.36573
| 34>    C      -13.01073         5.96505        -1.22886
| 35>    C      -12.79292         6.89860        -2.34304
| 36>    N      -13.87457         7.45240        -2.88242
| 37>    C      -13.66565         8.29045        -3.88435
| 38>    C      -12.40149         8.59364        -4.35580
| 39>    C      -11.32228         7.99018        -3.69676
| 40>    N      -11.54113         7.14714        -2.68156
| 41>    C       -9.93128         8.20062        -4.01729
| 42>    C       -9.45952         9.00513        -4.98348
| 43>    N       -8.12450         9.14723        -5.23233
| 44>    C       -7.56470         9.93056        -6.18855
| 45>    S       -8.54519        10.92939        -7.21109
| 46>    C       -7.11032        11.49377        -8.00980
| 47>    N       -7.26738        12.40233        -9.05558
| 48>    O       -6.26365        12.78578        -9.63047
| 49>    O       -8.40952        12.74678        -9.31686
| 50>    C       -5.95990        10.94686        -7.50760
| 51>    C       -6.19422        10.04145        -6.45725
| 52>    C       -5.17512         9.28762        -5.76610
| 53>    C       -3.85600         9.44062        -5.94864
| 54>    C       -2.84825         8.66855        -5.23327
| 55>    C       -1.69421         8.12888        -5.89327
| 56>    C       -1.52643         8.11523        -7.29009
| 57>    C       -2.60143         8.58662        -8.17544
| 58>    C       -2.46424         9.52923        -9.09798
| 59>    C       -0.35169         7.58401        -7.86575
| 60>    C        0.70480         7.10165        -7.02817
| 61>    C        0.49473         7.06449        -5.65778
| 62>    C       -0.67850         7.54097        -5.07632
| 63>    C       -0.86898         7.43163        -3.67729
| 64>    C       -2.01260         7.88204        -3.09248
| 65>    C       -2.99253         8.51024        -3.87465
| 66>    C        1.91320         6.60617        -7.63010
| 67>    C        2.00308         6.53710        -9.00423
| 68>    C        0.93997         6.94257        -9.81705
| 69>    C       -0.20220         7.45227        -9.26888
| 70>    C        3.04653         6.23680        -6.81931
| 71>    C        3.95678         5.29198        -7.14962
| 72>    C        5.06492         4.91276        -6.34514
| 73>    C        5.74955         5.61195        -5.39743
| 74>    C        5.81048         7.01437        -5.04102
| 75>    C        5.60744         8.08589        -5.87214
| 76>    C        5.78120         9.42861        -5.48047
| 77>    N        5.89347        10.53794        -5.20715
| 78>    C        5.27982         7.97396        -7.23784
| 79>    N        5.04580         7.94643        -8.36111
| 80>    C        6.39131         7.09721        -3.70335
| 81>    C        6.89076         5.82061        -3.34321
| 82>    C        6.58255         4.85889        -4.42014
| 83>    O        6.89560         3.69198        -4.48344
| 84>    C        7.53795         5.58974        -2.15374
| 85>    C        7.68914         6.66630        -1.27346
| 86>    C        7.17086         7.93298        -1.63462
| 87>    C        6.52301         8.16889        -2.84101
| 88>    S        7.45651         9.11722        -0.39574
| 89>    C        8.26307         7.91332         0.57450
| 90>    C        8.31402         6.68655         0.00368
| 91>   Br        8.95744         8.38978         2.25037
| 92>    H      -15.94920         2.69363        -4.24591
| 93>    H      -15.74212         1.66333         0.65273
| 94>    H      -17.74242         0.54124        -4.36206
| 95>    H      -12.57689         6.25926        -0.28344
| 96>    H      -14.55445         8.73142        -4.31675
| 97>    H      -12.26362         9.26802        -5.18348
| 98>    H       -9.24665         7.63698        -3.39840
| 99>    H      -10.10314         9.58882        -5.62481
|100>    H       -7.49236         8.60856        -4.65250
|101>    H       -4.99313        11.19386        -7.90515
|102>    H       -5.51559         8.51244        -5.09092
|103>    H       -3.48435        10.19479        -6.62422
|104>    H       -3.55799         8.09439        -8.04195
|105>    H       -1.53514        10.05843        -9.23370
|106>    H       -3.28233         9.82651        -9.73253
|107>    H        1.23610         6.62979        -5.00435
|108>    H       -0.08575         6.97888        -3.08708
|109>    H       -2.16412         7.78914        -2.02760
|110>    H       -3.86102         8.92788        -3.38636
|111>    H        2.92052         6.20287        -9.46208
|112>    H        1.03448         6.85833       -10.88910
|113>    H       -1.01434         7.75172        -9.91182
|114>    H        3.14874         6.73780        -5.86535
|115>    H        3.79253         4.68902        -8.03208
|116>    H        5.38522         3.87890        -6.44283
|117>    H        7.91730         4.60989        -1.90991
|118>    H        6.14026         9.14953        -3.07062
|119>    H        8.77296         5.82987         0.46230
|120> *
|121>
|122>                          ****END OF INPUT****

CARTESIAN COORDINATES (ANGSTROEM)
---------------------------------
  C    -14.123190    3.880750   -0.332470
  C    -13.706500    3.867420    0.967900
  C    -14.122810    2.914940    1.924630
  N    -14.424190    2.168600    2.742120
  C    -12.785620    4.778090    1.532400
  N    -12.040780    5.472380    2.061100
  C    -15.039790    2.935440   -0.951500
  C    -15.124350    3.206280   -2.341260
  C    -15.909690    2.465870   -3.192300
  C    -16.655720    1.416130   -2.647970
  C    -16.570770    1.156900   -1.257280
  C    -15.772650    1.898900   -0.397970
  S    -17.575120   -0.182950   -0.794700
  C    -18.087640   -0.375700   -2.450160
  C    -17.536700    0.517080   -3.307570
  Br   -19.299810   -1.735750   -2.890040
  C    -14.253210    4.347990   -2.676520
  O    -13.974450    4.758670   -3.776510
  C    -13.717550    4.833480   -1.365730
  C    -13.010730    5.965050   -1.228860
  C    -12.792920    6.898600   -2.343040
  N    -13.874570    7.452400   -2.882420
  C    -13.665650    8.290450   -3.884350
  C    -12.401490    8.593640   -4.355800
  C    -11.322280    7.990180   -3.696760
  N    -11.541130    7.147140   -2.681560
  C     -9.931280    8.200620   -4.017290
  C     -9.459520    9.005130   -4.983480
  N     -8.124500    9.147230   -5.232330
  C     -7.564700    9.930560   -6.188550
  S     -8.545190   10.929390   -7.211090
  C     -7.110320   11.493770   -8.009800
  N     -7.267380   12.402330   -9.055580
  O     -6.263650   12.785780   -9.630470
  O     -8.409520   12.746780   -9.316860
  C     -5.959900   10.946860   -7.507600
  C     -6.194220   10.041450   -6.457250
  C     -5.175120    9.287620   -5.766100
  C     -3.856000    9.440620   -5.948640
  C     -2.848250    8.668550   -5.233270
  C     -1.694210    8.128880   -5.893270
  C     -1.526430    8.115230   -7.290090
  C     -2.601430    8.586620   -8.175440
  C     -2.464240    9.529230   -9.097980
  C     -0.351690    7.584010   -7.865750
  C      0.704800    7.101650   -7.028170
  C      0.494730    7.064490   -5.657780
  C     -0.678500    7.540970   -5.076320
  C     -0.868980    7.431630   -3.677290
  C     -2.012600    7.882040   -3.092480
  C     -2.992530    8.510240   -3.874650
  C      1.913200    6.606170   -7.630100
  C      2.003080    6.537100   -9.004230
  C      0.939970    6.942570   -9.817050
  C     -0.202200    7.452270   -9.268880
  C      3.046530    6.236800   -6.819310
  C      3.956780    5.291980   -7.149620
  C      5.064920    4.912760   -6.345140
  C      5.749550    5.611950   -5.397430
  C      5.810480    7.014370   -5.041020
  C      5.607440    8.085890   -5.872140
  C      5.781200    9.428610   -5.480470
  N      5.893470   10.537940   -5.207150
  C      5.279820    7.973960   -7.237840
  N      5.045800    7.946430   -8.361110
  C      6.391310    7.097210   -3.703350
  C      6.890760    5.820610   -3.343210
  C      6.582550    4.858890   -4.420140
  O      6.895600    3.691980   -4.483440
  C      7.537950    5.589740   -2.153740
  C      7.689140    6.666300   -1.273460
  C      7.170860    7.932980   -1.634620
  C      6.523010    8.168890   -2.841010
  S      7.456510    9.117220   -0.395740
  C      8.263070    7.913320    0.574500
  C      8.314020    6.686550    0.003680
  Br     8.957440    8.389780    2.250370
  H    -15.949200    2.693630   -4.245910
  H    -15.742120    1.663330    0.652730
  H    -17.742420    0.541240   -4.362060
  H    -12.576890    6.259260   -0.283440
  H    -14.554450    8.731420   -4.316750
  H    -12.263620    9.268020   -5.183480
  H     -9.246650    7.636980   -3.398400
  H    -10.103140    9.588820   -5.624810
  H     -7.492360    8.608560   -4.652500
  H     -4.993130   11.193860   -7.905150
  H     -5.515590    8.512440   -5.090920
  H     -3.484350   10.194790   -6.624220
  H     -3.557990    8.094390   -8.041950
  H     -1.535140   10.058430   -9.233700
  H     -3.282330    9.826510   -9.732530
  H      1.236100    6.629790   -5.004350
  H     -0.085750    6.978880   -3.087080
  H     -2.164120    7.789140   -2.027600
  H     -3.861020    8.927880   -3.386360
  H      2.920520    6.202870   -9.462080
  H      1.034480    6.858330  -10.889100
  H     -1.014340    7.751720   -9.911820
  H      3.148740    6.737800   -5.865350
  H      3.792530    4.689020   -8.032080
  H      5.385220    3.878900   -6.442830
  H      7.917300    4.609890   -1.909910
  H      6.140260    9.149530   -3.070620
  H      8.772960    5.829870    0.462300

 Total Charge           Charge          ....    0
 Multiplicity           Mult            ....    1
 Number of Electrons    NEL             ....  594
 Basis Dimension        Dim             .... 1266

ORBITAL ENERGIES
----------------

  NO   OCC          E(Eh)            E(eV)
   0   2.0000    -482.890378    -13140.1152
   1   2.0000    -482.886834    -13140.0188
   2   2.0000     -88.988137     -2421.4903
   3   2.0000     -88.980958     -2421.2950
   4   2.0000     -88.976982     -2421.1868
   5   2.0000     -62.568092     -1702.5643
   6   2.0000     -62.564537     -1702.4676
   7   2.0000     -56.402049     -1534.7778
   8   2.0000     -56.399318     -1534.7035
   9   2.0000     -56.399294     -1534.7028
  10   2.0000     -56.398489     -1534.6809
  11   2.0000     -56.395770     -1534.6069
  12   2.0000     -56.395738     -1534.6061
  13   2.0000     -19.235200      -523.4164
  14   2.0000     -19.234391      -523.3944
  15   2.0000     -19.221966      -523.0563
  16   2.0000     -19.214445      -522.8516
  17   2.0000     -14.646992      -398.5649
  18   2.0000     -14.492002      -394.3474
  19   2.0000     -14.422835      -392.4653
  20   2.0000     -14.422349      -392.4521
  21   2.0000     -14.416229      -392.2855
  22   2.0000     -14.415951      -392.2780
  23   2.0000     -14.413003      -392.1977
  24   2.0000     -14.409096      -392.0914
  25   2.0000     -10.373826      -282.2862
  26   2.0000     -10.372125      -282.2399
  27   2.0000     -10.365320      -282.0547
  28   2.0000     -10.364749      -282.0392
  29   2.0000     -10.360292      -281.9179
  30   2.0000     -10.351825      -281.6875
  31   2.0000     -10.350426      -281.6494
  32   2.0000     -10.349038      -281.6116
  33   2.0000     -10.348780      -281.6046
  34   2.0000     -10.343753      -281.4678
  35   2.0000     -10.342896      -281.4445
  36   2.0000     -10.341547      -281.4078
  37   2.0000     -10.337440      -281.2960
  38   2.0000     -10.331907      -281.1455
  39   2.0000     -10.327398      -281.0228
  40   2.0000     -10.325000      -280.9575
  41   2.0000     -10.324277      -280.9379
  42   2.0000     -10.322976      -280.9025
  43   2.0000     -10.319024      -280.7949
  44   2.0000     -10.317373      -280.7500
  45   2.0000     -10.315466      -280.6981
  46   2.0000     -10.315350      -280.6949
  47   2.0000     -10.314275      -280.6657
  48   2.0000     -10.314221      -280.6642
  49   2.0000     -10.312170      -280.6084
  50   2.0000     -10.310230      -280.5556
  51   2.0000     -10.310189      -280.5545
  52   2.0000     -10.308951      -280.5208
  53   2.0000     -10.307337      -280.4769
  54   2.0000     -10.306911      -280.4653
  55   2.0000     -10.306870      -280.4642
  56   2.0000     -10.302677      -280.3501
  57   2.0000     -10.301905      -280.3291
  58   2.0000     -10.301639      -280.3219
  59   2.0000     -10.301247      -280.3112
  60   2.0000     -10.298800      -280.2446
  61   2.0000     -10.298059      -280.2244
  62   2.0000     -10.295902      -280.1657
  63   2.0000     -10.293840      -280.1096
  64   2.0000     -10.293594      -280.1029
  65   2.0000     -10.293075      -280.0888
  66   2.0000     -10.291058      -280.0339
  67   2.0000     -10.290460      -280.0177
  68   2.0000     -10.290189      -280.0103
  69   2.0000     -10.289351      -279.9875
  70   2.0000     -10.289020      -279.9785
  71   2.0000     -10.287905      -279.9481
  72   2.0000     -10.287039      -279.9246
  73   2.0000     -10.286938      -279.9218
  74   2.0000     -10.286116      -279.8995
  75   2.0000     -10.285980      -279.8958
  76   2.0000     -10.284341      -279.8512
  77   2.0000     -10.280815      -279.7552
  78   2.0000     -10.279682      -279.7244
  79   2.0000     -10.279038      -279.7069
  80   2.0000     -10.278814      -279.7008
  81   2.0000     -10.278500      -279.6922
  82   2.0000     -10.277506      -279.6652
  83   2.0000     -10.275023      -279.5976
  84   2.0000     -10.272978      -279.5420
  85   2.0000      -8.797525      -239.3928
  86   2.0000      -8.793967      -239.2960
  87   2.0000      -8.083508      -219.9634
  88   2.0000      -8.076989      -219.7860
  89   2.0000      -8.072975      -219.6768
  90   2.0000      -6.633867      -180.5167
  91   2.0000      -6.630254      -180.4184
  92   2.0000      -6.619264      -180.1193
  93   2.0000      -6.619010      -180.1124
  94   2.0000      -6.615708      -180.0226
  95   2.0000      -6.615506      -180.0171
  96   2.0000      -6.053202      -164.7160
  97   2.0000      -6.048865      -164.5980
  98   2.0000      -6.046693      -164.5389
  99   2.0000      -6.044892      -164.4899
 100   2.0000      -6.042673      -164.4295
 101   2.0000      -6.042391      -164.4218
 102   2.0000      -6.038387      -164.3129
 103   2.0000      -6.038184      -164.3074
 104   2.0000      -6.034195      -164.1988
 105   2.0000      -2.749701       -74.8232
 106   2.0000      -2.746149       -74.7265
 107   2.0000      -2.745636       -74.7126
 108   2.0000      -2.745489       -74.7086
 109   2.0000      -2.742030       -74.6144
 110   2.0000      -2.741889       -74.6106
 111   2.0000      -2.733861       -74.3921
 112   2.0000      -2.733835       -74.3914
 113   2.0000      -2.730313       -74.2956
 114   2.0000      -2.730307       -74.2954
 115   2.0000      -1.315371       -35.7931
 116   2.0000      -1.137995       -30.9664
 117   2.0000      -1.134383       -30.8681
 118   2.0000      -1.129678       -30.7401
 119   2.0000      -1.098923       -29.9032
 120   2.0000      -1.087205       -29.5843
 121   2.0000      -1.029034       -28.0014
 122   2.0000      -1.024173       -27.8692
 123   2.0000      -1.019741       -27.7486
 124   2.0000      -1.014116       -27.5955
 125   2.0000      -1.007204       -27.4074
 126   2.0000      -1.001015       -27.2390
 127   2.0000      -0.995430       -27.0870
 128   2.0000      -0.994739       -27.0682
 129   2.0000      -0.990812       -26.9614
 130   2.0000      -0.990259       -26.9463
 131   2.0000      -0.984472       -26.7889
 132   2.0000      -0.961564       -26.1655
 133   2.0000      -0.949038       -25.8246
 134   2.0000      -0.945033       -25.7157
 135   2.0000      -0.927822       -25.2473
 136   2.0000      -0.925780       -25.1918
 137   2.0000      -0.921240       -25.0682
 138   2.0000      -0.914657       -24.8891
 139   2.0000      -0.909484       -24.7483
 140   2.0000      -0.909428       -24.7468
 141   2.0000      -0.905181       -24.6312
 142   2.0000      -0.894093       -24.3295
 143   2.0000      -0.892105       -24.2754
 144   2.0000      -0.887332       -24.1455
 145   2.0000      -0.886140       -24.1131
 146   2.0000      -0.881974       -23.9997
 147   2.0000      -0.867173       -23.5970
 148   2.0000      -0.864004       -23.5108
 149   2.0000      -0.855697       -23.2847
 150   2.0000      -0.846006       -23.0210
 151   2.0000      -0.837914       -22.8008
 152   2.0000      -0.834967       -22.7206
 153   2.0000      -0.831951       -22.6385
 154   2.0000      -0.830275       -22.5929
 155   2.0000      -0.816596       -22.2207
 156   2.0000      -0.797745       -21.7078
 157   2.0000      -0.790050       -21.4984
 158   2.0000      -0.786148       -21.3922
 159   2.0000      -0.773068       -21.0362
 160   2.0000      -0.765470       -20.8295
 161   2.0000      -0.758445       -20.6383
 162   2.0000      -0.751822       -20.4581
 163   2.0000      -0.742584       -20.2067
 164   2.0000      -0.738632       -20.0992
 165   2.0000      -0.730417       -19.8757
 166   2.0000      -0.724724       -19.7207
 167   2.0000      -0.718724       -19.5575
 168   2.0000      -0.714045       -19.4301
 169   2.0000      -0.705678       -19.2025
 170   2.0000      -0.701547       -19.0901
 171   2.0000      -0.696494       -18.9526
 172   2.0000      -0.690152       -18.7800
 173   2.0000      -0.688215       -18.7273
 174   2.0000      -0.677696       -18.4410
 175   2.0000      -0.671089       -18.2613
 176   2.0000      -0.663133       -18.0448
 177   2.0000      -0.660492       -17.9729
 178   2.0000      -0.657821       -17.9002
 179   2.0000      -0.648836       -17.6557
 180   2.0000      -0.644200       -17.5296
 181   2.0000      -0.639925       -17.4132
 182   2.0000      -0.633443       -17.2368
 183   2.0000      -0.630086       -17.1455
 184   2.0000      -0.628325       -17.0976
 185   2.0000      -0.626735       -17.0543
 186   2.0000      -0.624670       -16.9981
 187   2.0000      -0.620340       -16.8803
 188   2.0000      -0.615997       -16.7621
 189   2.0000      -0.614495       -16.7213
 190   2.0000      -0.608859       -16.5679
 191   2.0000      -0.605088       -16.4653
 192   2.0000      -0.598968       -16.2987
 193   2.0000      -0.597061       -16.2469
 194   2.0000      -0.589179       -16.0324
 195   2.0000      -0.587619       -15.9899
 196   2.0000      -0.584925       -15.9166
 197   2.0000      -0.580523       -15.7968
 198   2.0000      -0.573894       -15.6165
 199   2.0000      -0.569164       -15.4877
 200   2.0000      -0.560618       -15.2552
 201   2.0000      -0.558350       -15.1935
 202   2.0000      -0.555786       -15.1237
 203   2.0000      -0.553448       -15.0601
 204   2.0000      -0.551683       -15.0121
 205   2.0000      -0.547415       -14.8959
 206   2.0000      -0.546736       -14.8774
 207   2.0000      -0.545127       -14.8336
 208   2.0000      -0.543130       -14.7793
 209   2.0000      -0.541139       -14.7252
 210   2.0000      -0.539286       -14.6747
 211   2.0000      -0.537139       -14.6163
 212   2.0000      -0.535368       -14.5681
 213   2.0000      -0.532128       -14.4799
 214   2.0000      -0.531422       -14.4607
 215   2.0000      -0.528537       -14.3822
 216   2.0000      -0.526222       -14.3192
 217   2.0000      -0.524158       -14.2631
 218   2.0000      -0.516593       -14.0572
 219   2.0000      -0.514242       -13.9932
 220   2.0000      -0.513656       -13.9773
 221   2.0000      -0.513216       -13.9653
 222   2.0000      -0.510475       -13.8907
 223   2.0000      -0.508598       -13.8397
 224   2.0000      -0.504891       -13.7388
 225   2.0000      -0.502845       -13.6831
 226   2.0000      -0.499015       -13.5789
 227   2.0000      -0.498127       -13.5547
 228   2.0000      -0.496259       -13.5039
 229   2.0000      -0.495698       -13.4886
 230   2.0000      -0.493329       -13.4242
 231   2.0000      -0.489796       -13.3280
 232   2.0000      -0.484927       -13.1955
 233   2.0000      -0.484202       -13.1758
 234   2.0000      -0.480566       -13.0769
 235   2.0000      -0.476392       -12.9633
 236   2.0000      -0.475154       -12.9296
 237   2.0000      -0.471714       -12.8360
 238   2.0000      -0.470196       -12.7947
 239   2.0000      -0.466356       -12.6902
 240   2.0000      -0.463495       -12.6123
 241   2.0000      -0.461841       -12.5673
 242   2.0000      -0.458951       -12.4887
 243   2.0000      -0.455095       -12.3838
 244   2.0000      -0.454844       -12.3769
 245   2.0000      -0.452934       -12.3250
 246   2.0000      -0.452503       -12.3132
 247   2.0000      -0.450250       -12.2519
 248   2.0000      -0.450107       -12.2480
 249   2.0000      -0.447545       -12.1783
 250   2.0000      -0.446809       -12.1583
 251   2.0000      -0.445078       -12.1112
 252   2.0000      -0.443874       -12.0784
 253   2.0000      -0.442200       -12.0329
 254   2.0000      -0.436155       -11.8684
 255   2.0000      -0.433804       -11.8044
 256   2.0000      -0.432424       -11.7668
 257   2.0000      -0.430308       -11.7093
 258   2.0000      -0.427187       -11.6244
 259   2.0000      -0.421936       -11.4815
 260   2.0000      -0.421509       -11.4699
 261   2.0000      -0.419205       -11.4072
 262   2.0000      -0.416434       -11.3318
 263   2.0000      -0.412462       -11.2237
 264   2.0000      -0.411411       -11.1951
 265   2.0000      -0.410337       -11.1658
 266   2.0000      -0.401946       -10.9375
 267   2.0000      -0.394188       -10.7264
 268   2.0000      -0.394076       -10.7234
 269   2.0000      -0.389141       -10.5891
 270   2.0000      -0.385617       -10.4932
 271   2.0000      -0.383226       -10.4281
 272   2.0000      -0.382859       -10.4181
 273   2.0000      -0.382345       -10.4041
 274   2.0000      -0.379644       -10.3306
 275   2.0000      -0.379392       -10.3238
 276   2.0000      -0.376145       -10.2354
 277   2.0000      -0.375110       -10.2073
 278   2.0000      -0.369757       -10.0616
 279   2.0000      -0.363864        -9.9013
 280   2.0000      -0.359046        -9.7701
 281   2.0000      -0.352477        -9.5914
 282   2.0000      -0.347639        -9.4597
 283   2.0000      -0.344896        -9.3851
 284   2.0000      -0.339766        -9.2455
 285   2.0000      -0.333402        -9.0723
 286   2.0000      -0.330490        -8.9931
 287   2.0000      -0.325189        -8.8488
 288   2.0000      -0.320611        -8.7243
 289   2.0000      -0.316619        -8.6156
 290   2.0000      -0.315113        -8.5747
 291   2.0000      -0.313873        -8.5409
 292   2.0000      -0.299044        -8.1374
 293   2.0000      -0.297904        -8.1064
 294   2.0000      -0.293582        -7.9888
 295   2.0000      -0.267049        -7.2668
 296   2.0000      -0.248072        -6.7504
 297   0.0000      -0.093634        -2.5479
 298   0.0000      -0.090806        -2.4710
 299   0.0000      -0.063045        -1.7155
 300   0.0000      -0.061675        -1.6783
 301   0.0000      -0.057193        -1.5563

MULLIKEN ATOMIC CHARGES
-----------------------
   0 C :    0.311010
   1 C :   -0.337605
   2 C :   -0.187498
   3 N :    0.156752
   4 C :   -0.189165
   5 N :    0.162752
   6 C :    0.015043
   7 C :   -0.012932
   8 C :   -0.065857
   9 C :    0.118175
  10 C :   -0.089605
  11 C :   -0.019605
  12 S :    0.189698
  13 C :   -0.122925
  14 C :    0.039327
  15 Br:    0.028936
  16 C :    0.150567
  17 O :   -0.129665
  18 C :   -0.060570
  19 C :    0.020788
  20 C :   -0.037974
  21 N :   -0.078743
  22 C :    0.087482
  23 C :   -0.054595
  24 C :    0.040303
  25 N :   -0.073870
  26 C :    0.006836
  27 C :    0.088094
  28 N :   -0.026866
  29 C :   -0.114052
  30 S :    0.142197
  31 C :   -0.006121
  32 N :    0.280504
  33 O :   -0.256857
  34 O :   -0.270143
  35 C :    0.008143
  36 C :    0.123854
  37 C :   -0.032075
  38 C :   -0.032196
  39 C :    0.029044
  40 C :    0.113051
  41 C :   -0.028547
  42 C :   -0.097796
  43 C :   -0.009674
  44 C :    0.054573
  45 C :    0.132361
  46 C :   -0.146270
  47 C :    0.085471
  48 C :   -0.015189
  49 C :    0.038791
  50 C :   -0.037088
  51 C :    0.061438
  52 C :   -0.016699
  53 C :    0.033121
  54 C :   -0.030266
  55 C :    0.005693
  56 C :    0.007660
  57 C :    0.040619
  58 C :   -0.123761
  59 C :    0.267615
  60 C :   -0.333163
  61 C :   -0.178388
  62 N :    0.152661
  63 C :   -0.197720
  64 N :    0.174378
  65 C :   -0.003750
  66 C :    0.006056
  67 C :    0.133599
  68 O :   -0.144329
  69 C :   -0.074785
  70 C :    0.114284
  71 C :   -0.089010
  72 C :   -0.022586
  73 S :    0.185268
  74 C :   -0.126737
  75 C :    0.043522
  76 Br:    0.024663
  77 H :   -0.007304
  78 H :   -0.004261
  79 H :   -0.001005
  80 H :    0.048990
  81 H :    0.006993
  82 H :   -0.009123
  83 H :   -0.011993
  84 H :    0.031112
  85 H :    0.139067
  86 H :    0.003705
  87 H :   -0.031893
  88 H :    0.024262
  89 H :    0.033466
  90 H :    0.036423
  91 H :    0.036134
  92 H :   -0.041271
  93 H :   -0.025399
  94 H :   -0.012132
  95 H :   -0.028863
  96 H :   -0.003523
  97 H :   -0.011199
  98 H :   -0.011946
  99 H :    0.023280
 100 H :    0.004802
 101 H :    0.027615
 102 H :   -0.009324
 103 H :   -0.003064
 104 H :   -0.003204
Sum of atomic charges:   -0.0000000

LOEWDIN ATOMIC CHARGES
----------------------
   0 C :    0.076158
   1 C :   -0.128107
   2 C :   -0.017614
   3 N :   -0.045797
   4 C :   -0.019657
   5 N :   -0.041663
   6 C :   -0.021830
   7 C :   -0.049901
   8 C :    0.023652
   9 C :   -0.029474
  10 C :   -0.142536
  11 C :   -0.007857
  12 S :    0.435017
  13 C :   -0.269340
  14 C :   -0.070178
  15 Br:    0.141277
  16 C :    0.087276
  17 O :   -0.123888
  18 C :   -0.064265
  19 C :    0.079099
  20 C :    0.022691
  21 N :   -0.087295
  22 C :    0.056389
  23 C :   -0.063418
  24 C :    0.042815
  25 N :   -0.089742
  26 C :   -0.084327
  27 C :    0.046762
  28 N :    0.042584
  29 C :   -0.099211
  30 S :    0.450736
  31 C :   -0.214153
  32 N :    0.274268
  33 O :   -0.222571
  34 O :   -0.236819
  35 C :    0.006472
  36 C :   -0.105844
  37 C :   -0.041161
  38 C :   -0.002595
  39 C :   -0.017330
  40 C :   -0.011664
  41 C :   -0.007898
  42 C :   -0.012189
  43 C :   -0.041243
  44 C :   -0.011344
  45 C :   -0.006126
  46 C :   -0.015813
  47 C :   -0.009755
  48 C :   -0.011067
  49 C :   -0.024171
  50 C :   -0.021502
  51 C :   -0.031703
  52 C :    0.016207
  53 C :   -0.027285
  54 C :    0.002815
  55 C :    0.045894
  56 C :   -0.040688
  57 C :    0.070492
  58 C :   -0.096704
  59 C :    0.066158
  60 C :   -0.141765
  61 C :   -0.020346
  62 N :   -0.053114
  63 C :   -0.013441
  64 N :   -0.043577
  65 C :   -0.019251
  66 C :   -0.052678
  67 C :    0.082760
  68 O :   -0.143761
  69 C :    0.022723
  70 C :   -0.033426
  71 C :   -0.143382
  72 C :   -0.012811
  73 S :    0.431859
  74 C :   -0.271692
  75 C :   -0.069865
  76 Br:    0.137346
  77 H :    0.042137
  78 H :    0.041596
  79 H :    0.039737
  80 H :    0.051184
  81 H :    0.027741
  82 H :    0.030508
  83 H :    0.034444
  84 H :    0.024611
  85 H :    0.097734
  86 H :    0.043703
  87 H :    0.019117
  88 H :    0.035155
  89 H :    0.037467
  90 H :    0.027504
  91 H :    0.027765
  92 H :    0.025209
  93 H :    0.028484
  94 H :    0.031151
  95 H :    0.025593
  96 H :    0.033452
  97 H :    0.032489
  98 H :    0.031714
  99 H :    0.031098
 100 H :    0.035120
 101 H :    0.047392
 102 H :    0.041482
 103 H :    0.040802
 104 H :    0.038993

  Mayer bond orders larger than 0.100000
B(  0-C ,  1-C ) :   1.6674 B(  0-C ,  6-C ) :   1.0218 B(  0-C , 18-C ) :   1.0140
B(  1-C ,  2-C ) :   1.1348 B(  1-C ,  4-C ) :   1.1422 B(  2-C ,  3-N ) :   2.9757
B(  4-C ,  5-N ) :   2.9801 B(  6-C ,  7-C ) :   1.2703 B(  6-C , 11-C ) :   1.3985
B(  7-C ,  8-C ) :   1.4207 B(  7-C , 16-C ) :   0.9392 B(  8-C ,  9-C ) :   1.2548
B(  8-C , 77-H ) :   1.0155 B(  9-C , 10-C ) :   1.2947 B(  9-C , 14-C ) :   1.1645
B( 10-C , 11-C ) :   1.3447 B( 10-C , 12-S ) :   1.0857 B( 11-C , 78-H ) :   0.9792
B( 12-S , 13-C ) :   1.0864 B( 13-C , 14-C ) :   1.6171 B( 13-C , 15-Br) :   1.0216
B( 14-C , 79-H ) :   1.0001 B( 16-C , 17-O ) :   2.2491 B( 16-C , 18-C ) :   0.9120
B( 18-C , 19-C ) :   1.8538 B( 19-C , 20-C ) :   0.9340 B( 19-C , 80-H ) :   0.9301
B( 20-C , 21-N ) :   1.5025 B( 20-C , 25-N ) :   1.5218 B( 21-N , 22-C ) :   1.5275
B( 22-C , 23-C ) :   1.4058 B( 22-C , 81-H ) :   0.9780 B( 23-C , 24-C ) :   1.3454
B( 23-C , 82-H ) :   0.9654 B( 24-C , 25-N ) :   1.4863 B( 24-C , 26-C ) :   1.1085
B( 26-C , 27-C ) :   1.6652 B( 26-C , 83-H ) :   0.9683 B( 27-C , 28-N ) :   1.1348
B( 27-C , 84-H ) :   0.9527 B( 28-N , 29-C ) :   1.2200 B( 28-N , 85-H ) :   0.9144
B( 29-C , 30-S ) :   1.1324 B( 29-C , 36-C ) :   1.3643 B( 30-S , 31-C ) :   1.0652
B( 31-C , 32-N ) :   0.9835 B( 31-C , 35-C ) :   1.4828 B( 32-N , 33-O ) :   1.5245
B( 32-N , 34-O ) :   1.5040 B( 33-O , 34-O ) :   0.2532 B( 35-C , 36-C ) :   1.2411
B( 35-C , 86-H ) :   0.9986 B( 36-C , 37-C ) :   1.0490 B( 37-C , 38-C ) :   1.8213
B( 37-C , 87-H ) :   0.9668 B( 38-C , 39-C ) :   1.0062 B( 38-C , 88-H ) :   0.9254
B( 39-C , 40-C ) :   1.1756 B( 39-C , 50-C ) :   1.5492 B( 40-C , 41-C ) :   1.3402
B( 40-C , 47-C ) :   1.1913 B( 41-C , 42-C ) :   1.0174 B( 41-C , 44-C ) :   1.3449
B( 42-C , 43-C ) :   1.9680 B( 42-C , 89-H ) :   0.9237 B( 43-C , 90-H ) :   0.9624
B( 43-C , 91-H ) :   0.9508 B( 44-C , 45-C ) :   1.1868 B( 44-C , 54-C ) :   1.2065
B( 45-C , 46-C ) :   1.3281 B( 45-C , 51-C ) :   1.1413 B( 46-C , 47-C ) :   1.3060
B( 46-C , 92-H ) :   0.9959 B( 47-C , 48-C ) :   1.1891 B( 48-C , 49-C ) :   1.5215
B( 48-C , 93-H ) :   0.9985 B( 49-C , 50-C ) :   1.2017 B( 49-C , 94-H ) :   0.9883
B( 50-C , 95-H ) :   0.9868 B( 51-C , 52-C ) :   1.5062 B( 51-C , 55-C ) :   1.0957
B( 52-C , 53-C ) :   1.2227 B( 52-C , 96-H ) :   0.9838 B( 53-C , 54-C ) :   1.5096
B( 53-C , 97-H ) :   0.9863 B( 54-C , 98-H ) :   0.9817 B( 55-C , 56-C ) :   1.6770
B( 55-C , 99-H ) :   0.9487 B( 56-C , 57-C ) :   1.1461 B( 56-C ,100-H ) :   0.9610
B( 57-C , 58-C ) :   1.6654 B( 57-C ,101-H ) :   0.9289 B( 58-C , 59-C ) :   1.0343
B( 58-C , 67-C ) :   0.9468 B( 59-C , 60-C ) :   1.6485 B( 59-C , 65-C ) :   1.0101
B( 60-C , 61-C ) :   1.1280 B( 60-C , 63-C ) :   1.1643 B( 61-C , 62-N ) :   2.9869
B( 63-C , 64-N ) :   3.0056 B( 65-C , 66-C ) :   1.2765 B( 65-C , 72-C ) :   1.4124
B( 66-C , 67-C ) :   0.9182 B( 66-C , 69-C ) :   1.4243 B( 67-C , 68-O ) :   2.2636
B( 69-C , 70-C ) :   1.2508 B( 69-C ,102-H ) :   1.0166 B( 70-C , 71-C ) :   1.3071
B( 70-C , 75-C ) :   1.1629 B( 71-C , 72-C ) :   1.3290 B( 71-C , 73-S ) :   1.0837
B( 72-C ,103-H ) :   0.9833 B( 73-S , 74-C ) :   1.0868 B( 74-C , 75-C ) :   1.6197
B( 74-C , 76-Br) :   1.0199 B( 75-C ,104-H ) :   1.0001

-----------------------------------------------------------------------------
         ABSORPTION SPECTRUM VIA TRANSITION ELECTRIC DIPOLE MOMENTS
-----------------------------------------------------------------------------
State   Energy  Wavelength   fosc         T2         TX        TY        TZ
        (cm-1)    (nm)                  (au**2)     (au)      (au)      (au)
-----------------------------------------------------------------------------
   0   17720.2    564.3   0.373154114   6.93258  -2.46801   0.05271  -0.91583
   1   24944.3    400.9   0.182923700   2.41421  -1.32407   0.75570   0.29996
   2   25171.1    397.3   0.035275536   0.46137  -0.36629  -0.49758   0.28214
   3   25842.9    387.0   0.707998855   9.01919   1.87807   1.73578  -1.57452
   4   26195.8    381.7   0.246095177   3.09277  -1.42943   0.53097  -0.87611
   5   27052.3    369.7   0.364369298   4.43417   1.64400  -0.21016   1.29895
   6   27708.1    360.9   0.179439098   2.13200  -0.01556   0.40850  -1.40174
   7   28438.2    351.6   0.244642407   2.83208   1.04123   1.06223   0.78714
   8   28592.3    349.7   0.195529700   2.25133  -1.07360  -0.75351  -0.72865
   9   28921.0    345.8   0.115160809   1.31089   0.88528   0.61718   0.38243
  10   29566.8    338.2   0.031003904   0.34521  -0.52084   0.11825   0.24486
  11   29769.2    335.9   0.362729550   4.01135  -0.93545  -1.17570   1.32439
  12   30068.2    332.6   0.035434024   0.38796  -0.35218  -0.32419  -0.39853
  13   30393.7    329.0   0.010144808   0.10988   0.01025  -0.11437   0.31096
  14   30566.3    327.2   0.069022219   0.74340  -0.55925  -0.31371  -0.57639
  15   30588.6    326.9   0.002755850   0.02966   0.14344   0.09507  -0.00699
  16   30830.7    324.4   0.052152678   0.55689  -0.41747   0.06169   0.61547
  17   31064.4    321.9   0.074178044   0.78612  -0.80670   0.30577   0.20460
  18   31623.4    316.2   0.010273057   0.10695  -0.12126   0.22654  -0.20229
  19   32638.2    306.4   0.402234741   4.05722  -2.00651   0.17616   0.00949
  20   33036.1    302.7   0.178313541   1.77693   0.87690  -0.54920   0.84045
  21   33800.6    295.9   0.227386102   2.21470  -0.71409   0.22332  -1.28643
  22   33937.6    294.7   0.218679530   2.12130  -0.39936   0.36982  -1.35094
  23   33963.9    294.4   0.075044277   0.72740   0.76284  -0.12555   0.36017
  24   34393.0    290.8   0.175934596   1.68406   0.30063   0.44067   1.18300
  25   34463.7    290.2   0.421365182   4.02507   1.15488   0.98409   1.31259
  26   34977.9    285.9   0.209762853   1.97429  -0.25075  -0.83603   1.10112
  27   35627.8    280.7   0.094105051   0.86956  -0.81321  -0.14873   0.43143
  28   35863.5    278.8   0.073668424   0.67625   0.63341   0.26400  -0.45315
  29   36410.1    274.6   0.063782732   0.57671   0.42698  -0.24938   0.57637
  30   36652.6    272.8   0.025047261   0.22497   0.41097   0.23322   0.04106
  31   37038.8    270.0   0.014399255   0.12798   0.16566  -0.01520   0.31672
  32   37616.2    265.8   0.083396905   0.72988  -0.25861   0.79915  -0.15606
  33   37963.9    263.4   0.055860676   0.48441  -0.56712  -0.38534   0.11957
  34   38156.3    262.1   0.055597423   0.47969  -0.34576  -0.59656  -0.06529
  35   38290.0    261.2   0.019381987   0.16664  -0.05862   0.15899  -0.37139
  36   38788.1    257.8   0.088159066   0.74825   0.22068   0.21060   0.80944
  37   39382.1    253.9   0.078079746   0.65270   0.07983  -0.75361   0.28002
  38   39539.6    252.9   0.014645792   0.12194  -0.03556   0.33463  -0.09326
  39   39815.1    251.2   0.001513902   0.01252   0.08673  -0.05076   0.04918
  40   39938.0    250.4   0.008559914   0.07056   0.17799   0.08781   0.17655
  41   40076.9    249.5   0.316025836   2.59599  -1.30241   0.64748   0.69318
  42   40118.4    249.3   0.058405156   0.47927  -0.15068  -0.48364  -0.47187
  43   40304.8    248.1   0.085098342   0.69509  -0.38341  -0.62741   0.39299

FINAL SINGLE POINT ENERGY     -9380.217730553766

DIPOLE MOMENT
-------------
                                X             Y             Z
Electronic contribution:    -34.71835     -78.09133     103.46966
Nuclear contribution   :     33.73398      76.06949    -103.31375
                        -----------------------------------------
Total Dipole Moment    :     -0.98437      -2.02184       0.15591
                        -----------------------------------------
Magnitude (a.u.)       :      2.25413
Magnitude (Debye)      :      5.72955

Rotational constants in cm-1:     0.000720     0.000142     0.000131
Rotational constants in MHz :    21.573662     4.253751     3.914242

                             ****ORCA TERMINATED NORMALLY****
TOTAL RUN TIME: 0 days 0 hours 12 minutes 5 seconds 852 msec
