                         Program Version 4.2.0 -  RELEASE  -
|  1> # ORCA input file
|  2> # SCF done       -200.910488391472          0.000425573478
|  3> ! CAM-B3LYP def2-SVP def2/J RIJCOSX Grid4 TightSCF
|  4> %maxcore 5000
|  5> %tddft
|  6>     Mode sTDDFT
|  7>     Ethresh 5.0
|  8>     maxcore 5000
|  9> end
| 10>
| 11> %pal
| 12>   nprocs 6
| 13>   end
| 14> * xyz 0 1
| 15>    C      -18.47264        -1.55766        -1.73454
| 16>    C      -19.61298        -0.88703        -1.36538
| 17>    C      -20.67399        -1.47126        -0.64361
| 18>    N      -21.57522        -1.88535        -0.06448
| 19>    C      -19.90442         0.46439        -1.64129
| 20>    N      -20.22320         1.55629        -1.80414
| 21>    C      -18.16576        -2.94353        -1.38300
| 22>    C      -16.91646        -3.28670        -1.95469
| 23>    C      -16.33399        -4.51712        -1.78429
| 24>    C      -17.01197        -5.45222        -0.99394
| 25>    C      -18.25680        -5.10116        -0.42410
| 26>    C      -18.85308        -3.85893        -0.61031
| 27>    S      -18.90996        -6.39779         0.53153
| 28>    C      -17.51396        -7.37413         0.15802
| 29>    C      -16.60793        -6.77018        -0.64465
| 30>   Br      -17.39143        -9.10115         0.88229
| 31>    C      -16.39674        -2.12365        -2.69639
| 32>    O      -15.40032        -2.10183        -3.40616
| 33>    C      -17.34580        -1.03551        -2.47590
| 34>    C      -17.23919         0.24796        -2.98495
| 35>    C      -16.12996         0.95457        -3.44572
| 36>    C      -14.77070         0.78673        -3.23093
| 37>    C      -13.80871         1.75563        -3.63447
| 38>    C      -12.54530         1.51722        -3.19240
| 39>    C      -12.44542         0.33753        -2.41861
| 40>    S      -13.99773        -0.46278        -2.31186
| 41>    C      -11.32104        -0.20236        -1.82446
| 42>    C      -10.03505         0.37790        -1.70598
| 43>    C       -9.14939        -0.39094        -1.01947
| 44>    C       -9.67633        -1.63537        -0.57929
| 45>    S      -11.35628        -1.77453        -1.06080
| 46>    C       -8.97876        -2.58198         0.12464
| 47>    C       -9.41141        -3.86503         0.50309
| 48>    S      -10.90523        -4.57951        -0.03473
| 49>    C      -10.54771        -6.08296         0.75683
| 50>    C       -9.32526        -6.01374         1.41531
| 51>    C       -8.69798        -4.76985         1.29284
| 52>    C       -7.37535        -4.45268         1.92535
| 53>    F       -6.39242        -4.38724         0.95985
| 54>    C       -7.03856        -5.52151         2.97084
| 55>    F       -5.76943        -5.33841         3.45052
| 56>    C       -7.22457        -6.93705         2.42281
| 57>    F       -6.54307        -7.12588         1.25193
| 58>    C       -8.71684        -7.16885         2.15453
| 59>    F       -9.34701        -7.34109         3.37652
| 60>    C      -11.41632        -7.20632         0.68598
| 61>    C      -12.46920        -7.31980        -0.14527
| 62>    C      -13.26010        -8.53002        -0.20726
| 63>    N      -14.06736        -8.66986        -1.26573
| 64>    C      -14.70817        -9.81879        -1.38521
| 65>    C      -14.61377       -10.82388        -0.43727
| 66>    C      -13.82927       -10.54657         0.69015
| 67>    N      -13.13902        -9.41296         0.77611
| 68>    C      -13.74983       -11.47804         1.79556
| 69>    C      -12.99059       -11.24733         2.88174
| 70>    C      -12.92664       -12.09032         4.03330
| 71>    C      -13.08163       -13.43245         4.13036
| 72>    C      -13.15119       -14.49677         3.14387
| 73>    C      -12.52240       -14.52882         1.92890
| 74>    C      -12.55450       -15.63978         1.05977
| 75>    N      -12.56767       -16.51149         0.31365
| 76>    C      -11.71100       -13.48902         1.42903
| 77>    N      -11.01122       -12.69649         0.98358
| 78>    C      -13.81372       -15.62837         3.78203
| 79>    C      -13.92048       -15.37299         5.17339
| 80>    C      -13.37549       -14.03430         5.46637
| 81>    O      -13.23751       -13.50270         6.54157
| 82>    C      -14.47762       -16.27477         6.04796
| 83>    C      -14.96172       -17.47796         5.52464
| 84>    C      -14.86317       -17.71737         4.13183
| 85>    C      -14.29270       -16.81010         3.24814
| 86>    S      -15.53611       -19.25867         3.69931
| 87>    C      -15.93135       -19.56040         5.37081
| 88>    C      -15.57984       -18.55813         6.21143
| 89>   Br      -16.77340       -21.16632         5.84610
| 90>    H      -15.38163        -4.75092        -2.23312
| 91>    H      -19.80427        -3.64184        -0.15422
| 92>    H      -15.69334        -7.22523        -0.98473
| 93>    H      -18.16089         0.81574        -3.02470
| 94>    H      -16.37025         1.87413        -3.96830
| 95>    H      -14.09109         2.60233        -4.23514
| 96>    H      -11.69469         2.13511        -3.41665
| 97>    H       -9.81055         1.34694        -2.11320
| 98>    H       -8.12851        -0.11712        -0.82055
| 99>    H       -7.96131        -2.32780         0.39029
|100>    H       -7.37897        -3.46409         2.40576
|101>    H       -7.71676        -5.40387         3.82810
|102>    H       -6.84095        -7.67193         3.14158
|103>    H       -8.84827        -8.10776         1.60246
|104>    H      -11.19425        -8.03966         1.33808
|105>    H      -12.72547        -6.54074        -0.84849
|106>    H      -15.33483        -9.92102        -2.26228
|107>    H      -15.14509       -11.75470        -0.54190
|108>    H      -14.37171       -12.35992         1.71970
|109>    H      -12.45689       -10.30743         2.92912
|110>    H      -12.79981       -11.58008         4.98425
|111>    H      -14.53980       -16.05816         7.10277
|112>    H      -14.24622       -17.03131         2.19461
|113>    H      -15.74990       -18.57774         7.27232
|114> *
|115>
|116>                          ****END OF INPUT****

CARTESIAN COORDINATES (ANGSTROEM)
---------------------------------
  C    -18.472640   -1.557660   -1.734540
  C    -19.612980   -0.887030   -1.365380
  C    -20.673990   -1.471260   -0.643610
  N    -21.575220   -1.885350   -0.064480
  C    -19.904420    0.464390   -1.641290
  N    -20.223200    1.556290   -1.804140
  C    -18.165760   -2.943530   -1.383000
  C    -16.916460   -3.286700   -1.954690
  C    -16.333990   -4.517120   -1.784290
  C    -17.011970   -5.452220   -0.993940
  C    -18.256800   -5.101160   -0.424100
  C    -18.853080   -3.858930   -0.610310
  S    -18.909960   -6.397790    0.531530
  C    -17.513960   -7.374130    0.158020
  C    -16.607930   -6.770180   -0.644650
  Br   -17.391430   -9.101150    0.882290
  C    -16.396740   -2.123650   -2.696390
  O    -15.400320   -2.101830   -3.406160
  C    -17.345800   -1.035510   -2.475900
  C    -17.239190    0.247960   -2.984950
  C    -16.129960    0.954570   -3.445720
  C    -14.770700    0.786730   -3.230930
  C    -13.808710    1.755630   -3.634470
  C    -12.545300    1.517220   -3.192400
  C    -12.445420    0.337530   -2.418610
  S    -13.997730   -0.462780   -2.311860
  C    -11.321040   -0.202360   -1.824460
  C    -10.035050    0.377900   -1.705980
  C     -9.149390   -0.390940   -1.019470
  C     -9.676330   -1.635370   -0.579290
  S    -11.356280   -1.774530   -1.060800
  C     -8.978760   -2.581980    0.124640
  C     -9.411410   -3.865030    0.503090
  S    -10.905230   -4.579510   -0.034730
  C    -10.547710   -6.082960    0.756830
  C     -9.325260   -6.013740    1.415310
  C     -8.697980   -4.769850    1.292840
  C     -7.375350   -4.452680    1.925350
  F     -6.392420   -4.387240    0.959850
  C     -7.038560   -5.521510    2.970840
  F     -5.769430   -5.338410    3.450520
  C     -7.224570   -6.937050    2.422810
  F     -6.543070   -7.125880    1.251930
  C     -8.716840   -7.168850    2.154530
  F     -9.347010   -7.341090    3.376520
  C    -11.416320   -7.206320    0.685980
  C    -12.469200   -7.319800   -0.145270
  C    -13.260100   -8.530020   -0.207260
  N    -14.067360   -8.669860   -1.265730
  C    -14.708170   -9.818790   -1.385210
  C    -14.613770  -10.823880   -0.437270
  C    -13.829270  -10.546570    0.690150
  N    -13.139020   -9.412960    0.776110
  C    -13.749830  -11.478040    1.795560
  C    -12.990590  -11.247330    2.881740
  C    -12.926640  -12.090320    4.033300
  C    -13.081630  -13.432450    4.130360
  C    -13.151190  -14.496770    3.143870
  C    -12.522400  -14.528820    1.928900
  C    -12.554500  -15.639780    1.059770
  N    -12.567670  -16.511490    0.313650
  C    -11.711000  -13.489020    1.429030
  N    -11.011220  -12.696490    0.983580
  C    -13.813720  -15.628370    3.782030
  C    -13.920480  -15.372990    5.173390
  C    -13.375490  -14.034300    5.466370
  O    -13.237510  -13.502700    6.541570
  C    -14.477620  -16.274770    6.047960
  C    -14.961720  -17.477960    5.524640
  C    -14.863170  -17.717370    4.131830
  C    -14.292700  -16.810100    3.248140
  S    -15.536110  -19.258670    3.699310
  C    -15.931350  -19.560400    5.370810
  C    -15.579840  -18.558130    6.211430
  Br   -16.773400  -21.166320    5.846100
  H    -15.381630   -4.750920   -2.233120
  H    -19.804270   -3.641840   -0.154220
  H    -15.693340   -7.225230   -0.984730
  H    -18.160890    0.815740   -3.024700
  H    -16.370250    1.874130   -3.968300
  H    -14.091090    2.602330   -4.235140
  H    -11.694690    2.135110   -3.416650
  H     -9.810550    1.346940   -2.113200
  H     -8.128510   -0.117120   -0.820550
  H     -7.961310   -2.327800    0.390290
  H     -7.378970   -3.464090    2.405760
  H     -7.716760   -5.403870    3.828100
  H     -6.840950   -7.671930    3.141580
  H     -8.848270   -8.107760    1.602460
  H    -11.194250   -8.039660    1.338080
  H    -12.725470   -6.540740   -0.848490
  H    -15.334830   -9.921020   -2.262280
  H    -15.145090  -11.754700   -0.541900
  H    -14.371710  -12.359920    1.719700
  H    -12.456890  -10.307430    2.929120
  H    -12.799810  -11.580080    4.984250
  H    -14.539800  -16.058160    7.102770
  H    -14.246220  -17.031310    2.194610
  H    -15.749900  -18.577740    7.272320

 Total Charge           Charge          ....    0
 Multiplicity           Mult            ....    1
 Number of Electrons    NEL             ....  604
 Basis Dimension        Dim             .... 1226

ORBITAL ENERGIES
----------------

  NO   OCC          E(Eh)            E(eV)
   0   2.0000    -482.892375    -13140.1695
   1   2.0000    -482.882368    -13139.8972
   2   2.0000     -88.984209     -2421.3834
   3   2.0000     -88.979822     -2421.2640
   4   2.0000     -88.970784     -2421.0181
   5   2.0000     -88.965327     -2420.8696
   6   2.0000     -88.963943     -2420.8320
   7   2.0000     -62.570088     -1702.6186
   8   2.0000     -62.559772     -1702.3379
   9   2.0000     -56.404050     -1534.8322
  10   2.0000     -56.401313     -1534.7577
  11   2.0000     -56.401284     -1534.7570
  12   2.0000     -56.393685     -1534.5502
  13   2.0000     -56.391045     -1534.4783
  14   2.0000     -56.391016     -1534.4775
  15   2.0000     -24.772011      -674.0807
  16   2.0000     -24.767031      -673.9452
  17   2.0000     -24.765240      -673.8964
  18   2.0000     -24.760668      -673.7720
  19   2.0000     -19.226035      -523.1670
  20   2.0000     -19.202299      -522.5211
  21   2.0000     -14.426807      -392.5734
  22   2.0000     -14.425001      -392.5242
  23   2.0000     -14.422107      -392.4455
  24   2.0000     -14.421290      -392.4232
  25   2.0000     -14.402729      -391.9182
  26   2.0000     -14.402039      -391.8994
  27   2.0000     -10.376756      -282.3659
  28   2.0000     -10.371305      -282.2175
  29   2.0000     -10.370432      -282.1938
  30   2.0000     -10.367160      -282.1048
  31   2.0000     -10.365355      -282.0556
  32   2.0000     -10.364568      -282.0342
  33   2.0000     -10.355736      -281.7939
  34   2.0000     -10.355536      -281.7885
  35   2.0000     -10.354055      -281.7482
  36   2.0000     -10.348882      -281.6074
  37   2.0000     -10.346665      -281.5471
  38   2.0000     -10.342058      -281.4217
  39   2.0000     -10.340485      -281.3789
  40   2.0000     -10.335558      -281.2448
  41   2.0000     -10.332460      -281.1605
  42   2.0000     -10.332151      -281.1521
  43   2.0000     -10.329466      -281.0791
  44   2.0000     -10.329000      -281.0664
  45   2.0000     -10.327231      -281.0182
  46   2.0000     -10.326641      -281.0022
  47   2.0000     -10.326424      -280.9963
  48   2.0000     -10.326163      -280.9892
  49   2.0000     -10.325484      -280.9707
  50   2.0000     -10.324283      -280.9380
  51   2.0000     -10.321430      -280.8604
  52   2.0000     -10.319759      -280.8149
  53   2.0000     -10.317101      -280.7426
  54   2.0000     -10.316214      -280.7185
  55   2.0000     -10.314331      -280.6672
  56   2.0000     -10.313044      -280.6322
  57   2.0000     -10.311538      -280.5912
  58   2.0000     -10.311152      -280.5807
  59   2.0000     -10.310945      -280.5751
  60   2.0000     -10.308181      -280.4999
  61   2.0000     -10.306376      -280.4507
  62   2.0000     -10.305839      -280.4361
  63   2.0000     -10.305455      -280.4257
  64   2.0000     -10.304564      -280.4014
  65   2.0000     -10.304355      -280.3958
  66   2.0000     -10.303480      -280.3719
  67   2.0000     -10.303302      -280.3671
  68   2.0000     -10.302619      -280.3485
  69   2.0000     -10.300953      -280.3032
  70   2.0000     -10.300478      -280.2902
  71   2.0000     -10.297604      -280.2120
  72   2.0000     -10.297125      -280.1990
  73   2.0000     -10.294531      -280.1284
  74   2.0000     -10.294315      -280.1225
  75   2.0000     -10.294266      -280.1212
  76   2.0000     -10.293124      -280.0902
  77   2.0000     -10.288330      -279.9597
  78   2.0000     -10.287748      -279.9438
  79   2.0000     -10.285070      -279.8710
  80   2.0000     -10.282026      -279.7881
  81   2.0000     -10.279571      -279.7214
  82   2.0000     -10.278694      -279.6975
  83   2.0000      -8.799521      -239.4471
  84   2.0000      -8.789108      -239.1638
  85   2.0000      -8.080159      -219.8723
  86   2.0000      -8.074923      -219.7298
  87   2.0000      -8.066949      -219.5129
  88   2.0000      -8.061338      -219.3602
  89   2.0000      -8.058607      -219.2859
  90   2.0000      -6.635865      -180.5711
  91   2.0000      -6.625188      -180.2805
  92   2.0000      -6.621238      -180.1730
  93   2.0000      -6.621022      -180.1672
  94   2.0000      -6.610967      -179.8936
  95   2.0000      -6.610780      -179.8885
  96   2.0000      -6.049848      -164.6247
  97   2.0000      -6.045560      -164.5080
  98   2.0000      -6.043995      -164.4655
  99   2.0000      -6.041407      -164.3951
 100   2.0000      -6.040037      -164.3578
 101   2.0000      -6.037257      -164.2821
 102   2.0000      -6.036682      -164.2665
 103   2.0000      -6.032506      -164.1528
 104   2.0000      -6.031014      -164.1122
 105   2.0000      -6.028182      -164.0352
 106   2.0000      -6.027906      -164.0277
 107   2.0000      -6.026775      -163.9969
 108   2.0000      -6.023686      -163.9128
 109   2.0000      -6.022559      -163.8821
 110   2.0000      -6.020314      -163.8211
 111   2.0000      -2.751728       -74.8783
 112   2.0000      -2.747639       -74.7671
 113   2.0000      -2.747452       -74.7620
 114   2.0000      -2.741082       -74.5886
 115   2.0000      -2.737122       -74.4809
 116   2.0000      -2.737013       -74.4779
 117   2.0000      -2.735840       -74.4460
 118   2.0000      -2.735819       -74.4454
 119   2.0000      -2.725689       -74.1698
 120   2.0000      -2.725670       -74.1692
 121   2.0000      -1.291652       -35.1476
 122   2.0000      -1.282260       -34.8921
 123   2.0000      -1.275987       -34.7214
 124   2.0000      -1.268358       -34.5138
 125   2.0000      -1.141823       -31.0706
 126   2.0000      -1.116172       -30.3726
 127   2.0000      -1.095592       -29.8126
 128   2.0000      -1.033293       -28.1173
 129   2.0000      -1.023072       -27.8392
 130   2.0000      -1.020009       -27.7559
 131   2.0000      -1.011251       -27.5175
 132   2.0000      -1.010545       -27.4983
 133   2.0000      -1.004567       -27.3357
 134   2.0000      -1.001234       -27.2450
 135   2.0000      -1.000055       -27.2129
 136   2.0000      -0.994918       -27.0731
 137   2.0000      -0.990617       -26.9561
 138   2.0000      -0.981297       -26.7025
 139   2.0000      -0.976626       -26.5753
 140   2.0000      -0.954132       -25.9633
 141   2.0000      -0.938375       -25.5345
 142   2.0000      -0.932835       -25.3837
 143   2.0000      -0.930505       -25.3203
 144   2.0000      -0.925613       -25.1872
 145   2.0000      -0.918266       -24.9873
 146   2.0000      -0.913188       -24.8491
 147   2.0000      -0.903298       -24.5800
 148   2.0000      -0.898152       -24.4400
 149   2.0000      -0.895714       -24.3736
 150   2.0000      -0.888213       -24.1695
 151   2.0000      -0.882622       -24.0174
 152   2.0000      -0.873696       -23.7745
 153   2.0000      -0.869488       -23.6600
 154   2.0000      -0.865180       -23.5428
 155   2.0000      -0.858431       -23.3591
 156   2.0000      -0.846841       -23.0437
 157   2.0000      -0.844534       -22.9809
 158   2.0000      -0.840624       -22.8745
 159   2.0000      -0.838886       -22.8272
 160   2.0000      -0.837794       -22.7975
 161   2.0000      -0.817970       -22.2581
 162   2.0000      -0.813835       -22.1456
 163   2.0000      -0.796362       -21.6701
 164   2.0000      -0.792674       -21.5697
 165   2.0000      -0.774754       -21.0821
 166   2.0000      -0.771657       -20.9978
 167   2.0000      -0.756759       -20.5925
 168   2.0000      -0.748986       -20.3809
 169   2.0000      -0.747795       -20.3485
 170   2.0000      -0.745936       -20.2980
 171   2.0000      -0.731223       -19.8976
 172   2.0000      -0.720788       -19.6137
 173   2.0000      -0.710577       -19.3358
 174   2.0000      -0.707972       -19.2649
 175   2.0000      -0.697620       -18.9832
 176   2.0000      -0.695084       -18.9142
 177   2.0000      -0.689646       -18.7662
 178   2.0000      -0.684596       -18.6288
 179   2.0000      -0.676782       -18.4162
 180   2.0000      -0.672915       -18.3110
 181   2.0000      -0.668166       -18.1817
 182   2.0000      -0.664045       -18.0696
 183   2.0000      -0.655042       -17.8246
 184   2.0000      -0.654404       -17.8072
 185   2.0000      -0.648416       -17.6443
 186   2.0000      -0.645920       -17.5764
 187   2.0000      -0.636746       -17.3267
 188   2.0000      -0.634701       -17.2711
 189   2.0000      -0.633331       -17.2338
 190   2.0000      -0.623588       -16.9687
 191   2.0000      -0.622506       -16.9393
 192   2.0000      -0.620614       -16.8878
 193   2.0000      -0.617924       -16.8146
 194   2.0000      -0.612361       -16.6632
 195   2.0000      -0.609712       -16.5911
 196   2.0000      -0.607100       -16.5200
 197   2.0000      -0.602789       -16.4027
 198   2.0000      -0.599720       -16.3192
 199   2.0000      -0.591953       -16.1079
 200   2.0000      -0.589305       -16.0358
 201   2.0000      -0.586437       -15.9578
 202   2.0000      -0.585218       -15.9246
 203   2.0000      -0.579500       -15.7690
 204   2.0000      -0.575528       -15.6609
 205   2.0000      -0.570971       -15.5369
 206   2.0000      -0.568732       -15.4760
 207   2.0000      -0.561090       -15.2680
 208   2.0000      -0.559705       -15.2304
 209   2.0000      -0.554795       -15.0967
 210   2.0000      -0.550893       -14.9906
 211   2.0000      -0.547071       -14.8866
 212   2.0000      -0.545318       -14.8388
 213   2.0000      -0.543507       -14.7896
 214   2.0000      -0.541206       -14.7270
 215   2.0000      -0.539725       -14.6867
 216   2.0000      -0.538630       -14.6569
 217   2.0000      -0.535297       -14.5662
 218   2.0000      -0.535214       -14.5639
 219   2.0000      -0.531249       -14.4560
 220   2.0000      -0.525132       -14.2896
 221   2.0000      -0.524262       -14.2659
 222   2.0000      -0.521873       -14.2009
 223   2.0000      -0.518494       -14.1090
 224   2.0000      -0.517053       -14.0697
 225   2.0000      -0.516657       -14.0590
 226   2.0000      -0.514131       -13.9902
 227   2.0000      -0.509877       -13.8745
 228   2.0000      -0.509500       -13.8642
 229   2.0000      -0.507855       -13.8194
 230   2.0000      -0.503155       -13.6916
 231   2.0000      -0.502546       -13.6750
 232   2.0000      -0.500106       -13.6086
 233   2.0000      -0.497809       -13.5461
 234   2.0000      -0.496948       -13.5227
 235   2.0000      -0.494028       -13.4432
 236   2.0000      -0.492843       -13.4109
 237   2.0000      -0.490658       -13.3515
 238   2.0000      -0.486553       -13.2398
 239   2.0000      -0.484954       -13.1963
 240   2.0000      -0.481330       -13.0977
 241   2.0000      -0.477331       -12.9888
 242   2.0000      -0.477000       -12.9798
 243   2.0000      -0.475872       -12.9491
 244   2.0000      -0.474213       -12.9040
 245   2.0000      -0.472832       -12.8664
 246   2.0000      -0.466856       -12.7038
 247   2.0000      -0.464099       -12.6288
 248   2.0000      -0.462508       -12.5855
 249   2.0000      -0.460695       -12.5362
 250   2.0000      -0.457148       -12.4396
 251   2.0000      -0.455819       -12.4035
 252   2.0000      -0.455428       -12.3928
 253   2.0000      -0.452370       -12.3096
 254   2.0000      -0.450719       -12.2647
 255   2.0000      -0.447274       -12.1709
 256   2.0000      -0.445221       -12.1151
 257   2.0000      -0.443413       -12.0659
 258   2.0000      -0.440451       -11.9853
 259   2.0000      -0.436757       -11.8848
 260   2.0000      -0.436626       -11.8812
 261   2.0000      -0.435741       -11.8571
 262   2.0000      -0.433512       -11.7965
 263   2.0000      -0.431669       -11.7463
 264   2.0000      -0.431393       -11.7388
 265   2.0000      -0.428488       -11.6598
 266   2.0000      -0.427853       -11.6425
 267   2.0000      -0.420075       -11.4308
 268   2.0000      -0.417812       -11.3692
 269   2.0000      -0.415214       -11.2986
 270   2.0000      -0.413968       -11.2646
 271   2.0000      -0.410736       -11.1767
 272   2.0000      -0.409690       -11.1482
 273   2.0000      -0.407961       -11.1012
 274   2.0000      -0.403055       -10.9677
 275   2.0000      -0.397659       -10.8208
 276   2.0000      -0.395291       -10.7564
 277   2.0000      -0.394155       -10.7255
 278   2.0000      -0.392289       -10.6747
 279   2.0000      -0.391683       -10.6582
 280   2.0000      -0.388466       -10.5707
 281   2.0000      -0.384511       -10.4631
 282   2.0000      -0.381583       -10.3834
 283   2.0000      -0.375957       -10.2303
 284   2.0000      -0.369089       -10.0434
 285   2.0000      -0.364346        -9.9144
 286   2.0000      -0.360759        -9.8167
 287   2.0000      -0.356717        -9.7067
 288   2.0000      -0.347859        -9.4657
 289   2.0000      -0.344525        -9.3750
 290   2.0000      -0.341631        -9.2963
 291   2.0000      -0.338849        -9.2206
 292   2.0000      -0.337876        -9.1941
 293   2.0000      -0.324570        -8.8320
 294   2.0000      -0.322554        -8.7771
 295   2.0000      -0.313705        -8.5363
 296   2.0000      -0.307510        -8.3678
 297   2.0000      -0.302597        -8.2341
 298   2.0000      -0.300277        -8.1710
 299   2.0000      -0.285915        -7.7801
 300   2.0000      -0.279339        -7.6012
 301   2.0000      -0.235120        -6.3979
 302   0.0000      -0.115147        -3.1333
 303   0.0000      -0.102799        -2.7973
 304   0.0000      -0.070148        -1.9088
 305   0.0000      -0.068945        -1.8761
 306   0.0000      -0.052453        -1.4273

MULLIKEN ATOMIC CHARGES
-----------------------
   0 C :    0.320545
   1 C :   -0.363676
   2 C :   -0.185379
   3 N :    0.138345
   4 C :   -0.197165
   5 N :    0.149511
   6 C :    0.010848
   7 C :    0.006726
   8 C :   -0.088036
   9 C :    0.120397
  10 C :   -0.097634
  11 C :   -0.024133
  12 S :    0.174665
  13 C :   -0.121089
  14 C :    0.046542
  15 Br:   -0.000333
  16 C :    0.113723
  17 O :   -0.189529
  18 C :   -0.080821
  19 C :   -0.019108
  20 C :   -0.007243
  21 C :    0.003455
  22 C :    0.026340
  23 C :    0.041179
  24 C :   -0.064948
  25 S :    0.167415
  26 C :   -0.023118
  27 C :    0.033534
  28 C :    0.046497
  29 C :   -0.032002
  30 S :    0.101989
  31 C :   -0.026702
  32 C :   -0.088919
  33 S :    0.134519
  34 C :   -0.065335
  35 C :   -0.042756
  36 C :   -0.075578
  37 C :    0.329683
  38 F :   -0.242263
  39 C :    0.190963
  40 F :   -0.231000
  41 C :    0.233757
  42 F :   -0.229563
  43 C :    0.266802
  44 F :   -0.250369
  45 C :    0.014490
  46 C :    0.037912
  47 C :   -0.031878
  48 N :   -0.118477
  49 C :    0.107335
  50 C :   -0.031890
  51 C :    0.041449
  52 N :   -0.060108
  53 C :    0.022384
  54 C :    0.037880
  55 C :    0.048664
  56 C :   -0.105789
  57 C :    0.258965
  58 C :   -0.333861
  59 C :   -0.181789
  60 N :    0.162961
  61 C :   -0.199480
  62 N :    0.178324
  63 C :    0.001697
  64 C :    0.004740
  65 C :    0.134725
  66 O :   -0.136114
  67 C :   -0.071839
  68 C :    0.112195
  69 C :   -0.086954
  70 C :   -0.022656
  71 S :    0.189776
  72 C :   -0.125883
  73 C :    0.044379
  74 Br:    0.030728
  75 H :   -0.015251
  76 H :   -0.011839
  77 H :   -0.028757
  78 H :    0.020406
  79 H :   -0.004473
  80 H :   -0.003707
  81 H :   -0.008091
  82 H :   -0.003106
  83 H :    0.002713
  84 H :    0.013807
  85 H :    0.014940
  86 H :    0.029905
  87 H :    0.026358
  88 H :    0.034272
  89 H :    0.025168
  90 H :   -0.001890
  91 H :    0.015693
  92 H :   -0.002653
  93 H :   -0.000324
  94 H :    0.033119
  95 H :    0.036684
  96 H :   -0.004874
  97 H :   -0.001066
  98 H :    0.000342
Sum of atomic charges:   -0.0000000

LOEWDIN ATOMIC CHARGES
----------------------
   0 C :    0.078253
   1 C :   -0.149130
   2 C :   -0.017588
   3 N :   -0.063992
   4 C :   -0.022540
   5 N :   -0.059954
   6 C :   -0.021192
   7 C :   -0.045675
   8 C :    0.013851
   9 C :   -0.034850
  10 C :   -0.148076
  11 C :   -0.011982
  12 S :    0.422760
  13 C :   -0.278357
  14 C :   -0.072408
  15 Br:    0.127165
  16 C :    0.052114
  17 O :   -0.183509
  18 C :   -0.112020
  19 C :    0.040662
  20 C :   -0.073288
  21 C :   -0.112119
  22 C :   -0.031149
  23 C :   -0.025236
  24 C :   -0.191694
  25 S :    0.491687
  26 C :   -0.143609
  27 C :   -0.034102
  28 C :   -0.008338
  29 C :   -0.152525
  30 S :    0.392352
  31 C :   -0.047884
  32 C :   -0.161316
  33 S :    0.465266
  34 C :   -0.153652
  35 C :   -0.071978
  36 C :   -0.070081
  37 C :    0.098181
  38 F :   -0.118850
  39 C :    0.073017
  40 F :   -0.108794
  41 C :    0.084228
  42 F :   -0.106244
  43 C :    0.101415
  44 F :   -0.128010
  45 C :   -0.005713
  46 C :   -0.031685
  47 C :    0.034418
  48 N :   -0.093006
  49 C :    0.058674
  50 C :   -0.058546
  51 C :    0.036481
  52 N :   -0.076210
  53 C :    0.004197
  54 C :    0.007367
  55 C :    0.064924
  56 C :   -0.076858
  57 C :    0.065091
  58 C :   -0.134740
  59 C :   -0.021010
  60 N :   -0.046237
  61 C :   -0.019412
  62 N :   -0.037756
  63 C :   -0.020008
  64 C :   -0.053375
  65 C :    0.084821
  66 O :   -0.133547
  67 C :    0.025208
  68 C :   -0.031273
  69 C :   -0.142142
  70 C :   -0.011478
  71 S :    0.435913
  72 C :   -0.269728
  73 C :   -0.069539
  74 Br:    0.142377
  75 H :    0.038451
  76 H :    0.039529
  77 H :    0.031132
  78 H :    0.046666
  79 H :    0.039789
  80 H :    0.036298
  81 H :    0.033335
  82 H :    0.036633
  83 H :    0.039823
  84 H :    0.045697
  85 H :    0.025925
  86 H :    0.032110
  87 H :    0.030422
  88 H :    0.032536
  89 H :    0.040494
  90 H :    0.028618
  91 H :    0.030051
  92 H :    0.034438
  93 H :    0.030593
  94 H :    0.043503
  95 H :    0.051205
  96 H :    0.043134
  97 H :    0.041357
  98 H :    0.040248

  Mayer bond orders larger than 0.100000
B(  0-C ,  1-C ) :   1.6000 B(  0-C ,  6-C ) :   0.9918 B(  0-C , 18-C ) :   1.1104
B(  1-C ,  2-C ) :   1.1474 B(  1-C ,  4-C ) :   1.1484 B(  2-C ,  3-N ) :   2.9641
B(  4-C ,  5-N ) :   2.9751 B(  6-C ,  7-C ) :   1.2774 B(  6-C , 11-C ) :   1.4167
B(  7-C ,  8-C ) :   1.4250 B(  7-C , 16-C ) :   0.9262 B(  8-C ,  9-C ) :   1.2359
B(  8-C , 75-H ) :   1.0187 B(  9-C , 10-C ) :   1.3144 B(  9-C , 14-C ) :   1.1707
B( 10-C , 11-C ) :   1.3174 B( 10-C , 12-S ) :   1.0819 B( 11-C , 76-H ) :   0.9811
B( 12-S , 13-C ) :   1.0804 B( 13-C , 14-C ) :   1.6116 B( 13-C , 15-Br) :   1.0102
B( 14-C , 77-H ) :   0.9775 B( 16-C , 17-O ) :   2.1242 B( 16-C , 18-C ) :   1.0172
B( 18-C , 19-C ) :   1.4201 B( 19-C , 20-C ) :   1.3630 B( 19-C , 78-H ) :   0.9343
B( 20-C , 21-C ) :   1.4441 B( 20-C , 79-H ) :   0.9491 B( 21-C , 22-C ) :   1.1651
B( 21-C , 25-S ) :   1.1311 B( 22-C , 23-C ) :   1.5760 B( 22-C , 80-H ) :   0.9982
B( 23-C , 24-C ) :   1.1822 B( 23-C , 81-H ) :   0.9929 B( 24-C , 25-S ) :   1.0586
B( 24-C , 26-C ) :   1.4899 B( 26-C , 27-C ) :   1.1832 B( 26-C , 30-S ) :   1.0695
B( 27-C , 28-C ) :   1.5881 B( 27-C , 82-H ) :   0.9943 B( 28-C , 29-C ) :   1.1405
B( 28-C , 83-H ) :   1.0007 B( 29-C , 30-S ) :   1.0347 B( 29-C , 31-C ) :   1.5607
B( 31-C , 32-C ) :   1.1953 B( 31-C , 84-H ) :   0.9600 B( 32-C , 33-S ) :   1.1169
B( 32-C , 36-C ) :   1.4550 B( 33-S , 34-C ) :   1.1318 B( 34-C , 35-C ) :   1.4711
B( 34-C , 45-C ) :   1.1365 B( 35-C , 36-C ) :   1.3857 B( 35-C , 43-C ) :   0.9666
B( 36-C , 37-C ) :   0.9646 B( 37-C , 38-F ) :   1.0336 B( 37-C , 39-C ) :   0.9897
B( 37-C , 85-H ) :   0.9206 B( 39-C , 40-F ) :   1.0505 B( 39-C , 41-C ) :   0.9923
B( 39-C , 86-H ) :   0.9316 B( 41-C , 42-F ) :   1.0440 B( 41-C , 43-C ) :   0.9927
B( 41-C , 87-H ) :   0.9278 B( 43-C , 44-F ) :   1.0171 B( 43-C , 88-H ) :   0.9220
B( 45-C , 46-C ) :   1.6810 B( 45-C , 89-H ) :   0.9629 B( 46-C , 47-C ) :   1.0511
B( 46-C , 90-H ) :   0.9716 B( 47-C , 48-N ) :   1.4278 B( 47-C , 52-N ) :   1.5372
B( 48-N , 49-C ) :   1.5134 B( 49-C , 50-C ) :   1.3669 B( 49-C , 91-H ) :   0.9784
B( 50-C , 51-C ) :   1.3263 B( 50-C , 92-H ) :   0.9780 B( 51-C , 52-N ) :   1.5284
B( 51-C , 53-C ) :   1.0785 B( 53-C , 54-C ) :   1.7402 B( 53-C , 93-H ) :   0.9673
B( 54-C , 55-C ) :   1.0755 B( 54-C , 94-H ) :   0.9486 B( 55-C , 56-C ) :   1.7327
B( 55-C , 95-H ) :   0.9299 B( 56-C , 57-C ) :   1.0141 B( 56-C , 65-C ) :   0.9293
B( 57-C , 58-C ) :   1.6685 B( 57-C , 63-C ) :   1.0174 B( 58-C , 59-C ) :   1.1250
B( 58-C , 61-C ) :   1.1641 B( 59-C , 60-N ) :   2.9935 B( 61-C , 62-N ) :   3.0000
B( 63-C , 64-C ) :   1.2723 B( 63-C , 70-C ) :   1.4088 B( 64-C , 65-C ) :   0.9194
B( 64-C , 67-C ) :   1.4198 B( 65-C , 66-O ) :   2.2734 B( 67-C , 68-C ) :   1.2534
B( 67-C , 96-H ) :   1.0175 B( 68-C , 69-C ) :   1.3021 B( 68-C , 73-C ) :   1.1662
B( 69-C , 70-C ) :   1.3306 B( 69-C , 71-S ) :   1.0862 B( 70-C , 97-H ) :   0.9845
B( 71-S , 72-C ) :   1.0880 B( 72-C , 73-C ) :   1.6165 B( 72-C , 74-Br) :   1.0231
B( 73-C , 98-H ) :   1.0001

-----------------------------------------------------------------------------
         ABSORPTION SPECTRUM VIA TRANSITION ELECTRIC DIPOLE MOMENTS
-----------------------------------------------------------------------------
State   Energy  Wavelength   fosc         T2         TX        TY        TZ
        (cm-1)    (nm)                  (au**2)     (au)      (au)      (au)
-----------------------------------------------------------------------------
   0   11878.1    841.9   0.720932359  19.98123   3.79510  -2.00197   1.25322
   1   19370.1    516.3   0.009220953   0.15672   0.16473  -0.24910   0.25987
   2   20547.6    486.7   0.030284927   0.48522   0.26275   0.54507  -0.34508
   3   22001.6    454.5   0.525004433   7.85571   1.57668   2.08476  -1.01171
   4   22523.2    444.0   0.079619302   1.16376  -0.12987   0.99401  -0.39855
   5   23035.8    434.1   0.007538748   0.10774  -0.31709  -0.01578  -0.08334
   6   24942.8    400.9   1.345339662  17.75671  -1.85005  -3.72963   0.65108
   7   26124.6    382.8   0.019895709   0.25072   0.14787  -0.44096   0.18549
   8   26262.0    380.8   0.165313340   2.07232   1.42042  -0.12620   0.19699
   9   26777.1    373.5   0.216023734   2.65591  -0.86507  -1.12906   0.79549
  10   27281.6    366.5   0.005031872   0.06072   0.10041  -0.00215  -0.22502
  11   27911.5    358.3   0.007012559   0.08271  -0.15272  -0.24369   0.00167
  12   28088.3    356.0   0.041353116   0.48468   0.57709   0.38001   0.08508
  13   28446.5    351.5   0.071158328   0.82352  -0.11825   0.89969   0.00958
  14   29070.0    344.0   0.008089926   0.09162   0.10023   0.23184   0.16679
  15   29476.9    339.2   0.002342217   0.02616   0.08988  -0.12446   0.05089
  16   29978.2    333.6   0.018229759   0.20019   0.25930   0.25755  -0.25812
  17   30286.2    330.2   0.091954016   0.99954   0.69816  -0.11177   0.70684
  18   30662.0    326.1   0.001081733   0.01161  -0.07256   0.07906  -0.00997
  19   30858.8    324.1   0.570923269   6.09080  -0.61493   2.32235  -0.56509
  20   31245.6    320.0   0.167320036   1.76293   0.16598  -1.01209   0.84324
  21   31489.7    317.6   0.033928997   0.35471  -0.33074   0.41264  -0.27397
  22   32324.6    309.4   0.160217144   1.63174   1.18995   0.45294  -0.10296
  23   32661.8    306.2   0.067471089   0.68007  -0.77633   0.03054  -0.27649
  24   32834.5    304.6   0.013650057   0.13686   0.07291   0.19705  -0.30449
  25   32963.5    303.4   0.009849492   0.09837  -0.30620   0.04709  -0.04894
  26   33012.8    302.9   0.021561513   0.21502  -0.37651   0.25466   0.09166
  27   33102.5    302.1   0.264030215   2.62584  -0.82401  -0.81208   1.13462
  28   33447.4    299.0   0.559324503   5.50524   0.53806   1.66661  -1.56145
  29   33877.6    295.2   0.024241168   0.23557   0.28080  -0.24334   0.31226
  30   33903.9    295.0   0.172856933   1.67846  -0.51255   0.72666  -0.94219
  31   34210.3    292.3   0.042416442   0.40818  -0.40723  -0.34865   0.34754
  32   34490.3    289.9   0.238904112   2.28035  -1.38059   0.59368   0.14787
  33   34519.4    289.7   0.027297895   0.26034   0.45995   0.04517  -0.21621
  34   34849.6    286.9   0.046210345   0.43653  -0.31612  -0.56153   0.14589
  35   35053.4    285.3   0.190670012   1.79072  -0.80425   0.78837  -0.72276
  36   35399.6    282.5   0.111375255   1.03578  -0.70043   0.40832  -0.61518
  37   35573.7    281.1   0.070726512   0.65453   0.20987   0.34227   0.70238
  38   36074.2    277.2   0.007207626   0.06578   0.06504  -0.18882   0.16091
  39   36483.3    274.1   0.024138354   0.21782   0.22775   0.35666  -0.19682
  40   37007.7    270.2   0.049878677   0.44371   0.41024  -0.52479  -0.00149
  41   37032.8    270.0   0.061939284   0.55062   0.45607  -0.19198   0.55296
  42   37967.9    263.4   0.009984861   0.08658   0.21062   0.11768   0.16843
  43   38050.8    262.8   0.055904202   0.48368   0.03309  -0.63538   0.28086
  44   38330.8    260.9   0.046329315   0.39791   0.02824  -0.50404  -0.37822
  45   38611.4    259.0   0.110633482   0.94329   0.94502  -0.01811  -0.22340
  46   38957.9    256.7   0.001107078   0.00936  -0.08422  -0.03268   0.03456
  47   39166.9    255.3   0.003845725   0.03232   0.06982  -0.11321  -0.12096
  48   39355.3    254.1   0.064778162   0.54188   0.31061   0.01514  -0.66721
  49   39681.2    252.0   0.025039108   0.20774  -0.41215  -0.14779   0.12659
  50   40148.1    249.1   0.016179743   0.13267   0.13584  -0.28276   0.18511

FINAL SINGLE POINT ENERGY    -10161.130015069581

DIPOLE MOMENT
-------------
                                X             Y             Z
Electronic contribution:    -57.05183    -159.96471      58.59075
Nuclear contribution   :     59.02697     158.72271     -57.56885
                        -----------------------------------------
Total Dipole Moment    :      1.97514      -1.24200       1.02190
                        -----------------------------------------
Magnitude (a.u.)       :      2.54716
Magnitude (Debye)      :      6.47437

Rotational constants in cm-1:     0.000920     0.000272     0.000220
Rotational constants in MHz :    27.594888     8.165161     6.587201

                             ****ORCA TERMINATED NORMALLY****
TOTAL RUN TIME: 0 days 0 hours 11 minutes 7 seconds 794 msec
