                         Program Version 4.2.0 -  RELEASE  -
|  1> # ORCA input file
|  2> # SCF done       -180.387450213501          0.000947446881
|  3> ! CAM-B3LYP def2-SVP def2/J RIJCOSX Grid4 TightSCF
|  4> %maxcore 5000
|  5> %tddft
|  6>     Mode sTDDFT
|  7>     Ethresh 5.0
|  8>     maxcore 5000
|  9> end
| 10>
| 11> %pal
| 12>   nprocs 6
| 13>   end
| 14> * xyz 0 1
| 15>    C       -6.37274         1.82961         5.83007
| 16>    C       -5.11056         1.77846         6.36910
| 17>    C       -4.79012         1.10916         7.56651
| 18>    N       -4.47458         0.58386         8.53763
| 19>    C       -3.97014         2.36205         5.78098
| 20>    N       -2.99993         2.79170         5.34101
| 21>    C       -7.55485         1.15382         6.35329
| 22>    C       -8.62580         1.35586         5.44880
| 23>    C       -9.88249         0.84708         5.66446
| 24>    C      -10.09251         0.10062         6.82951
| 25>    C       -9.01708        -0.09494         7.72735
| 26>    C       -7.74465         0.42027         7.50839
| 27>    S       -9.49888        -1.03599         9.10643
| 28>    C      -11.11630        -1.15279         8.46605
| 29>    C      -11.28876        -0.52144         7.28067
| 30>   Br      -12.42537        -2.09352         9.42490
| 31>    C       -8.16509         2.18508         4.31570
| 32>    O       -8.85017         2.60035         3.40155
| 33>    C       -6.74792         2.48935         4.60202
| 34>    C       -6.01453         3.45925         3.95690
| 35>    C       -6.28170         4.00752         2.69672
| 36>    S       -5.83161         5.65635         2.38533
| 37>    C       -6.54011         5.67433         0.80342
| 38>    C       -7.05177         4.39299         0.48601
| 39>    C       -6.87854         3.45337         1.54682
| 40>    C       -7.20748         2.10085         1.35851
| 41>    C       -7.79361         1.72002         0.18462
| 42>    F       -8.11163         0.43442        -0.02138
| 43>    C       -8.05769         2.66307        -0.82818
| 44>    F       -8.65883         2.26055        -1.95972
| 45>    C       -7.68184         3.97153        -0.69735
| 46>    C       -6.52313         6.91416         0.13499
| 47>    C       -6.92131         7.22374        -1.13266
| 48>    C       -6.93501         8.53108        -1.65877
| 49>    C       -7.21864         8.87340        -2.95888
| 50>    C       -7.21802        10.29444        -3.14359
| 51>    C       -6.91692        10.84890        -1.92842
| 52>    C       -6.60160         9.79679        -0.91042
| 53>    C       -7.35692        10.24933         0.33723
| 54>    C       -7.05275        11.74109         0.44919
| 55>    S       -7.10301        12.42096        -1.26113
| 56>    C       -7.59058        11.05282        -4.31697
| 57>    C       -7.42732        10.71183        -5.59885
| 58>    C       -6.71457         9.49657        -6.09191
| 59>    C       -7.90829        11.64842        -6.68108
| 60>    N       -6.83083        12.54131        -7.05678
| 61>    C       -6.46045        12.85354        -8.29944
| 62>    C       -7.16099        12.59719        -9.44743
| 63>    C       -6.74516        12.96195       -10.73520
| 64>    C       -5.52634        13.36871       -11.22833
| 65>    C       -4.16771        13.26692       -10.77101
| 66>    C       -3.63327        12.32336        -9.92006
| 67>    C       -2.26724        12.23204        -9.59434
| 68>    N       -1.17114        12.11756        -9.26981
| 69>    C       -4.37855        11.30257        -9.31322
| 70>    N       -4.94976        10.45765        -8.78167
| 71>    C       -3.36223        14.19071       -11.57098
| 72>    C       -4.15984        14.68440       -12.63126
| 73>    C       -5.52391        14.12845       -12.50053
| 74>    O       -6.45898        14.29067       -13.25507
| 75>    C       -3.67764        15.55666       -13.57467
| 76>    C       -2.34670        15.97421       -13.45678
| 77>    C       -1.56341        15.48846       -12.38458
| 78>    C       -2.04907        14.59545       -11.43604
| 79>    S        0.04483        16.14712       -12.41763
| 80>    C       -0.35126        17.05018       -13.85571
| 81>    C       -1.62097        16.87027       -14.28937
| 82>   Br        0.94875        18.14867       -14.64549
| 83>    H      -10.67883         1.01839         4.95732
| 84>    H       -6.95838         0.25013         8.22482
| 85>    H      -12.22039        -0.49275         6.74571
| 86>    H       -5.19383         3.91524         4.49876
| 87>    H       -6.98804         1.36369         2.11178
| 88>    H       -7.88151         4.64558        -1.51076
| 89>    H       -6.11779         7.71925         0.73461
| 90>    H       -7.25197         6.45367        -1.81095
| 91>    H       -7.48518         8.17260        -3.72862
| 92>    H       -5.52392         9.80476        -0.69983
| 93>    H       -7.04315         9.73239         1.24293
| 94>    H       -8.42689        10.08729         0.19437
| 95>    H       -6.05004        11.91672         0.84083
| 96>    H       -7.77603        12.28787         1.04966
| 97>    H       -8.04022        12.01202        -4.08108
| 98>    H       -7.43101         8.73403        -6.39866
| 99>    H       -6.06539         9.07862        -5.32809
|100>    H       -6.11513         9.74980        -6.96555
|101>    H       -8.76332        12.23831        -6.32849
|102>    H       -8.20735        11.07217        -7.55651
|103>    H       -6.25075        12.84807        -6.29052
|104>    H       -5.55331        13.44076        -8.36264
|105>    H       -8.14364        12.15631        -9.37554
|106>    H       -7.53417        13.00891       -11.48093
|107>    H       -4.30539        15.90892       -14.37806
|108>    H       -1.41428        14.25754       -10.63367
|109>    H       -2.03186        17.34942       -15.15930
|110> *
|111>
|112>                          ****END OF INPUT****

CARTESIAN COORDINATES (ANGSTROEM)
---------------------------------
  C     -6.372740    1.829610    5.830070
  C     -5.110560    1.778460    6.369100
  C     -4.790120    1.109160    7.566510
  N     -4.474580    0.583860    8.537630
  C     -3.970140    2.362050    5.780980
  N     -2.999930    2.791700    5.341010
  C     -7.554850    1.153820    6.353290
  C     -8.625800    1.355860    5.448800
  C     -9.882490    0.847080    5.664460
  C    -10.092510    0.100620    6.829510
  C     -9.017080   -0.094940    7.727350
  C     -7.744650    0.420270    7.508390
  S     -9.498880   -1.035990    9.106430
  C    -11.116300   -1.152790    8.466050
  C    -11.288760   -0.521440    7.280670
  Br   -12.425370   -2.093520    9.424900
  C     -8.165090    2.185080    4.315700
  O     -8.850170    2.600350    3.401550
  C     -6.747920    2.489350    4.602020
  C     -6.014530    3.459250    3.956900
  C     -6.281700    4.007520    2.696720
  S     -5.831610    5.656350    2.385330
  C     -6.540110    5.674330    0.803420
  C     -7.051770    4.392990    0.486010
  C     -6.878540    3.453370    1.546820
  C     -7.207480    2.100850    1.358510
  C     -7.793610    1.720020    0.184620
  F     -8.111630    0.434420   -0.021380
  C     -8.057690    2.663070   -0.828180
  F     -8.658830    2.260550   -1.959720
  C     -7.681840    3.971530   -0.697350
  C     -6.523130    6.914160    0.134990
  C     -6.921310    7.223740   -1.132660
  C     -6.935010    8.531080   -1.658770
  C     -7.218640    8.873400   -2.958880
  C     -7.218020   10.294440   -3.143590
  C     -6.916920   10.848900   -1.928420
  C     -6.601600    9.796790   -0.910420
  C     -7.356920   10.249330    0.337230
  C     -7.052750   11.741090    0.449190
  S     -7.103010   12.420960   -1.261130
  C     -7.590580   11.052820   -4.316970
  C     -7.427320   10.711830   -5.598850
  C     -6.714570    9.496570   -6.091910
  C     -7.908290   11.648420   -6.681080
  N     -6.830830   12.541310   -7.056780
  C     -6.460450   12.853540   -8.299440
  C     -7.160990   12.597190   -9.447430
  C     -6.745160   12.961950  -10.735200
  C     -5.526340   13.368710  -11.228330
  C     -4.167710   13.266920  -10.771010
  C     -3.633270   12.323360   -9.920060
  C     -2.267240   12.232040   -9.594340
  N     -1.171140   12.117560   -9.269810
  C     -4.378550   11.302570   -9.313220
  N     -4.949760   10.457650   -8.781670
  C     -3.362230   14.190710  -11.570980
  C     -4.159840   14.684400  -12.631260
  C     -5.523910   14.128450  -12.500530
  O     -6.458980   14.290670  -13.255070
  C     -3.677640   15.556660  -13.574670
  C     -2.346700   15.974210  -13.456780
  C     -1.563410   15.488460  -12.384580
  C     -2.049070   14.595450  -11.436040
  S      0.044830   16.147120  -12.417630
  C     -0.351260   17.050180  -13.855710
  C     -1.620970   16.870270  -14.289370
  Br     0.948750   18.148670  -14.645490
  H    -10.678830    1.018390    4.957320
  H     -6.958380    0.250130    8.224820
  H    -12.220390   -0.492750    6.745710
  H     -5.193830    3.915240    4.498760
  H     -6.988040    1.363690    2.111780
  H     -7.881510    4.645580   -1.510760
  H     -6.117790    7.719250    0.734610
  H     -7.251970    6.453670   -1.810950
  H     -7.485180    8.172600   -3.728620
  H     -5.523920    9.804760   -0.699830
  H     -7.043150    9.732390    1.242930
  H     -8.426890   10.087290    0.194370
  H     -6.050040   11.916720    0.840830
  H     -7.776030   12.287870    1.049660
  H     -8.040220   12.012020   -4.081080
  H     -7.431010    8.734030   -6.398660
  H     -6.065390    9.078620   -5.328090
  H     -6.115130    9.749800   -6.965550
  H     -8.763320   12.238310   -6.328490
  H     -8.207350   11.072170   -7.556510
  H     -6.250750   12.848070   -6.290520
  H     -5.553310   13.440760   -8.362640
  H     -8.143640   12.156310   -9.375540
  H     -7.534170   13.008910  -11.480930
  H     -4.305390   15.908920  -14.378060
  H     -1.414280   14.257540  -10.633670
  H     -2.031860   17.349420  -15.159300

 Total Charge           Charge          ....    0
 Multiplicity           Mult            ....    1
 Number of Electrons    NEL             ....  548
 Basis Dimension        Dim             .... 1139

ORBITAL ENERGIES
----------------

  NO   OCC          E(Eh)            E(eV)
   0   2.0000    -482.881573    -13139.8756
   1   2.0000    -482.881136    -13139.8637
   2   2.0000     -88.979225     -2421.2478
   3   2.0000     -88.969989     -2420.9965
   4   2.0000     -88.969588     -2420.9856
   5   2.0000     -88.953392     -2420.5449
   6   2.0000     -62.559257     -1702.3239
   7   2.0000     -62.558848     -1702.3128
   8   2.0000     -56.393201     -1534.5370
   9   2.0000     -56.392792     -1534.5259
  10   2.0000     -56.390499     -1534.4635
  11   2.0000     -56.390466     -1534.4626
  12   2.0000     -56.390090     -1534.4524
  13   2.0000     -56.390053     -1534.4514
  14   2.0000     -24.790531      -674.5847
  15   2.0000     -24.790206      -674.5758
  16   2.0000     -19.206365      -522.6318
  17   2.0000     -19.200383      -522.4690
  18   2.0000     -14.473652      -393.8481
  19   2.0000     -14.415642      -392.2696
  20   2.0000     -14.406526      -392.0215
  21   2.0000     -14.406366      -392.0171
  22   2.0000     -14.406237      -392.0136
  23   2.0000     -10.372785      -282.2578
  24   2.0000     -10.371793      -282.2308
  25   2.0000     -10.357444      -281.8404
  26   2.0000     -10.353756      -281.7400
  27   2.0000     -10.353657      -281.7373
  28   2.0000     -10.352987      -281.7191
  29   2.0000     -10.351845      -281.6880
  30   2.0000     -10.336587      -281.2728
  31   2.0000     -10.335152      -281.2338
  32   2.0000     -10.332044      -281.1492
  33   2.0000     -10.331387      -281.1313
  34   2.0000     -10.328518      -281.0533
  35   2.0000     -10.328120      -281.0424
  36   2.0000     -10.321976      -280.8752
  37   2.0000     -10.319760      -280.8149
  38   2.0000     -10.318964      -280.7933
  39   2.0000     -10.318416      -280.7784
  40   2.0000     -10.316900      -280.7371
  41   2.0000     -10.315880      -280.7094
  42   2.0000     -10.313157      -280.6353
  43   2.0000     -10.311113      -280.5796
  44   2.0000     -10.310044      -280.5505
  45   2.0000     -10.309994      -280.5492
  46   2.0000     -10.308339      -280.5042
  47   2.0000     -10.305214      -280.4191
  48   2.0000     -10.304570      -280.4016
  49   2.0000     -10.304439      -280.3980
  50   2.0000     -10.304139      -280.3899
  51   2.0000     -10.303594      -280.3750
  52   2.0000     -10.301215      -280.3103
  53   2.0000     -10.300410      -280.2884
  54   2.0000     -10.300137      -280.2810
  55   2.0000     -10.299749      -280.2704
  56   2.0000     -10.298885      -280.2469
  57   2.0000     -10.298521      -280.2370
  58   2.0000     -10.298131      -280.2264
  59   2.0000     -10.297662      -280.2136
  60   2.0000     -10.296870      -280.1921
  61   2.0000     -10.294588      -280.1300
  62   2.0000     -10.294068      -280.1158
  63   2.0000     -10.293216      -280.0927
  64   2.0000     -10.291843      -280.0553
  65   2.0000     -10.291681      -280.0509
  66   2.0000     -10.291665      -280.0505
  67   2.0000     -10.291353      -280.0419
  68   2.0000     -10.291151      -280.0365
  69   2.0000     -10.287548      -279.9384
  70   2.0000     -10.286157      -279.9006
  71   2.0000     -10.285185      -279.8741
  72   2.0000     -10.283145      -279.8186
  73   2.0000     -10.275808      -279.6189
  74   2.0000     -10.274695      -279.5887
  75   2.0000     -10.264188      -279.3028
  76   2.0000      -8.788659      -239.1516
  77   2.0000      -8.788266      -239.1409
  78   2.0000      -8.074873      -219.7285
  79   2.0000      -8.066053      -219.4885
  80   2.0000      -8.065656      -219.4777
  81   2.0000      -8.049648      -219.0421
  82   2.0000      -6.624920      -180.2732
  83   2.0000      -6.624538      -180.2628
  84   2.0000      -6.610413      -179.8785
  85   2.0000      -6.610215      -179.8731
  86   2.0000      -6.610012      -179.8676
  87   2.0000      -6.609826      -179.8625
  88   2.0000      -6.043835      -164.4611
  89   2.0000      -6.039824      -164.3520
  90   2.0000      -6.037492      -164.2885
  91   2.0000      -6.035751      -164.2411
  92   2.0000      -6.035345      -164.2301
  93   2.0000      -6.031469      -164.1246
  94   2.0000      -6.031086      -164.1142
  95   2.0000      -6.027248      -164.0098
  96   2.0000      -6.026854      -163.9990
  97   2.0000      -6.019576      -163.8010
  98   2.0000      -6.015688      -163.6952
  99   2.0000      -6.010025      -163.5411
 100   2.0000      -2.740823       -74.5816
 101   2.0000      -2.740404       -74.5702
 102   2.0000      -2.736690       -74.4691
 103   2.0000      -2.736599       -74.4666
 104   2.0000      -2.736322       -74.4591
 105   2.0000      -2.736219       -74.4563
 106   2.0000      -2.725049       -74.1523
 107   2.0000      -2.725029       -74.1518
 108   2.0000      -2.724654       -74.1416
 109   2.0000      -2.724639       -74.1412
 110   2.0000      -1.312629       -35.7184
 111   2.0000      -1.297825       -35.3156
 112   2.0000      -1.121284       -30.5117
 113   2.0000      -1.115361       -30.3505
 114   2.0000      -1.069065       -29.0907
 115   2.0000      -1.016370       -27.6568
 116   2.0000      -1.016181       -27.6517
 117   2.0000      -1.014393       -27.6030
 118   2.0000      -1.008962       -27.4553
 119   2.0000      -1.008790       -27.4506
 120   2.0000      -1.005482       -27.3606
 121   2.0000      -0.990410       -26.9504
 122   2.0000      -0.985573       -26.8188
 123   2.0000      -0.981921       -26.7194
 124   2.0000      -0.980898       -26.6916
 125   2.0000      -0.952381       -25.9156
 126   2.0000      -0.941550       -25.6209
 127   2.0000      -0.937903       -25.5217
 128   2.0000      -0.936175       -25.4746
 129   2.0000      -0.928708       -25.2714
 130   2.0000      -0.916249       -24.9324
 131   2.0000      -0.903247       -24.5786
 132   2.0000      -0.901629       -24.5346
 133   2.0000      -0.901397       -24.5283
 134   2.0000      -0.890864       -24.2416
 135   2.0000      -0.879518       -23.9329
 136   2.0000      -0.878969       -23.9180
 137   2.0000      -0.875732       -23.8299
 138   2.0000      -0.867909       -23.6170
 139   2.0000      -0.857567       -23.3356
 140   2.0000      -0.851176       -23.1617
 141   2.0000      -0.844115       -22.9695
 142   2.0000      -0.830642       -22.6029
 143   2.0000      -0.823420       -22.4064
 144   2.0000      -0.822305       -22.3761
 145   2.0000      -0.819376       -22.2964
 146   2.0000      -0.810429       -22.0529
 147   2.0000      -0.799276       -21.7494
 148   2.0000      -0.796145       -21.6642
 149   2.0000      -0.773633       -21.0516
 150   2.0000      -0.762814       -20.7572
 151   2.0000      -0.752560       -20.4782
 152   2.0000      -0.748018       -20.3546
 153   2.0000      -0.745666       -20.2906
 154   2.0000      -0.742320       -20.1995
 155   2.0000      -0.721675       -19.6378
 156   2.0000      -0.710411       -19.3313
 157   2.0000      -0.709723       -19.3125
 158   2.0000      -0.701262       -19.0823
 159   2.0000      -0.687266       -18.7015
 160   2.0000      -0.684870       -18.6363
 161   2.0000      -0.681705       -18.5501
 162   2.0000      -0.680209       -18.5094
 163   2.0000      -0.673068       -18.3151
 164   2.0000      -0.668300       -18.1854
 165   2.0000      -0.659922       -17.9574
 166   2.0000      -0.655962       -17.8496
 167   2.0000      -0.650820       -17.7097
 168   2.0000      -0.647371       -17.6158
 169   2.0000      -0.637391       -17.3443
 170   2.0000      -0.635855       -17.3025
 171   2.0000      -0.628530       -17.1032
 172   2.0000      -0.622768       -16.9464
 173   2.0000      -0.616032       -16.7631
 174   2.0000      -0.615608       -16.7515
 175   2.0000      -0.613687       -16.6993
 176   2.0000      -0.604853       -16.4589
 177   2.0000      -0.602896       -16.4056
 178   2.0000      -0.596933       -16.2434
 179   2.0000      -0.591234       -16.0883
 180   2.0000      -0.589023       -16.0281
 181   2.0000      -0.582853       -15.8602
 182   2.0000      -0.578028       -15.7289
 183   2.0000      -0.576147       -15.6777
 184   2.0000      -0.571475       -15.5506
 185   2.0000      -0.567959       -15.4549
 186   2.0000      -0.567221       -15.4349
 187   2.0000      -0.563213       -15.3258
 188   2.0000      -0.553752       -15.0684
 189   2.0000      -0.547298       -14.8927
 190   2.0000      -0.546061       -14.8591
 191   2.0000      -0.541577       -14.7371
 192   2.0000      -0.540400       -14.7050
 193   2.0000      -0.539193       -14.6722
 194   2.0000      -0.536648       -14.6029
 195   2.0000      -0.532048       -14.4778
 196   2.0000      -0.531437       -14.4611
 197   2.0000      -0.528926       -14.3928
 198   2.0000      -0.525534       -14.3005
 199   2.0000      -0.523816       -14.2538
 200   2.0000      -0.521233       -14.1835
 201   2.0000      -0.519205       -14.1283
 202   2.0000      -0.517682       -14.0868
 203   2.0000      -0.512460       -13.9447
 204   2.0000      -0.509676       -13.8690
 205   2.0000      -0.506713       -13.7884
 206   2.0000      -0.503936       -13.7128
 207   2.0000      -0.500955       -13.6317
 208   2.0000      -0.500618       -13.6225
 209   2.0000      -0.499032       -13.5793
 210   2.0000      -0.497317       -13.5327
 211   2.0000      -0.493160       -13.4196
 212   2.0000      -0.491683       -13.3794
 213   2.0000      -0.487775       -13.2730
 214   2.0000      -0.485344       -13.2069
 215   2.0000      -0.485080       -13.1997
 216   2.0000      -0.483154       -13.1473
 217   2.0000      -0.478829       -13.0296
 218   2.0000      -0.478002       -13.0071
 219   2.0000      -0.476815       -12.9748
 220   2.0000      -0.471919       -12.8416
 221   2.0000      -0.470908       -12.8141
 222   2.0000      -0.466914       -12.7054
 223   2.0000      -0.461679       -12.5629
 224   2.0000      -0.459532       -12.5045
 225   2.0000      -0.455106       -12.3841
 226   2.0000      -0.453185       -12.3318
 227   2.0000      -0.450480       -12.2582
 228   2.0000      -0.449165       -12.2224
 229   2.0000      -0.443782       -12.0759
 230   2.0000      -0.442207       -12.0331
 231   2.0000      -0.441000       -12.0002
 232   2.0000      -0.440666       -11.9911
 233   2.0000      -0.440266       -11.9802
 234   2.0000      -0.438819       -11.9409
 235   2.0000      -0.436354       -11.8738
 236   2.0000      -0.436043       -11.8653
 237   2.0000      -0.434799       -11.8315
 238   2.0000      -0.432931       -11.7806
 239   2.0000      -0.431896       -11.7525
 240   2.0000      -0.430777       -11.7220
 241   2.0000      -0.429020       -11.6742
 242   2.0000      -0.423549       -11.5254
 243   2.0000      -0.420532       -11.4433
 244   2.0000      -0.419568       -11.4170
 245   2.0000      -0.416180       -11.3248
 246   2.0000      -0.415221       -11.2987
 247   2.0000      -0.414360       -11.2753
 248   2.0000      -0.410494       -11.1701
 249   2.0000      -0.404797       -11.0151
 250   2.0000      -0.404261       -11.0005
 251   2.0000      -0.400750       -10.9050
 252   2.0000      -0.400524       -10.8988
 253   2.0000      -0.384907       -10.4738
 254   2.0000      -0.382313       -10.4033
 255   2.0000      -0.381363       -10.3774
 256   2.0000      -0.371207       -10.1011
 257   2.0000      -0.371005       -10.0956
 258   2.0000      -0.370664       -10.0863
 259   2.0000      -0.360915        -9.8210
 260   2.0000      -0.352362        -9.5882
 261   2.0000      -0.346132        -9.4187
 262   2.0000      -0.339253        -9.2315
 263   2.0000      -0.328188        -8.9305
 264   2.0000      -0.323304        -8.7976
 265   2.0000      -0.322786        -8.7835
 266   2.0000      -0.314848        -8.5675
 267   2.0000      -0.308559        -8.3963
 268   2.0000      -0.308506        -8.3949
 269   2.0000      -0.289072        -7.8660
 270   2.0000      -0.288364        -7.8468
 271   2.0000      -0.278915        -7.5897
 272   2.0000      -0.265935        -7.2365
 273   2.0000      -0.236468        -6.4346
 274   0.0000      -0.100763        -2.7419
 275   0.0000      -0.075562        -2.0561
 276   0.0000      -0.063737        -1.7344
 277   0.0000      -0.043687        -1.1888
 278   0.0000      -0.038550        -1.0490

MULLIKEN ATOMIC CHARGES
-----------------------
   0 C :    0.296141
   1 C :   -0.346799
   2 C :   -0.186976
   3 N :    0.143910
   4 C :   -0.212759
   5 N :    0.158586
   6 C :    0.021493
   7 C :   -0.010822
   8 C :   -0.078495
   9 C :    0.119047
  10 C :   -0.089505
  11 C :   -0.029484
  12 S :    0.182385
  13 C :   -0.122852
  14 C :    0.036545
  15 Br:    0.018316
  16 C :    0.122212
  17 O :   -0.154891
  18 C :   -0.129748
  19 C :    0.019700
  20 C :   -0.143484
  21 S :    0.172521
  22 C :   -0.084127
  23 C :    0.122418
  24 C :    0.154872
  25 C :   -0.066053
  26 C :    0.216664
  27 F :   -0.172895
  28 C :    0.229626
  29 F :   -0.176760
  30 C :   -0.123726
  31 C :    0.031103
  32 C :    0.045494
  33 C :   -0.015359
  34 C :   -0.036264
  35 C :    0.054732
  36 C :   -0.132988
  37 C :    0.017118
  38 C :    0.067673
  39 C :   -0.053070
  40 S :    0.031603
  41 C :   -0.028767
  42 C :   -0.238883
  43 C :    0.100712
  44 C :    0.219493
  45 N :   -0.125109
  46 C :    0.095322
  47 C :   -0.060977
  48 C :    0.047018
  49 C :   -0.158219
  50 C :    0.285266
  51 C :   -0.376730
  52 C :   -0.175838
  53 N :    0.140288
  54 C :   -0.194205
  55 N :    0.163804
  56 C :   -0.007693
  57 C :    0.013194
  58 C :    0.130562
  59 O :   -0.160551
  60 C :   -0.078585
  61 C :    0.112354
  62 C :   -0.089596
  63 C :   -0.025793
  64 S :    0.178318
  65 C :   -0.125753
  66 C :    0.040270
  67 Br:    0.017179
  68 H :   -0.013544
  69 H :   -0.007483
  70 H :   -0.005104
  71 H :    0.025984
  72 H :   -0.003295
  73 H :   -0.023163
  74 H :   -0.025453
  75 H :   -0.036261
  76 H :   -0.016041
  77 H :    0.052731
  78 H :    0.027567
  79 H :    0.029965
  80 H :    0.059482
  81 H :    0.063511
  82 H :   -0.020993
  83 H :    0.026098
  84 H :    0.019473
  85 H :    0.025796
  86 H :    0.023164
  87 H :    0.036097
  88 H :    0.137442
  89 H :    0.038988
  90 H :   -0.006265
  91 H :    0.024902
  92 H :   -0.012681
  93 H :   -0.007850
  94 H :   -0.005250
Sum of atomic charges:   -0.0000000

LOEWDIN ATOMIC CHARGES
----------------------
   0 C :    0.074248
   1 C :   -0.150613
   2 C :   -0.019416
   3 N :   -0.060904
   4 C :   -0.025879
   5 N :   -0.059698
   6 C :   -0.021071
   7 C :   -0.048102
   8 C :    0.017602
   9 C :   -0.034287
  10 C :   -0.146146
  11 C :   -0.011557
  12 S :    0.429658
  13 C :   -0.273455
  14 C :   -0.070943
  15 Br:    0.133020
  16 C :    0.071658
  17 O :   -0.148845
  18 C :   -0.119166
  19 C :    0.038014
  20 C :   -0.194753
  21 S :    0.490706
  22 C :   -0.126812
  23 C :   -0.052149
  24 C :   -0.009179
  25 C :   -0.018156
  26 C :    0.072079
  27 F :   -0.050188
  28 C :    0.063242
  29 F :   -0.056594
  30 C :   -0.039819
  31 C :   -0.078383
  32 C :    0.008323
  33 C :   -0.047473
  34 C :    0.021810
  35 C :   -0.077003
  36 C :   -0.138608
  37 C :   -0.030767
  38 C :   -0.022610
  39 C :   -0.108545
  40 S :    0.313924
  41 C :   -0.052277
  42 C :   -0.034396
  43 C :   -0.057139
  44 C :    0.053918
  45 N :    0.047967
  46 C :    0.105965
  47 C :   -0.137747
  48 C :    0.082314
  49 C :   -0.141500
  50 C :    0.072521
  51 C :   -0.178318
  52 C :   -0.024648
  53 N :   -0.070120
  54 C :    0.000991
  55 N :   -0.064685
  56 C :   -0.019928
  57 C :   -0.049715
  58 C :    0.080889
  59 O :   -0.159134
  60 C :    0.018770
  61 C :   -0.035842
  62 C :   -0.146362
  63 C :   -0.015572
  64 S :    0.426697
  65 C :   -0.274397
  66 C :   -0.070342
  67 Br:    0.131506
  68 H :    0.039536
  69 H :    0.040518
  70 H :    0.038061
  71 H :    0.043544
  72 H :    0.043314
  73 H :    0.036547
  74 H :    0.023496
  75 H :    0.031193
  76 H :    0.027679
  77 H :    0.058196
  78 H :    0.030442
  79 H :    0.035729
  80 H :    0.026373
  81 H :    0.030435
  82 H :    0.023196
  83 H :    0.036987
  84 H :    0.031216
  85 H :    0.034383
  86 H :    0.028698
  87 H :    0.037103
  88 H :    0.088785
  89 H :    0.039583
  90 H :    0.028754
  91 H :    0.046238
  92 H :    0.040009
  93 H :    0.039369
  94 H :    0.038038

  Mayer bond orders larger than 0.100000
B(  0-C ,  1-C ) :   1.6217 B(  0-C ,  6-C ) :   1.0013 B(  0-C , 18-C ) :   1.0929
B(  1-C ,  2-C ) :   1.1425 B(  1-C ,  4-C ) :   1.1442 B(  2-C ,  3-N ) :   2.9698
B(  4-C ,  5-N ) :   2.9995 B(  6-C ,  7-C ) :   1.2739 B(  6-C , 11-C ) :   1.4162
B(  7-C ,  8-C ) :   1.4320 B(  7-C , 16-C ) :   0.9329 B(  8-C ,  9-C ) :   1.2387
B(  8-C , 68-H ) :   1.0168 B(  9-C , 10-C ) :   1.3142 B(  9-C , 14-C ) :   1.1611
B( 10-C , 11-C ) :   1.3213 B( 10-C , 12-S ) :   1.0828 B( 11-C , 69-H ) :   0.9807
B( 12-S , 13-C ) :   1.0870 B( 13-C , 14-C ) :   1.6188 B( 13-C , 15-Br) :   1.0161
B( 14-C , 70-H ) :   1.0004 B( 16-C , 17-O ) :   2.2008 B( 16-C , 18-C ) :   0.9728
B( 18-C , 19-C ) :   1.5023 B( 19-C , 20-C ) :   1.2746 B( 19-C , 71-H ) :   0.9345
B( 20-C , 21-S ) :   1.0942 B( 20-C , 24-C ) :   1.2898 B( 21-S , 22-C ) :   1.2067
B( 22-C , 23-C ) :   1.2772 B( 22-C , 31-C ) :   1.1895 B( 23-C , 24-C ) :   1.2519
B( 23-C , 30-C ) :   1.1640 B( 24-C , 25-C ) :   1.1973 B( 25-C , 26-C ) :   1.4877
B( 25-C , 30-C ) :   0.1084 B( 25-C , 72-H ) :   0.9873 B( 26-C , 27-F ) :   1.1337
B( 26-C , 28-C ) :   1.1726 B( 28-C , 29-F ) :   1.1387 B( 28-C , 30-C ) :   1.4929
B( 30-C , 73-H ) :   1.0009 B( 31-C , 32-C ) :   1.5589 B( 31-C , 74-H ) :   0.9397
B( 32-C , 33-C ) :   1.2101 B( 32-C , 75-H ) :   0.9748 B( 33-C , 34-C ) :   1.5626
B( 33-C , 37-C ) :   1.0131 B( 34-C , 35-C ) :   1.1054 B( 34-C , 76-H ) :   1.0081
B( 35-C , 36-C ) :   1.6502 B( 35-C , 41-C ) :   1.0301 B( 36-C , 37-C ) :   1.0063
B( 36-C , 40-S ) :   1.0856 B( 37-C , 38-C ) :   1.0468 B( 37-C , 77-H ) :   0.8434
B( 38-C , 39-C ) :   1.0643 B( 38-C , 78-H ) :   0.9366 B( 38-C , 79-H ) :   0.9377
B( 39-C , 40-S ) :   0.9752 B( 39-C , 80-H ) :   0.9476 B( 39-C , 81-H ) :   0.9532
B( 41-C , 42-C ) :   1.8350 B( 41-C , 82-H ) :   0.9609 B( 42-C , 43-C ) :   1.0810
B( 42-C , 44-C ) :   1.0316 B( 43-C , 83-H ) :   0.9348 B( 43-C , 84-H ) :   0.9457
B( 43-C , 85-H ) :   0.9220 B( 44-C , 45-N ) :   0.9686 B( 44-C , 86-H ) :   0.9368
B( 44-C , 87-H ) :   0.9297 B( 45-N , 46-C ) :   1.3715 B( 45-N , 88-H ) :   0.9282
B( 46-C , 47-C ) :   1.4472 B( 46-C , 89-H ) :   0.9549 B( 47-C , 48-C ) :   1.3271
B( 47-C , 90-H ) :   0.9531 B( 48-C , 49-C ) :   1.5017 B( 48-C , 91-H ) :   0.9302
B( 49-C , 50-C ) :   1.1035 B( 49-C , 58-C ) :   0.9744 B( 50-C , 51-C ) :   1.5671
B( 50-C , 56-C ) :   1.0046 B( 51-C , 52-C ) :   1.1269 B( 51-C , 54-C ) :   1.1928
B( 52-C , 53-N ) :   2.9839 B( 54-C , 55-N ) :   2.9337 B( 55-N , 85-H ) :   0.1041
B( 56-C , 57-C ) :   1.2806 B( 56-C , 63-C ) :   1.4191 B( 57-C , 58-C ) :   0.9139
B( 57-C , 60-C ) :   1.4340 B( 58-C , 59-O ) :   2.2429 B( 60-C , 61-C ) :   1.2411
B( 60-C , 92-H ) :   1.0169 B( 61-C , 62-C ) :   1.3190 B( 61-C , 66-C ) :   1.1605
B( 62-C , 63-C ) :   1.3210 B( 62-C , 64-S ) :   1.0804 B( 63-C , 93-H ) :   0.9831
B( 64-S , 65-C ) :   1.0872 B( 65-C , 66-C ) :   1.6197 B( 65-C , 67-Br) :   1.0151
B( 66-C , 94-H ) :   1.0010

-----------------------------------------------------------------------------
         ABSORPTION SPECTRUM VIA TRANSITION ELECTRIC DIPOLE MOMENTS
-----------------------------------------------------------------------------
State   Energy  Wavelength   fosc         T2         TX        TY        TZ
        (cm-1)    (nm)                  (au**2)     (au)      (au)      (au)
-----------------------------------------------------------------------------
   0   14640.6    683.0   1.450705396  32.62099   0.01815  -3.94539   4.12971
   1   22000.4    454.5   0.330288112   4.94240   2.00018   0.12970  -0.96170
   2   22394.5    446.5   0.052713745   0.77492   0.12769   0.74797   0.44627
   3   23858.1    419.1   0.095504745   1.31784  -0.02248  -0.76903  -0.85201
   4   25321.0    394.9   0.005796021   0.07536  -0.21245  -0.07035  -0.15898
   5   25757.7    388.2   0.053107446   0.67877  -0.49077  -0.48864   0.44626
   6   26779.0    373.4   0.160444237   1.97245  -1.14546  -0.56714   0.58199
   7   27298.0    366.3   0.107192717   1.29274   0.44306  -0.89136  -0.54947
   8   27525.7    363.3   0.012330959   0.14748  -0.18210   0.31450   0.12413
   9   28481.8    351.1   0.060317353   0.69719  -0.10832   0.61734   0.55167
  10   29247.0    341.9   0.019557917   0.22015  -0.17488  -0.16414   0.40327
  11   30166.3    331.5   0.650188529   7.09566   1.43198   1.33056  -1.80961
  12   30705.6    325.7   0.128385965   1.37650  -0.23382  -1.08238  -0.38765
  13   30713.7    325.6   0.046555207   0.49901  -0.09118  -0.25744  -0.65148
  14   31273.8    319.8   0.035222896   0.37078  -0.58070   0.17986  -0.03500
  15   31370.9    318.8   0.000528429   0.00555  -0.06153  -0.03876  -0.01601
  16   31830.2    314.2   0.419206218   4.33574   0.45990   1.12613  -1.68999
  17   32283.1    309.8   0.500721090   5.10618   2.04066   0.87320  -0.42358
  18   32381.0    308.8   0.124437893   1.26514   0.12515   0.73360  -0.84339
  19   33189.4    301.3   0.041864682   0.41526   0.55452   0.25113  -0.21144
  20   33646.8    297.2   0.128863343   1.26084   0.78783   0.55651  -0.57485
  21   33710.5    296.6   0.042168840   0.41181  -0.44308  -0.36638   0.28507
  22   34445.6    290.3   0.020219675   0.19325   0.35462   0.20531  -0.15919
  23   34639.6    288.7   0.001645583   0.01564   0.09845  -0.00670  -0.07683
  24   34712.6    288.1   0.000182825   0.00173   0.04108  -0.00062  -0.00678
  25   35205.3    284.0   0.357759751   3.34549   0.19114   1.15719  -1.40352
  26   36209.5    276.2   0.275783727   2.50739  -0.76088   0.54516  -1.27721
  27   36915.4    270.9   0.156563453   1.39624  -0.62732   0.06717  -0.99910
  28   37268.6    268.3   0.022466110   0.19845  -0.06190  -0.16863   0.40766
  29   37601.1    265.9   0.053610912   0.46938   0.40569   0.37121  -0.40867
  30   37748.3    264.9   0.108088957   0.94267   0.86843   0.42713  -0.07781
  31   39135.5    255.5   0.048954674   0.41181  -0.28729  -0.33481  -0.46602
  32   39150.4    255.4   0.000908202   0.00764  -0.03786  -0.04296  -0.06602
  33   39386.5    253.9   0.005349326   0.04471  -0.15281   0.14220  -0.03377
  34   39787.4    251.3   0.025113387   0.20780  -0.29556  -0.34533  -0.03437
  35   39861.2    250.9   0.110814057   0.91521  -0.44193   0.29604  -0.79515
  36   40289.7    248.2   0.024436598   0.19967   0.08215  -0.43923   0.00122

FINAL SINGLE POINT ENERGY     -9396.519716739343

DIPOLE MOMENT
-------------
                                X             Y             Z
Electronic contribution:     19.19554     -40.45814      22.43405
Nuclear contribution   :    -22.03948      43.94296     -22.76638
                        -----------------------------------------
Total Dipole Moment    :     -2.84394       3.48483      -0.33233
                        -----------------------------------------
Magnitude (a.u.)       :      4.51026
Magnitude (Debye)      :     11.46418

Rotational constants in cm-1:     0.002269     0.000132     0.000130
Rotational constants in MHz :    68.025470     3.964647     3.904165

                             ****ORCA TERMINATED NORMALLY****
TOTAL RUN TIME: 0 days 0 hours 10 minutes 6 seconds 164 msec
