                         Program Version 4.2.0 -  RELEASE  -
|  1> # ORCA input file
|  2> # SCF done       -179.933245566287          0.000515108369
|  3> ! CAM-B3LYP def2-SVP def2/J RIJCOSX Grid4 TightSCF
|  4> %maxcore 5000
|  5> %tddft
|  6>     Mode sTDDFT
|  7>     Ethresh 5.0
|  8>     maxcore 5000
|  9> end
| 10>
| 11> %pal
| 12>   nprocs 6
| 13>   end
| 14> * xyz 0 1
| 15>    C       -7.27383         1.99380         6.77023
| 16>    C       -8.57649         1.55717         6.82067
| 17>    C       -9.21881         1.12369         7.99637
| 18>    N       -9.79527         0.77032         8.92499
| 19>    C       -9.42571         1.45563         5.70108
| 20>    N      -10.16237         1.32615         4.82869
| 21>    C       -6.33438         2.00968         7.88565
| 22>    C       -5.06602         2.41102         7.39997
| 23>    C       -3.96416         2.52321         8.21067
| 24>    C       -4.12147         2.22418         9.56897
| 25>    C       -5.39264         1.82794        10.04556
| 26>    C       -6.50808         1.71340         9.22375
| 27>    S       -5.36588         1.51792        11.75531
| 28>    C       -3.66944         1.91788        11.80468
| 29>    C       -3.14800         2.26544        10.60463
| 30>   Br       -2.74871         1.84348        13.43714
| 31>    C       -5.15672         2.68352         5.95064
| 32>    O       -4.27049         3.12345         5.24470
| 33>    C       -6.56738         2.42813         5.58977
| 34>    C       -7.14723         2.79830         4.39743
| 35>    C       -6.48033         3.04208         3.18922
| 36>    S       -7.16019         4.17989         2.06668
| 37>    C       -5.84694         4.03481         0.95432
| 38>    C       -4.92459         3.07107         1.41169
| 39>    C       -5.29382         2.50000         2.66205
| 40>    C       -4.53686         1.44121         3.18741
| 41>    C       -3.39322         1.05224         2.54657
| 42>    C       -2.55169        -0.06583         3.09104
| 43>    F       -3.06155        -0.59263         4.21667
| 44>    F       -2.43482        -1.09094         2.22714
| 45>    F       -1.30267         0.31804         3.39372
| 46>    C       -2.95863         1.68193         1.34382
| 47>    O       -1.79520         1.21686         0.84229
| 48>    C       -1.28433         1.78849        -0.33828
| 49>    C       -3.73832         2.66117         0.77540
| 50>    C       -5.74244         4.77247        -0.25652
| 51>    C       -6.46508         5.83598        -0.66220
| 52>    C       -7.55852         6.46552         0.13254
| 53>    C       -6.16869         6.46084        -2.00624
| 54>    N       -7.35745         6.82744        -2.73704
| 55>    C       -8.33688         5.94163        -3.03526
| 56>    C       -9.56021         6.30470        -3.49799
| 57>    C      -10.57361         5.39534        -3.85274
| 58>    C      -11.80693         5.76729        -4.31730
| 59>    C      -12.88580         4.92595        -4.68357
| 60>    C      -13.99483         5.58684        -5.11416
| 61>    C      -13.86174         6.99492        -5.11719
| 62>    S      -12.27267         7.45240        -4.54677
| 63>    C      -14.79121         7.93852        -5.50124
| 64>    C      -16.10482         7.73200        -5.98016
| 65>    C      -16.76814         8.87857        -6.28209
| 66>    C      -16.02833        10.07637        -6.06514
| 67>    S      -14.43520         9.65422        -5.44805
| 68>    C      -16.51099        11.32922        -6.31124
| 69>    C      -15.90097        12.60790        -6.15123
| 70>    C      -14.61366        12.83357        -5.67812
| 71>    C      -14.09016        14.11962        -5.55192
| 72>    C      -14.82691        15.22646        -5.88988
| 73>    C      -16.13704        15.05845        -6.37364
| 74>    C      -16.68121        13.75540        -6.50882
| 75>    N      -17.93339        13.59549        -6.97524
| 76>    C      -18.63118        14.65700        -7.29519
| 77>    C      -18.08535        15.96476        -7.15473
| 78>    N      -16.87012        16.14301        -6.70620
| 79>    C      -18.87339        17.18199        -7.51189
| 80>    C      -20.01587        14.43890        -7.81048
| 81>    H       -3.01032         2.82898         7.81051
| 82>    H       -7.45744         1.41215         9.63419
| 83>    H       -2.12030         2.54092        10.45320
| 84>    H       -8.21434         2.98742         4.38908
| 85>    H       -4.86543         0.92444         4.07355
| 86>    H       -1.10378         2.86082        -0.21573
| 87>    H       -1.95660         1.62144        -1.18575
| 88>    H       -0.33970         1.28034        -0.52137
| 89>    H       -3.45065         3.11866        -0.15602
| 90>    H       -4.95395         4.42859        -0.91387
| 91>    H       -7.25651         6.58973         1.17154
| 92>    H       -8.45140         5.83892         0.12788
| 93>    H       -7.82466         7.43797        -0.27340
| 94>    H       -5.57656         5.76545        -2.61209
| 95>    H       -5.57285         7.36796        -1.86380
| 96>    H       -7.61549         7.80165        -2.76338
| 97>    H       -8.07279         4.90104        -2.90789
| 98>    H       -9.78613         7.35779        -3.60763
| 99>    H      -10.37439         4.33708        -3.74866
|100>    H      -12.80450         3.85516        -4.61525
|101>    H      -14.90259         5.10488        -5.43033
|102>    H      -16.52004         6.74570        -6.08726
|103>    H      -17.77501         8.91599        -6.65908
|104>    H      -17.52308        11.37700        -6.69336
|105>    H      -13.99338        11.99778        -5.39753
|106>    H      -13.08308        14.23745        -5.17890
|107>    H      -14.43631        16.22731        -5.79720
|108>    H      -19.78492        17.23247        -6.91816
|109>    H      -19.15670        17.15662        -8.56315
|110>    H      -18.27120        18.06592        -7.32297
|111>    H      -20.74317        14.92824        -7.16414
|112>    H      -20.22503        13.37350        -7.84337
|113>    H      -20.11962        14.85730        -8.81059
|114> *
|115>
|116>                          ****END OF INPUT****

CARTESIAN COORDINATES (ANGSTROEM)
---------------------------------
  C     -7.273830    1.993800    6.770230
  C     -8.576490    1.557170    6.820670
  C     -9.218810    1.123690    7.996370
  N     -9.795270    0.770320    8.924990
  C     -9.425710    1.455630    5.701080
  N    -10.162370    1.326150    4.828690
  C     -6.334380    2.009680    7.885650
  C     -5.066020    2.411020    7.399970
  C     -3.964160    2.523210    8.210670
  C     -4.121470    2.224180    9.568970
  C     -5.392640    1.827940   10.045560
  C     -6.508080    1.713400    9.223750
  S     -5.365880    1.517920   11.755310
  C     -3.669440    1.917880   11.804680
  C     -3.148000    2.265440   10.604630
  Br    -2.748710    1.843480   13.437140
  C     -5.156720    2.683520    5.950640
  O     -4.270490    3.123450    5.244700
  C     -6.567380    2.428130    5.589770
  C     -7.147230    2.798300    4.397430
  C     -6.480330    3.042080    3.189220
  S     -7.160190    4.179890    2.066680
  C     -5.846940    4.034810    0.954320
  C     -4.924590    3.071070    1.411690
  C     -5.293820    2.500000    2.662050
  C     -4.536860    1.441210    3.187410
  C     -3.393220    1.052240    2.546570
  C     -2.551690   -0.065830    3.091040
  F     -3.061550   -0.592630    4.216670
  F     -2.434820   -1.090940    2.227140
  F     -1.302670    0.318040    3.393720
  C     -2.958630    1.681930    1.343820
  O     -1.795200    1.216860    0.842290
  C     -1.284330    1.788490   -0.338280
  C     -3.738320    2.661170    0.775400
  C     -5.742440    4.772470   -0.256520
  C     -6.465080    5.835980   -0.662200
  C     -7.558520    6.465520    0.132540
  C     -6.168690    6.460840   -2.006240
  N     -7.357450    6.827440   -2.737040
  C     -8.336880    5.941630   -3.035260
  C     -9.560210    6.304700   -3.497990
  C    -10.573610    5.395340   -3.852740
  C    -11.806930    5.767290   -4.317300
  C    -12.885800    4.925950   -4.683570
  C    -13.994830    5.586840   -5.114160
  C    -13.861740    6.994920   -5.117190
  S    -12.272670    7.452400   -4.546770
  C    -14.791210    7.938520   -5.501240
  C    -16.104820    7.732000   -5.980160
  C    -16.768140    8.878570   -6.282090
  C    -16.028330   10.076370   -6.065140
  S    -14.435200    9.654220   -5.448050
  C    -16.510990   11.329220   -6.311240
  C    -15.900970   12.607900   -6.151230
  C    -14.613660   12.833570   -5.678120
  C    -14.090160   14.119620   -5.551920
  C    -14.826910   15.226460   -5.889880
  C    -16.137040   15.058450   -6.373640
  C    -16.681210   13.755400   -6.508820
  N    -17.933390   13.595490   -6.975240
  C    -18.631180   14.657000   -7.295190
  C    -18.085350   15.964760   -7.154730
  N    -16.870120   16.143010   -6.706200
  C    -18.873390   17.181990   -7.511890
  C    -20.015870   14.438900   -7.810480
  H     -3.010320    2.828980    7.810510
  H     -7.457440    1.412150    9.634190
  H     -2.120300    2.540920   10.453200
  H     -8.214340    2.987420    4.389080
  H     -4.865430    0.924440    4.073550
  H     -1.103780    2.860820   -0.215730
  H     -1.956600    1.621440   -1.185750
  H     -0.339700    1.280340   -0.521370
  H     -3.450650    3.118660   -0.156020
  H     -4.953950    4.428590   -0.913870
  H     -7.256510    6.589730    1.171540
  H     -8.451400    5.838920    0.127880
  H     -7.824660    7.437970   -0.273400
  H     -5.576560    5.765450   -2.612090
  H     -5.572850    7.367960   -1.863800
  H     -7.615490    7.801650   -2.763380
  H     -8.072790    4.901040   -2.907890
  H     -9.786130    7.357790   -3.607630
  H    -10.374390    4.337080   -3.748660
  H    -12.804500    3.855160   -4.615250
  H    -14.902590    5.104880   -5.430330
  H    -16.520040    6.745700   -6.087260
  H    -17.775010    8.915990   -6.659080
  H    -17.523080   11.377000   -6.693360
  H    -13.993380   11.997780   -5.397530
  H    -13.083080   14.237450   -5.178900
  H    -14.436310   16.227310   -5.797200
  H    -19.784920   17.232470   -6.918160
  H    -19.156700   17.156620   -8.563150
  H    -18.271200   18.065920   -7.322970
  H    -20.743170   14.928240   -7.164140
  H    -20.225030   13.373500   -7.843370
  H    -20.119620   14.857300   -8.810590

 Total Charge           Charge          ....    0
 Multiplicity           Mult            ....    1
 Number of Electrons    NEL             ....  516
 Basis Dimension        Dim             .... 1123

ORBITAL ENERGIES
----------------

  NO   OCC          E(Eh)            E(eV)
   0   2.0000    -482.883179    -13139.9193
   1   2.0000     -88.987904     -2421.4840
   2   2.0000     -88.972716     -2421.0707
   3   2.0000     -88.928166     -2419.8584
   4   2.0000     -88.927383     -2419.8371
   5   2.0000     -62.560915     -1702.3691
   6   2.0000     -56.394864     -1534.5823
   7   2.0000     -56.392150     -1534.5084
   8   2.0000     -56.392118     -1534.5075
   9   2.0000     -24.792788      -674.6461
  10   2.0000     -24.784998      -674.4341
  11   2.0000     -24.783600      -674.3961
  12   2.0000     -19.263547      -524.1878
  13   2.0000     -19.211614      -522.7746
  14   2.0000     -14.444052      -393.0426
  15   2.0000     -14.410994      -392.1431
  16   2.0000     -14.410769      -392.1369
  17   2.0000     -14.400617      -391.8607
  18   2.0000     -14.397738      -391.7824
  19   2.0000     -10.510204      -285.9972
  20   2.0000     -10.363096      -281.9942
  21   2.0000     -10.357177      -281.8331
  22   2.0000     -10.356034      -281.8020
  23   2.0000     -10.337103      -281.2869
  24   2.0000     -10.336638      -281.2742
  25   2.0000     -10.336552      -281.2719
  26   2.0000     -10.335534      -281.2442
  27   2.0000     -10.331865      -281.1443
  28   2.0000     -10.322609      -280.8925
  29   2.0000     -10.322127      -280.8794
  30   2.0000     -10.319465      -280.8069
  31   2.0000     -10.319172      -280.7990
  32   2.0000     -10.314264      -280.6654
  33   2.0000     -10.313867      -280.6546
  34   2.0000     -10.310447      -280.5615
  35   2.0000     -10.304506      -280.3999
  36   2.0000     -10.304262      -280.3932
  37   2.0000     -10.304178      -280.3909
  38   2.0000     -10.304079      -280.3882
  39   2.0000     -10.303914      -280.3837
  40   2.0000     -10.303436      -280.3707
  41   2.0000     -10.302262      -280.3388
  42   2.0000     -10.301949      -280.3303
  43   2.0000     -10.301339      -280.3137
  44   2.0000     -10.299277      -280.2576
  45   2.0000     -10.297360      -280.2054
  46   2.0000     -10.296340      -280.1777
  47   2.0000     -10.294769      -280.1349
  48   2.0000     -10.293833      -280.1094
  49   2.0000     -10.291604      -280.0488
  50   2.0000     -10.290172      -280.0098
  51   2.0000     -10.288887      -279.9749
  52   2.0000     -10.288775      -279.9718
  53   2.0000     -10.288750      -279.9711
  54   2.0000     -10.288463      -279.9633
  55   2.0000     -10.286985      -279.9231
  56   2.0000     -10.286387      -279.9068
  57   2.0000     -10.274436      -279.5816
  58   2.0000     -10.272991      -279.5423
  59   2.0000     -10.270876      -279.4847
  60   2.0000     -10.269496      -279.4472
  61   2.0000     -10.267326      -279.3881
  62   2.0000     -10.264372      -279.3078
  63   2.0000     -10.261553      -279.2311
  64   2.0000     -10.260908      -279.2135
  65   2.0000     -10.258951      -279.1602
  66   2.0000     -10.257824      -279.1296
  67   2.0000     -10.257637      -279.1245
  68   2.0000     -10.254747      -279.0459
  69   2.0000     -10.250892      -278.9410
  70   2.0000      -8.790357      -239.1978
  71   2.0000      -8.082493      -219.9358
  72   2.0000      -8.068678      -219.5599
  73   2.0000      -8.024482      -218.3573
  74   2.0000      -8.023150      -218.3210
  75   2.0000      -6.626664      -180.3207
  76   2.0000      -6.612090      -179.9241
  77   2.0000      -6.611886      -179.9186
  78   2.0000      -6.051466      -164.6688
  79   2.0000      -6.047247      -164.5540
  80   2.0000      -6.045451      -164.5051
  81   2.0000      -6.038380      -164.3127
  82   2.0000      -6.034092      -164.1960
  83   2.0000      -6.029894      -164.0818
  84   2.0000      -5.994234      -163.1114
  85   2.0000      -5.992920      -163.0757
  86   2.0000      -5.990307      -163.0045
  87   2.0000      -5.988910      -162.9665
  88   2.0000      -5.985299      -162.8683
  89   2.0000      -5.984080      -162.8351
  90   2.0000      -2.742494       -74.6271
  91   2.0000      -2.738434       -74.5166
  92   2.0000      -2.738338       -74.5140
  93   2.0000      -2.726719       -74.1978
  94   2.0000      -2.726705       -74.1974
  95   2.0000      -1.377991       -37.4971
  96   2.0000      -1.281456       -34.8702
  97   2.0000      -1.276248       -34.7285
  98   2.0000      -1.171170       -31.8691
  99   2.0000      -1.126473       -30.6529
 100   2.0000      -1.058465       -28.8023
 101   2.0000      -1.047706       -28.5095
 102   2.0000      -1.019966       -27.7547
 103   2.0000      -1.017402       -27.6849
 104   2.0000      -1.009233       -27.4626
 105   2.0000      -0.989472       -26.9249
 106   2.0000      -0.986083       -26.8327
 107   2.0000      -0.982230       -26.7278
 108   2.0000      -0.977254       -26.5924
 109   2.0000      -0.957811       -26.0634
 110   2.0000      -0.955341       -25.9962
 111   2.0000      -0.942782       -25.6544
 112   2.0000      -0.933278       -25.3958
 113   2.0000      -0.932518       -25.3751
 114   2.0000      -0.907057       -24.6823
 115   2.0000      -0.904887       -24.6232
 116   2.0000      -0.890431       -24.2299
 117   2.0000      -0.882701       -24.0195
 118   2.0000      -0.881223       -23.9793
 119   2.0000      -0.871532       -23.7156
 120   2.0000      -0.867929       -23.6176
 121   2.0000      -0.862810       -23.4782
 122   2.0000      -0.855965       -23.2920
 123   2.0000      -0.844129       -22.9699
 124   2.0000      -0.834426       -22.7059
 125   2.0000      -0.826695       -22.4955
 126   2.0000      -0.825607       -22.4659
 127   2.0000      -0.818278       -22.2665
 128   2.0000      -0.808768       -22.0077
 129   2.0000      -0.804470       -21.8907
 130   2.0000      -0.799163       -21.7463
 131   2.0000      -0.793363       -21.5885
 132   2.0000      -0.784976       -21.3603
 133   2.0000      -0.782325       -21.2882
 134   2.0000      -0.780599       -21.2412
 135   2.0000      -0.758357       -20.6360
 136   2.0000      -0.754476       -20.5303
 137   2.0000      -0.743325       -20.2269
 138   2.0000      -0.721123       -19.6227
 139   2.0000      -0.718964       -19.5640
 140   2.0000      -0.710972       -19.3465
 141   2.0000      -0.701251       -19.0820
 142   2.0000      -0.695976       -18.9385
 143   2.0000      -0.694017       -18.8852
 144   2.0000      -0.690455       -18.7882
 145   2.0000      -0.689203       -18.7542
 146   2.0000      -0.680697       -18.5227
 147   2.0000      -0.674396       -18.3512
 148   2.0000      -0.666407       -18.1339
 149   2.0000      -0.661338       -17.9959
 150   2.0000      -0.659756       -17.9529
 151   2.0000      -0.655995       -17.8505
 152   2.0000      -0.653796       -17.7907
 153   2.0000      -0.641083       -17.4448
 154   2.0000      -0.631000       -17.1704
 155   2.0000      -0.626721       -17.0539
 156   2.0000      -0.620017       -16.8715
 157   2.0000      -0.616592       -16.7783
 158   2.0000      -0.615367       -16.7450
 159   2.0000      -0.612507       -16.6672
 160   2.0000      -0.605264       -16.4701
 161   2.0000      -0.601033       -16.3549
 162   2.0000      -0.598696       -16.2913
 163   2.0000      -0.595799       -16.2125
 164   2.0000      -0.590128       -16.0582
 165   2.0000      -0.584788       -15.9129
 166   2.0000      -0.580036       -15.7836
 167   2.0000      -0.572396       -15.5757
 168   2.0000      -0.571577       -15.5534
 169   2.0000      -0.568240       -15.4626
 170   2.0000      -0.565209       -15.3801
 171   2.0000      -0.557139       -15.1605
 172   2.0000      -0.554845       -15.0981
 173   2.0000      -0.549959       -14.9651
 174   2.0000      -0.544253       -14.8099
 175   2.0000      -0.539471       -14.6797
 176   2.0000      -0.537147       -14.6165
 177   2.0000      -0.536243       -14.5919
 178   2.0000      -0.535522       -14.5723
 179   2.0000      -0.533486       -14.5169
 180   2.0000      -0.532633       -14.4937
 181   2.0000      -0.530832       -14.4447
 182   2.0000      -0.525211       -14.2917
 183   2.0000      -0.524736       -14.2788
 184   2.0000      -0.518569       -14.1110
 185   2.0000      -0.516750       -14.0615
 186   2.0000      -0.511901       -13.9295
 187   2.0000      -0.508983       -13.8501
 188   2.0000      -0.505181       -13.7467
 189   2.0000      -0.503916       -13.7122
 190   2.0000      -0.499906       -13.6031
 191   2.0000      -0.498336       -13.5604
 192   2.0000      -0.494615       -13.4591
 193   2.0000      -0.494096       -13.4450
 194   2.0000      -0.492331       -13.3970
 195   2.0000      -0.490549       -13.3485
 196   2.0000      -0.488686       -13.2978
 197   2.0000      -0.486380       -13.2351
 198   2.0000      -0.483155       -13.1473
 199   2.0000      -0.483023       -13.1437
 200   2.0000      -0.480872       -13.0852
 201   2.0000      -0.479048       -13.0356
 202   2.0000      -0.477952       -13.0057
 203   2.0000      -0.474919       -12.9232
 204   2.0000      -0.474362       -12.9080
 205   2.0000      -0.472414       -12.8551
 206   2.0000      -0.468712       -12.7543
 207   2.0000      -0.466969       -12.7069
 208   2.0000      -0.466398       -12.6913
 209   2.0000      -0.464362       -12.6359
 210   2.0000      -0.462512       -12.5856
 211   2.0000      -0.461602       -12.5608
 212   2.0000      -0.458848       -12.4859
 213   2.0000      -0.457472       -12.4484
 214   2.0000      -0.455305       -12.3895
 215   2.0000      -0.452271       -12.3069
 216   2.0000      -0.448158       -12.1950
 217   2.0000      -0.444788       -12.1033
 218   2.0000      -0.443138       -12.0584
 219   2.0000      -0.441304       -12.0085
 220   2.0000      -0.439863       -11.9693
 221   2.0000      -0.435992       -11.8639
 222   2.0000      -0.433901       -11.8070
 223   2.0000      -0.433315       -11.7911
 224   2.0000      -0.427296       -11.6273
 225   2.0000      -0.424059       -11.5392
 226   2.0000      -0.421734       -11.4760
 227   2.0000      -0.421511       -11.4699
 228   2.0000      -0.418544       -11.3892
 229   2.0000      -0.416944       -11.3456
 230   2.0000      -0.408977       -11.1288
 231   2.0000      -0.407138       -11.0788
 232   2.0000      -0.406164       -11.0523
 233   2.0000      -0.403281       -10.9738
 234   2.0000      -0.402968       -10.9653
 235   2.0000      -0.397270       -10.8103
 236   2.0000      -0.396977       -10.8023
 237   2.0000      -0.383702       -10.4410
 238   2.0000      -0.378453       -10.2982
 239   2.0000      -0.376155       -10.2357
 240   2.0000      -0.372687       -10.1413
 241   2.0000      -0.365195        -9.9375
 242   2.0000      -0.357213        -9.7203
 243   2.0000      -0.348977        -9.4961
 244   2.0000      -0.339444        -9.2367
 245   2.0000      -0.336720        -9.1626
 246   2.0000      -0.331113        -9.0100
 247   2.0000      -0.323087        -8.7916
 248   2.0000      -0.312492        -8.5033
 249   2.0000      -0.308020        -8.3816
 250   2.0000      -0.307862        -8.3774
 251   2.0000      -0.301210        -8.1963
 252   2.0000      -0.298737        -8.1291
 253   2.0000      -0.296065        -8.0563
 254   2.0000      -0.290652        -7.9091
 255   2.0000      -0.259274        -7.0552
 256   2.0000      -0.254834        -6.9344
 257   2.0000      -0.192421        -5.2361
 258   0.0000      -0.100568        -2.7366
 259   0.0000      -0.064896        -1.7659
 260   0.0000      -0.056713        -1.5432
 261   0.0000      -0.027850        -0.7578
 262   0.0000      -0.013971        -0.3802

MULLIKEN ATOMIC CHARGES
-----------------------
   0 C :    0.298645
   1 C :   -0.344639
   2 C :   -0.182074
   3 N :    0.145916
   4 C :   -0.211368
   5 N :    0.157664
   6 C :    0.020976
   7 C :   -0.013296
   8 C :   -0.070540
   9 C :    0.115836
  10 C :   -0.089552
  11 C :   -0.025031
  12 S :    0.184197
  13 C :   -0.124575
  14 C :    0.040602
  15 Br:    0.021377
  16 C :    0.123113
  17 O :   -0.152853
  18 C :   -0.119588
  19 C :    0.014369
  20 C :   -0.125240
  21 S :    0.157721
  22 C :   -0.097443
  23 C :    0.144293
  24 C :    0.148920
  25 C :   -0.010046
  26 C :   -0.165817
  27 C :    0.541419
  28 F :   -0.161280
  29 F :   -0.166594
  30 F :   -0.160079
  31 C :    0.258070
  32 O :   -0.291844
  33 C :    0.181685
  34 C :   -0.176630
  35 C :    0.006542
  36 C :   -0.244992
  37 C :    0.113208
  38 C :    0.204919
  39 N :   -0.166271
  40 C :    0.050196
  41 C :   -0.019878
  42 C :   -0.011473
  43 C :   -0.033557
  44 C :    0.039483
  45 C :    0.015064
  46 C :   -0.039875
  47 S :    0.047187
  48 C :   -0.040932
  49 C :    0.026208
  50 C :    0.031092
  51 C :    0.007518
  52 S :    0.037611
  53 C :   -0.067847
  54 C :    0.098670
  55 C :   -0.068233
  56 C :    0.051086
  57 C :   -0.020642
  58 C :   -0.003844
  59 C :   -0.036893
  60 N :    0.006177
  61 C :   -0.176583
  62 C :   -0.186742
  63 N :    0.005779
  64 C :    0.135152
  65 C :    0.130435
  66 H :   -0.011455
  67 H :   -0.006114
  68 H :   -0.003935
  69 H :    0.029615
  70 H :   -0.003267
  71 H :    0.026753
  72 H :    0.025123
  73 H :    0.048215
  74 H :   -0.044228
  75 H :   -0.023453
  76 H :    0.042892
  77 H :    0.052449
  78 H :    0.006226
  79 H :    0.017617
  80 H :    0.035477
  81 H :    0.123204
  82 H :    0.005039
  83 H :   -0.013293
  84 H :   -0.022916
  85 H :   -0.018524
  86 H :   -0.020230
  87 H :   -0.020768
  88 H :   -0.019102
  89 H :   -0.013229
  90 H :   -0.017155
  91 H :   -0.019227
  92 H :   -0.037523
  93 H :    0.019715
  94 H :    0.020023
  95 H :    0.022703
  96 H :    0.021384
  97 H :    0.022959
  98 H :    0.020146
Sum of atomic charges:   -0.0000000

LOEWDIN ATOMIC CHARGES
----------------------
   0 C :    0.074507
   1 C :   -0.146353
   2 C :   -0.018828
   3 N :   -0.057050
   4 C :   -0.025410
   5 N :   -0.056693
   6 C :   -0.021391
   7 C :   -0.048565
   8 C :    0.020903
   9 C :   -0.033168
  10 C :   -0.144910
  11 C :   -0.010189
  12 S :    0.431558
  13 C :   -0.272182
  14 C :   -0.070254
  15 Br:    0.135058
  16 C :    0.074719
  17 O :   -0.145494
  18 C :   -0.111554
  19 C :    0.042635
  20 C :   -0.188087
  21 S :    0.519511
  22 C :   -0.145905
  23 C :   -0.033149
  24 C :   -0.022656
  25 C :    0.035760
  26 C :   -0.084119
  27 C :    0.170905
  28 F :   -0.060089
  29 F :   -0.065668
  30 F :   -0.059071
  31 C :    0.068452
  32 O :   -0.086271
  33 C :    0.080746
  34 C :   -0.080628
  35 C :   -0.070497
  36 C :   -0.017407
  37 C :   -0.063211
  38 C :    0.040940
  39 N :   -0.011168
  40 C :    0.038700
  41 C :   -0.114012
  42 C :   -0.041937
  43 C :   -0.170055
  44 C :   -0.029857
  45 C :   -0.046980
  46 C :   -0.170964
  47 S :    0.349146
  48 C :   -0.194227
  49 C :   -0.037132
  50 C :   -0.037677
  51 C :   -0.137944
  52 S :    0.365255
  53 C :   -0.061109
  54 C :   -0.026133
  55 C :   -0.031639
  56 C :   -0.017844
  57 C :   -0.027865
  58 C :   -0.015753
  59 C :   -0.007624
  60 N :   -0.045424
  61 C :   -0.008157
  62 C :   -0.009697
  63 N :   -0.050330
  64 C :   -0.053568
  65 C :   -0.053944
  66 H :    0.040622
  67 H :    0.040900
  68 H :    0.038658
  69 H :    0.044695
  70 H :    0.036887
  71 H :    0.017693
  72 H :    0.016752
  73 H :    0.034643
  74 H :    0.026084
  75 H :    0.031633
  76 H :    0.030784
  77 H :    0.043761
  78 H :    0.030571
  79 H :    0.027720
  80 H :    0.040521
  81 H :    0.077721
  82 H :    0.028107
  83 H :    0.017569
  84 H :    0.029799
  85 H :    0.030958
  86 H :    0.029117
  87 H :    0.029296
  88 H :    0.031025
  89 H :    0.031425
  90 H :    0.011190
  91 H :    0.028613
  92 H :    0.029559
  93 H :    0.035078
  94 H :    0.035218
  95 H :    0.037172
  96 H :    0.035677
  97 H :    0.036301
  98 H :    0.035295

  Mayer bond orders larger than 0.100000
B(  0-C ,  1-C ) :   1.6256 B(  0-C ,  6-C ) :   1.0062 B(  0-C , 18-C ) :   1.0881
B(  1-C ,  2-C ) :   1.1423 B(  1-C ,  4-C ) :   1.1460 B(  2-C ,  3-N ) :   2.9689
B(  4-C ,  5-N ) :   2.9952 B(  6-C ,  7-C ) :   1.2716 B(  6-C , 11-C ) :   1.4132
B(  7-C ,  8-C ) :   1.4322 B(  7-C , 16-C ) :   0.9348 B(  8-C ,  9-C ) :   1.2410
B(  8-C , 66-H ) :   1.0166 B(  9-C , 10-C ) :   1.3107 B(  9-C , 14-C ) :   1.1636
B( 10-C , 11-C ) :   1.3250 B( 10-C , 12-S ) :   1.0843 B( 11-C , 67-H ) :   0.9806
B( 12-S , 13-C ) :   1.0876 B( 13-C , 14-C ) :   1.6175 B( 13-C , 15-Br) :   1.0173
B( 14-C , 68-H ) :   1.0002 B( 16-C , 17-O ) :   2.2035 B( 16-C , 18-C ) :   0.9637
B( 18-C , 19-C ) :   1.5218 B( 19-C , 20-C ) :   1.2472 B( 19-C , 69-H ) :   0.9348
B( 20-C , 21-S ) :   1.1071 B( 20-C , 24-C ) :   1.2959 B( 21-S , 22-C ) :   1.1853
B( 22-C , 23-C ) :   1.2962 B( 22-C , 35-C ) :   1.1395 B( 23-C , 24-C ) :   1.2547
B( 23-C , 34-C ) :   1.1674 B( 24-C , 25-C ) :   1.1869 B( 25-C , 26-C ) :   1.5874
B( 25-C , 70-H ) :   0.9831 B( 26-C , 27-C ) :   0.9307 B( 26-C , 31-C ) :   1.2221
B( 27-C , 28-F ) :   1.1550 B( 27-C , 29-F ) :   1.1674 B( 27-C , 30-F ) :   1.1738
B( 31-C , 32-O ) :   1.2156 B( 31-C , 34-C ) :   1.4502 B( 32-O , 33-C ) :   0.9557
B( 33-C , 71-H ) :   0.9679 B( 33-C , 72-H ) :   0.9683 B( 33-C , 73-H ) :   0.9776
B( 34-C , 74-H ) :   0.9912 B( 35-C , 36-C ) :   1.7568 B( 35-C , 75-H ) :   0.9524
B( 36-C , 37-C ) :   1.0960 B( 36-C , 38-C ) :   1.0210 B( 37-C , 76-H ) :   0.9319
B( 37-C , 77-H ) :   0.9322 B( 37-C , 78-H ) :   0.9387 B( 38-C , 39-N ) :   1.0266
B( 38-C , 79-H ) :   0.9435 B( 38-C , 80-H ) :   0.9319 B( 39-N , 40-C ) :   1.1932
B( 39-N , 81-H ) :   0.9394 B( 40-C , 41-C ) :   1.6254 B( 40-C , 82-H ) :   0.9707
B( 41-C , 42-C ) :   1.1616 B( 41-C , 83-H ) :   0.9605 B( 42-C , 43-C ) :   1.5976
B( 42-C , 84-H ) :   0.9798 B( 43-C , 44-C ) :   1.1394 B( 43-C , 47-S ) :   1.0095
B( 44-C , 45-C ) :   1.5962 B( 44-C , 85-H ) :   0.9986 B( 45-C , 46-C ) :   1.1829
B( 45-C , 86-H ) :   0.9931 B( 46-C , 47-S ) :   1.0469 B( 46-C , 48-C ) :   1.5227
B( 48-C , 49-C ) :   1.1783 B( 48-C , 52-S ) :   1.0218 B( 49-C , 50-C ) :   1.5981
B( 49-C , 87-H ) :   0.9932 B( 50-C , 51-C ) :   1.1350 B( 50-C , 88-H ) :   0.9994
B( 51-C , 52-S ) :   1.0290 B( 51-C , 53-C ) :   1.5671 B( 53-C , 54-C ) :   1.1458
B( 53-C , 89-H ) :   0.9603 B( 54-C , 55-C ) :   1.3976 B( 54-C , 57-C ) :   0.1009
B( 54-C , 59-C ) :   1.1776 B( 55-C , 56-C ) :   1.2858 B( 55-C , 90-H ) :   0.9815
B( 56-C , 57-C ) :   1.4206 B( 56-C , 91-H ) :   0.9843 B( 57-C , 58-C ) :   1.2545
B( 57-C , 92-H ) :   1.0089 B( 58-C , 59-C ) :   1.2613 B( 58-C , 63-N ) :   1.3947
B( 59-C , 60-N ) :   1.4532 B( 60-N , 61-C ) :   1.6957 B( 61-C , 62-C ) :   1.1752
B( 61-C , 65-C ) :   1.0940 B( 62-C , 63-N ) :   1.7192 B( 62-C , 64-C ) :   1.0921
B( 64-C , 93-H ) :   0.9418 B( 64-C , 94-H ) :   0.9418 B( 64-C , 95-H ) :   0.9411
B( 65-C , 96-H ) :   0.9415 B( 65-C , 97-H ) :   0.9420 B( 65-C , 98-H ) :   0.9418

-----------------------------------------------------------------------------
         ABSORPTION SPECTRUM VIA TRANSITION ELECTRIC DIPOLE MOMENTS
-----------------------------------------------------------------------------
State   Energy  Wavelength   fosc         T2         TX        TY        TZ
        (cm-1)    (nm)                  (au**2)     (au)      (au)      (au)
-----------------------------------------------------------------------------
   0   10116.9    988.4   0.030483827   0.99196  -0.44877   0.49219  -0.74048
   1   16022.8    624.1   1.647792719  33.85625   3.27285  -4.11440   2.49328
   2   18333.5    545.4   0.711650589  12.77901   1.31714   0.27056  -3.31224
   3   19971.3    500.7   0.001171878   0.01932   0.11909   0.04131  -0.05856
   4   23627.2    423.2   0.002678111   0.03732   0.15774   0.10692  -0.03163
   5   24011.1    416.5   0.150557670   2.06427  -1.37416   0.12169  -0.40144
   6   24312.0    411.3   0.002646586   0.03584   0.17457  -0.05148   0.05208
   7   25049.0    399.2   0.037796733   0.49675   0.63529  -0.15784   0.26123
   8   26464.8    377.9   0.231248060   2.87663   1.10675   0.09774   1.28148
   9   27164.0    368.1   0.001716364   0.02080  -0.13960   0.00726  -0.03549
  10   27581.1    362.6   0.158639572   1.89355  -0.98802  -0.91726  -0.27570
  11   28876.0    346.3   0.010412055   0.11871  -0.04922  -0.17752   0.29115
  12   30134.2    331.8   0.132669117   1.44939   0.44173  -0.29685  -1.07988
  13   31447.9    318.0   0.118589636   1.24145  -0.69221  -0.38377  -0.78423
  14   31751.8    314.9   0.107144938   1.11091   0.74783   0.73492   0.10748
  15   31810.0    314.4   0.064597694   0.66854  -0.40746  -0.70523  -0.07191
  16   31825.2    314.2   0.009745497   0.10081  -0.19847  -0.14883   0.19817
  17   31835.7    314.1   0.199390277   2.06189   0.92343   1.08861   0.15522
  18   31956.7    312.9   0.421957004   4.34692   1.83653   0.10747   0.98109
  19   32816.0    304.7   0.165804180   1.66336   0.06785   1.02838   0.77537
  20   32858.7    304.3   0.000812089   0.00814  -0.06705  -0.02590   0.05450
  21   33231.2    300.9   0.012715547   0.12597   0.14251  -0.01658   0.32463
  22   33738.1    296.4   0.003635129   0.03547   0.09451   0.15198   0.05868
  23   33981.1    294.3   0.205236266   1.98835  -0.80819   0.16768  -1.14327
  24   34097.7    293.3   0.004025838   0.03887   0.04964   0.11494   0.15230
  25   34881.6    286.7   0.083350856   0.78666   0.65991   0.52381   0.27715
  26   35020.8    285.5   0.002856857   0.02686  -0.14540  -0.02841  -0.07005
  27   35333.7    283.0   0.065197006   0.60746  -0.29579  -0.64741   0.31752
  28   35550.0    281.3   0.052185420   0.48326   0.54636   0.42357   0.07312
  29   36306.7    275.4   0.002751477   0.02495   0.09419   0.11856  -0.04493
  30   36374.3    274.9   0.183906136   1.66448  -0.80411  -0.43798   0.90888
  31   37156.6    269.1   0.126844085   1.12385   0.98553  -0.11958   0.37186
  32   37350.8    267.7   0.038835153   0.34230   0.21419   0.46795  -0.27828
  33   37429.7    267.2   0.072656536   0.63905   0.76909  -0.03613   0.21503
  34   37788.0    264.6   0.042644604   0.37152   0.33115  -0.49118   0.14354
  35   38087.3    262.6   0.000012301   0.00011  -0.00501   0.00463   0.00773
  36   38956.6    256.7   0.089614628   0.75731  -0.53829   0.61351  -0.30192
  37   39395.0    253.8   0.220878155   1.84581   0.56682  -1.10851   0.54382
  38   39738.7    251.6   0.050289397   0.41662   0.45581  -0.43053   0.15328
  39   40078.2    249.5   0.004756802   0.03907  -0.14920   0.12895  -0.01364

FINAL SINGLE POINT ENERGY     -6849.872401518789

DIPOLE MOMENT
-------------
                                X             Y             Z
Electronic contribution:    132.70718    -121.27558     230.60760
Nuclear contribution   :   -130.07213     122.56920    -232.11017
                        -----------------------------------------
Total Dipole Moment    :      2.63505       1.29362      -1.50257
                        -----------------------------------------
Magnitude (a.u.)       :      3.29767
Magnitude (Debye)      :      8.38202

Rotational constants in cm-1:     0.001402     0.000189     0.000177
Rotational constants in MHz :    42.029290     5.676324     5.316416

                             ****ORCA TERMINATED NORMALLY****
TOTAL RUN TIME: 0 days 0 hours 9 minutes 10 seconds 715 msec
