                         Program Version 4.2.0 -  RELEASE  -
|  1> # ORCA input file
|  2> # SCF done       -203.839948560113          0.001688428328
|  3> ! CAM-B3LYP def2-SVP def2/J RIJCOSX Grid4 TightSCF
|  4> %maxcore 5000
|  5> %tddft
|  6>     Mode sTDDFT
|  7>     Ethresh 5.0
|  8>     maxcore 5000
|  9> end
| 10>
| 11> %pal
| 12>   nprocs 6
| 13>   end
| 14> * xyz 0 1
| 15>    C       -2.27982         1.93867         3.24866
| 16>    C       -2.54938         2.31733         4.53949
| 17>    C       -2.07549         1.62698         5.67295
| 18>    N       -1.70947         1.10385         6.62760
| 19>    C       -3.39572         3.38447         4.90944
| 20>    N       -4.11612         4.19298         5.29080
| 21>    C       -1.56223         0.72735         2.85526
| 22>    C       -1.67206         0.58158         1.45165
| 23>    C       -1.11469        -0.46615         0.76147
| 24>    C       -0.39518        -1.41471         1.49554
| 25>    C       -0.29114        -1.26527         2.89804
| 26>    C       -0.86756        -0.20919         3.59626
| 27>    S        0.64123        -2.54926         3.60834
| 28>    C        0.88107        -3.25128         2.03067
| 29>    C        0.29378        -2.56549         1.02250
| 30>   Br        1.88462        -4.82673         1.85887
| 31>    C       -2.44373         1.71346         0.90749
| 32>    O       -2.74862         1.85704        -0.26512
| 33>    C       -2.73342         2.59478         2.04003
| 34>    C       -3.21308         3.88753         1.97581
| 35>    C       -3.69036         4.59161         0.86849
| 36>    C       -4.08742         5.95380         0.84735
| 37>    N       -3.86878         6.81442         1.96364
| 38>    O       -2.89669         6.59898         2.66132
| 39>    O       -4.65261         7.72393         2.14326
| 40>    C       -4.63998         6.39091        -0.35403
| 41>    C       -5.09889         7.77353        -0.66525
| 42>    C       -4.68171         5.35349        -1.30730
| 43>    S       -4.02223         3.87554        -0.67852
| 44>    C       -5.13921         5.43924        -2.62933
| 45>    C       -5.10730         4.40383        -3.54012
| 46>    C       -5.50964         4.43968        -4.90068
| 47>    C       -5.31681         3.27159        -5.57866
| 48>    C       -4.75732         2.24767        -4.78496
| 49>    S       -4.50055         2.81751        -3.14754
| 50>    C       -4.39216         0.94934        -5.08369
| 51>    C       -4.47798         0.22332        -6.29767
| 52>    C       -4.00584        -1.04718        -6.21197
| 53>    C       -3.52087        -1.40673        -4.91876
| 54>    S       -3.69943        -0.03911        -3.82295
| 55>    C       -2.93373        -2.58753        -4.58712
| 56>    C       -2.49600        -3.01074        -3.27808
| 57>    C       -1.43624        -3.91710        -3.10360
| 58>    N       -0.51244        -4.36723        -4.03033
| 59>    C       -0.07420        -3.53318        -5.12650
| 60>    C        1.34880        -3.01752        -4.91548
| 61>    C        0.23653        -5.36700        -3.43900
| 62>    C       -0.14623        -5.48930        -2.07936
| 63>    C       -1.20628        -4.54322        -1.86193
| 64>    C       -1.95000        -4.19716        -0.74295
| 65>    C       -2.92138        -3.22104        -0.88262
| 66>    C       -3.19629        -2.65626        -2.11777
| 67>    C        0.45571        -6.40679        -1.23672
| 68>    C        1.43345        -7.23766        -1.75993
| 69>    C        1.73939        -7.19866        -3.10600
| 70>    C        1.13790        -6.29675        -3.99778
| 71>    C        1.32346        -6.41877        -5.41666
| 72>    C        1.69871        -7.54507        -6.07211
| 73>    C        1.80127        -7.65781        -7.47995
| 74>    C        1.23530        -6.92496        -8.48710
| 75>    C        0.17007        -5.95322        -8.55285
| 76>    C       -0.91312        -5.83899        -7.71206
| 77>    C       -1.90721        -4.84902        -7.81717
| 78>    N       -2.71156        -4.02715        -7.78494
| 79>    C       -1.18586        -6.71558        -6.64277
| 80>    N       -1.48248        -7.40287        -5.77272
| 81>    C        0.29981        -5.24147        -9.82195
| 82>    C        1.26768        -5.90354       -10.61705
| 83>    C        1.84084        -7.02425        -9.84340
| 84>    O        2.66118        -7.83245       -10.21357
| 85>    C        1.57180        -5.50557       -11.89529
| 86>    C        0.89588        -4.39346       -12.41092
| 87>    C       -0.05500        -3.72733       -11.60222
| 88>    C       -0.36836        -4.13518       -10.31120
| 89>    S       -0.76607        -2.37659       -12.43321
| 90>    C        0.20325        -2.72587       -13.83989
| 91>    C        1.02241        -3.79410       -13.69397
| 92>   Br        0.04318        -1.64431       -15.36417
| 93>    H       -1.22858        -0.55179        -0.30796
| 94>    H       -0.75559        -0.13939         4.66533
| 95>    H        0.34062        -2.85591        -0.01100
| 96>    H       -3.17934         4.45565         2.89814
| 97>    H       -6.18566         7.79141        -0.74423
| 98>    H       -4.68126         8.10512        -1.61442
| 99>    H       -4.81539         8.47063         0.11738
|100>    H       -5.53680         6.38513        -2.96913
|101>    H       -5.92134         5.33236        -5.33812
|102>    H       -5.55549         3.12665        -6.61735
|103>    H       -4.88059         0.66666        -7.19091
|104>    H       -3.97758        -1.75441        -7.02211
|105>    H       -2.83154        -3.31162        -5.38719
|106>    H       -0.74913        -2.67618        -5.17503
|107>    H       -0.15892        -4.06361        -6.08064
|108>    H        1.39741        -2.43456        -3.99838
|109>    H        1.63153        -2.37730        -5.74729
|110>    H        2.06732        -3.82943        -4.84109
|111>    H       -1.77726        -4.68037         0.20599
|112>    H       -3.50515        -2.91904        -0.02651
|113>    H       -4.02358        -1.96983        -2.20026
|114>    H        0.16612        -6.47582        -0.20064
|115>    H        1.93720        -7.94275        -1.11758
|116>    H        2.47999        -7.88159        -3.49156
|117>    H        1.11367        -5.55194        -6.02139
|118>    H        1.98694        -8.42118        -5.51039
|119>    H        2.48198        -8.42367        -7.84129
|120>    H        2.30429        -6.03756       -12.48155
|121>    H       -1.10022        -3.59359        -9.73496
|122>    H        1.68691        -4.14875       -14.46051
|123> *
|124>
|125>                          ****END OF INPUT****

CARTESIAN COORDINATES (ANGSTROEM)
---------------------------------
  C     -2.279820    1.938670    3.248660
  C     -2.549380    2.317330    4.539490
  C     -2.075490    1.626980    5.672950
  N     -1.709470    1.103850    6.627600
  C     -3.395720    3.384470    4.909440
  N     -4.116120    4.192980    5.290800
  C     -1.562230    0.727350    2.855260
  C     -1.672060    0.581580    1.451650
  C     -1.114690   -0.466150    0.761470
  C     -0.395180   -1.414710    1.495540
  C     -0.291140   -1.265270    2.898040
  C     -0.867560   -0.209190    3.596260
  S      0.641230   -2.549260    3.608340
  C      0.881070   -3.251280    2.030670
  C      0.293780   -2.565490    1.022500
  Br     1.884620   -4.826730    1.858870
  C     -2.443730    1.713460    0.907490
  O     -2.748620    1.857040   -0.265120
  C     -2.733420    2.594780    2.040030
  C     -3.213080    3.887530    1.975810
  C     -3.690360    4.591610    0.868490
  C     -4.087420    5.953800    0.847350
  N     -3.868780    6.814420    1.963640
  O     -2.896690    6.598980    2.661320
  O     -4.652610    7.723930    2.143260
  C     -4.639980    6.390910   -0.354030
  C     -5.098890    7.773530   -0.665250
  C     -4.681710    5.353490   -1.307300
  S     -4.022230    3.875540   -0.678520
  C     -5.139210    5.439240   -2.629330
  C     -5.107300    4.403830   -3.540120
  C     -5.509640    4.439680   -4.900680
  C     -5.316810    3.271590   -5.578660
  C     -4.757320    2.247670   -4.784960
  S     -4.500550    2.817510   -3.147540
  C     -4.392160    0.949340   -5.083690
  C     -4.477980    0.223320   -6.297670
  C     -4.005840   -1.047180   -6.211970
  C     -3.520870   -1.406730   -4.918760
  S     -3.699430   -0.039110   -3.822950
  C     -2.933730   -2.587530   -4.587120
  C     -2.496000   -3.010740   -3.278080
  C     -1.436240   -3.917100   -3.103600
  N     -0.512440   -4.367230   -4.030330
  C     -0.074200   -3.533180   -5.126500
  C      1.348800   -3.017520   -4.915480
  C      0.236530   -5.367000   -3.439000
  C     -0.146230   -5.489300   -2.079360
  C     -1.206280   -4.543220   -1.861930
  C     -1.950000   -4.197160   -0.742950
  C     -2.921380   -3.221040   -0.882620
  C     -3.196290   -2.656260   -2.117770
  C      0.455710   -6.406790   -1.236720
  C      1.433450   -7.237660   -1.759930
  C      1.739390   -7.198660   -3.106000
  C      1.137900   -6.296750   -3.997780
  C      1.323460   -6.418770   -5.416660
  C      1.698710   -7.545070   -6.072110
  C      1.801270   -7.657810   -7.479950
  C      1.235300   -6.924960   -8.487100
  C      0.170070   -5.953220   -8.552850
  C     -0.913120   -5.838990   -7.712060
  C     -1.907210   -4.849020   -7.817170
  N     -2.711560   -4.027150   -7.784940
  C     -1.185860   -6.715580   -6.642770
  N     -1.482480   -7.402870   -5.772720
  C      0.299810   -5.241470   -9.821950
  C      1.267680   -5.903540  -10.617050
  C      1.840840   -7.024250   -9.843400
  O      2.661180   -7.832450  -10.213570
  C      1.571800   -5.505570  -11.895290
  C      0.895880   -4.393460  -12.410920
  C     -0.055000   -3.727330  -11.602220
  C     -0.368360   -4.135180  -10.311200
  S     -0.766070   -2.376590  -12.433210
  C      0.203250   -2.725870  -13.839890
  C      1.022410   -3.794100  -13.693970
  Br     0.043180   -1.644310  -15.364170
  H     -1.228580   -0.551790   -0.307960
  H     -0.755590   -0.139390    4.665330
  H      0.340620   -2.855910   -0.011000
  H     -3.179340    4.455650    2.898140
  H     -6.185660    7.791410   -0.744230
  H     -4.681260    8.105120   -1.614420
  H     -4.815390    8.470630    0.117380
  H     -5.536800    6.385130   -2.969130
  H     -5.921340    5.332360   -5.338120
  H     -5.555490    3.126650   -6.617350
  H     -4.880590    0.666660   -7.190910
  H     -3.977580   -1.754410   -7.022110
  H     -2.831540   -3.311620   -5.387190
  H     -0.749130   -2.676180   -5.175030
  H     -0.158920   -4.063610   -6.080640
  H      1.397410   -2.434560   -3.998380
  H      1.631530   -2.377300   -5.747290
  H      2.067320   -3.829430   -4.841090
  H     -1.777260   -4.680370    0.205990
  H     -3.505150   -2.919040   -0.026510
  H     -4.023580   -1.969830   -2.200260
  H      0.166120   -6.475820   -0.200640
  H      1.937200   -7.942750   -1.117580
  H      2.479990   -7.881590   -3.491560
  H      1.113670   -5.551940   -6.021390
  H      1.986940   -8.421180   -5.510390
  H      2.481980   -8.423670   -7.841290
  H      2.304290   -6.037560  -12.481550
  H     -1.100220   -3.593590   -9.734960
  H      1.686910   -4.148750  -14.460510

 Total Charge           Charge          ....    0
 Multiplicity           Mult            ....    1
 Number of Electrons    NEL             ....  620
 Basis Dimension        Dim             .... 1298

ORBITAL ENERGIES
----------------

  NO   OCC          E(Eh)            E(eV)
   0   2.0000    -482.894415    -13140.2251
   1   2.0000    -482.885772    -13139.9899
   2   2.0000     -88.985740     -2421.4251
   3   2.0000     -88.970398     -2421.0076
   4   2.0000     -88.965547     -2420.8756
   5   2.0000     -88.954936     -2420.5869
   6   2.0000     -88.954614     -2420.5781
   7   2.0000     -62.572121     -1702.6740
   8   2.0000     -62.563189     -1702.4309
   9   2.0000     -56.406083     -1534.8875
  10   2.0000     -56.403350     -1534.8132
  11   2.0000     -56.403316     -1534.8122
  12   2.0000     -56.397126     -1534.6438
  13   2.0000     -56.394472     -1534.5716
  14   2.0000     -56.394381     -1534.5691
  15   2.0000     -19.238479      -523.5056
  16   2.0000     -19.237546      -523.4802
  17   2.0000     -19.222344      -523.0666
  18   2.0000     -19.211707      -522.7771
  19   2.0000     -14.645276      -398.5182
  20   2.0000     -14.466861      -393.6633
  21   2.0000     -14.437965      -392.8770
  22   2.0000     -14.425596      -392.5404
  23   2.0000     -14.403377      -391.9358
  24   2.0000     -14.400512      -391.8579
  25   2.0000     -10.373216      -282.2696
  26   2.0000     -10.368558      -282.1428
  27   2.0000     -10.360150      -281.9140
  28   2.0000     -10.355889      -281.7981
  29   2.0000     -10.353926      -281.7446
  30   2.0000     -10.353772      -281.7405
  31   2.0000     -10.342821      -281.4425
  32   2.0000     -10.336505      -281.2706
  33   2.0000     -10.330151      -281.0977
  34   2.0000     -10.329222      -281.0724
  35   2.0000     -10.328559      -281.0544
  36   2.0000     -10.328092      -281.0417
  37   2.0000     -10.326381      -280.9951
  38   2.0000     -10.325202      -280.9630
  39   2.0000     -10.324547      -280.9452
  40   2.0000     -10.324304      -280.9386
  41   2.0000     -10.320699      -280.8405
  42   2.0000     -10.319861      -280.8177
  43   2.0000     -10.319240      -280.8008
  44   2.0000     -10.318617      -280.7839
  45   2.0000     -10.317944      -280.7655
  46   2.0000     -10.317852      -280.7630
  47   2.0000     -10.316490      -280.7260
  48   2.0000     -10.315511      -280.6993
  49   2.0000     -10.314556      -280.6733
  50   2.0000     -10.312774      -280.6249
  51   2.0000     -10.311234      -280.5829
  52   2.0000     -10.310555      -280.5645
  53   2.0000     -10.310320      -280.5581
  54   2.0000     -10.306799      -280.4623
  55   2.0000     -10.306129      -280.4440
  56   2.0000     -10.303717      -280.3784
  57   2.0000     -10.303219      -280.3648
  58   2.0000     -10.302586      -280.3476
  59   2.0000     -10.300350      -280.2868
  60   2.0000     -10.299877      -280.2739
  61   2.0000     -10.299137      -280.2538
  62   2.0000     -10.298551      -280.2378
  63   2.0000     -10.297562      -280.2109
  64   2.0000     -10.297557      -280.2108
  65   2.0000     -10.297115      -280.1988
  66   2.0000     -10.296822      -280.1908
  67   2.0000     -10.296788      -280.1898
  68   2.0000     -10.295015      -280.1416
  69   2.0000     -10.293268      -280.0940
  70   2.0000     -10.293058      -280.0884
  71   2.0000     -10.291469      -280.0451
  72   2.0000     -10.291227      -280.0385
  73   2.0000     -10.288431      -279.9624
  74   2.0000     -10.286335      -279.9054
  75   2.0000     -10.285982      -279.8958
  76   2.0000     -10.285724      -279.8888
  77   2.0000     -10.283876      -279.8385
  78   2.0000     -10.282585      -279.8034
  79   2.0000     -10.282236      -279.7939
  80   2.0000     -10.280140      -279.7368
  81   2.0000     -10.279418      -279.7172
  82   2.0000     -10.278781      -279.6998
  83   2.0000     -10.276838      -279.6470
  84   2.0000     -10.272729      -279.5352
  85   2.0000     -10.267206      -279.3849
  86   2.0000      -8.801542      -239.5021
  87   2.0000      -8.792533      -239.2570
  88   2.0000      -8.081850      -219.9183
  89   2.0000      -8.066419      -219.4984
  90   2.0000      -8.058789      -219.2908
  91   2.0000      -8.050965      -219.0779
  92   2.0000      -8.050846      -219.0747
  93   2.0000      -6.637883      -180.6260
  94   2.0000      -6.628689      -180.3758
  95   2.0000      -6.623246      -180.2277
  96   2.0000      -6.623059      -180.2226
  97   2.0000      -6.614381      -179.9864
  98   2.0000      -6.614112      -179.9791
  99   2.0000      -6.051546      -164.6709
 100   2.0000      -6.047274      -164.5547
 101   2.0000      -6.043027      -164.4391
 102   2.0000      -6.036107      -164.2508
 103   2.0000      -6.031858      -164.1352
 104   2.0000      -6.027968      -164.0293
 105   2.0000      -6.027612      -164.0197
 106   2.0000      -6.023707      -163.9134
 107   2.0000      -6.021099      -163.8424
 108   2.0000      -6.020650      -163.8302
 109   2.0000      -6.020545      -163.8274
 110   2.0000      -6.016478      -163.7167
 111   2.0000      -6.016243      -163.7103
 112   2.0000      -6.012174      -163.5996
 113   2.0000      -6.011747      -163.5880
 114   2.0000      -2.753749       -74.9333
 115   2.0000      -2.749660       -74.8221
 116   2.0000      -2.749469       -74.8169
 117   2.0000      -2.744582       -74.6839
 118   2.0000      -2.740627       -74.5762
 119   2.0000      -2.740382       -74.5696
 120   2.0000      -2.737860       -74.5010
 121   2.0000      -2.737850       -74.5007
 122   2.0000      -2.729024       -74.2605
 123   2.0000      -2.729009       -74.2601
 124   2.0000      -1.318860       -35.8880
 125   2.0000      -1.137767       -30.9602
 126   2.0000      -1.136747       -30.9325
 127   2.0000      -1.127262       -30.6743
 128   2.0000      -1.097082       -29.8531
 129   2.0000      -1.036049       -28.1923
 130   2.0000      -1.027198       -27.9515
 131   2.0000      -1.015334       -27.6286
 132   2.0000      -1.009914       -27.4812
 133   2.0000      -1.009686       -27.4750
 134   2.0000      -1.003404       -27.3040
 135   2.0000      -1.001302       -27.2468
 136   2.0000      -1.000220       -27.2174
 137   2.0000      -0.982908       -26.7463
 138   2.0000      -0.980955       -26.6931
 139   2.0000      -0.979861       -26.6634
 140   2.0000      -0.965475       -26.2719
 141   2.0000      -0.958949       -26.0943
 142   2.0000      -0.953530       -25.9469
 143   2.0000      -0.936660       -25.4878
 144   2.0000      -0.931021       -25.3344
 145   2.0000      -0.919724       -25.0269
 146   2.0000      -0.917491       -24.9662
 147   2.0000      -0.909425       -24.7467
 148   2.0000      -0.903413       -24.5831
 149   2.0000      -0.898662       -24.4538
 150   2.0000      -0.896843       -24.4043
 151   2.0000      -0.894642       -24.3444
 152   2.0000      -0.886222       -24.1153
 153   2.0000      -0.879360       -23.9286
 154   2.0000      -0.875557       -23.8251
 155   2.0000      -0.869882       -23.6707
 156   2.0000      -0.868160       -23.6238
 157   2.0000      -0.855827       -23.2882
 158   2.0000      -0.847922       -23.0731
 159   2.0000      -0.840479       -22.8706
 160   2.0000      -0.840282       -22.8652
 161   2.0000      -0.834520       -22.7084
 162   2.0000      -0.828155       -22.5353
 163   2.0000      -0.822494       -22.3812
 164   2.0000      -0.820359       -22.3231
 165   2.0000      -0.812480       -22.1087
 166   2.0000      -0.797944       -21.7132
 167   2.0000      -0.784704       -21.3529
 168   2.0000      -0.784108       -21.3367
 169   2.0000      -0.770204       -20.9583
 170   2.0000      -0.760615       -20.6974
 171   2.0000      -0.756304       -20.5801
 172   2.0000      -0.750609       -20.4251
 173   2.0000      -0.746182       -20.3046
 174   2.0000      -0.732195       -19.9240
 175   2.0000      -0.728218       -19.8158
 176   2.0000      -0.720611       -19.6088
 177   2.0000      -0.709685       -19.3115
 178   2.0000      -0.706048       -19.2125
 179   2.0000      -0.700934       -19.0734
 180   2.0000      -0.697137       -18.9701
 181   2.0000      -0.688972       -18.7479
 182   2.0000      -0.682716       -18.5776
 183   2.0000      -0.677665       -18.4402
 184   2.0000      -0.674947       -18.3663
 185   2.0000      -0.673948       -18.3390
 186   2.0000      -0.663481       -18.0542
 187   2.0000      -0.654122       -17.7996
 188   2.0000      -0.650658       -17.7053
 189   2.0000      -0.647873       -17.6295
 190   2.0000      -0.642620       -17.4866
 191   2.0000      -0.637535       -17.3482
 192   2.0000      -0.634294       -17.2600
 193   2.0000      -0.629155       -17.1202
 194   2.0000      -0.625853       -17.0303
 195   2.0000      -0.623467       -16.9654
 196   2.0000      -0.618342       -16.8259
 197   2.0000      -0.613476       -16.6935
 198   2.0000      -0.611267       -16.6334
 199   2.0000      -0.607412       -16.5285
 200   2.0000      -0.605236       -16.4693
 201   2.0000      -0.601535       -16.3686
 202   2.0000      -0.597514       -16.2592
 203   2.0000      -0.593824       -16.1588
 204   2.0000      -0.591680       -16.1004
 205   2.0000      -0.585201       -15.9241
 206   2.0000      -0.582864       -15.8605
 207   2.0000      -0.574968       -15.6457
 208   2.0000      -0.572172       -15.5696
 209   2.0000      -0.565078       -15.3765
 210   2.0000      -0.563206       -15.3256
 211   2.0000      -0.558771       -15.2049
 212   2.0000      -0.556110       -15.1325
 213   2.0000      -0.554316       -15.0837
 214   2.0000      -0.548915       -14.9367
 215   2.0000      -0.547044       -14.8858
 216   2.0000      -0.545012       -14.8305
 217   2.0000      -0.541886       -14.7455
 218   2.0000      -0.537239       -14.6190
 219   2.0000      -0.535252       -14.5649
 220   2.0000      -0.533279       -14.5112
 221   2.0000      -0.532300       -14.4846
 222   2.0000      -0.530717       -14.4415
 223   2.0000      -0.523580       -14.2473
 224   2.0000      -0.520907       -14.1746
 225   2.0000      -0.520335       -14.1590
 226   2.0000      -0.519395       -14.1335
 227   2.0000      -0.518888       -14.1197
 228   2.0000      -0.517180       -14.0732
 229   2.0000      -0.515119       -14.0171
 230   2.0000      -0.512115       -13.9353
 231   2.0000      -0.510019       -13.8783
 232   2.0000      -0.508046       -13.8246
 233   2.0000      -0.506411       -13.7802
 234   2.0000      -0.503704       -13.7065
 235   2.0000      -0.502620       -13.6770
 236   2.0000      -0.498883       -13.5753
 237   2.0000      -0.496171       -13.5015
 238   2.0000      -0.494505       -13.4562
 239   2.0000      -0.493516       -13.4293
 240   2.0000      -0.489784       -13.3277
 241   2.0000      -0.489131       -13.3099
 242   2.0000      -0.485495       -13.2110
 243   2.0000      -0.483862       -13.1665
 244   2.0000      -0.480832       -13.0841
 245   2.0000      -0.479847       -13.0573
 246   2.0000      -0.476719       -12.9722
 247   2.0000      -0.474735       -12.9182
 248   2.0000      -0.472572       -12.8593
 249   2.0000      -0.470009       -12.7896
 250   2.0000      -0.467835       -12.7304
 251   2.0000      -0.467538       -12.7224
 252   2.0000      -0.466369       -12.6905
 253   2.0000      -0.461713       -12.5638
 254   2.0000      -0.458000       -12.4628
 255   2.0000      -0.457007       -12.4358
 256   2.0000      -0.456550       -12.4233
 257   2.0000      -0.453831       -12.3494
 258   2.0000      -0.451675       -12.2907
 259   2.0000      -0.451403       -12.2833
 260   2.0000      -0.450326       -12.2540
 261   2.0000      -0.447850       -12.1866
 262   2.0000      -0.443165       -12.0591
 263   2.0000      -0.442585       -12.0433
 264   2.0000      -0.441169       -12.0048
 265   2.0000      -0.439466       -11.9585
 266   2.0000      -0.436841       -11.8871
 267   2.0000      -0.436225       -11.8703
 268   2.0000      -0.434552       -11.8248
 269   2.0000      -0.433203       -11.7880
 270   2.0000      -0.429523       -11.6879
 271   2.0000      -0.429144       -11.6776
 272   2.0000      -0.427726       -11.6390
 273   2.0000      -0.422548       -11.4981
 274   2.0000      -0.418982       -11.4011
 275   2.0000      -0.415527       -11.3071
 276   2.0000      -0.413128       -11.2418
 277   2.0000      -0.410086       -11.1590
 278   2.0000      -0.405530       -11.0350
 279   2.0000      -0.402181       -10.9439
 280   2.0000      -0.401641       -10.9292
 281   2.0000      -0.397120       -10.8062
 282   2.0000      -0.395925       -10.7737
 283   2.0000      -0.388776       -10.5791
 284   2.0000      -0.384531       -10.4636
 285   2.0000      -0.383718       -10.4415
 286   2.0000      -0.381422       -10.3790
 287   2.0000      -0.377742       -10.2789
 288   2.0000      -0.376338       -10.2407
 289   2.0000      -0.371842       -10.1183
 290   2.0000      -0.368936       -10.0393
 291   2.0000      -0.368228       -10.0200
 292   2.0000      -0.363515        -9.8917
 293   2.0000      -0.354799        -9.6546
 294   2.0000      -0.350565        -9.5394
 295   2.0000      -0.345444        -9.4000
 296   2.0000      -0.341123        -9.2824
 297   2.0000      -0.336898        -9.1675
 298   2.0000      -0.328141        -8.9292
 299   2.0000      -0.325891        -8.8679
 300   2.0000      -0.321195        -8.7402
 301   2.0000      -0.316206        -8.6044
 302   2.0000      -0.309012        -8.4086
 303   2.0000      -0.308216        -8.3870
 304   2.0000      -0.303976        -8.2716
 305   2.0000      -0.294154        -8.0043
 306   2.0000      -0.289225        -7.8702
 307   2.0000      -0.278224        -7.5709
 308   2.0000      -0.268230        -7.2989
 309   2.0000      -0.222481        -6.0540
 310   0.0000      -0.103951        -2.8286
 311   0.0000      -0.100876        -2.7450
 312   0.0000      -0.069568        -1.8930
 313   0.0000      -0.068284        -1.8581
 314   0.0000      -0.053056        -1.4437

MULLIKEN ATOMIC CHARGES
-----------------------
   0 C :    0.294927
   1 C :   -0.337631
   2 C :   -0.185012
   3 N :    0.142634
   4 C :   -0.207809
   5 N :    0.160075
   6 C :    0.018831
   7 C :   -0.003907
   8 C :   -0.076463
   9 C :    0.107392
  10 C :   -0.088279
  11 C :   -0.028441
  12 S :    0.180563
  13 C :   -0.131342
  14 C :    0.050355
  15 Br:    0.016244
  16 C :    0.159650
  17 O :   -0.186970
  18 C :   -0.117394
  19 C :   -0.023619
  20 C :   -0.085490
  21 C :    0.154243
  22 N :    0.253764
  23 O :   -0.229527
  24 O :   -0.229861
  25 C :   -0.098919
  26 C :    0.131299
  27 C :   -0.072538
  28 S :    0.148120
  29 C :   -0.022253
  30 C :   -0.016296
  31 C :    0.023863
  32 C :    0.045534
  33 C :   -0.041031
  34 S :    0.070965
  35 C :   -0.038303
  36 C :    0.028646
  37 C :    0.055579
  38 C :   -0.047826
  39 S :    0.098404
  40 C :   -0.064267
  41 C :    0.046471
  42 C :    0.074506
  43 N :   -0.197588
  44 C :    0.058077
  45 C :    0.013036
  46 C :    0.102281
  47 C :    0.063787
  48 C :    0.074446
  49 C :   -0.059281
  50 C :    0.027666
  51 C :   -0.047604
  52 C :   -0.037078
  53 C :    0.037665
  54 C :   -0.038913
  55 C :    0.056360
  56 C :    0.011002
  57 C :    0.015322
  58 C :    0.043406
  59 C :   -0.126856
  60 C :    0.297788
  61 C :   -0.393011
  62 C :   -0.134784
  63 N :    0.127342
  64 C :   -0.222163
  65 N :    0.194351
  66 C :    0.002184
  67 C :    0.005708
  68 C :    0.131910
  69 O :   -0.143616
  70 C :   -0.071460
  71 C :    0.112936
  72 C :   -0.085246
  73 C :   -0.032447
  74 S :    0.181046
  75 C :   -0.122822
  76 C :    0.040393
  77 Br:    0.028620
  78 H :   -0.013201
  79 H :   -0.006305
  80 H :   -0.004423
  81 H :    0.033494
  82 H :    0.034843
  83 H :    0.021659
  84 H :    0.033816
  85 H :   -0.016751
  86 H :   -0.010974
  87 H :   -0.011029
  88 H :   -0.010478
  89 H :    0.005757
  90 H :    0.021291
  91 H :    0.048694
  92 H :    0.043538
  93 H :    0.026867
  94 H :    0.025420
  95 H :    0.029760
  96 H :   -0.020191
  97 H :   -0.009670
  98 H :   -0.004229
  99 H :   -0.023409
 100 H :   -0.017133
 101 H :   -0.020291
 102 H :   -0.015196
 103 H :    0.002278
 104 H :    0.030620
 105 H :   -0.005973
 106 H :   -0.009832
 107 H :   -0.000294
Sum of atomic charges:   -0.0000000

LOEWDIN ATOMIC CHARGES
----------------------
   0 C :    0.074193
   1 C :   -0.143479
   2 C :   -0.017326
   3 N :   -0.061156
   4 C :   -0.027424
   5 N :   -0.047732
   6 C :   -0.016690
   7 C :   -0.049574
   8 C :    0.020504
   9 C :   -0.036745
  10 C :   -0.144549
  11 C :   -0.012861
  12 S :    0.427746
  13 C :   -0.280359
  14 C :   -0.067032
  15 Br:    0.136919
  16 C :    0.080520
  17 O :   -0.174447
  18 C :   -0.113927
  19 C :    0.049434
  20 C :   -0.192115
  21 C :   -0.041771
  22 N :    0.287549
  23 O :   -0.193974
  24 O :   -0.190573
  25 C :   -0.042842
  26 C :   -0.050332
  27 C :   -0.160074
  28 S :    0.532812
  29 C :   -0.094783
  30 C :   -0.132632
  31 C :   -0.043356
  32 C :   -0.022464
  33 C :   -0.199972
  34 S :    0.404108
  35 C :   -0.150364
  36 C :   -0.042933
  37 C :   -0.002291
  38 C :   -0.151316
  39 S :    0.396570
  40 C :   -0.028190
  41 C :   -0.063618
  42 C :    0.038974
  43 N :    0.017934
  44 C :    0.034544
  45 C :   -0.060378
  46 C :    0.047707
  47 C :   -0.037460
  48 C :   -0.045826
  49 C :   -0.004576
  50 C :   -0.038242
  51 C :   -0.013068
  52 C :    0.006386
  53 C :   -0.037201
  54 C :    0.002442
  55 C :   -0.059141
  56 C :    0.053426
  57 C :   -0.046331
  58 C :    0.078604
  59 C :   -0.105064
  60 C :    0.071235
  61 C :   -0.161711
  62 C :   -0.002801
  63 N :   -0.074523
  64 C :   -0.023672
  65 N :   -0.032107
  66 C :   -0.020494
  67 C :   -0.050841
  68 C :    0.083650
  69 O :   -0.141556
  70 C :    0.024491
  71 C :   -0.032305
  72 C :   -0.143602
  73 C :   -0.017637
  74 S :    0.428899
  75 C :   -0.270640
  76 C :   -0.068786
  77 Br:    0.140145
  78 H :    0.039648
  79 H :    0.040738
  80 H :    0.038771
  81 H :    0.046940
  82 H :    0.044402
  83 H :    0.032670
  84 H :    0.035014
  85 H :    0.036473
  86 H :    0.033624
  87 H :    0.033624
  88 H :    0.033666
  89 H :    0.039463
  90 H :    0.039022
  91 H :    0.040677
  92 H :    0.016943
  93 H :    0.032887
  94 H :    0.033095
  95 H :    0.026496
  96 H :    0.030898
  97 H :    0.031577
  98 H :    0.021950
  99 H :    0.025890
 100 H :    0.029798
 101 H :    0.029101
 102 H :    0.028199
 103 H :    0.035338
 104 H :    0.048200
 105 H :    0.042768
 106 H :    0.037975
 107 H :    0.040221

  Mayer bond orders larger than 0.100000
B(  0-C ,  1-C ) :   1.6266 B(  0-C ,  6-C ) :   0.9941 B(  0-C , 18-C ) :   1.0855
B(  1-C ,  2-C ) :   1.1447 B(  1-C ,  4-C ) :   1.1398 B(  2-C ,  3-N ) :   2.9688
B(  4-C ,  5-N ) :   2.9939 B(  6-C ,  7-C ) :   1.2777 B(  6-C , 11-C ) :   1.4195
B(  7-C ,  8-C ) :   1.4197 B(  7-C , 16-C ) :   0.9618 B(  8-C ,  9-C ) :   1.2407
B(  8-C , 78-H ) :   1.0172 B(  9-C , 10-C ) :   1.3139 B(  9-C , 14-C ) :   1.1688
B( 10-C , 11-C ) :   1.3159 B( 10-C , 12-S ) :   1.0840 B( 11-C , 79-H ) :   0.9817
B( 12-S , 13-C ) :   1.0823 B( 13-C , 14-C ) :   1.6117 B( 13-C , 15-Br) :   1.0162
B( 14-C , 80-H ) :   0.9919 B( 16-C , 17-O ) :   2.1151 B( 16-C , 18-C ) :   0.9862
B( 18-C , 19-C ) :   1.4687 B( 19-C , 20-C ) :   1.3069 B( 19-C , 81-H ) :   0.9242
B( 20-C , 21-C ) :   1.2873 B( 20-C , 28-S ) :   1.1084 B( 21-C , 22-N ) :   0.9047
B( 21-C , 25-C ) :   1.4475 B( 22-N , 23-O ) :   1.5093 B( 22-N , 24-O ) :   1.5187
B( 23-O , 24-O ) :   0.2662 B( 25-C , 26-C ) :   1.1235 B( 25-C , 27-C ) :   1.3168
B( 26-C , 82-H ) :   0.9333 B( 26-C , 83-H ) :   0.9331 B( 26-C , 84-H ) :   0.9279
B( 27-C , 28-S ) :   1.1004 B( 27-C , 29-C ) :   1.2524 B( 29-C , 30-C ) :   1.4944
B( 29-C , 85-H ) :   0.9686 B( 30-C , 31-C ) :   1.1612 B( 30-C , 34-S ) :   1.0787
B( 31-C , 32-C ) :   1.5765 B( 31-C , 86-H ) :   0.9983 B( 32-C , 33-C ) :   1.1975
B( 32-C , 87-H ) :   0.9928 B( 33-C , 34-S ) :   1.0248 B( 33-C , 35-C ) :   1.4968
B( 35-C , 36-C ) :   1.1700 B( 35-C , 39-S ) :   1.0720 B( 36-C , 37-C ) :   1.5995
B( 36-C , 88-H ) :   0.9966 B( 37-C , 38-C ) :   1.1212 B( 37-C , 89-H ) :   0.9940
B( 38-C , 39-S ) :   1.0194 B( 38-C , 40-C ) :   1.6577 B( 40-C , 41-C ) :   1.0173
B( 40-C , 90-H ) :   0.9579 B( 41-C , 42-C ) :   1.3055 B( 41-C , 51-C ) :   1.3597
B( 42-C , 43-N ) :   1.1209 B( 42-C , 48-C ) :   1.3082 B( 43-N , 44-C ) :   0.9542
B( 43-N , 46-C ) :   1.1371 B( 44-C , 45-C ) :   1.1152 B( 44-C , 91-H ) :   0.9300
B( 44-C , 92-H ) :   0.9345 B( 45-C , 93-H ) :   0.9607 B( 45-C , 94-H ) :   0.9633
B( 45-C , 95-H ) :   0.9593 B( 46-C , 47-C ) :   1.3004 B( 46-C , 55-C ) :   1.2885
B( 47-C , 48-C ) :   1.0555 B( 47-C , 52-C ) :   1.3634 B( 48-C , 49-C ) :   1.3371
B( 49-C , 50-C ) :   1.3709 B( 49-C , 96-H ) :   0.9966 B( 50-C , 51-C ) :   1.3721
B( 50-C , 97-H ) :   0.9847 B( 51-C , 98-H ) :   0.9798 B( 52-C , 53-C ) :   1.3435
B( 52-C , 99-H ) :   0.9941 B( 53-C , 54-C ) :   1.3851 B( 53-C ,100-H ) :   0.9856
B( 54-C , 55-C ) :   1.3347 B( 54-C ,101-H ) :   0.9901 B( 55-C , 56-C ) :   1.0968
B( 56-C , 57-C ) :   1.6589 B( 56-C ,102-H ) :   0.9555 B( 57-C , 58-C ) :   1.1732
B( 57-C ,103-H ) :   0.9547 B( 58-C , 59-C ) :   1.6232 B( 58-C ,104-H ) :   0.9286
B( 59-C , 60-C ) :   1.0610 B( 59-C , 68-C ) :   0.9476 B( 60-C , 61-C ) :   1.5919
B( 60-C , 66-C ) :   1.0198 B( 61-C , 62-C ) :   1.1352 B( 61-C , 64-C ) :   1.1805
B( 62-C , 63-N ) :   2.8872 B( 64-C , 65-N ) :   2.9855 B( 66-C , 67-C ) :   1.2756
B( 66-C , 73-C ) :   1.4108 B( 67-C , 68-C ) :   0.9195 B( 67-C , 70-C ) :   1.4269
B( 68-C , 69-O ) :   2.2601 B( 70-C , 71-C ) :   1.2468 B( 70-C ,105-H ) :   1.0174
B( 71-C , 72-C ) :   1.3102 B( 71-C , 76-C ) :   1.1637 B( 72-C , 73-C ) :   1.3278
B( 72-C , 74-S ) :   1.0845 B( 73-C ,106-H ) :   0.9826 B( 74-S , 75-C ) :   1.0856
B( 75-C , 76-C ) :   1.6193 B( 75-C , 77-Br) :   1.0215 B( 76-C ,107-H ) :   1.0004

-----------------------------------------------------------------------------
         ABSORPTION SPECTRUM VIA TRANSITION ELECTRIC DIPOLE MOMENTS
-----------------------------------------------------------------------------
State   Energy  Wavelength   fosc         T2         TX        TY        TZ
        (cm-1)    (nm)                  (au**2)     (au)      (au)      (au)
-----------------------------------------------------------------------------
   0   11493.8    870.0   0.521644760  14.94129  -0.24921  -1.89782  -3.35819
   1   14603.2    684.8   0.035891255   0.80912   0.31767  -0.45595  -0.70733
   2   18955.7    527.5   0.278935897   4.84439  -0.34254   1.13001   1.85746
   3   19459.6    513.9   0.456436448   7.72186  -0.95640   2.42686  -0.95787
   4   20967.8    476.9   0.083541097   1.31167  -0.35262   0.94036   0.55050
   5   22177.9    450.9   0.832285268  12.35455  -1.48418   2.63710  -1.78814
   6   23452.7    426.4   0.014481965   0.20329  -0.30771   0.26921   0.19007
   7   24094.1    415.0   0.049180407   0.67198   0.37254  -0.38796   0.61861
   8   24902.5    401.6   0.020475797   0.27069  -0.49240  -0.16236  -0.04332
   9   25662.2    389.7   0.004947601   0.06347   0.01603  -0.24216   0.06761
  10   26275.2    380.6   0.081347633   1.01924   0.04664  -0.37726  -0.93527
  11   26586.9    376.1   0.038211983   0.47316  -0.68387  -0.05141  -0.05325
  12   26821.6    372.8   0.424518656   5.21061   1.12476  -1.91867   0.51403
  13   27123.3    368.7   0.140705049   1.70782   0.00510  -1.11793   0.67678
  14   27964.8    357.6   0.109780099   1.29237   0.43894  -1.04840  -0.02381
  15   28379.7    352.4   0.359576474   4.17118   0.52439   0.30439  -1.95027
  16   28715.2    348.2   0.062610941   0.71782   0.31957  -0.48526  -0.61661
  17   29101.1    343.6   0.097003098   1.09737   0.40712  -0.72798   0.63377
  18   29218.5    342.2   0.041516980   0.46778  -0.12369   0.16689  -0.65164
  19   29684.1    336.9   0.039382254   0.43677  -0.61781  -0.05695  -0.22767
  20   29787.2    335.7   0.202293731   2.23578  -0.17651  -0.00276  -1.48479
  21   30241.1    330.7   0.019178189   0.20878   0.05657  -0.42581   0.15578
  22   30345.9    329.5   0.004235885   0.04595  -0.09895  -0.12769   0.14092
  23   30603.7    326.8   0.012851407   0.13825   0.19972  -0.19447   0.24605
  24   31201.1    320.5   0.189373168   1.99813  -0.47175   1.05901   0.80876
  25   31477.5    317.7   0.143499668   1.50081  -0.75437   0.95721  -0.12444
  26   31954.4    312.9   0.132391444   1.36397   0.75434  -0.79735   0.39898
  27   32096.9    311.6   0.010390207   0.10657  -0.06277  -0.02934  -0.31901
  28   32250.8    310.1   0.193662381   1.97688   0.43561  -1.01594  -0.86889
  29   32396.7    308.7   0.129387534   1.31482  -0.52764   0.90493   0.46640
  30   32446.8    308.2   0.171165497   1.73668   0.46079   0.15780  -1.22452
  31   32713.4    305.7   0.156359559   1.57353  -0.36507   0.67053   0.99531
  32   32859.5    304.3   0.024398638   0.24444   0.03122   0.24732   0.42697
  33   33440.8    299.0   0.118822827   1.16977  -0.12972   0.69647  -0.81723
  34   33731.1    296.5   0.453651596   4.42759   0.68696   0.57616  -1.90360
  35   34026.3    293.9   0.086884601   0.84063   0.03306  -0.17064  -0.90023
  36   34176.6    292.6   0.088908630   0.85643   0.33193  -0.21284   0.83723
  37   34374.6    290.9   0.007862993   0.07531  -0.08380   0.25589  -0.05295
  38   34843.2    287.0   0.009277839   0.08766  -0.20753  -0.05417   0.20410
  39   34960.5    286.0   0.116267658   1.09486   0.34946  -0.35720  -0.91932
  40   35195.4    284.1   0.013967838   0.13065   0.29210   0.15879  -0.14182
  41   35264.1    283.6   0.012052913   0.11252   0.08858  -0.14713  -0.28815
  42   35419.6    282.3   0.024375350   0.22656   0.01769  -0.11005   0.46275
  43   35695.6    280.1   0.053398321   0.49248   0.01611   0.05811   0.69917
  44   35838.9    279.0   0.028353679   0.26045  -0.13005  -0.01507   0.49327
  45   35925.7    278.4   0.057161182   0.52381   0.18705  -0.53991  -0.44420
  46   36323.4    275.3   0.006308579   0.05718  -0.18222  -0.15480  -0.00298
  47   36608.6    273.2   0.250004624   2.24823   0.55800  -1.23103  -0.64917
  48   36965.7    270.5   0.015469252   0.13777   0.14619  -0.14171   0.31034
  49   37077.0    269.7   0.088056330   0.78186  -0.00906   0.23245  -0.85308
  50   37518.8    266.5   0.001085798   0.00953  -0.05211   0.08246   0.00344
  51   37700.6    265.2   0.035844248   0.31300   0.02992   0.01461  -0.55847
  52   37739.4    265.0   0.010480995   0.09143  -0.17741   0.18644  -0.15873
  53   38123.4    262.3   0.033759586   0.29153  -0.01660  -0.04213   0.53803
  54   38308.8    261.0   0.011312343   0.09721  -0.06766   0.28470   0.10761
  55   38523.9    259.6   0.021503759   0.18376  -0.00542   0.08055  -0.42101
  56   38662.8    258.6   0.042175670   0.35912   0.05449  -0.43105  -0.41273
  57   38760.6    258.0   0.056210120   0.47742  -0.12112   0.23204  -0.63946
  58   39022.2    256.3   0.014953821   0.12616  -0.05925   0.21699  -0.27489
  59   39150.1    255.4   0.075073297   0.63129   0.26819  -0.08850   0.74265
  60   39423.6    253.7   0.010287944   0.08591  -0.16671   0.00825  -0.24093
  61   39478.7    253.3   0.111041443   0.92597  -0.25438   0.86982   0.32354
  62   39614.8    252.4   0.034234921   0.28450   0.32249  -0.38000  -0.19002
  63   39866.2    250.8   0.063753052   0.52647  -0.24911   0.60666  -0.31044
  64   40041.6    249.7   0.035175633   0.28920  -0.29494   0.07578  -0.44325
  65   40284.8    248.2   0.220708537   1.80366   0.95585  -0.93998  -0.08025

FINAL SINGLE POINT ENERGY    -10106.270070996170

DIPOLE MOMENT
-------------
                                X             Y             Z
Electronic contribution:     44.92976     -30.22450     -55.16936
Nuclear contribution   :    -43.49008      28.43039      48.76774
                        -----------------------------------------
Total Dipole Moment    :      1.43968      -1.79411      -6.40162
                        -----------------------------------------
Magnitude (a.u.)       :      6.80237
Magnitude (Debye)      :     17.29025

Rotational constants in cm-1:     0.000802     0.000338     0.000249
Rotational constants in MHz :    24.036572    10.119298     7.468628

                             ****ORCA TERMINATED NORMALLY****
TOTAL RUN TIME: 0 days 0 hours 13 minutes 27 seconds 525 msec
