                         Program Version 4.2.0 -  RELEASE  -
|  1> # ORCA input file
|  2> # SCF done       -182.816466820257          0.000873671077
|  3> ! CAM-B3LYP def2-SVP def2/J RIJCOSX Grid4 TightSCF
|  4> %maxcore 5000
|  5> %tddft
|  6>     Mode sTDDFT
|  7>     Ethresh 5.0
|  8>     maxcore 5000
|  9> end
| 10>
| 11> %pal
| 12>   nprocs 6
| 13>   end
| 14> * xyz 0 1
| 15>    C       -5.40290         3.72276        -0.28405
| 16>    C       -5.39555         2.85098        -1.34798
| 17>    C       -4.48200         2.92897        -2.41527
| 18>    N       -3.78690         2.95503        -3.33075
| 19>    C       -6.30855         1.80159        -1.56329
| 20>    N       -7.00018         0.92470        -1.83559
| 21>    C       -4.43823         4.80213        -0.08779
| 22>    C       -4.85485         5.58602         1.01385
| 23>    C       -4.15651         6.68394         1.44998
| 24>    C       -2.98057         7.02098         0.77115
| 25>    C       -2.55880         6.21870        -0.31363
| 26>    C       -3.27002         5.11014        -0.75725
| 27>    S       -1.07028         6.79836        -0.99770
| 28>    C       -1.04065         8.10088         0.16297
| 29>    C       -2.08825         8.09925         1.02113
| 30>   Br        0.37239         9.33191         0.14065
| 31>    C       -6.09706         5.01225         1.57511
| 32>    O       -6.72251         5.45428         2.51938
| 33>    C       -6.38309         3.81179         0.76572
| 34>    C       -7.41672         2.93247         1.01246
| 35>    C       -8.43608         3.16291         1.93392
| 36>    C       -9.47700         2.28726         2.16204
| 37>    C      -10.63075         2.54723         2.94317
| 38>    C      -11.54668         1.54003         2.93974
| 39>    C      -11.14429         0.41281         2.18646
| 40>    S       -9.56942         0.68790         1.46561
| 41>    C      -11.82131        -0.77208         1.98710
| 42>    C      -13.15643        -1.09636         2.35343
| 43>    C      -13.55888        -2.32810         1.95752
| 44>    C      -12.55002        -3.07934         1.27779
| 45>    S      -11.06769        -2.11056         1.15897
| 46>    C      -12.59298        -4.32142         0.74850
| 47>    C      -11.36471        -4.88633         0.16845
| 48>    C      -10.30617        -5.25579         1.02621
| 49>    N      -10.48924        -5.32940         2.37926
| 50>    C       -9.08711        -5.63794         0.45987
| 51>    C       -8.89211        -5.57804        -0.89706
| 52>    C       -9.93237        -5.20438        -1.75830
| 53>    C      -11.18316        -4.92205        -1.20172
| 54>    C       -9.70242        -5.01855        -3.16879
| 55>    C       -8.59310        -4.41407        -3.67257
| 56>    C       -8.27814        -4.16889        -5.04011
| 57>    C       -7.16978        -3.40781        -5.23047
| 58>    C       -6.54744        -2.98748        -4.02736
| 59>    S       -7.37515        -3.64579        -2.64686
| 60>    C       -5.46234        -2.14387        -3.87405
| 61>    C       -4.64823        -1.56531        -4.86979
| 62>    C       -3.68185        -0.73992        -4.37283
| 63>    C       -3.70935        -0.60532        -2.96731
| 64>    S       -4.95507        -1.60951        -2.28608
| 65>    C       -2.90675         0.23080        -2.20813
| 66>    C       -3.13973         0.49863        -0.87003
| 67>    C       -2.45383         1.38151        -0.05025
| 68>    C       -1.15872         1.98093        -0.17799
| 69>    C       -0.08842         1.50207        -0.90123
| 70>    C        1.16441         2.13852        -0.96467
| 71>    N        2.19999         2.62651        -1.06461
| 72>    C       -0.07453         0.26194        -1.56780
| 73>    N        0.02098        -0.76218        -2.08004
| 74>    C       -1.09186         3.09215         0.77373
| 75>    C       -2.26038         3.06910         1.57368
| 76>    C       -3.13761         1.97176         1.10831
| 77>    O       -4.23214         1.67465         1.55275
| 78>    C       -2.48669         3.97404         2.57958
| 79>    C       -1.51658         4.95869         2.79998
| 80>    C       -0.35196         4.96955         2.00122
| 81>    C       -0.11950         4.04781         0.98561
| 82>    S        0.71210         6.27304         2.43898
| 83>    C       -0.42366         6.79481         3.65431
| 84>    C       -1.53178         6.02287         3.74330
| 85>   Br       -0.05299         8.32907         4.66858
| 86>    H       -4.50401         7.26637         2.28897
| 87>    H       -2.90445         4.53127        -1.58901
| 88>    H       -2.22772         8.82939         1.79781
| 89>    H       -7.46127         2.01343         0.44076
| 90>    H       -8.44365         4.09943         2.47336
| 91>    H      -10.75080         3.48080         3.46350
| 92>    H      -12.48455         1.56995         3.46497
| 93>    H      -13.78168        -0.39359         2.87490
| 94>    H      -14.53811        -2.73935         2.12800
| 95>    H      -13.51462        -4.88467         0.72944
| 96>    H      -11.27447        -4.84004         2.77527
| 97>    H       -9.66430        -5.38072         2.95265
| 98>    H       -8.28400        -5.95011         1.11065
| 99>    H       -7.93579        -5.85886        -1.30933
|100>    H      -11.99757        -4.62528        -1.84692
|101>    H      -10.49061        -5.29563        -3.85653
|102>    H       -8.89276        -4.56087        -5.83143
|103>    H       -6.79635        -3.10967        -6.19367
|104>    H       -4.79229        -1.76821        -5.91587
|105>    H       -2.96826        -0.20172        -4.97007
|106>    H       -2.13382         0.76576        -2.73977
|107>    H       -4.03916         0.07690        -0.42831
|108>    H       -3.38385         3.93015         3.17739
|109>    H        0.78022         4.10463         0.39577
|110>    H       -2.33261         6.19669         4.43850
|111> *
|112>
|113>                          ****END OF INPUT****

CARTESIAN COORDINATES (ANGSTROEM)
---------------------------------
  C     -5.402900    3.722760   -0.284050
  C     -5.395550    2.850980   -1.347980
  C     -4.482000    2.928970   -2.415270
  N     -3.786900    2.955030   -3.330750
  C     -6.308550    1.801590   -1.563290
  N     -7.000180    0.924700   -1.835590
  C     -4.438230    4.802130   -0.087790
  C     -4.854850    5.586020    1.013850
  C     -4.156510    6.683940    1.449980
  C     -2.980570    7.020980    0.771150
  C     -2.558800    6.218700   -0.313630
  C     -3.270020    5.110140   -0.757250
  S     -1.070280    6.798360   -0.997700
  C     -1.040650    8.100880    0.162970
  C     -2.088250    8.099250    1.021130
  Br     0.372390    9.331910    0.140650
  C     -6.097060    5.012250    1.575110
  O     -6.722510    5.454280    2.519380
  C     -6.383090    3.811790    0.765720
  C     -7.416720    2.932470    1.012460
  C     -8.436080    3.162910    1.933920
  C     -9.477000    2.287260    2.162040
  C    -10.630750    2.547230    2.943170
  C    -11.546680    1.540030    2.939740
  C    -11.144290    0.412810    2.186460
  S     -9.569420    0.687900    1.465610
  C    -11.821310   -0.772080    1.987100
  C    -13.156430   -1.096360    2.353430
  C    -13.558880   -2.328100    1.957520
  C    -12.550020   -3.079340    1.277790
  S    -11.067690   -2.110560    1.158970
  C    -12.592980   -4.321420    0.748500
  C    -11.364710   -4.886330    0.168450
  C    -10.306170   -5.255790    1.026210
  N    -10.489240   -5.329400    2.379260
  C     -9.087110   -5.637940    0.459870
  C     -8.892110   -5.578040   -0.897060
  C     -9.932370   -5.204380   -1.758300
  C    -11.183160   -4.922050   -1.201720
  C     -9.702420   -5.018550   -3.168790
  C     -8.593100   -4.414070   -3.672570
  C     -8.278140   -4.168890   -5.040110
  C     -7.169780   -3.407810   -5.230470
  C     -6.547440   -2.987480   -4.027360
  S     -7.375150   -3.645790   -2.646860
  C     -5.462340   -2.143870   -3.874050
  C     -4.648230   -1.565310   -4.869790
  C     -3.681850   -0.739920   -4.372830
  C     -3.709350   -0.605320   -2.967310
  S     -4.955070   -1.609510   -2.286080
  C     -2.906750    0.230800   -2.208130
  C     -3.139730    0.498630   -0.870030
  C     -2.453830    1.381510   -0.050250
  C     -1.158720    1.980930   -0.177990
  C     -0.088420    1.502070   -0.901230
  C      1.164410    2.138520   -0.964670
  N      2.199990    2.626510   -1.064610
  C     -0.074530    0.261940   -1.567800
  N      0.020980   -0.762180   -2.080040
  C     -1.091860    3.092150    0.773730
  C     -2.260380    3.069100    1.573680
  C     -3.137610    1.971760    1.108310
  O     -4.232140    1.674650    1.552750
  C     -2.486690    3.974040    2.579580
  C     -1.516580    4.958690    2.799980
  C     -0.351960    4.969550    2.001220
  C     -0.119500    4.047810    0.985610
  S      0.712100    6.273040    2.438980
  C     -0.423660    6.794810    3.654310
  C     -1.531780    6.022870    3.743300
  Br    -0.052990    8.329070    4.668580
  H     -4.504010    7.266370    2.288970
  H     -2.904450    4.531270   -1.589010
  H     -2.227720    8.829390    1.797810
  H     -7.461270    2.013430    0.440760
  H     -8.443650    4.099430    2.473360
  H    -10.750800    3.480800    3.463500
  H    -12.484550    1.569950    3.464970
  H    -13.781680   -0.393590    2.874900
  H    -14.538110   -2.739350    2.128000
  H    -13.514620   -4.884670    0.729440
  H    -11.274470   -4.840040    2.775270
  H     -9.664300   -5.380720    2.952650
  H     -8.284000   -5.950110    1.110650
  H     -7.935790   -5.858860   -1.309330
  H    -11.997570   -4.625280   -1.846920
  H    -10.490610   -5.295630   -3.856530
  H     -8.892760   -4.560870   -5.831430
  H     -6.796350   -3.109670   -6.193670
  H     -4.792290   -1.768210   -5.915870
  H     -2.968260   -0.201720   -4.970070
  H     -2.133820    0.765760   -2.739770
  H     -4.039160    0.076900   -0.428310
  H     -3.383850    3.930150    3.177390
  H      0.780220    4.104630    0.395770
  H     -2.332610    6.196690    4.438500

 Total Charge           Charge          ....    0
 Multiplicity           Mult            ....    1
 Number of Electrons    NEL             ....  578
 Basis Dimension        Dim             .... 1179

ORBITAL ENERGIES
----------------

  NO   OCC          E(Eh)            E(eV)
   0   2.0000    -482.874639    -13139.6869
   1   2.0000    -482.873709    -13139.6616
   2   2.0000     -88.962993     -2420.8061
   3   2.0000     -88.959546     -2420.7123
   4   2.0000     -88.958781     -2420.6915
   5   2.0000     -88.957518     -2420.6571
   6   2.0000     -88.953853     -2420.5574
   7   2.0000     -88.948018     -2420.3986
   8   2.0000     -62.552290     -1702.1343
   9   2.0000     -62.551371     -1702.1093
  10   2.0000     -56.386210     -1534.3468
  11   2.0000     -56.385313     -1534.3224
  12   2.0000     -56.383571     -1534.2750
  13   2.0000     -56.383498     -1534.2730
  14   2.0000     -56.382635     -1534.2495
  15   2.0000     -56.382575     -1534.2479
  16   2.0000     -19.200815      -522.4807
  17   2.0000     -19.189121      -522.1625
  18   2.0000     -14.428798      -392.6276
  19   2.0000     -14.400292      -391.8519
  20   2.0000     -14.398827      -391.8120
  21   2.0000     -14.388858      -391.5407
  22   2.0000     -14.384875      -391.4324
  23   2.0000     -10.350563      -281.6532
  24   2.0000     -10.346148      -281.5330
  25   2.0000     -10.342979      -281.4468
  26   2.0000     -10.338669      -281.3295
  27   2.0000     -10.332658      -281.1659
  28   2.0000     -10.328718      -281.0587
  29   2.0000     -10.327883      -281.0360
  30   2.0000     -10.326980      -281.0114
  31   2.0000     -10.325634      -280.9748
  32   2.0000     -10.324010      -280.9306
  33   2.0000     -10.322554      -280.8910
  34   2.0000     -10.319963      -280.8205
  35   2.0000     -10.315459      -280.6979
  36   2.0000     -10.314611      -280.6748
  37   2.0000     -10.312121      -280.6071
  38   2.0000     -10.311040      -280.5777
  39   2.0000     -10.310767      -280.5702
  40   2.0000     -10.309543      -280.5369
  41   2.0000     -10.309161      -280.5265
  42   2.0000     -10.308029      -280.4957
  43   2.0000     -10.306034      -280.4414
  44   2.0000     -10.304819      -280.4084
  45   2.0000     -10.303946      -280.3846
  46   2.0000     -10.303433      -280.3707
  47   2.0000     -10.301413      -280.3157
  48   2.0000     -10.301027      -280.3052
  49   2.0000     -10.299365      -280.2600
  50   2.0000     -10.296867      -280.1920
  51   2.0000     -10.296585      -280.1843
  52   2.0000     -10.295418      -280.1526
  53   2.0000     -10.293627      -280.1038
  54   2.0000     -10.293564      -280.1021
  55   2.0000     -10.293206      -280.0924
  56   2.0000     -10.291413      -280.0436
  57   2.0000     -10.290885      -280.0292
  58   2.0000     -10.288693      -279.9696
  59   2.0000     -10.287346      -279.9329
  60   2.0000     -10.287118      -279.9267
  61   2.0000     -10.286894      -279.9206
  62   2.0000     -10.286469      -279.9090
  63   2.0000     -10.286106      -279.8992
  64   2.0000     -10.284979      -279.8685
  65   2.0000     -10.283567      -279.8301
  66   2.0000     -10.282655      -279.8053
  67   2.0000     -10.282572      -279.8030
  68   2.0000     -10.281513      -279.7742
  69   2.0000     -10.281462      -279.7728
  70   2.0000     -10.279971      -279.7322
  71   2.0000     -10.278318      -279.6872
  72   2.0000     -10.276824      -279.6466
  73   2.0000     -10.276281      -279.6318
  74   2.0000     -10.274860      -279.5931
  75   2.0000     -10.274257      -279.5767
  76   2.0000     -10.269754      -279.4542
  77   2.0000     -10.264826      -279.3201
  78   2.0000     -10.261111      -279.2190
  79   2.0000      -8.781677      -238.9616
  80   2.0000      -8.780773      -238.9370
  81   2.0000      -8.058315      -219.2779
  82   2.0000      -8.055415      -219.1990
  83   2.0000      -8.054152      -219.1646
  84   2.0000      -8.053695      -219.1522
  85   2.0000      -8.049880      -219.0484
  86   2.0000      -8.044033      -218.8893
  87   2.0000      -6.617819      -180.0800
  88   2.0000      -6.616976      -180.0571
  89   2.0000      -6.603524      -179.6910
  90   2.0000      -6.603274      -179.6842
  91   2.0000      -6.602563      -179.6649
  92   2.0000      -6.602345      -179.6589
  93   2.0000      -6.028039      -164.0313
  94   2.0000      -6.025231      -163.9549
  95   2.0000      -6.023896      -163.9185
  96   2.0000      -6.023787      -163.9156
  97   2.0000      -6.023350      -163.9037
  98   2.0000      -6.021146      -163.8437
  99   2.0000      -6.019612      -163.8020
 100   2.0000      -6.019602      -163.8017
 101   2.0000      -6.019593      -163.8015
 102   2.0000      -6.019292      -163.7933
 103   2.0000      -6.016170      -163.7083
 104   2.0000      -6.015500      -163.6901
 105   2.0000      -6.015394      -163.6872
 106   2.0000      -6.014726      -163.6690
 107   2.0000      -6.013578      -163.6378
 108   2.0000      -6.010804      -163.5623
 109   2.0000      -6.009526      -163.5275
 110   2.0000      -6.005320      -163.4131
 111   2.0000      -2.733708       -74.3880
 112   2.0000      -2.732912       -74.3663
 113   2.0000      -2.729688       -74.2786
 114   2.0000      -2.729582       -74.2757
 115   2.0000      -2.728808       -74.2546
 116   2.0000      -2.728650       -74.2504
 117   2.0000      -2.718177       -73.9654
 118   2.0000      -2.718164       -73.9650
 119   2.0000      -2.717179       -73.9382
 120   2.0000      -2.717170       -73.9380
 121   2.0000      -1.114270       -30.3208
 122   2.0000      -1.101742       -29.9799
 123   2.0000      -1.027617       -27.9629
 124   2.0000      -1.010550       -27.4985
 125   2.0000      -1.009050       -27.4576
 126   2.0000      -1.003144       -27.2969
 127   2.0000      -1.001442       -27.2506
 128   2.0000      -0.997856       -27.1531
 129   2.0000      -0.988167       -26.8894
 130   2.0000      -0.987840       -26.8805
 131   2.0000      -0.979739       -26.6601
 132   2.0000      -0.978724       -26.6324
 133   2.0000      -0.973624       -26.4937
 134   2.0000      -0.966396       -26.2970
 135   2.0000      -0.964494       -26.2452
 136   2.0000      -0.952603       -25.9217
 137   2.0000      -0.929300       -25.2875
 138   2.0000      -0.922753       -25.1094
 139   2.0000      -0.914926       -24.8964
 140   2.0000      -0.902963       -24.5709
 141   2.0000      -0.896526       -24.3957
 142   2.0000      -0.893436       -24.3116
 143   2.0000      -0.887923       -24.1616
 144   2.0000      -0.881567       -23.9887
 145   2.0000      -0.872946       -23.7541
 146   2.0000      -0.872025       -23.7290
 147   2.0000      -0.864819       -23.5329
 148   2.0000      -0.862642       -23.4737
 149   2.0000      -0.861474       -23.4419
 150   2.0000      -0.854041       -23.2397
 151   2.0000      -0.846332       -23.0299
 152   2.0000      -0.838112       -22.8062
 153   2.0000      -0.834783       -22.7156
 154   2.0000      -0.827576       -22.5195
 155   2.0000      -0.822645       -22.3853
 156   2.0000      -0.815089       -22.1797
 157   2.0000      -0.811026       -22.0691
 158   2.0000      -0.808653       -22.0046
 159   2.0000      -0.789111       -21.4728
 160   2.0000      -0.779426       -21.2093
 161   2.0000      -0.760219       -20.6866
 162   2.0000      -0.751506       -20.4495
 163   2.0000      -0.743174       -20.2228
 164   2.0000      -0.735315       -20.0089
 165   2.0000      -0.729602       -19.8535
 166   2.0000      -0.719148       -19.5690
 167   2.0000      -0.710688       -19.3388
 168   2.0000      -0.699855       -19.0440
 169   2.0000      -0.692851       -18.8534
 170   2.0000      -0.682707       -18.5774
 171   2.0000      -0.680278       -18.5113
 172   2.0000      -0.676750       -18.4153
 173   2.0000      -0.674992       -18.3675
 174   2.0000      -0.665523       -18.1098
 175   2.0000      -0.658401       -17.9160
 176   2.0000      -0.651953       -17.7405
 177   2.0000      -0.646135       -17.5822
 178   2.0000      -0.643506       -17.5107
 179   2.0000      -0.638700       -17.3799
 180   2.0000      -0.634620       -17.2689
 181   2.0000      -0.632913       -17.2225
 182   2.0000      -0.626863       -17.0578
 183   2.0000      -0.624258       -16.9869
 184   2.0000      -0.618666       -16.8348
 185   2.0000      -0.618155       -16.8209
 186   2.0000      -0.609908       -16.5965
 187   2.0000      -0.608767       -16.5654
 188   2.0000      -0.607807       -16.5393
 189   2.0000      -0.601002       -16.3541
 190   2.0000      -0.599064       -16.3014
 191   2.0000      -0.586224       -15.9520
 192   2.0000      -0.580357       -15.7923
 193   2.0000      -0.577943       -15.7266
 194   2.0000      -0.574279       -15.6269
 195   2.0000      -0.572745       -15.5852
 196   2.0000      -0.565361       -15.3843
 197   2.0000      -0.554168       -15.0797
 198   2.0000      -0.546885       -14.8815
 199   2.0000      -0.543882       -14.7998
 200   2.0000      -0.539663       -14.6850
 201   2.0000      -0.539515       -14.6809
 202   2.0000      -0.531539       -14.4639
 203   2.0000      -0.531091       -14.4517
 204   2.0000      -0.526674       -14.3315
 205   2.0000      -0.523684       -14.2502
 206   2.0000      -0.520251       -14.1567
 207   2.0000      -0.519900       -14.1472
 208   2.0000      -0.517122       -14.0716
 209   2.0000      -0.514842       -14.0096
 210   2.0000      -0.513306       -13.9678
 211   2.0000      -0.511345       -13.9144
 212   2.0000      -0.510701       -13.8969
 213   2.0000      -0.509715       -13.8701
 214   2.0000      -0.508912       -13.8482
 215   2.0000      -0.502660       -13.6781
 216   2.0000      -0.500634       -13.6229
 217   2.0000      -0.499522       -13.5927
 218   2.0000      -0.497448       -13.5362
 219   2.0000      -0.495309       -13.4780
 220   2.0000      -0.494191       -13.4476
 221   2.0000      -0.484157       -13.1746
 222   2.0000      -0.483248       -13.1499
 223   2.0000      -0.482366       -13.1259
 224   2.0000      -0.480892       -13.0857
 225   2.0000      -0.478849       -13.0302
 226   2.0000      -0.478485       -13.0202
 227   2.0000      -0.475069       -12.9273
 228   2.0000      -0.473900       -12.8955
 229   2.0000      -0.472031       -12.8446
 230   2.0000      -0.470580       -12.8051
 231   2.0000      -0.467381       -12.7181
 232   2.0000      -0.466101       -12.6833
 233   2.0000      -0.462571       -12.5872
 234   2.0000      -0.457893       -12.4599
 235   2.0000      -0.457354       -12.4452
 236   2.0000      -0.448601       -12.2071
 237   2.0000      -0.446707       -12.1555
 238   2.0000      -0.444976       -12.1084
 239   2.0000      -0.442844       -12.0504
 240   2.0000      -0.441081       -12.0024
 241   2.0000      -0.437051       -11.8928
 242   2.0000      -0.436875       -11.8880
 243   2.0000      -0.433997       -11.8096
 244   2.0000      -0.432014       -11.7557
 245   2.0000      -0.430700       -11.7199
 246   2.0000      -0.427302       -11.6275
 247   2.0000      -0.425831       -11.5875
 248   2.0000      -0.423983       -11.5372
 249   2.0000      -0.422661       -11.5012
 250   2.0000      -0.420935       -11.4542
 251   2.0000      -0.420213       -11.4346
 252   2.0000      -0.416275       -11.3274
 253   2.0000      -0.414203       -11.2710
 254   2.0000      -0.411399       -11.1947
 255   2.0000      -0.410737       -11.1767
 256   2.0000      -0.408541       -11.1170
 257   2.0000      -0.405833       -11.0433
 258   2.0000      -0.400690       -10.9033
 259   2.0000      -0.396726       -10.7955
 260   2.0000      -0.395251       -10.7553
 261   2.0000      -0.393716       -10.7135
 262   2.0000      -0.390019       -10.6130
 263   2.0000      -0.386533       -10.5181
 264   2.0000      -0.380445       -10.3524
 265   2.0000      -0.379217       -10.3190
 266   2.0000      -0.370580       -10.0840
 267   2.0000      -0.365769        -9.9531
 268   2.0000      -0.364338        -9.9141
 269   2.0000      -0.361956        -9.8493
 270   2.0000      -0.354394        -9.6436
 271   2.0000      -0.350073        -9.5260
 272   2.0000      -0.346104        -9.4180
 273   2.0000      -0.343499        -9.3471
 274   2.0000      -0.335823        -9.1382
 275   2.0000      -0.334109        -9.0916
 276   2.0000      -0.330141        -8.9836
 277   2.0000      -0.321784        -8.7562
 278   2.0000      -0.320501        -8.7213
 279   2.0000      -0.314615        -8.5611
 280   2.0000      -0.304808        -8.2943
 281   2.0000      -0.302422        -8.2293
 282   2.0000      -0.299593        -8.1524
 283   2.0000      -0.296092        -8.0571
 284   2.0000      -0.276554        -7.5254
 285   2.0000      -0.272420        -7.4129
 286   2.0000      -0.267649        -7.2831
 287   2.0000      -0.234121        -6.3708
 288   2.0000      -0.217751        -5.9253
 289   0.0000      -0.103007        -2.8030
 290   0.0000      -0.095243        -2.5917
 291   0.0000      -0.055495        -1.5101
 292   0.0000      -0.047056        -1.2805
 293   0.0000      -0.034422        -0.9367

MULLIKEN ATOMIC CHARGES
-----------------------
   0 C :    0.344188
   1 C :   -0.370902
   2 C :   -0.174616
   3 N :    0.131644
   4 C :   -0.215219
   5 N :    0.149112
   6 C :    0.004719
   7 C :    0.000360
   8 C :   -0.104908
   9 C :    0.154525
  10 C :   -0.116351
  11 C :   -0.003137
  12 S :    0.179964
  13 C :   -0.129278
  14 C :    0.045137
  15 Br:    0.019595
  16 C :    0.134155
  17 O :   -0.168308
  18 C :   -0.068546
  19 C :   -0.021161
  20 C :   -0.024457
  21 C :    0.002465
  22 C :    0.033340
  23 C :    0.041738
  24 C :   -0.054091
  25 S :    0.118284
  26 C :   -0.044011
  27 C :    0.026897
  28 C :    0.064040
  29 C :   -0.040163
  30 S :    0.111180
  31 C :   -0.079524
  32 C :   -0.037949
  33 C :    0.046701
  34 N :   -0.042011
  35 C :   -0.025282
  36 C :    0.004322
  37 C :    0.039729
  38 C :   -0.006903
  39 C :    0.005884
  40 C :   -0.046153
  41 C :    0.057833
  42 C :    0.029712
  43 C :   -0.025748
  44 S :    0.104260
  45 C :   -0.061381
  46 C :    0.042013
  47 C :    0.042666
  48 C :   -0.025900
  49 S :    0.134108
  50 C :    0.024907
  51 C :    0.003744
  52 C :   -0.145511
  53 C :    0.301900
  54 C :   -0.356888
  55 C :   -0.182037
  56 N :    0.128016
  57 C :   -0.226854
  58 N :    0.157900
  59 C :    0.002621
  60 C :    0.007990
  61 C :    0.131169
  62 O :   -0.177546
  63 C :   -0.079623
  64 C :    0.129865
  65 C :   -0.099380
  66 C :   -0.031144
  67 S :    0.176983
  68 C :   -0.124717
  69 C :    0.025949
  70 Br:    0.007394
  71 H :   -0.020567
  72 H :   -0.012851
  73 H :   -0.007365
  74 H :    0.018173
  75 H :    0.016736
  76 H :    0.000629
  77 H :   -0.007246
  78 H :   -0.004410
  79 H :   -0.003589
  80 H :    0.014603
  81 H :    0.120457
  82 H :    0.116881
  83 H :   -0.036470
  84 H :   -0.001175
  85 H :   -0.031158
  86 H :    0.001731
  87 H :   -0.003856
  88 H :   -0.006450
  89 H :   -0.007216
  90 H :    0.003561
  91 H :    0.017321
  92 H :    0.016282
  93 H :   -0.018461
  94 H :   -0.013796
  95 H :   -0.009075
Sum of atomic charges:   -0.0000000

LOEWDIN ATOMIC CHARGES
----------------------
   0 C :    0.080254
   1 C :   -0.153319
   2 C :   -0.010877
   3 N :   -0.077421
   4 C :   -0.022026
   5 N :   -0.069902
   6 C :   -0.020073
   7 C :   -0.046910
   8 C :    0.013989
   9 C :   -0.031616
  10 C :   -0.143677
  11 C :   -0.007946
  12 S :    0.434201
  13 C :   -0.276834
  14 C :   -0.070768
  15 Br:    0.133500
  16 C :    0.083692
  17 O :   -0.158951
  18 C :   -0.090813
  19 C :    0.061386
  20 C :   -0.064408
  21 C :   -0.108104
  22 C :   -0.033230
  23 C :   -0.013491
  24 C :   -0.185106
  25 S :    0.407788
  26 C :   -0.162037
  27 C :   -0.026375
  28 C :   -0.023298
  29 C :   -0.141496
  30 S :    0.389017
  31 C :   -0.040147
  32 C :   -0.086909
  33 C :    0.041257
  34 N :   -0.010273
  35 C :   -0.056571
  36 C :   -0.005117
  37 C :   -0.072602
  38 C :    0.013639
  39 C :   -0.008717
  40 C :   -0.154649
  41 C :   -0.007563
  42 C :   -0.037099
  43 C :   -0.140879
  44 S :    0.409827
  45 C :   -0.195376
  46 C :   -0.004233
  47 C :   -0.034776
  48 C :   -0.094237
  49 S :    0.430885
  50 C :   -0.063707
  51 C :    0.048267
  52 C :   -0.125287
  53 C :    0.065450
  54 C :   -0.159119
  55 C :   -0.019356
  56 N :   -0.073688
  57 C :   -0.023907
  58 N :   -0.066217
  59 C :   -0.016658
  60 C :   -0.050176
  61 C :    0.074487
  62 O :   -0.174534
  63 C :    0.015591
  64 C :   -0.039265
  65 C :   -0.150418
  66 C :   -0.022255
  67 S :    0.432833
  68 C :   -0.277389
  69 C :   -0.072931
  70 Br:    0.124280
  71 H :    0.036543
  72 H :    0.038773
  73 H :    0.036088
  74 H :    0.034385
  75 H :    0.038840
  76 H :    0.039130
  77 H :    0.034509
  78 H :    0.034898
  79 H :    0.037025
  80 H :    0.035224
  81 H :    0.070001
  82 H :    0.076634
  83 H :    0.028323
  84 H :    0.026827
  85 H :    0.030120
  86 H :    0.036271
  87 H :    0.036941
  88 H :    0.034614
  89 H :    0.034753
  90 H :    0.041522
  91 H :    0.039045
  92 H :    0.031829
  93 H :    0.037085
  94 H :    0.037350
  95 H :    0.035659

  Mayer bond orders larger than 0.100000
B(  0-C ,  1-C ) :   1.5934 B(  0-C ,  6-C ) :   0.9922 B(  0-C , 18-C ) :   1.1042
B(  1-C ,  2-C ) :   1.1620 B(  1-C ,  4-C ) :   1.1638 B(  2-C ,  3-N ) :   2.9093
B(  4-C ,  5-N ) :   2.9390 B(  6-C ,  7-C ) :   1.2864 B(  6-C , 11-C ) :   1.4138
B(  7-C ,  8-C ) :   1.4076 B(  7-C , 16-C ) :   0.9403 B(  8-C ,  9-C ) :   1.2262
B(  8-C , 71-H ) :   1.0221 B(  9-C , 10-C ) :   1.3133 B(  9-C , 14-C ) :   1.1632
B( 10-C , 11-C ) :   1.3206 B( 10-C , 12-S ) :   1.0848 B( 11-C , 72-H ) :   0.9809
B( 12-S , 13-C ) :   1.0816 B( 13-C , 14-C ) :   1.6150 B( 13-C , 15-Br) :   1.0194
B( 14-C , 73-H ) :   0.9974 B( 16-C , 17-O ) :   2.1806 B( 16-C , 18-C ) :   0.9646
B( 18-C , 19-C ) :   1.5125 B( 19-C , 20-C ) :   1.2246 B( 19-C , 74-H ) :   0.9455
B( 20-C , 21-C ) :   1.4575 B( 20-C , 75-H ) :   0.9751 B( 21-C , 22-C ) :   1.1572
B( 21-C , 25-S ) :   1.0767 B( 22-C , 23-C ) :   1.5750 B( 22-C , 76-H ) :   1.0008
B( 23-C , 24-C ) :   1.1878 B( 23-C , 77-H ) :   0.9941 B( 24-C , 25-S ) :   1.0451
B( 24-C , 26-C ) :   1.5168 B( 26-C , 27-C ) :   1.1606 B( 26-C , 30-S ) :   1.0569
B( 27-C , 28-C ) :   1.6410 B( 27-C , 78-H ) :   0.9938 B( 28-C , 29-C ) :   1.0852
B( 28-C , 79-H ) :   1.0002 B( 29-C , 30-S ) :   1.0295 B( 29-C , 31-C ) :   1.7370
B( 31-C , 32-C ) :   0.9617 B( 31-C , 80-H ) :   0.9738 B( 32-C , 33-C ) :   1.3111
B( 32-C , 38-C ) :   1.4198 B( 33-C , 34-N ) :   1.2887 B( 33-C , 35-C ) :   1.3051
B( 34-N , 81-H ) :   0.9395 B( 34-N , 82-H ) :   0.9441 B( 35-C , 36-C ) :   1.4239
B( 35-C , 83-H ) :   0.9950 B( 36-C , 37-C ) :   1.3173 B( 36-C , 84-H ) :   0.9791
B( 37-C , 38-C ) :   1.3278 B( 37-C , 39-C ) :   1.0383 B( 38-C , 85-H ) :   0.9956
B( 39-C , 40-C ) :   1.6700 B( 39-C , 86-H ) :   0.9694 B( 40-C , 41-C ) :   1.1217
B( 40-C , 44-S ) :   1.0156 B( 41-C , 42-C ) :   1.6119 B( 41-C , 87-H ) :   0.9963
B( 42-C , 43-C ) :   1.1773 B( 42-C , 88-H ) :   0.9947 B( 43-C , 44-S ) :   1.0893
B( 43-C , 45-C ) :   1.4726 B( 45-C , 46-C ) :   1.2174 B( 45-C , 49-S ) :   1.0498
B( 46-C , 47-C ) :   1.5370 B( 46-C , 89-H ) :   0.9938 B( 47-C , 48-C ) :   1.1946
B( 47-C , 90-H ) :   1.0007 B( 48-C , 49-S ) :   1.1216 B( 48-C , 50-C ) :   1.4485
B( 50-C , 51-C ) :   1.2963 B( 50-C , 91-H ) :   0.9532 B( 51-C , 52-C ) :   1.4491
B( 51-C , 92-H ) :   0.9360 B( 52-C , 53-C ) :   1.1113 B( 52-C , 61-C ) :   1.0078
B( 53-C , 54-C ) :   1.5836 B( 53-C , 59-C ) :   0.9937 B( 54-C , 55-C ) :   1.1387
B( 54-C , 57-C ) :   1.1734 B( 55-C , 56-N ) :   2.9660 B( 57-C , 58-N ) :   3.0079
B( 59-C , 60-C ) :   1.2751 B( 59-C , 66-C ) :   1.4287 B( 60-C , 61-C ) :   0.9191
B( 60-C , 63-C ) :   1.4325 B( 61-C , 62-O ) :   2.1888 B( 63-C , 64-C ) :   1.2385
B( 63-C , 93-H ) :   1.0078 B( 64-C , 65-C ) :   1.3348 B( 64-C , 69-C ) :   1.1544
B( 65-C , 66-C ) :   1.2936 B( 65-C , 67-S ) :   1.0807 B( 66-C , 94-H ) :   0.9839
B( 67-S , 68-C ) :   1.0897 B( 68-C , 69-C ) :   1.6116 B( 68-C , 70-Br) :   1.0086
B( 69-C , 95-H ) :   1.0035

-----------------------------------------------------------------------------
         ABSORPTION SPECTRUM VIA TRANSITION ELECTRIC DIPOLE MOMENTS
-----------------------------------------------------------------------------
State   Energy  Wavelength   fosc         T2         TX        TY        TZ
        (cm-1)    (nm)                  (au**2)     (au)      (au)      (au)
-----------------------------------------------------------------------------
   0   11132.9    898.2   0.023649725   0.69935  -0.50384  -0.11134  -0.65810
   1   11938.6    837.6   0.301459144   8.31289   2.08843   1.59851   1.18158
   2   14892.6    671.5   2.014891362  44.54055   4.91623   4.51196  -0.11594
   3   16909.0    591.4   0.099084902   1.92915  -0.88819  -0.98550  -0.41116
   4   19715.5    507.2   0.018297198   0.30553  -0.03673   0.47541   0.27959
   5   21442.9    466.4   0.029735679   0.45653   0.17543  -0.64525  -0.09696
   6   22030.3    453.9   0.050378718   0.75284  -0.58388  -0.54765   0.33466
   7   22838.3    437.9   0.135153941   1.94823   0.73902   0.16714  -1.17224
   8   23083.7    433.2   0.068991393   0.98393   0.07215  -0.48376   0.86297
   9   24150.7    414.1   0.294771025   4.01819   1.00606   1.56395   0.74840
  10   24498.6    408.2   0.021594120   0.29018   0.05725  -0.44600  -0.29663
  11   24864.1    402.2   0.024835296   0.32883  -0.27734  -0.49934  -0.05069
  12   25609.4    390.5   0.057532388   0.73959   0.33624   0.53326  -0.58494
  13   26009.9    384.5   0.059403373   0.75188  -0.01711   0.46353   0.73262
  14   26297.9    380.3   0.413896255   5.18139  -0.49001   0.66679   2.12054
  15   26945.3    371.1   0.001527234   0.01866   0.03352  -0.11470  -0.06617
  16   27297.1    366.3   0.008670469   0.10457  -0.31040   0.06173  -0.06643
  17   27483.3    363.9   0.009584042   0.11480  -0.31349  -0.05978   0.11381
  18   27668.2    361.4   0.008637983   0.10278  -0.16483   0.26287   0.08070
  19   28231.5    354.2   0.009451470   0.11021   0.00437  -0.30156  -0.13878
  20   28653.0    349.0   0.014782231   0.16984   0.33426  -0.22367  -0.08990
  21   28999.9    344.8   0.019518486   0.22158  -0.10751  -0.44745  -0.09904
  22   29222.4    342.2   0.037434935   0.42173  -0.60516   0.08663   0.21910
  23   29374.0    340.4   0.181507380   2.03426   0.52895  -1.07958  -0.76745
  24   29780.9    335.8   0.018425187   0.20368  -0.44569  -0.02890   0.06482
  25   29986.4    333.5   0.104272243   1.14477  -0.00505  -0.73046  -0.78178
  26   30419.4    328.7   0.037741266   0.40845  -0.21084   0.03050   0.60255
  27   30743.2    325.3   0.161345716   1.72776  -0.37385  -1.10069  -0.61358
  28   30873.7    323.9   0.027028369   0.28821  -0.35319  -0.36465  -0.17463
  29   31311.1    319.4   0.013543433   0.14240  -0.35916  -0.04736  -0.10562
  30   31745.5    315.0   0.131237544   1.36098   0.92985   0.21320  -0.67149
  31   31875.0    313.7   0.058888046   0.60821  -0.57683   0.05772   0.52167
  32   31996.3    312.5   0.088598033   0.91159   0.89282   0.28876   0.17629
  33   32392.8    308.7   0.167121959   1.69848   0.48878   0.91728   0.78624
  34   32484.3    307.8   0.010325298   0.10464   0.31033   0.06236  -0.06669
  35   32601.3    306.7   0.098610996   0.99579  -0.23737   0.61981   0.74517
  36   32822.5    304.7   0.083948813   0.84201  -0.28287  -0.70686  -0.51219
  37   32951.5    303.5   0.047043617   0.47000  -0.04607  -0.32243  -0.60326
  38   33369.8    299.7   0.166127668   1.63894  -0.13978   1.00791   0.77686
  39   33634.3    297.3   0.024490668   0.23971  -0.03957  -0.29182  -0.39114
  40   34031.8    293.8   0.025335170   0.24508  -0.08504   0.32293   0.36547
  41   34101.7    293.2   0.125916447   1.21557   0.32679  -0.84557  -0.62753
  42   34479.5    290.0   0.004321019   0.04126   0.16368   0.07263  -0.09588
  43   35092.3    285.0   0.128401894   1.20458  -0.31272   0.28389   1.01301
  44   35269.0    283.5   0.002324683   0.02170  -0.12527  -0.02537   0.07324
  45   35344.5    282.9   0.067508024   0.62879  -0.17693   0.25135   0.73097
  46   35437.5    282.2   0.039329553   0.36537   0.48962   0.00903  -0.35435
  47   35531.5    281.4   0.072662110   0.67324  -0.76859  -0.18220   0.22206
  48   35818.8    279.2   0.011239216   0.10330   0.21331  -0.21831  -0.10069
  49   36018.8    277.6   0.029986184   0.27407  -0.33667   0.26024   0.30497
  50   36319.7    275.3   0.086508948   0.78414   0.54875   0.66257   0.20980
  51   36605.2    273.2   0.031972821   0.28755   0.44685   0.28123   0.09374
  52   36636.7    273.0   0.014610548   0.13129  -0.26144  -0.22772  -0.10528
  53   36778.6    271.9   0.063235611   0.56603  -0.28049  -0.63449  -0.29117
  54   37253.6    268.4   0.022811840   0.20159  -0.37367  -0.22649   0.10327
  55   37568.7    266.2   0.102939952   0.90206   0.27842   0.75238   0.50839
  56   37615.6    265.8   0.062426623   0.54636   0.14137  -0.67896  -0.25571
  57   37674.2    265.4   0.052757713   0.46102  -0.61876  -0.12170   0.25167
  58   37855.6    264.2   0.014606271   0.12702  -0.33258   0.09819   0.08232
  59   38033.2    262.9   0.014422426   0.12484  -0.06281   0.32871  -0.11332
  60   38097.7    262.5   0.042231849   0.36494  -0.31586   0.36700   0.36121
  61   38223.5    261.6   0.073896939   0.63646  -0.27533   0.51985   0.53889
  62   38323.4    260.9   0.019487863   0.16741  -0.07550  -0.25722   0.30910
  63   38419.4    260.3   0.063440576   0.54362   0.50086  -0.33644  -0.42375
  64   38632.0    258.9   0.017099791   0.14572   0.09774   0.21900   0.29699
  65   38637.8    258.8   0.230324773   1.96247   0.08133   0.71161   1.20394
  66   38887.5    257.2   0.006521050   0.05521   0.03517  -0.16620   0.16232
  67   39121.6    255.6   0.091731434   0.77193  -0.79163   0.08571   0.37136
  68   39519.8    253.0   0.016701895   0.13913  -0.21457  -0.30308   0.03512
  69   39789.9    251.3   0.004848027   0.04011   0.17507   0.09678  -0.00971
  70   39856.2    250.9   0.028281560   0.23361   0.45639   0.08766  -0.13276
  71   40113.5    249.3   0.015709461   0.12893  -0.16532   0.05903   0.31323

FINAL SINGLE POINT ENERGY    -10106.143142916429

DIPOLE MOMENT
-------------
                                X             Y             Z
Electronic contribution:    146.18227     174.92909      47.04136
Nuclear contribution   :   -152.73821    -176.95845     -45.88883
                        -----------------------------------------
Total Dipole Moment    :     -6.55593      -2.02937       1.15253
                        -----------------------------------------
Magnitude (a.u.)       :      6.95895
Magnitude (Debye)      :     17.68824

Rotational constants in cm-1:     0.001436     0.000398     0.000343
Rotational constants in MHz :    43.059705    11.920807    10.286262

                             ****ORCA TERMINATED NORMALLY****
TOTAL RUN TIME: 0 days 0 hours 17 minutes 20 seconds 361 msec
