                         Program Version 4.2.0 -  RELEASE  -
|  1> # ORCA input file
|  2> # SCF done       -177.450589598046          0.003533920276
|  3> ! CAM-B3LYP def2-SVP def2/J RIJCOSX Grid4 TightSCF
|  4> %maxcore 5000
|  5> %tddft
|  6>     Mode sTDDFT
|  7>     Ethresh 5.0
|  8>     maxcore 5000
|  9> end
| 10>
| 11> %pal
| 12>   nprocs 6
| 13>   end
| 14> * xyz 0 1
| 15>    C       -8.11550        -0.48236         3.28786
| 16>    C       -7.46970        -1.57167         2.75549
| 17>    C       -8.05572        -2.84014         2.59396
| 18>    N       -8.46627        -3.90644         2.46823
| 19>    C       -6.09927        -1.58423         2.43128
| 20>    N       -4.98100        -1.67685         2.18240
| 21>    C       -9.49379        -0.45024         3.75420
| 22>    C       -9.69455         0.75469         4.46995
| 23>    C      -10.90705         1.09656         5.01282
| 24>    C      -11.95817         0.18357         4.88720
| 25>    C      -11.74441        -1.02547         4.18465
| 26>    C      -10.52660        -1.35538         3.60095
| 27>    S      -13.18120        -2.00360         4.16047
| 28>    C      -14.02724        -0.79442         5.09622
| 29>    C      -13.27909         0.29064         5.40183
| 30>   Br      -15.81502        -1.09119         5.57052
| 31>    C       -8.42552         1.50233         4.54538
| 32>    O       -8.22510         2.52930         5.15632
| 33>    C       -7.48632         0.75598         3.66942
| 34>    C       -6.28837         1.26356         3.24608
| 35>    C       -5.58832         2.28629         3.93924
| 36>    S       -4.80114         3.59244         3.09975
| 37>    C       -4.35582         4.31386         4.59095
| 38>    C       -4.73719         3.59188         5.68262
| 39>    C       -4.44763         3.97589         7.09295
| 40>    C       -5.42839         2.40641         5.31828
| 41>    C       -5.84489         1.35178         6.21444
| 42>    C       -5.69548         0.05661         5.87714
| 43>    C       -6.30241        -1.06274         6.51958
| 44>    C       -6.22283        -2.29454         5.97231
| 45>    C       -6.90714        -3.44463         6.47592
| 46>    C       -6.86540        -4.68882         5.96938
| 47>    C       -6.11267        -5.10924         4.74973
| 48>    C       -7.62107        -5.81358         6.64723
| 49>    N       -6.76132        -6.93058         6.99909
| 50>    C       -5.69389        -6.83136         7.80526
| 51>    C       -5.33506        -5.68768         8.46169
| 52>    C       -4.16697        -5.51088         9.20774
| 53>    C       -3.80928        -4.27645         9.70467
| 54>    C       -2.63627        -3.89685        10.38727
| 55>    C       -2.55878        -2.56091        10.66942
| 56>    C       -3.67756        -1.82401        10.23282
| 57>    S       -4.83260        -2.86425         9.45942
| 58>    C       -3.92960        -0.46114        10.34510
| 59>    C       -3.11848         0.55473        10.87034
| 60>    C       -3.68982         1.80014        10.80911
| 61>    C       -4.97962         1.81416        10.24771
| 62>    S       -5.44495         0.20251         9.77225
| 63>    C       -5.80948         2.91699        10.07952
| 64>    C       -7.08769         2.82775         9.56232
| 65>    C       -7.96542         3.89488         9.40753
| 66>    C       -9.31161         3.82633         8.92813
| 67>    C       -9.95294         2.74193         8.36397
| 68>    C      -11.30218         2.74056         7.97506
| 69>    N      -12.39770         2.64802         7.63345
| 70>    C       -9.36317         1.50023         8.06806
| 71>    N       -8.96879         0.45911         7.77588
| 72>    C       -9.91711         5.14901         9.11520
| 73>    C       -8.94351         6.01809         9.63606
| 74>    C       -7.66990         5.27703         9.81140
| 75>    O       -6.61840         5.74400        10.20832
| 76>    C       -9.22278         7.33625         9.92126
| 77>    C      -10.51056         7.80326         9.68174
| 78>    C      -11.48254         6.94895         9.16033
| 79>    C      -11.19529         5.61746         8.87224
| 80>   Cl      -13.07251         7.53787         8.86593
| 81>   Cl      -10.90208         9.44069        10.03494
| 82>    H      -11.04781         2.03303         5.52600
| 83>    H      -10.41321        -2.27817         3.05562
| 84>    H      -13.62263         1.12793         5.98275
| 85>    H       -5.85690         0.91378         2.31486
| 86>    H       -3.82544         5.24629         4.57984
| 87>    H       -3.78749         4.83801         7.12989
| 88>    H       -3.98118         3.14588         7.62197
| 89>    H       -5.37340         4.22421         7.61045
| 90>    H       -6.31866         1.63981         7.14124
| 91>    H       -5.12836        -0.17464         4.98053
| 92>    H       -6.90886        -0.88127         7.39489
| 93>    H       -5.60786        -2.42033         5.09081
| 94>    H       -7.51304        -3.26115         7.35502
| 95>    H       -6.79885        -5.54286         4.02348
| 96>    H       -5.36766        -5.86366         5.00269
| 97>    H       -5.60091        -4.27998         4.27513
| 98>    H       -8.38767        -6.19690         5.96923
| 99>    H       -8.11618        -5.44002         7.54978
|100>    H       -6.91488        -7.80163         6.51827
|101>    H       -5.09718        -7.72909         7.90512
|102>    H       -5.95951        -4.81650         8.35079
|103>    H       -3.49453        -6.34348         9.36537
|104>    H       -1.87576        -4.61387        10.64301
|105>    H       -1.73275        -2.09574        11.17638
|106>    H       -2.14011         0.35778        11.27327
|107>    H       -3.21780         2.70261        11.15732
|108>    H       -5.43019         3.88006        10.38553
|109>    H       -7.44341         1.84008         9.29123
|110>    H       -8.46212         7.98617        10.32345
|111>    H      -11.97516         4.98925         8.47373
|112> *
|113>
|114>                          ****END OF INPUT****

CARTESIAN COORDINATES (ANGSTROEM)
---------------------------------
  C     -8.115500   -0.482360    3.287860
  C     -7.469700   -1.571670    2.755490
  C     -8.055720   -2.840140    2.593960
  N     -8.466270   -3.906440    2.468230
  C     -6.099270   -1.584230    2.431280
  N     -4.981000   -1.676850    2.182400
  C     -9.493790   -0.450240    3.754200
  C     -9.694550    0.754690    4.469950
  C    -10.907050    1.096560    5.012820
  C    -11.958170    0.183570    4.887200
  C    -11.744410   -1.025470    4.184650
  C    -10.526600   -1.355380    3.600950
  S    -13.181200   -2.003600    4.160470
  C    -14.027240   -0.794420    5.096220
  C    -13.279090    0.290640    5.401830
  Br   -15.815020   -1.091190    5.570520
  C     -8.425520    1.502330    4.545380
  O     -8.225100    2.529300    5.156320
  C     -7.486320    0.755980    3.669420
  C     -6.288370    1.263560    3.246080
  C     -5.588320    2.286290    3.939240
  S     -4.801140    3.592440    3.099750
  C     -4.355820    4.313860    4.590950
  C     -4.737190    3.591880    5.682620
  C     -4.447630    3.975890    7.092950
  C     -5.428390    2.406410    5.318280
  C     -5.844890    1.351780    6.214440
  C     -5.695480    0.056610    5.877140
  C     -6.302410   -1.062740    6.519580
  C     -6.222830   -2.294540    5.972310
  C     -6.907140   -3.444630    6.475920
  C     -6.865400   -4.688820    5.969380
  C     -6.112670   -5.109240    4.749730
  C     -7.621070   -5.813580    6.647230
  N     -6.761320   -6.930580    6.999090
  C     -5.693890   -6.831360    7.805260
  C     -5.335060   -5.687680    8.461690
  C     -4.166970   -5.510880    9.207740
  C     -3.809280   -4.276450    9.704670
  C     -2.636270   -3.896850   10.387270
  C     -2.558780   -2.560910   10.669420
  C     -3.677560   -1.824010   10.232820
  S     -4.832600   -2.864250    9.459420
  C     -3.929600   -0.461140   10.345100
  C     -3.118480    0.554730   10.870340
  C     -3.689820    1.800140   10.809110
  C     -4.979620    1.814160   10.247710
  S     -5.444950    0.202510    9.772250
  C     -5.809480    2.916990   10.079520
  C     -7.087690    2.827750    9.562320
  C     -7.965420    3.894880    9.407530
  C     -9.311610    3.826330    8.928130
  C     -9.952940    2.741930    8.363970
  C    -11.302180    2.740560    7.975060
  N    -12.397700    2.648020    7.633450
  C     -9.363170    1.500230    8.068060
  N     -8.968790    0.459110    7.775880
  C     -9.917110    5.149010    9.115200
  C     -8.943510    6.018090    9.636060
  C     -7.669900    5.277030    9.811400
  O     -6.618400    5.744000   10.208320
  C     -9.222780    7.336250    9.921260
  C    -10.510560    7.803260    9.681740
  C    -11.482540    6.948950    9.160330
  C    -11.195290    5.617460    8.872240
  Cl   -13.072510    7.537870    8.865930
  Cl   -10.902080    9.440690   10.034940
  H    -11.047810    2.033030    5.526000
  H    -10.413210   -2.278170    3.055620
  H    -13.622630    1.127930    5.982750
  H     -5.856900    0.913780    2.314860
  H     -3.825440    5.246290    4.579840
  H     -3.787490    4.838010    7.129890
  H     -3.981180    3.145880    7.621970
  H     -5.373400    4.224210    7.610450
  H     -6.318660    1.639810    7.141240
  H     -5.128360   -0.174640    4.980530
  H     -6.908860   -0.881270    7.394890
  H     -5.607860   -2.420330    5.090810
  H     -7.513040   -3.261150    7.355020
  H     -6.798850   -5.542860    4.023480
  H     -5.367660   -5.863660    5.002690
  H     -5.600910   -4.279980    4.275130
  H     -8.387670   -6.196900    5.969230
  H     -8.116180   -5.440020    7.549780
  H     -6.914880   -7.801630    6.518270
  H     -5.097180   -7.729090    7.905120
  H     -5.959510   -4.816500    8.350790
  H     -3.494530   -6.343480    9.365370
  H     -1.875760   -4.613870   10.643010
  H     -1.732750   -2.095740   11.176380
  H     -2.140110    0.357780   11.273270
  H     -3.217800    2.702610   11.157320
  H     -5.430190    3.880060   10.385530
  H     -7.443410    1.840080    9.291230
  H     -8.462120    7.986170   10.323450
  H    -11.975160    4.989250    8.473730

 Total Charge           Charge          ....    0
 Multiplicity           Mult            ....    1
 Number of Electrons    NEL             ....  532
 Basis Dimension        Dim             .... 1130

ORBITAL ENERGIES
----------------

  NO   OCC          E(Eh)            E(eV)
   0   2.0000    -482.868771    -13139.5273
   1   2.0000    -101.582299     -2764.1949
   2   2.0000    -101.580888     -2764.1565
   3   2.0000     -88.964781     -2420.8548
   4   2.0000     -88.957789     -2420.6645
   5   2.0000     -88.956568     -2420.6313
   6   2.0000     -88.949460     -2420.4378
   7   2.0000     -62.546506     -1701.9770
   8   2.0000     -56.380427     -1534.1894
   9   2.0000     -56.377765     -1534.1170
  10   2.0000     -56.377723     -1534.1158
  11   2.0000     -19.198700      -522.4232
  12   2.0000     -19.193619      -522.2849
  13   2.0000     -14.475754      -393.9053
  14   2.0000     -14.407391      -392.0450
  15   2.0000     -14.406642      -392.0247
  16   2.0000     -14.399118      -391.8199
  17   2.0000     -14.398045      -391.7907
  18   2.0000     -10.356581      -281.8169
  19   2.0000     -10.348862      -281.6068
  20   2.0000     -10.343632      -281.4645
  21   2.0000     -10.339326      -281.3474
  22   2.0000     -10.338202      -281.3168
  23   2.0000     -10.334778      -281.2236
  24   2.0000     -10.334281      -281.2101
  25   2.0000     -10.327686      -281.0306
  26   2.0000     -10.326801      -281.0065
  27   2.0000     -10.325825      -280.9800
  28   2.0000     -10.321246      -280.8554
  29   2.0000     -10.319457      -280.8067
  30   2.0000     -10.317549      -280.7548
  31   2.0000     -10.314651      -280.6759
  32   2.0000     -10.312037      -280.6048
  33   2.0000     -10.311523      -280.5908
  34   2.0000     -10.310588      -280.5654
  35   2.0000     -10.310514      -280.5633
  36   2.0000     -10.310092      -280.5519
  37   2.0000     -10.309224      -280.5282
  38   2.0000     -10.307891      -280.4920
  39   2.0000     -10.306000      -280.4405
  40   2.0000     -10.304498      -280.3996
  41   2.0000     -10.298924      -280.2480
  42   2.0000     -10.295955      -280.1672
  43   2.0000     -10.292184      -280.0646
  44   2.0000     -10.291475      -280.0453
  45   2.0000     -10.290478      -280.0181
  46   2.0000     -10.289955      -280.0039
  47   2.0000     -10.289353      -279.9875
  48   2.0000     -10.287551      -279.9385
  49   2.0000     -10.287307      -279.9318
  50   2.0000     -10.287257      -279.9305
  51   2.0000     -10.287092      -279.9260
  52   2.0000     -10.282709      -279.8067
  53   2.0000     -10.282486      -279.8007
  54   2.0000     -10.280188      -279.7381
  55   2.0000     -10.280114      -279.7361
  56   2.0000     -10.278766      -279.6994
  57   2.0000     -10.278310      -279.6870
  58   2.0000     -10.277102      -279.6542
  59   2.0000     -10.273266      -279.5498
  60   2.0000     -10.272959      -279.5414
  61   2.0000     -10.271220      -279.4941
  62   2.0000     -10.268516      -279.4205
  63   2.0000     -10.263552      -279.2854
  64   2.0000     -10.262429      -279.2549
  65   2.0000     -10.261924      -279.2411
  66   2.0000     -10.261661      -279.2340
  67   2.0000     -10.260965      -279.2151
  68   2.0000     -10.260452      -279.2011
  69   2.0000     -10.259357      -279.1713
  70   2.0000     -10.253933      -279.0237
  71   2.0000      -9.537373      -259.5251
  72   2.0000      -9.535910      -259.4853
  73   2.0000      -8.775940      -238.8055
  74   2.0000      -8.060648      -219.3414
  75   2.0000      -8.053772      -219.1543
  76   2.0000      -8.051814      -219.1010
  77   2.0000      -8.045456      -218.9280
  78   2.0000      -7.307695      -198.8525
  79   2.0000      -7.306255      -198.8133
  80   2.0000      -7.297635      -198.5787
  81   2.0000      -7.296985      -198.5611
  82   2.0000      -7.296160      -198.5386
  83   2.0000      -7.295522      -198.5213
  84   2.0000      -6.612135      -179.9253
  85   2.0000      -6.597728      -179.5333
  86   2.0000      -6.597542      -179.5282
  87   2.0000      -6.030159      -164.0890
  88   2.0000      -6.026110      -163.9788
  89   2.0000      -6.023470      -163.9070
  90   2.0000      -6.022040      -163.8681
  91   2.0000      -6.021299      -163.8479
  92   2.0000      -6.019244      -163.7920
  93   2.0000      -6.017281      -163.7385
  94   2.0000      -6.014976      -163.6758
  95   2.0000      -6.014753      -163.6698
  96   2.0000      -6.013428      -163.6337
  97   2.0000      -6.010532      -163.5549
  98   2.0000      -6.007618      -163.4756
  99   2.0000      -2.728058       -74.2342
 100   2.0000      -2.723985       -74.1234
 101   2.0000      -2.723827       -74.1191
 102   2.0000      -2.712382       -73.8077
 103   2.0000      -2.712374       -73.8074
 104   2.0000      -1.113180       -30.2912
 105   2.0000      -1.106395       -30.1066
 106   2.0000      -1.069560       -29.1042
 107   2.0000      -1.009883       -27.4803
 108   2.0000      -1.009551       -27.4713
 109   2.0000      -1.009197       -27.4616
 110   2.0000      -0.999017       -27.1846
 111   2.0000      -0.997201       -27.1352
 112   2.0000      -0.986154       -26.8346
 113   2.0000      -0.984514       -26.7900
 114   2.0000      -0.982383       -26.7320
 115   2.0000      -0.978418       -26.6241
 116   2.0000      -0.973240       -26.4832
 117   2.0000      -0.967704       -26.3326
 118   2.0000      -0.942485       -25.6463
 119   2.0000      -0.926599       -25.2141
 120   2.0000      -0.925590       -25.1866
 121   2.0000      -0.917473       -24.9657
 122   2.0000      -0.912259       -24.8238
 123   2.0000      -0.897120       -24.4119
 124   2.0000      -0.894226       -24.3331
 125   2.0000      -0.893039       -24.3008
 126   2.0000      -0.886957       -24.1353
 127   2.0000      -0.873649       -23.7732
 128   2.0000      -0.867490       -23.6056
 129   2.0000      -0.862362       -23.4661
 130   2.0000      -0.860639       -23.4192
 131   2.0000      -0.856320       -23.3017
 132   2.0000      -0.849721       -23.1221
 133   2.0000      -0.838984       -22.8299
 134   2.0000      -0.832538       -22.6545
 135   2.0000      -0.829542       -22.5730
 136   2.0000      -0.822099       -22.3704
 137   2.0000      -0.810433       -22.0530
 138   2.0000      -0.804280       -21.8856
 139   2.0000      -0.794798       -21.6276
 140   2.0000      -0.783834       -21.3292
 141   2.0000      -0.771303       -20.9882
 142   2.0000      -0.760269       -20.6880
 143   2.0000      -0.751118       -20.4390
 144   2.0000      -0.744620       -20.2621
 145   2.0000      -0.742235       -20.1973
 146   2.0000      -0.734144       -19.9771
 147   2.0000      -0.725806       -19.7502
 148   2.0000      -0.704754       -19.1773
 149   2.0000      -0.695606       -18.9284
 150   2.0000      -0.686783       -18.6883
 151   2.0000      -0.680032       -18.5046
 152   2.0000      -0.676191       -18.4001
 153   2.0000      -0.673655       -18.3311
 154   2.0000      -0.670137       -18.2354
 155   2.0000      -0.667723       -18.1697
 156   2.0000      -0.660740       -17.9796
 157   2.0000      -0.651669       -17.7328
 158   2.0000      -0.645627       -17.5684
 159   2.0000      -0.640015       -17.4157
 160   2.0000      -0.637806       -17.3556
 161   2.0000      -0.633225       -17.2309
 162   2.0000      -0.627991       -17.0885
 163   2.0000      -0.617509       -16.8033
 164   2.0000      -0.613809       -16.7026
 165   2.0000      -0.613414       -16.6918
 166   2.0000      -0.607012       -16.5176
 167   2.0000      -0.604583       -16.4515
 168   2.0000      -0.600530       -16.3412
 169   2.0000      -0.592955       -16.1351
 170   2.0000      -0.585799       -15.9404
 171   2.0000      -0.581505       -15.8236
 172   2.0000      -0.574749       -15.6397
 173   2.0000      -0.570898       -15.5349
 174   2.0000      -0.568801       -15.4779
 175   2.0000      -0.563694       -15.3389
 176   2.0000      -0.561740       -15.2857
 177   2.0000      -0.543589       -14.7918
 178   2.0000      -0.540494       -14.7076
 179   2.0000      -0.536437       -14.5972
 180   2.0000      -0.534596       -14.5471
 181   2.0000      -0.532765       -14.4973
 182   2.0000      -0.529415       -14.4061
 183   2.0000      -0.527540       -14.3551
 184   2.0000      -0.523359       -14.2413
 185   2.0000      -0.521877       -14.2010
 186   2.0000      -0.518987       -14.1223
 187   2.0000      -0.516278       -14.0486
 188   2.0000      -0.513360       -13.9692
 189   2.0000      -0.511278       -13.9126
 190   2.0000      -0.508484       -13.8365
 191   2.0000      -0.508100       -13.8261
 192   2.0000      -0.504067       -13.7164
 193   2.0000      -0.502345       -13.6695
 194   2.0000      -0.497487       -13.5373
 195   2.0000      -0.496000       -13.4969
 196   2.0000      -0.495379       -13.4800
 197   2.0000      -0.492684       -13.4066
 198   2.0000      -0.491836       -13.3835
 199   2.0000      -0.488355       -13.2888
 200   2.0000      -0.487210       -13.2577
 201   2.0000      -0.485602       -13.2139
 202   2.0000      -0.483308       -13.1515
 203   2.0000      -0.480544       -13.0763
 204   2.0000      -0.478378       -13.0173
 205   2.0000      -0.474865       -12.9217
 206   2.0000      -0.473709       -12.8903
 207   2.0000      -0.471903       -12.8411
 208   2.0000      -0.469426       -12.7737
 209   2.0000      -0.467701       -12.7268
 210   2.0000      -0.466913       -12.7053
 211   2.0000      -0.459162       -12.4944
 212   2.0000      -0.458214       -12.4686
 213   2.0000      -0.455296       -12.3892
 214   2.0000      -0.449617       -12.2347
 215   2.0000      -0.449014       -12.2183
 216   2.0000      -0.447499       -12.1771
 217   2.0000      -0.445647       -12.1267
 218   2.0000      -0.443908       -12.0794
 219   2.0000      -0.442571       -12.0430
 220   2.0000      -0.440098       -11.9757
 221   2.0000      -0.439777       -11.9669
 222   2.0000      -0.436169       -11.8688
 223   2.0000      -0.435282       -11.8446
 224   2.0000      -0.432509       -11.7692
 225   2.0000      -0.430783       -11.7222
 226   2.0000      -0.430438       -11.7128
 227   2.0000      -0.425680       -11.5834
 228   2.0000      -0.423098       -11.5131
 229   2.0000      -0.420723       -11.4485
 230   2.0000      -0.417114       -11.3502
 231   2.0000      -0.416832       -11.3426
 232   2.0000      -0.414153       -11.2697
 233   2.0000      -0.412595       -11.2273
 234   2.0000      -0.412050       -11.2125
 235   2.0000      -0.409207       -11.1351
 236   2.0000      -0.407818       -11.0973
 237   2.0000      -0.407361       -11.0849
 238   2.0000      -0.405154       -11.0248
 239   2.0000      -0.402939       -10.9645
 240   2.0000      -0.398640       -10.8475
 241   2.0000      -0.394283       -10.7290
 242   2.0000      -0.392530       -10.6813
 243   2.0000      -0.390040       -10.6135
 244   2.0000      -0.385632       -10.4936
 245   2.0000      -0.369749       -10.0614
 246   2.0000      -0.364295        -9.9130
 247   2.0000      -0.360688        -9.8148
 248   2.0000      -0.358274        -9.7491
 249   2.0000      -0.358222        -9.7477
 250   2.0000      -0.351731        -9.5711
 251   2.0000      -0.348128        -9.4730
 252   2.0000      -0.330341        -8.9890
 253   2.0000      -0.328917        -8.9503
 254   2.0000      -0.326128        -8.8744
 255   2.0000      -0.323615        -8.8060
 256   2.0000      -0.317163        -8.6304
 257   2.0000      -0.313634        -8.5344
 258   2.0000      -0.302736        -8.2379
 259   2.0000      -0.297451        -8.0940
 260   2.0000      -0.292089        -7.9481
 261   2.0000      -0.277942        -7.5632
 262   2.0000      -0.275886        -7.5073
 263   2.0000      -0.274908        -7.4806
 264   2.0000      -0.243368        -6.6224
 265   2.0000      -0.217415        -5.9162
 266   0.0000      -0.100692        -2.7400
 267   0.0000      -0.077610        -2.1119
 268   0.0000      -0.053409        -1.4533
 269   0.0000      -0.045691        -1.2433
 270   0.0000      -0.033891        -0.9222

MULLIKEN ATOMIC CHARGES
-----------------------
   0 C :    0.319814
   1 C :   -0.364131
   2 C :   -0.172588
   3 N :    0.128555
   4 C :   -0.212254
   5 N :    0.145031
   6 C :    0.016590
   7 C :    0.013440
   8 C :   -0.061491
   9 C :    0.100969
  10 C :   -0.083028
  11 C :   -0.034525
  12 S :    0.161071
  13 C :   -0.127435
  14 C :    0.051539
  15 Br:    0.012651
  16 C :    0.170917
  17 O :   -0.154219
  18 C :   -0.117682
  19 C :   -0.014186
  20 C :   -0.170350
  21 S :    0.130279
  22 C :   -0.112189
  23 C :   -0.090563
  24 C :    0.127960
  25 C :    0.169891
  26 C :   -0.031348
  27 C :    0.038942
  28 C :    0.002243
  29 C :   -0.005957
  30 C :    0.033161
  31 C :   -0.210993
  32 C :    0.106867
  33 C :    0.188556
  34 N :   -0.133426
  35 C :    0.088212
  36 C :   -0.045485
  37 C :    0.058876
  38 C :   -0.069543
  39 C :    0.064881
  40 C :    0.004719
  41 C :   -0.006503
  42 S :    0.102842
  43 C :   -0.059442
  44 C :    0.043153
  45 C :    0.009129
  46 C :    0.013391
  47 S :    0.091924
  48 C :   -0.048735
  49 C :   -0.036049
  50 C :   -0.108231
  51 C :    0.336685
  52 C :   -0.370586
  53 C :   -0.178301
  54 N :    0.106734
  55 C :   -0.190682
  56 N :    0.134260
  57 C :    0.028155
  58 C :   -0.005948
  59 C :    0.133434
  60 O :   -0.168675
  61 C :   -0.041363
  62 C :    0.059041
  63 C :    0.046546
  64 C :   -0.023002
  65 Cl:   -0.052187
  66 Cl:   -0.059160
  67 H :   -0.017564
  68 H :   -0.013635
  69 H :    0.009775
  70 H :    0.035266
  71 H :    0.018913
  72 H :    0.003805
  73 H :    0.025819
  74 H :    0.050236
  75 H :   -0.024305
  76 H :    0.005399
  77 H :    0.002845
  78 H :   -0.006749
  79 H :   -0.010419
  80 H :    0.029868
  81 H :    0.007417
  82 H :    0.022811
  83 H :    0.037495
  84 H :    0.023948
  85 H :    0.138888
  86 H :    0.016477
  87 H :    0.000424
  88 H :   -0.005224
  89 H :   -0.004604
  90 H :   -0.010515
  91 H :   -0.009938
  92 H :   -0.008450
  93 H :    0.012210
  94 H :    0.008130
  95 H :   -0.010494
  96 H :   -0.008034
Sum of atomic charges:   -0.0000000

LOEWDIN ATOMIC CHARGES
----------------------
   0 C :    0.085330
   1 C :   -0.160321
   2 C :   -0.011404
   3 N :   -0.077968
   4 C :   -0.024017
   5 N :   -0.072336
   6 C :   -0.020211
   7 C :   -0.042361
   8 C :    0.029547
   9 C :   -0.027175
  10 C :   -0.145320
  11 C :   -0.015036
  12 S :    0.412674
  13 C :   -0.275728
  14 C :   -0.058658
  15 Br:    0.128728
  16 C :    0.091569
  17 O :   -0.137259
  18 C :   -0.095302
  19 C :    0.060677
  20 C :   -0.191504
  21 S :    0.439936
  22 C :   -0.169407
  23 C :   -0.053293
  24 C :   -0.044150
  25 C :   -0.005277
  26 C :   -0.022869
  27 C :   -0.009617
  28 C :   -0.015364
  29 C :   -0.029759
  30 C :   -0.038680
  31 C :   -0.040154
  32 C :   -0.050627
  33 C :    0.046139
  34 N :    0.035875
  35 C :    0.082075
  36 C :   -0.126640
  37 C :    0.027602
  38 C :   -0.190233
  39 C :    0.002410
  40 C :   -0.063082
  41 C :   -0.126671
  42 S :    0.426931
  43 C :   -0.217883
  44 C :   -0.004539
  45 C :   -0.066453
  46 C :   -0.103313
  47 S :    0.427203
  48 C :   -0.091951
  49 C :    0.035338
  50 C :   -0.133930
  51 C :    0.080398
  52 C :   -0.177063
  53 C :   -0.006547
  54 N :   -0.094564
  55 C :   -0.004685
  56 N :   -0.086994
  57 C :   -0.010180
  58 C :   -0.038710
  59 C :    0.079470
  60 O :   -0.163831
  61 C :   -0.007201
  62 C :   -0.139239
  63 C :   -0.135868
  64 C :   -0.019567
  65 Cl:    0.147187
  66 Cl:    0.144759
  67 H :    0.039192
  68 H :    0.037389
  69 H :    0.041733
  70 H :    0.042737
  71 H :    0.023803
  72 H :    0.031747
  73 H :    0.035970
  74 H :    0.043783
  75 H :    0.026994
  76 H :    0.028599
  77 H :    0.019966
  78 H :    0.025373
  79 H :    0.027056
  80 H :    0.037598
  81 H :    0.025897
  82 H :    0.033729
  83 H :    0.040301
  84 H :    0.029873
  85 H :    0.089218
  86 H :    0.034359
  87 H :    0.022223
  88 H :    0.037449
  89 H :    0.037263
  90 H :    0.032850
  91 H :    0.034133
  92 H :    0.035429
  93 H :    0.035391
  94 H :    0.025998
  95 H :    0.041870
  96 H :    0.041167

  Mayer bond orders larger than 0.100000
B(  0-C ,  1-C ) :   1.6000 B(  0-C ,  6-C ) :   1.0088 B(  0-C , 18-C ) :   1.0871
B(  1-C ,  2-C ) :   1.1566 B(  1-C ,  4-C ) :   1.1673 B(  2-C ,  3-N ) :   2.9341
B(  4-C ,  5-N ) :   2.9380 B(  6-C ,  7-C ) :   1.2707 B(  6-C , 11-C ) :   1.4039
B(  7-C ,  8-C ) :   1.4123 B(  7-C , 16-C ) :   0.9398 B(  8-C ,  9-C ) :   1.2587
B(  8-C , 67-H ) :   1.0089 B(  9-C , 10-C ) :   1.3093 B(  9-C , 14-C ) :   1.1730
B( 10-C , 11-C ) :   1.3252 B( 10-C , 12-S ) :   1.0773 B( 11-C , 68-H ) :   0.9830
B( 12-S , 13-C ) :   1.0750 B( 13-C , 14-C ) :   1.6104 B( 13-C , 15-Br) :   1.0149
B( 14-C , 69-H ) :   0.9919 B( 16-C , 17-O ) :   2.1841 B( 16-C , 18-C ) :   0.9603
B( 18-C , 19-C ) :   1.5936 B( 19-C , 20-C ) :   1.1323 B( 19-C , 70-H ) :   0.9457
B( 20-C , 21-S ) :   1.0988 B( 20-C , 25-C ) :   1.4455 B( 21-S , 22-C ) :   1.1679
B( 22-C , 23-C ) :   1.5542 B( 22-C , 71-H ) :   0.9645 B( 23-C , 24-C ) :   1.0974
B( 23-C , 25-C ) :   1.2743 B( 24-C , 72-H ) :   0.9434 B( 24-C , 73-H ) :   0.9402
B( 24-C , 74-H ) :   0.9403 B( 25-C , 26-C ) :   1.0552 B( 26-C , 27-C ) :   1.7359
B( 26-C , 75-H ) :   0.9453 B( 27-C , 28-C ) :   1.1126 B( 27-C , 76-H ) :   0.9648
B( 28-C , 29-C ) :   1.6884 B( 28-C , 77-H ) :   0.9806 B( 29-C , 30-C ) :   1.1023
B( 29-C , 78-H ) :   0.9707 B( 30-C , 31-C ) :   1.7671 B( 30-C , 79-H ) :   0.9567
B( 31-C , 32-C ) :   1.0707 B( 31-C , 33-C ) :   1.0230 B( 32-C , 80-H ) :   0.9410
B( 32-C , 81-H ) :   0.9426 B( 32-C , 82-H ) :   0.9498 B( 33-C , 34-N ) :   0.9921
B( 33-C , 83-H ) :   0.9351 B( 33-C , 84-H ) :   0.9393 B( 34-N , 35-C ) :   1.3195
B( 34-N , 85-H ) :   0.9352 B( 35-C , 36-C ) :   1.5020 B( 35-C , 86-H ) :   0.9701
B( 36-C , 37-C ) :   1.2572 B( 36-C , 87-H ) :   0.9491 B( 37-C , 38-C ) :   1.4826
B( 37-C , 88-H ) :   0.9833 B( 38-C , 39-C ) :   1.2062 B( 38-C , 42-S ) :   1.0278
B( 39-C , 40-C ) :   1.5128 B( 39-C , 89-H ) :   0.9968 B( 40-C , 41-C ) :   1.2536
B( 40-C , 90-H ) :   0.9949 B( 41-C , 42-S ) :   1.1365 B( 41-C , 43-C ) :   1.3605
B( 43-C , 44-C ) :   1.2996 B( 43-C , 47-S ) :   1.0467 B( 44-C , 45-C ) :   1.4522
B( 44-C , 91-H ) :   0.9934 B( 45-C , 46-C ) :   1.2551 B( 45-C , 92-H ) :   1.0027
B( 46-C , 47-S ) :   1.1202 B( 46-C , 48-C ) :   1.2991 B( 48-C , 49-C ) :   1.3780
B( 48-C , 93-H ) :   0.9790 B( 49-C , 50-C ) :   1.3731 B( 49-C , 94-H ) :   0.9384
B( 50-C , 51-C ) :   1.1722 B( 50-C , 59-C ) :   0.9850 B( 51-C , 52-C ) :   1.5230
B( 51-C , 57-C ) :   0.9710 B( 52-C , 53-C ) :   1.1706 B( 52-C , 55-C ) :   1.1859
B( 53-C , 54-N ) :   2.8716 B( 55-C , 56-N ) :   2.9016 B( 57-C , 58-C ) :   1.3355
B( 57-C , 64-C ) :   1.3611 B( 58-C , 59-C ) :   0.9304 B( 58-C , 61-C ) :   1.3668
B( 59-C , 60-O ) :   2.1744 B( 61-C , 62-C ) :   1.3212 B( 61-C , 95-H ) :   1.0150
B( 62-C , 63-C ) :   1.4373 B( 62-C , 66-Cl) :   1.0310 B( 63-C , 64-C ) :   1.3417
B( 63-C , 65-Cl) :   1.0607 B( 64-C , 96-H ) :   0.9838

-----------------------------------------------------------------------------
         ABSORPTION SPECTRUM VIA TRANSITION ELECTRIC DIPOLE MOMENTS
-----------------------------------------------------------------------------
State   Energy  Wavelength   fosc         T2         TX        TY        TZ
        (cm-1)    (nm)                  (au**2)     (au)      (au)      (au)
-----------------------------------------------------------------------------
   0   11253.8    888.6   0.880537276  25.75880  -2.16232   4.58971   0.13322
   1   15275.1    654.7   0.001826897   0.03937   0.04087  -0.16370   0.10443
   2   16325.9    612.5   0.098484360   1.98594  -1.10154   0.06611  -0.87646
   3   16754.2    596.9   0.003930565   0.07723  -0.19970   0.09498  -0.16831
   4   20029.0    499.3   0.151447893   2.48932  -0.79038  -1.16402  -0.71392
   5   22558.5    443.3   0.015135491   0.22088  -0.42114   0.17285  -0.11681
   6   23043.9    434.0   0.007931907   0.11332   0.24967   0.19166   0.11939
   7   23127.7    432.4   0.076183391   1.08443   0.61019   0.60594   0.58732
   8   23759.6    420.9   0.007524655   0.10426  -0.03252   0.22910   0.22520
   9   24462.1    408.8   0.236122988   3.17775   0.42265   1.72037  -0.19862
  10   25445.1    393.0   0.676976061   8.75879  -2.39640  -0.97444  -1.43755
  11   26591.1    376.1   0.003745812   0.04638  -0.08931   0.09688   0.17033
  12   26794.3    373.2   0.250506835   3.07789  -1.67136   0.35479   0.39820
  13   26957.2    371.0   0.035844271   0.43774  -0.64468   0.01986  -0.14744
  14   27595.9    362.4   0.007314218   0.08726  -0.25444  -0.08241  -0.12541
  15   28296.1    353.4   0.170377477   1.98226   1.10102  -0.85472   0.19870
  16   28412.0    352.0   0.030651968   0.35517   0.39899   0.43709   0.07017
  17   28931.3    345.6   0.025287497   0.28775   0.29978  -0.35065  -0.27373
  18   29091.7    343.7   0.008296092   0.09388  -0.12937   0.27501   0.03891
  19   29364.7    340.5   0.033635576   0.37709   0.58333   0.00519  -0.19182
  20   29639.3    337.4   0.027258493   0.30277  -0.16355   0.49313   0.18123
  21   29822.1    335.3   0.122289864   1.34998  -1.07945  -0.28481   0.32194
  22   30465.5    328.2   0.003444658   0.03722   0.03404  -0.18515  -0.04224
  23   30798.4    324.7   0.016528733   0.17668  -0.18443   0.36833  -0.08365
  24   30977.2    322.8   0.013324100   0.14160  -0.28293  -0.12134  -0.21641
  25   31060.8    321.9   0.018585995   0.19699   0.31031   0.27753   0.15388
  26   31750.2    315.0   0.201857042   2.09302  -0.11710  -1.43157   0.17293
  27   32499.9    307.7   0.340407206   3.44820   1.58818  -0.58705  -0.76239
  28   32517.9    307.5   0.154600173   1.56518   1.07145  -0.55720  -0.32665
  29   32844.7    304.5   0.066680053   0.66835   0.09190   0.79892   0.14710
  30   33359.4    299.8   0.029530356   0.29142   0.35284  -0.31894  -0.25535
  31   33551.1    298.1   0.008523872   0.08364   0.15131  -0.23602   0.07098
  32   33569.3    297.9   0.008026899   0.07872  -0.18254  -0.20694  -0.05071
  33   33752.1    296.3   0.102744023   1.00215   0.86049  -0.49075  -0.14447
  34   33893.7    295.0   0.350927918   3.40859   0.64632   1.72863   0.05181
  35   34286.4    291.7   0.509812955   4.89513   1.32244   1.75844  -0.23276
  36   34717.6    288.0   0.030928505   0.29328  -0.44336   0.25363   0.17997
  37   34859.9    286.9   0.077556399   0.73243  -0.73702   0.42015  -0.11271
  38   35232.4    283.8   0.013504076   0.12618  -0.27940  -0.05957  -0.21112
  39   35548.6    281.3   0.295536522   2.73693  -0.70911  -1.32389  -0.69384
  40   35661.5    280.4   0.039379154   0.36353   0.27734   0.44397   0.29917
  41   35701.9    280.1   0.240529259   2.21795  -0.76008  -1.18784  -0.47881
  42   36546.8    273.6   0.040348445   0.36346  -0.26942   0.51769  -0.15123
  43   36639.7    272.9   0.036179177   0.32507  -0.27636  -0.05055   0.49613
  44   37260.0    268.4   0.012251394   0.10825   0.11402   0.22263   0.21373
  45   37400.9    267.4   0.034978342   0.30789   0.43734  -0.31160  -0.13973
  46   37818.2    264.4   0.046963029   0.40882  -0.35020  -0.16312  -0.50948
  47   38014.2    263.1   0.046626248   0.40379   0.28550   0.50897   0.25145
  48   38503.0    259.7   0.069339725   0.59288  -0.59090  -0.35343  -0.34467
  49   38572.9    259.2   0.025485645   0.21752   0.46611   0.01591   0.00266
  50   38721.8    258.3   0.002214510   0.01883  -0.11653   0.03500  -0.06342
  51   39055.9    256.0   0.032305805   0.27231   0.41330  -0.30072   0.10520
  52   39266.9    254.7   0.002576731   0.02160  -0.09594   0.11111  -0.00738
  53   39504.4    253.1   0.025297481   0.21082  -0.28059  -0.33224   0.14731
  54   39783.3    251.4   0.002272597   0.01881   0.05154   0.11786  -0.04752
  55   39848.7    250.9   0.021804812   0.18014  -0.19439   0.37581   0.03351
  56   39883.3    250.7   0.072490577   0.59836   0.09974   0.75104   0.15608
  57   40061.2    249.6   0.057904151   0.47584  -0.08199  -0.67872  -0.09196
  58   40191.0    248.8   0.308697786   2.52860  -0.11505  -1.56652  -0.24776
  59   40237.6    248.5   0.071063528   0.58142  -0.00828   0.76210  -0.02367

FINAL SINGLE POINT ENERGY     -7544.974377267868

DIPOLE MOMENT
-------------
                                X             Y             Z
Electronic contribution:   -135.10029      43.84642     -13.16657
Nuclear contribution   :    138.14080     -48.21144      14.75052
                        -----------------------------------------
Total Dipole Moment    :      3.04052      -4.36502       1.58395
                        -----------------------------------------
Magnitude (a.u.)       :      5.55041
Magnitude (Debye)      :     14.10802

Rotational constants in cm-1:     0.000915     0.000718     0.000528
Rotational constants in MHz :    27.428853    21.518293    15.822815

                             ****ORCA TERMINATED NORMALLY****
TOTAL RUN TIME: 0 days 0 hours 12 minutes 14 seconds 11 msec
