                         Program Version 4.2.0 -  RELEASE  -
|  1> # ORCA input file
|  2> # SCF done       -174.778223514833          0.002965005681
|  3> ! CAM-B3LYP def2-SVP def2/J RIJCOSX Grid4 TightSCF
|  4> %maxcore 5000
|  5> %tddft
|  6>     Mode sTDDFT
|  7>     Ethresh 5.0
|  8>     maxcore 5000
|  9> end
| 10>
| 11> %pal
| 12>   nprocs 6
| 13>   end
| 14> * xyz 0 1
| 15>    C      -14.16077         5.34360        -6.04033
| 16>    C      -14.87196         4.20327        -5.77322
| 17>    C      -16.23512         4.02683        -6.08087
| 18>    N      -17.33936         3.82118        -6.31712
| 19>    C      -14.33324         3.07077        -5.13122
| 20>    N      -13.94690         2.13045        -4.59698
| 21>    C      -14.69131         6.56079        -6.64772
| 22>    C      -13.64723         7.51624        -6.75320
| 23>    C      -13.84339         8.77405        -7.26903
| 24>    C      -15.12898         9.10531        -7.71076
| 25>    C      -16.16307         8.14578        -7.60461
| 26>    C      -15.96646         6.87511        -7.07435
| 27>    S      -17.66881         8.76055        -8.21547
| 28>    C      -16.89864        10.27637        -8.60265
| 29>    C      -15.58211        10.32294        -8.28847
| 30>   Br      -17.90195        11.65280        -9.38948
| 31>    C      -12.40955         6.92509        -6.22869
| 32>    O      -11.30382         7.44975        -6.15383
| 33>    C      -12.76024         5.57567        -5.78142
| 34>    C      -11.84165         4.76021        -5.16941
| 35>    N      -10.56621         5.14032        -5.04574
| 36>    C       -9.58592         4.45899        -4.39846
| 37>    S       -9.92731         2.97855        -3.55868
| 38>    C       -8.25934         2.86955        -3.10497
| 39>    N       -7.87889         1.82882        -2.25414
| 40>    O       -6.70975         1.77018        -1.91377
| 41>    O       -8.75523         1.05569        -1.90286
| 42>    C       -7.49160         3.88412        -3.61163
| 43>    C       -8.23789         4.81668        -4.35429
| 44>    C       -7.59911         5.97312        -4.94527
| 45>    C       -8.07662         7.21803        -5.06781
| 46>    C       -7.18903         8.28264        -5.50180
| 47>    N       -6.12820         7.98775        -6.29489
| 48>    C       -5.30771         8.97106        -6.39127
| 49>    C       -3.95114         9.16269        -6.35148
| 50>    C       -7.22587         9.53760        -4.94091
| 51>    S       -6.05931        10.60517        -5.72138
| 52>    N       -4.62435        10.94694        -4.95788
| 53>    C       -3.63922        10.22496        -5.47013
| 54>    C       -2.31845        10.28165        -4.87109
| 55>    C       -2.25412        10.07956        -3.53844
| 56>    C       -1.12668         9.67398        -2.77434
| 57>    C       -1.30995         8.79979        -1.73629
| 58>    C       -0.35469         8.13287        -0.92446
| 59>    C       -0.87540         7.15186        -0.13291
| 60>    C       -2.27045         6.98238        -0.27062
| 61>    S       -2.91630         8.17196        -1.37950
| 62>    C       -3.11538         6.01221         0.23608
| 63>    C       -2.84929         4.89058         1.05046
| 64>    C       -3.93362         4.08959         1.25315
| 65>    C       -5.12678         4.52780         0.62169
| 66>    S       -4.79834         6.02613        -0.23342
| 67>    C       -6.34068         3.89023         0.65649
| 68>    C       -7.55763         4.29376         0.06479
| 69>    C       -8.76239         3.58549         0.15858
| 70>    C       -9.77005         4.29581        -0.54099
| 71>    C      -11.10408         4.03247        -0.76452
| 72>    C      -11.83719         4.96553        -1.52023
| 73>    C      -13.17025         4.99780        -1.90272
| 74>    C      -13.41142         6.19570        -2.64873
| 75>    C      -12.22180         6.89546        -2.73572
| 76>    C      -11.20750         6.16592        -2.04428
| 77>    C       -9.87947         6.42508        -1.83525
| 78>    C       -9.14314         5.48897        -1.08250
| 79>    C       -7.81215         5.47306        -0.71600
| 80>    C      -14.66397         6.63131        -3.21616
| 81>    C      -15.81797         5.97237        -3.15090
| 82>    H      -13.03210         9.48141        -7.33386
| 83>    H      -16.78711         6.18070        -7.01123
| 84>    H      -14.95495        11.17910        -8.45814
| 85>    H      -12.10910         3.79422        -4.76092
| 86>    H      -10.34573         6.06043        -5.45859
| 87>    H       -6.43609         3.96307        -3.42574
| 88>    H       -6.56852         5.81135        -5.23494
| 89>    H       -9.05796         7.51796        -4.73190
| 90>    H       -3.22739         8.45491        -6.70624
| 91>    H       -8.04886         9.96191        -4.40190
| 92>    H       -1.44789        10.23725        -5.50814
| 93>    H       -3.20246        10.05382        -3.01222
| 94>    H       -0.12565         9.93632        -3.08331
| 95>    H        0.69025         8.38407        -0.97190
| 96>    H       -0.29299         6.53445         0.52829
| 97>    H       -1.87044         4.69996         1.45283
| 98>    H       -3.91601         3.18537         1.83578
| 99>    H       -6.37157         2.95926         1.20862
|100>    H       -8.90250         2.65222         0.67206
|101>    H      -11.57684         3.14093        -0.37978
|102>    H      -13.90595         4.24937        -1.67483
|103>    H      -12.07502         7.83668        -3.23440
|104>    H       -9.39689         7.31356        -2.21735
|105>    H       -7.09370         6.22523        -0.97829
|106>    H      -14.62158         7.58538        -3.73029
|107>    H      -15.91063         5.02294        -2.65198
|108>    H      -16.71466         6.36217        -3.60058
|109> *
|110>
|111>                          ****END OF INPUT****

CARTESIAN COORDINATES (ANGSTROEM)
---------------------------------
  C    -14.160770    5.343600   -6.040330
  C    -14.871960    4.203270   -5.773220
  C    -16.235120    4.026830   -6.080870
  N    -17.339360    3.821180   -6.317120
  C    -14.333240    3.070770   -5.131220
  N    -13.946900    2.130450   -4.596980
  C    -14.691310    6.560790   -6.647720
  C    -13.647230    7.516240   -6.753200
  C    -13.843390    8.774050   -7.269030
  C    -15.128980    9.105310   -7.710760
  C    -16.163070    8.145780   -7.604610
  C    -15.966460    6.875110   -7.074350
  S    -17.668810    8.760550   -8.215470
  C    -16.898640   10.276370   -8.602650
  C    -15.582110   10.322940   -8.288470
  Br   -17.901950   11.652800   -9.389480
  C    -12.409550    6.925090   -6.228690
  O    -11.303820    7.449750   -6.153830
  C    -12.760240    5.575670   -5.781420
  C    -11.841650    4.760210   -5.169410
  N    -10.566210    5.140320   -5.045740
  C     -9.585920    4.458990   -4.398460
  S     -9.927310    2.978550   -3.558680
  C     -8.259340    2.869550   -3.104970
  N     -7.878890    1.828820   -2.254140
  O     -6.709750    1.770180   -1.913770
  O     -8.755230    1.055690   -1.902860
  C     -7.491600    3.884120   -3.611630
  C     -8.237890    4.816680   -4.354290
  C     -7.599110    5.973120   -4.945270
  C     -8.076620    7.218030   -5.067810
  C     -7.189030    8.282640   -5.501800
  N     -6.128200    7.987750   -6.294890
  C     -5.307710    8.971060   -6.391270
  C     -3.951140    9.162690   -6.351480
  C     -7.225870    9.537600   -4.940910
  S     -6.059310   10.605170   -5.721380
  N     -4.624350   10.946940   -4.957880
  C     -3.639220   10.224960   -5.470130
  C     -2.318450   10.281650   -4.871090
  C     -2.254120   10.079560   -3.538440
  C     -1.126680    9.673980   -2.774340
  C     -1.309950    8.799790   -1.736290
  C     -0.354690    8.132870   -0.924460
  C     -0.875400    7.151860   -0.132910
  C     -2.270450    6.982380   -0.270620
  S     -2.916300    8.171960   -1.379500
  C     -3.115380    6.012210    0.236080
  C     -2.849290    4.890580    1.050460
  C     -3.933620    4.089590    1.253150
  C     -5.126780    4.527800    0.621690
  S     -4.798340    6.026130   -0.233420
  C     -6.340680    3.890230    0.656490
  C     -7.557630    4.293760    0.064790
  C     -8.762390    3.585490    0.158580
  C     -9.770050    4.295810   -0.540990
  C    -11.104080    4.032470   -0.764520
  C    -11.837190    4.965530   -1.520230
  C    -13.170250    4.997800   -1.902720
  C    -13.411420    6.195700   -2.648730
  C    -12.221800    6.895460   -2.735720
  C    -11.207500    6.165920   -2.044280
  C     -9.879470    6.425080   -1.835250
  C     -9.143140    5.488970   -1.082500
  C     -7.812150    5.473060   -0.716000
  C    -14.663970    6.631310   -3.216160
  C    -15.817970    5.972370   -3.150900
  H    -13.032100    9.481410   -7.333860
  H    -16.787110    6.180700   -7.011230
  H    -14.954950   11.179100   -8.458140
  H    -12.109100    3.794220   -4.760920
  H    -10.345730    6.060430   -5.458590
  H     -6.436090    3.963070   -3.425740
  H     -6.568520    5.811350   -5.234940
  H     -9.057960    7.517960   -4.731900
  H     -3.227390    8.454910   -6.706240
  H     -8.048860    9.961910   -4.401900
  H     -1.447890   10.237250   -5.508140
  H     -3.202460   10.053820   -3.012220
  H     -0.125650    9.936320   -3.083310
  H      0.690250    8.384070   -0.971900
  H     -0.292990    6.534450    0.528290
  H     -1.870440    4.699960    1.452830
  H     -3.916010    3.185370    1.835780
  H     -6.371570    2.959260    1.208620
  H     -8.902500    2.652220    0.672060
  H    -11.576840    3.140930   -0.379780
  H    -13.905950    4.249370   -1.674830
  H    -12.075020    7.836680   -3.234400
  H     -9.396890    7.313560   -2.217350
  H     -7.093700    6.225230   -0.978290
  H    -14.621580    7.585380   -3.730290
  H    -15.910630    5.022940   -2.651980
  H    -16.714660    6.362170   -3.600580

 Total Charge           Charge          ....    0
 Multiplicity           Mult            ....    1
 Number of Electrons    NEL             ....  520
 Basis Dimension        Dim             .... 1111

ORBITAL ENERGIES
----------------

  NO   OCC          E(Eh)            E(eV)
   0   2.0000    -482.889387    -13140.0883
   1   2.0000     -89.013183     -2422.1718
   2   2.0000     -88.988278     -2421.4941
   3   2.0000     -88.980836     -2421.2916
   4   2.0000     -88.941889     -2420.2318
   5   2.0000     -88.936363     -2420.0815
   6   2.0000     -62.567082     -1702.5369
   7   2.0000     -56.401045     -1534.7505
   8   2.0000     -56.398312     -1534.6761
   9   2.0000     -56.398278     -1534.6752
  10   2.0000     -19.239504      -523.5335
  11   2.0000     -19.238711      -523.5120
  12   2.0000     -19.233624      -523.3735
  13   2.0000     -14.649813      -398.6417
  14   2.0000     -14.495999      -394.4562
  15   2.0000     -14.420558      -392.4033
  16   2.0000     -14.415656      -392.2699
  17   2.0000     -14.390765      -391.5926
  18   2.0000     -14.389736      -391.5646
  19   2.0000     -10.379782      -282.4482
  20   2.0000     -10.371463      -282.2219
  21   2.0000     -10.368250      -282.1344
  22   2.0000     -10.363378      -282.0018
  23   2.0000     -10.345479      -281.5148
  24   2.0000     -10.344182      -281.4795
  25   2.0000     -10.343730      -281.4672
  26   2.0000     -10.339819      -281.3608
  27   2.0000     -10.330973      -281.1201
  28   2.0000     -10.330834      -281.1163
  29   2.0000     -10.325258      -280.9646
  30   2.0000     -10.323271      -280.9105
  31   2.0000     -10.318917      -280.7920
  32   2.0000     -10.313158      -280.6353
  33   2.0000     -10.312699      -280.6228
  34   2.0000     -10.310659      -280.5673
  35   2.0000     -10.309708      -280.5414
  36   2.0000     -10.308794      -280.5165
  37   2.0000     -10.308703      -280.5141
  38   2.0000     -10.307416      -280.4791
  39   2.0000     -10.306687      -280.4592
  40   2.0000     -10.306497      -280.4541
  41   2.0000     -10.304436      -280.3980
  42   2.0000     -10.303273      -280.3663
  43   2.0000     -10.301583      -280.3203
  44   2.0000     -10.301537      -280.3191
  45   2.0000     -10.300006      -280.2774
  46   2.0000     -10.296888      -280.1926
  47   2.0000     -10.295199      -280.1466
  48   2.0000     -10.292611      -280.0762
  49   2.0000     -10.290180      -280.0100
  50   2.0000     -10.288897      -279.9751
  51   2.0000     -10.288556      -279.9658
  52   2.0000     -10.284368      -279.8519
  53   2.0000     -10.283365      -279.8246
  54   2.0000     -10.281681      -279.7788
  55   2.0000     -10.281551      -279.7752
  56   2.0000     -10.281111      -279.7633
  57   2.0000     -10.281110      -279.7632
  58   2.0000     -10.278763      -279.6994
  59   2.0000     -10.278733      -279.6985
  60   2.0000     -10.276845      -279.6472
  61   2.0000     -10.276190      -279.6293
  62   2.0000     -10.276098      -279.6268
  63   2.0000     -10.273975      -279.5691
  64   2.0000     -10.272805      -279.5372
  65   2.0000     -10.272313      -279.5239
  66   2.0000     -10.271806      -279.5100
  67   2.0000     -10.270888      -279.4851
  68   2.0000     -10.269893      -279.4580
  69   2.0000     -10.265451      -279.3371
  70   2.0000     -10.257028      -279.1079
  71   2.0000      -8.796496      -239.3648
  72   2.0000      -8.103994      -220.5209
  73   2.0000      -8.082418      -219.9338
  74   2.0000      -8.076707      -219.7784
  75   2.0000      -8.038018      -218.7256
  76   2.0000      -8.032937      -218.5873
  77   2.0000      -6.632842      -180.4888
  78   2.0000      -6.618205      -180.0905
  79   2.0000      -6.618002      -180.0850
  80   2.0000      -6.072254      -165.2344
  81   2.0000      -6.070880      -165.1970
  82   2.0000      -6.066344      -165.0736
  83   2.0000      -6.052103      -164.6861
  84   2.0000      -6.047724      -164.5669
  85   2.0000      -6.046388      -164.5306
  86   2.0000      -6.043997      -164.4655
  87   2.0000      -6.042100      -164.4139
  88   2.0000      -6.037992      -164.3021
  89   2.0000      -6.007794      -163.4804
  90   2.0000      -6.003693      -163.3688
  91   2.0000      -6.002721      -163.3424
  92   2.0000      -5.998920      -163.2389
  93   2.0000      -5.998680      -163.2324
  94   2.0000      -5.993668      -163.0960
  95   2.0000      -2.748692       -74.7957
  96   2.0000      -2.744594       -74.6842
  97   2.0000      -2.744459       -74.6805
  98   2.0000      -2.732818       -74.3637
  99   2.0000      -2.732804       -74.3634
 100   2.0000      -1.318375       -35.8748
 101   2.0000      -1.147977       -31.2380
 102   2.0000      -1.137225       -30.9455
 103   2.0000      -1.103304       -30.0224
 104   2.0000      -1.072770       -29.1915
 105   2.0000      -1.027694       -27.9650
 106   2.0000      -1.023373       -27.8474
 107   2.0000      -1.017145       -27.6779
 108   2.0000      -1.009337       -27.4655
 109   2.0000      -0.997759       -27.1504
 110   2.0000      -0.995122       -27.0787
 111   2.0000      -0.993254       -27.0278
 112   2.0000      -0.991520       -26.9806
 113   2.0000      -0.971929       -26.4475
 114   2.0000      -0.965037       -26.2600
 115   2.0000      -0.946220       -25.7480
 116   2.0000      -0.924381       -25.1537
 117   2.0000      -0.913740       -24.8641
 118   2.0000      -0.912877       -24.8406
 119   2.0000      -0.906634       -24.6708
 120   2.0000      -0.902372       -24.5548
 121   2.0000      -0.891772       -24.2663
 122   2.0000      -0.890920       -24.2432
 123   2.0000      -0.884648       -24.0725
 124   2.0000      -0.874575       -23.7984
 125   2.0000      -0.871120       -23.7044
 126   2.0000      -0.864911       -23.5354
 127   2.0000      -0.856083       -23.2952
 128   2.0000      -0.851986       -23.1837
 129   2.0000      -0.842334       -22.9211
 130   2.0000      -0.836541       -22.7634
 131   2.0000      -0.834582       -22.7101
 132   2.0000      -0.831191       -22.6179
 133   2.0000      -0.816581       -22.2203
 134   2.0000      -0.807071       -21.9615
 135   2.0000      -0.803712       -21.8701
 136   2.0000      -0.795472       -21.6459
 137   2.0000      -0.787373       -21.4255
 138   2.0000      -0.766684       -20.8625
 139   2.0000      -0.765665       -20.8348
 140   2.0000      -0.752828       -20.4855
 141   2.0000      -0.751340       -20.4450
 142   2.0000      -0.738009       -20.0822
 143   2.0000      -0.729443       -19.8492
 144   2.0000      -0.721679       -19.6379
 145   2.0000      -0.707975       -19.2650
 146   2.0000      -0.699711       -19.0401
 147   2.0000      -0.693301       -18.8657
 148   2.0000      -0.685578       -18.6555
 149   2.0000      -0.678868       -18.4729
 150   2.0000      -0.676663       -18.4129
 151   2.0000      -0.675951       -18.3936
 152   2.0000      -0.665556       -18.1107
 153   2.0000      -0.660922       -17.9846
 154   2.0000      -0.648525       -17.6473
 155   2.0000      -0.646417       -17.5899
 156   2.0000      -0.643960       -17.5230
 157   2.0000      -0.635207       -17.2849
 158   2.0000      -0.633940       -17.2504
 159   2.0000      -0.631351       -17.1799
 160   2.0000      -0.628165       -17.0932
 161   2.0000      -0.624820       -17.0022
 162   2.0000      -0.623317       -16.9613
 163   2.0000      -0.620936       -16.8965
 164   2.0000      -0.617487       -16.8027
 165   2.0000      -0.609207       -16.5774
 166   2.0000      -0.606916       -16.5150
 167   2.0000      -0.597583       -16.2611
 168   2.0000      -0.596084       -16.2203
 169   2.0000      -0.594490       -16.1769
 170   2.0000      -0.586436       -15.9577
 171   2.0000      -0.585344       -15.9280
 172   2.0000      -0.579888       -15.7796
 173   2.0000      -0.577158       -15.7053
 174   2.0000      -0.565530       -15.3889
 175   2.0000      -0.563188       -15.3251
 176   2.0000      -0.560899       -15.2628
 177   2.0000      -0.559200       -15.2166
 178   2.0000      -0.552004       -15.0208
 179   2.0000      -0.550484       -14.9794
 180   2.0000      -0.549394       -14.9498
 181   2.0000      -0.542689       -14.7673
 182   2.0000      -0.541065       -14.7231
 183   2.0000      -0.539067       -14.6688
 184   2.0000      -0.536000       -14.5853
 185   2.0000      -0.532225       -14.4826
 186   2.0000      -0.528579       -14.3834
 187   2.0000      -0.526510       -14.3271
 188   2.0000      -0.524617       -14.2756
 189   2.0000      -0.519711       -14.1420
 190   2.0000      -0.515589       -14.0299
 191   2.0000      -0.513930       -13.9847
 192   2.0000      -0.509214       -13.8564
 193   2.0000      -0.505093       -13.7443
 194   2.0000      -0.502617       -13.6769
 195   2.0000      -0.501099       -13.6356
 196   2.0000      -0.499039       -13.5795
 197   2.0000      -0.498451       -13.5635
 198   2.0000      -0.495293       -13.4776
 199   2.0000      -0.492770       -13.4090
 200   2.0000      -0.490418       -13.3450
 201   2.0000      -0.484327       -13.1792
 202   2.0000      -0.480896       -13.0859
 203   2.0000      -0.479787       -13.0557
 204   2.0000      -0.478508       -13.0209
 205   2.0000      -0.474916       -12.9231
 206   2.0000      -0.470974       -12.8158
 207   2.0000      -0.467544       -12.7225
 208   2.0000      -0.464107       -12.6290
 209   2.0000      -0.461300       -12.5526
 210   2.0000      -0.458061       -12.4645
 211   2.0000      -0.455565       -12.3966
 212   2.0000      -0.454669       -12.3722
 213   2.0000      -0.453555       -12.3419
 214   2.0000      -0.453069       -12.3286
 215   2.0000      -0.448438       -12.2026
 216   2.0000      -0.446357       -12.1460
 217   2.0000      -0.445550       -12.1240
 218   2.0000      -0.445383       -12.1195
 219   2.0000      -0.444011       -12.0822
 220   2.0000      -0.441701       -12.0193
 221   2.0000      -0.440767       -11.9939
 222   2.0000      -0.431213       -11.7339
 223   2.0000      -0.430001       -11.7009
 224   2.0000      -0.427378       -11.6296
 225   2.0000      -0.425442       -11.5769
 226   2.0000      -0.419839       -11.4244
 227   2.0000      -0.418994       -11.4014
 228   2.0000      -0.413181       -11.2432
 229   2.0000      -0.410434       -11.1685
 230   2.0000      -0.407196       -11.0804
 231   2.0000      -0.405043       -11.0218
 232   2.0000      -0.395249       -10.7553
 233   2.0000      -0.393075       -10.6961
 234   2.0000      -0.390163       -10.6169
 235   2.0000      -0.386780       -10.5248
 236   2.0000      -0.384020       -10.4497
 237   2.0000      -0.380225       -10.3464
 238   2.0000      -0.378800       -10.3077
 239   2.0000      -0.376488       -10.2448
 240   2.0000      -0.372232       -10.1290
 241   2.0000      -0.371118       -10.0986
 242   2.0000      -0.367113        -9.9896
 243   2.0000      -0.357103        -9.7173
 244   2.0000      -0.356190        -9.6924
 245   2.0000      -0.346031        -9.4160
 246   2.0000      -0.341134        -9.2827
 247   2.0000      -0.336627        -9.1601
 248   2.0000      -0.323135        -8.7930
 249   2.0000      -0.321778        -8.7560
 250   2.0000      -0.318673        -8.6715
 251   2.0000      -0.316502        -8.6125
 252   2.0000      -0.304473        -8.2851
 253   2.0000      -0.298424        -8.1205
 254   2.0000      -0.290629        -7.9084
 255   2.0000      -0.277713        -7.5570
 256   2.0000      -0.272699        -7.4205
 257   2.0000      -0.257026        -6.9940
 258   2.0000      -0.251048        -6.8314
 259   2.0000      -0.207239        -5.6393
 260   0.0000      -0.106809        -2.9064
 261   0.0000      -0.088513        -2.4086
 262   0.0000      -0.073913        -2.0113
 263   0.0000      -0.070521        -1.9190
 264   0.0000      -0.042552        -1.1579

MULLIKEN ATOMIC CHARGES
-----------------------
   0 C :    0.363652
   1 C :   -0.357400
   2 C :   -0.191585
   3 N :    0.155792
   4 C :   -0.208127
   5 N :    0.145171
   6 C :    0.002481
   7 C :   -0.004140
   8 C :   -0.079662
   9 C :    0.116979
  10 C :   -0.092128
  11 C :   -0.027436
  12 S :    0.189950
  13 C :   -0.124166
  14 C :    0.039943
  15 Br:    0.026332
  16 C :    0.160284
  17 O :   -0.219861
  18 C :   -0.112130
  19 C :    0.026046
  20 N :    0.013033
  21 C :   -0.118136
  22 S :    0.173617
  23 C :   -0.006471
  24 N :    0.278249
  25 O :   -0.242919
  26 O :   -0.267580
  27 C :    0.049698
  28 C :    0.119780
  29 C :   -0.026611
  30 C :    0.003110
  31 C :    0.063382
  32 N :   -0.086532
  33 C :   -0.012476
  34 C :   -0.028729
  35 C :   -0.154505
  36 S :    0.327755
  37 N :   -0.355969
  38 C :    0.049439
  39 C :    0.001715
  40 C :    0.024161
  41 C :   -0.016089
  42 C :   -0.015541
  43 C :    0.029978
  44 C :    0.038598
  45 C :   -0.058941
  46 S :    0.049955
  47 C :   -0.018908
  48 C :    0.027420
  49 C :    0.043493
  50 C :   -0.030392
  51 S :    0.024377
  52 C :    0.022868
  53 C :    0.032129
  54 C :   -0.038879
  55 C :    0.061245
  56 C :    0.014507
  57 C :    0.033793
  58 C :   -0.031091
  59 C :    0.051596
  60 C :   -0.041622
  61 C :    0.046987
  62 C :    0.008403
  63 C :    0.022409
  64 C :   -0.018734
  65 C :    0.000455
  66 C :   -0.016306
  67 H :   -0.010588
  68 H :   -0.006786
  69 H :   -0.001871
  70 H :    0.049155
  71 H :    0.176400
  72 H :    0.014824
  73 H :    0.028857
  74 H :   -0.001466
  75 H :   -0.002223
  76 H :    0.022544
  77 H :    0.002195
  78 H :    0.037481
  79 H :   -0.011942
  80 H :   -0.011966
  81 H :   -0.011189
  82 H :   -0.015538
  83 H :   -0.009326
  84 H :   -0.018461
  85 H :   -0.015596
  86 H :   -0.014020
  87 H :   -0.014250
  88 H :   -0.023814
  89 H :   -0.024591
  90 H :    0.000532
  91 H :   -0.015838
  92 H :    0.016444
  93 H :    0.025311
Sum of atomic charges:   -0.0000000

LOEWDIN ATOMIC CHARGES
----------------------
   0 C :    0.085947
   1 C :   -0.149475
   2 C :   -0.019041
   3 N :   -0.058027
   4 C :   -0.019057
   5 N :   -0.060715
   6 C :   -0.015424
   7 C :   -0.052911
   8 C :    0.021743
   9 C :   -0.034977
  10 C :   -0.144045
  11 C :   -0.008452
  12 S :    0.436266
  13 C :   -0.271356
  14 C :   -0.070253
  15 Br:    0.138791
  16 C :    0.093930
  17 O :   -0.180374
  18 C :   -0.141596
  19 C :    0.120567
  20 N :    0.091578
  21 C :   -0.103221
  22 S :    0.499429
  23 C :   -0.202147
  24 N :    0.279491
  25 O :   -0.211112
  26 O :   -0.231367
  27 C :    0.012823
  28 C :   -0.089576
  29 C :    0.006697
  30 C :   -0.033739
  31 C :    0.027476
  32 N :   -0.161508
  33 C :   -0.013527
  34 C :   -0.161523
  35 C :   -0.289841
  36 S :    0.758660
  37 N :   -0.379283
  38 C :    0.023276
  39 C :   -0.038854
  40 C :    0.009425
  41 C :   -0.075172
  42 C :   -0.124023
  43 C :   -0.045090
  44 C :   -0.020828
  45 C :   -0.191806
  46 S :    0.365858
  47 C :   -0.167686
  48 C :   -0.043913
  49 C :   -0.019172
  50 C :   -0.157132
  51 S :    0.373934
  52 C :   -0.029405
  53 C :   -0.068617
  54 C :    0.016249
  55 C :   -0.070138
  56 C :    0.074225
  57 C :   -0.074169
  58 C :    0.044520
  59 C :   -0.065987
  60 C :    0.005565
  61 C :   -0.070923
  62 C :    0.071069
  63 C :   -0.069612
  64 C :    0.036375
  65 C :   -0.027991
  66 C :   -0.047751
  67 H :    0.040925
  68 H :    0.041512
  69 H :    0.039259
  70 H :    0.034517
  71 H :    0.088636
  72 H :    0.048366
  73 H :    0.042965
  74 H :    0.025262
  75 H :    0.036493
  76 H :    0.018269
  77 H :    0.029949
  78 H :    0.027609
  79 H :    0.031228
  80 H :    0.032654
  81 H :    0.032728
  82 H :    0.031606
  83 H :    0.034808
  84 H :    0.038535
  85 H :    0.028056
  86 H :    0.039077
  87 H :    0.029175
  88 H :    0.022284
  89 H :    0.034177
  90 H :    0.013511
  91 H :    0.027963
  92 H :    0.021611
  93 H :    0.025749

  Mayer bond orders larger than 0.100000
B(  0-C ,  1-C ) :   1.6316 B(  0-C ,  6-C ) :   0.9971 B(  0-C , 18-C ) :   1.1109
B(  1-C ,  2-C ) :   1.1460 B(  1-C ,  4-C ) :   1.1580 B(  2-C ,  3-N ) :   2.9696
B(  4-C ,  5-N ) :   2.9467 B(  6-C ,  7-C ) :   1.2729 B(  6-C , 11-C ) :   1.4235
B(  7-C ,  8-C ) :   1.4167 B(  7-C , 16-C ) :   0.9754 B(  8-C ,  9-C ) :   1.2377
B(  8-C , 67-H ) :   1.0197 B(  9-C , 10-C ) :   1.3117 B(  9-C , 14-C ) :   1.1649
B( 10-C , 11-C ) :   1.3147 B( 10-C , 12-S ) :   1.0891 B( 11-C , 68-H ) :   0.9830
B( 12-S , 13-C ) :   1.0885 B( 13-C , 14-C ) :   1.6159 B( 13-C , 15-Br) :   1.0201
B( 14-C , 69-H ) :   0.9996 B( 16-C , 17-O ) :   2.0347 B( 16-C , 18-C ) :   1.0076
B( 17-O , 71-H ) :   0.1227 B( 18-C , 19-C ) :   1.4383 B( 19-C , 20-N ) :   1.3375
B( 19-C , 70-H ) :   0.9305 B( 20-N , 21-C ) :   1.1908 B( 20-N , 71-H ) :   0.8335
B( 21-C , 22-S ) :   1.1549 B( 21-C , 28-C ) :   1.3930 B( 22-S , 23-C ) :   1.0941
B( 23-C , 24-N ) :   0.9717 B( 23-C , 27-C ) :   1.4827 B( 24-N , 25-O ) :   1.5380
B( 24-N , 26-O ) :   1.4952 B( 25-O , 26-O ) :   0.2526 B( 27-C , 28-C ) :   1.2339
B( 27-C , 72-H ) :   1.0024 B( 28-C , 29-C ) :   1.0273 B( 29-C , 30-C ) :   1.7931
B( 29-C , 73-H ) :   0.9594 B( 30-C , 31-C ) :   1.0804 B( 30-C , 74-H ) :   0.9463
B( 31-C , 32-N ) :   1.3534 B( 31-C , 35-C ) :   1.5034 B( 32-N , 33-C ) :   1.5995
B( 33-C , 34-C ) :   1.4100 B( 33-C , 36-S ) :   0.8121 B( 34-C , 38-C ) :   1.2064
B( 34-C , 75-H ) :   0.9914 B( 35-C , 36-S ) :   1.0048 B( 35-C , 76-H ) :   0.9618
B( 36-S , 37-N ) :   1.0399 B( 37-N , 38-C ) :   1.5499 B( 38-C , 39-C ) :   1.0541
B( 39-C , 40-C ) :   1.7639 B( 39-C , 77-H ) :   0.9693 B( 40-C , 41-C ) :   1.1161
B( 40-C , 78-H ) :   0.9441 B( 41-C , 42-C ) :   1.6124 B( 41-C , 79-H ) :   0.9823
B( 42-C , 43-C ) :   1.1344 B( 42-C , 46-S ) :   1.0394 B( 43-C , 44-C ) :   1.6031
B( 43-C , 80-H ) :   0.9962 B( 44-C , 45-C ) :   1.1884 B( 44-C , 81-H ) :   0.9943
B( 45-C , 46-S ) :   1.0357 B( 45-C , 47-C ) :   1.5085 B( 47-C , 48-C ) :   1.1850
B( 47-C , 51-S ) :   1.0491 B( 48-C , 49-C ) :   1.5941 B( 48-C , 82-H ) :   0.9936
B( 49-C , 50-C ) :   1.1415 B( 49-C , 83-H ) :   0.9986 B( 50-C , 51-S ) :   1.0135
B( 50-C , 52-C ) :   1.5823 B( 52-C , 53-C ) :   1.1351 B( 52-C , 84-H ) :   0.9692
B( 53-C , 54-C ) :   1.4148 B( 53-C , 64-C ) :   1.1334 B( 54-C , 55-C ) :   1.1094
B( 54-C , 85-H ) :   1.0283 B( 55-C , 56-C ) :   1.4108 B( 55-C , 63-C ) :   1.1348
B( 56-C , 57-C ) :   1.1260 B( 56-C , 86-H ) :   1.0140 B( 57-C , 58-C ) :   1.4054
B( 57-C , 61-C ) :   1.1423 B( 58-C , 59-C ) :   1.1612 B( 58-C , 87-H ) :   1.0152
B( 59-C , 60-C ) :   1.4766 B( 59-C , 65-C ) :   1.0875 B( 60-C , 61-C ) :   1.0915
B( 60-C , 88-H ) :   1.0192 B( 61-C , 62-C ) :   1.4143 B( 62-C , 63-C ) :   1.1386
B( 62-C , 89-H ) :   1.0093 B( 63-C , 64-C ) :   1.4343 B( 64-C , 90-H ) :   0.9923
B( 65-C , 66-C ) :   1.9297 B( 65-C , 91-H ) :   0.9639 B( 66-C , 92-H ) :   0.9457
B( 66-C , 93-H ) :   0.9478

-----------------------------------------------------------------------------
         ABSORPTION SPECTRUM VIA TRANSITION ELECTRIC DIPOLE MOMENTS
-----------------------------------------------------------------------------
State   Energy  Wavelength   fosc         T2         TX        TY        TZ
        (cm-1)    (nm)                  (au**2)     (au)      (au)      (au)
-----------------------------------------------------------------------------
   0    5202.1   1922.3   0.007868081   0.49793   0.61795   0.33817  -0.04131
   1   12529.8    798.1   0.018183799   0.47777   0.55192   0.14319   0.39070
   2   13911.3    718.8   0.006425548   0.15206   0.16990   0.27056  -0.22358
   3   14346.9    697.0   0.670559441  15.38701  -2.98271  -2.05631   1.50402
   4   17282.1    578.6   0.008303905   0.15818  -0.35259   0.12463   0.13539
   5   17541.5    570.1   0.014333560   0.26901   0.43372   0.24619  -0.14243
   6   18767.6    532.8   0.006867556   0.12047   0.21989   0.26658   0.03243
   7   19981.8    500.5   0.138559494   2.28285  -1.43767  -0.45903  -0.07242
   8   20452.5    488.9   0.078551179   1.26439  -1.08546  -0.19222  -0.22183
   9   20715.4    482.7   0.057138970   0.90806  -0.94139   0.01304   0.14724
  10   21045.2    475.2   0.074142474   1.15982   0.99421   0.40837   0.06781
  11   22880.7    437.1   0.394940454   5.68249   2.23624   0.36477   0.74071
  12   23202.2    431.0   0.473739160   6.72181   2.42878  -0.19275   0.88638
  13   23467.0    426.1   0.007210215   0.10115  -0.27050   0.15143  -0.07105
  14   23737.2    421.3   0.171000271   2.37161   1.49919  -0.20946   0.28311
  15   24677.7    405.2   0.047231429   0.63009   0.69173   0.37062  -0.11931
  16   24799.6    403.2   0.031138278   0.41336  -0.36197   0.47312  -0.24186
  17   25423.2    393.3   0.290475667   3.76145  -1.43789   0.58577  -1.16224
  18   25989.4    384.8   0.029136363   0.36908  -0.59540  -0.10532   0.05897
  19   26270.0    380.7   0.108729063   1.36258   0.83820  -0.54433   0.60307
  20   26673.1    374.9   0.008566467   0.10573  -0.25364   0.20343   0.00341
  21   27152.1    368.3   0.794772113   9.63639   2.52721  -0.69864   1.66177
  22   27379.7    365.2   0.037046901   0.44545   0.48679  -0.24902   0.38272
  23   27999.0    357.2   0.012337460   0.14506   0.22875  -0.16354   0.25689
  24   28460.9    351.4   0.014226641   0.16456  -0.26530  -0.30346  -0.04573
  25   28739.0    348.0   0.027701660   0.31733   0.12983  -0.53198   0.13218
  26   29380.3    340.4   0.250973206   2.81220  -1.01714   1.06622  -0.80050
  27   29584.4    338.0   0.467901803   5.20675   0.57936  -1.90305   1.11781
  28   29678.2    336.9   0.020231113   0.22442   0.45312   0.09349   0.10179
  29   29845.8    335.1   0.050025161   0.55180  -0.54368  -0.08077  -0.49968
  30   30525.7    327.6   0.023920850   0.25798   0.07311   0.47987  -0.14954
  31   30604.1    326.8   0.100173207   1.07758  -0.69402   0.58389  -0.50496
  32   30825.4    324.4   0.089869631   0.95980  -0.69532   0.34899  -0.59543
  33   31052.0    322.0   0.033001070   0.34988   0.58680   0.06271   0.04009
  34   31566.4    316.8   0.051575527   0.53789   0.47601  -0.41233   0.37588
  35   31670.0    315.8   0.120426259   1.25184  -1.03847   0.31770  -0.26924
  36   31831.8    314.2   0.038429048   0.39744   0.56540   0.27883   0.00444
  37   31933.8    313.1   0.031182977   0.32147   0.23329   0.49610   0.14468
  38   32149.5    311.0   0.080119788   0.82043   0.26830  -0.59454   0.62846
  39   32352.2    309.1   0.199373672   2.02880  -1.05490   0.57003  -0.76880
  40   33017.7    302.9   0.217828559   2.17192   0.60152  -1.02210   0.87488
  41   33248.4    300.8   0.031129191   0.30823   0.50419   0.22934   0.03771
  42   33267.4    300.6   0.050923889   0.50394   0.25152   0.62675  -0.21876
  43   33338.9    299.9   0.033560951   0.33140   0.05367   0.48058  -0.31236
  44   33689.9    296.8   0.134772616   1.31697   0.11618   1.04766  -0.45375
  45   33710.2    296.6   0.117811165   1.15054  -0.13316  -0.97456   0.42784
  46   33857.8    295.4   0.012595383   0.12247  -0.03969  -0.33832   0.08020
  47   34084.6    293.4   0.028145703   0.27185   0.08284  -0.49774   0.13130
  48   34280.3    291.7   0.046548197   0.44703   0.63383   0.14563   0.15519
  49   34407.1    290.6   0.106130064   1.01547  -0.85561  -0.45806  -0.27124
  50   34617.4    288.9   0.029297848   0.27862   0.51082   0.05337   0.12181
  51   34701.5    288.2   0.041478025   0.39350   0.22330   0.58208  -0.06946
  52   34952.0    286.1   0.032237713   0.30365   0.02176   0.20321  -0.51174
  53   35050.9    285.3   0.314494943   2.95386   0.15702  -1.58502   0.64570
  54   35113.9    284.8   0.054729077   0.51312  -0.33552   0.58941  -0.23052
  55   35254.2    283.7   0.047753459   0.44593   0.02994  -0.62339  -0.23754
  56   35637.9    280.6   0.026465743   0.24448  -0.09844  -0.45577   0.16452
  57   35727.6    279.9   0.111578715   1.02814   0.26902   0.90165  -0.37788
  58   35945.0    278.2   0.013622617   0.12477   0.29206  -0.15160  -0.12840
  59   36225.6    276.0   0.086976558   0.79043   0.21757  -0.84704   0.16003
  60   36316.6    275.4   0.031998670   0.29007   0.13447  -0.11514   0.50866
  61   36526.4    273.8   0.024051641   0.21678   0.25444   0.38222   0.07712
  62   36654.6    272.8   0.093833219   0.84276   0.81524   0.42164   0.01890
  63   36992.3    270.3   0.000630927   0.00561   0.01589  -0.04296   0.05930
  64   37253.3    268.4   0.091025930   0.80441   0.53932  -0.35741   0.62113
  65   37318.2    268.0   0.003705529   0.03269   0.07959  -0.08446  -0.13864
  66   37654.8    265.6   0.014366651   0.12561  -0.21610   0.17347  -0.22094
  67   38152.4    262.1   0.012585977   0.10860  -0.18186   0.17147  -0.21478
  68   38496.2    259.8   0.013892495   0.11881   0.34012   0.04740   0.02962
  69   38706.8    258.4   0.076431787   0.65007   0.66348  -0.28809   0.35620
  70   38729.2    258.2   0.037757541   0.32095   0.50211  -0.13894   0.22257
  71   38837.6    257.5   0.329423984   2.79240   1.56752   0.57488  -0.06930
  72   38978.0    256.6   0.033529261   0.28319   0.40067  -0.29482   0.18905
  73   39084.1    255.9   0.010529521   0.08869  -0.15274   0.12782  -0.22141
  74   39230.2    254.9   0.010238823   0.08592  -0.18208  -0.22806   0.02755
  75   39515.7    253.1   0.034673552   0.28887  -0.40132   0.07208  -0.35016
  76   39587.9    252.6   0.050543969   0.42032   0.06085  -0.62190   0.17282
  77   39705.6    251.9   0.031524388   0.26138   0.27551   0.38035  -0.20200
  78   39981.8    250.1   0.050133565   0.41280   0.44510  -0.30718   0.34689
  79   40072.6    249.5   0.039715956   0.32628  -0.53463  -0.18573   0.07722
  80   40104.5    249.3   0.076930012   0.63151  -0.43857  -0.63025   0.20482
  81   40173.4    248.9   0.017820875   0.14604   0.00348   0.38163   0.01969

FINAL SINGLE POINT ENERGY     -7112.651829811759

DIPOLE MOMENT
-------------
                                X             Y             Z
Electronic contribution:   -109.68889      51.20583     -76.15424
Nuclear contribution   :    110.51269     -49.46669      76.15924
                        -----------------------------------------
Total Dipole Moment    :      0.82380       1.73914       0.00501
                        -----------------------------------------
Magnitude (a.u.)       :      1.92439
Magnitude (Debye)      :      4.89141

Rotational constants in cm-1:     0.001428     0.000485     0.000389
Rotational constants in MHz :    42.822436    14.526644    11.647646

                             ****ORCA TERMINATED NORMALLY****
TOTAL RUN TIME: 0 days 0 hours 13 minutes 28 seconds 366 msec
