                         Program Version 4.2.0 -  RELEASE  -
|  1> # ORCA input file
|  2> # SCF done       -174.583473937459          0.000760932444
|  3> ! CAM-B3LYP def2-SVP def2/J RIJCOSX Grid4 TightSCF
|  4> %maxcore 5000
|  5> %tddft
|  6>     Mode sTDDFT
|  7>     Ethresh 5.0
|  8>     maxcore 5000
|  9> end
| 10>
| 11> %pal
| 12>   nprocs 6
| 13>   end
| 14> * xyz 0 1
| 15>    C       -8.86295         3.93936         1.27173
| 16>    C       -8.55997         4.64052         2.40377
| 17>    C       -9.52060         5.21618         3.26460
| 18>    N      -10.25348         5.70435         3.99997
| 19>    C       -7.25068         4.89208         2.87118
| 20>    N       -6.22198         5.13978         3.31518
| 21>    C      -10.19565         3.67113         0.75421
| 22>    C      -10.09331         2.93101        -0.45193
| 23>    C      -11.19547         2.51611        -1.16139
| 24>    C      -12.45866         2.84554        -0.66125
| 25>    C      -12.55068         3.59923         0.53549
| 26>    C      -11.43979         4.01739         1.25413
| 27>    S      -14.20311         3.90621         0.97077
| 28>    C      -14.73965         3.02226        -0.43235
| 29>    C      -13.73663         2.52199        -1.19204
| 30>   Br      -16.57462         2.83697        -0.74276
| 31>    C       -8.67314         2.70080        -0.77055
| 32>    O       -8.21640         2.12859        -1.73118
| 33>    C       -7.90680         3.32469         0.35165
| 34>    C       -6.57110         3.25577         0.43012
| 35>    C       -5.78232         2.57990        -0.61900
| 36>    N       -5.53632         1.28582        -0.44904
| 37>    C       -4.86664         0.68676        -1.42326
| 38>    C       -4.43483         1.35768        -2.55011
| 39>    C       -4.69790         2.73348        -2.60820
| 40>    N       -5.37338         3.33275        -1.62150
| 41>    C       -4.25938         3.53888        -3.72095
| 42>    C       -4.43135         4.87455        -3.74966
| 43>    C       -3.99907         5.77046        -4.77316
| 44>    S       -3.63826         7.40073        -4.27543
| 45>    C       -3.01402         7.78030        -5.82819
| 46>    C       -3.08135         6.73972        -6.69781
| 47>    C       -2.62763         6.81947        -8.11774
| 48>    C       -3.67543         5.57461        -6.11300
| 49>    C       -3.96791         4.41686        -6.91082
| 50>    C       -5.04632         3.61011        -6.75142
| 51>    C       -5.38289         2.49665        -7.56360
| 52>    C       -4.56128         1.89864        -8.47892
| 53>    C       -4.86929         0.81339        -9.31605
| 54>    C       -6.05813         0.14413        -9.50492
| 55>    C       -6.22949        -0.92694       -10.41733
| 56>    C       -7.49646        -1.42202       -10.48377
| 57>    C       -8.40647        -0.77112        -9.62347
| 58>    S       -7.59005         0.48074        -8.71754
| 59>    C       -9.75922        -1.02102        -9.47786
| 60>    C      -10.54055        -1.96732       -10.17485
| 61>    C      -11.85770        -1.95380        -9.83079
| 62>    C      -12.19628        -0.99063        -8.84691
| 63>    S      -10.75591        -0.11977        -8.35949
| 64>    C      -13.44330        -0.86377        -8.28149
| 65>    C      -13.88630         0.05560        -7.31363
| 66>    S      -15.05553        -0.49873        -6.14806
| 67>    C      -15.00074         0.96761        -5.22466
| 68>    C      -14.12755         1.87905        -5.82175
| 69>    C      -13.53392         1.38784        -7.03599
| 70>    C      -12.83302         2.29112        -7.86033
| 71>    F      -12.48465         1.93916        -9.10633
| 72>    C      -12.56356         3.56594        -7.43113
| 73>    F      -11.89554         4.42736        -8.21123
| 74>    C      -13.01282         4.00042        -6.16357
| 75>    F      -12.69672         5.23598        -5.75223
| 76>    C      -13.79601         3.18575        -5.39122
| 77>    F      -14.24820         3.64643        -4.20906
| 78>    C      -15.81637         1.13460        -4.06111
| 79>    C      -16.56238         0.17145        -3.51636
| 80>    H      -11.08454         1.95176        -2.07408
| 81>    H      -11.56294         4.58325         2.16250
| 82>    H      -13.88970         1.94878        -2.08766
| 83>    H       -6.01196         3.68476         1.24944
| 84>    H       -4.68050        -0.37000        -1.27849
| 85>    H       -3.91031         0.85531        -3.34673
| 86>    H       -3.77299         3.01644        -4.53178
| 87>    H       -4.86967         5.33475        -2.87274
| 88>    H       -2.63014         8.76431        -6.01414
| 89>    H       -2.24858         7.81445        -8.33572
| 90>    H       -3.45387         6.60351        -8.79383
| 91>    H       -1.83362         6.09729        -8.30679
| 92>    H       -3.31438         4.26594        -7.75902
| 93>    H       -5.74681         3.84683        -5.96164
| 94>    H       -6.37095         2.08977        -7.40612
| 95>    H       -3.55089         2.27385        -8.57722
| 96>    H       -4.05439         0.44839        -9.93060
| 97>    H       -5.40621        -1.29410       -11.00500
| 98>    H       -7.79731        -2.22813       -11.12807
| 99>    H      -10.11510        -2.62618       -10.91013
|100>    H      -12.60506        -2.59800       -10.25901
|101>    H      -14.14723        -1.65006        -8.52751
|102>    H      -15.82515         2.12403        -3.62846
|103>    H      -16.58186        -0.82595        -3.92431
|104>    H      -17.17363         0.36143        -2.65302
|105> *
|106>
|107>                          ****END OF INPUT****

CARTESIAN COORDINATES (ANGSTROEM)
---------------------------------
  C     -8.862950    3.939360    1.271730
  C     -8.559970    4.640520    2.403770
  C     -9.520600    5.216180    3.264600
  N    -10.253480    5.704350    3.999970
  C     -7.250680    4.892080    2.871180
  N     -6.221980    5.139780    3.315180
  C    -10.195650    3.671130    0.754210
  C    -10.093310    2.931010   -0.451930
  C    -11.195470    2.516110   -1.161390
  C    -12.458660    2.845540   -0.661250
  C    -12.550680    3.599230    0.535490
  C    -11.439790    4.017390    1.254130
  S    -14.203110    3.906210    0.970770
  C    -14.739650    3.022260   -0.432350
  C    -13.736630    2.521990   -1.192040
  Br   -16.574620    2.836970   -0.742760
  C     -8.673140    2.700800   -0.770550
  O     -8.216400    2.128590   -1.731180
  C     -7.906800    3.324690    0.351650
  C     -6.571100    3.255770    0.430120
  C     -5.782320    2.579900   -0.619000
  N     -5.536320    1.285820   -0.449040
  C     -4.866640    0.686760   -1.423260
  C     -4.434830    1.357680   -2.550110
  C     -4.697900    2.733480   -2.608200
  N     -5.373380    3.332750   -1.621500
  C     -4.259380    3.538880   -3.720950
  C     -4.431350    4.874550   -3.749660
  C     -3.999070    5.770460   -4.773160
  S     -3.638260    7.400730   -4.275430
  C     -3.014020    7.780300   -5.828190
  C     -3.081350    6.739720   -6.697810
  C     -2.627630    6.819470   -8.117740
  C     -3.675430    5.574610   -6.113000
  C     -3.967910    4.416860   -6.910820
  C     -5.046320    3.610110   -6.751420
  C     -5.382890    2.496650   -7.563600
  C     -4.561280    1.898640   -8.478920
  C     -4.869290    0.813390   -9.316050
  C     -6.058130    0.144130   -9.504920
  C     -6.229490   -0.926940  -10.417330
  C     -7.496460   -1.422020  -10.483770
  C     -8.406470   -0.771120   -9.623470
  S     -7.590050    0.480740   -8.717540
  C     -9.759220   -1.021020   -9.477860
  C    -10.540550   -1.967320  -10.174850
  C    -11.857700   -1.953800   -9.830790
  C    -12.196280   -0.990630   -8.846910
  S    -10.755910   -0.119770   -8.359490
  C    -13.443300   -0.863770   -8.281490
  C    -13.886300    0.055600   -7.313630
  S    -15.055530   -0.498730   -6.148060
  C    -15.000740    0.967610   -5.224660
  C    -14.127550    1.879050   -5.821750
  C    -13.533920    1.387840   -7.035990
  C    -12.833020    2.291120   -7.860330
  F    -12.484650    1.939160   -9.106330
  C    -12.563560    3.565940   -7.431130
  F    -11.895540    4.427360   -8.211230
  C    -13.012820    4.000420   -6.163570
  F    -12.696720    5.235980   -5.752230
  C    -13.796010    3.185750   -5.391220
  F    -14.248200    3.646430   -4.209060
  C    -15.816370    1.134600   -4.061110
  C    -16.562380    0.171450   -3.516360
  H    -11.084540    1.951760   -2.074080
  H    -11.562940    4.583250    2.162500
  H    -13.889700    1.948780   -2.087660
  H     -6.011960    3.684760    1.249440
  H     -4.680500   -0.370000   -1.278490
  H     -3.910310    0.855310   -3.346730
  H     -3.772990    3.016440   -4.531780
  H     -4.869670    5.334750   -2.872740
  H     -2.630140    8.764310   -6.014140
  H     -2.248580    7.814450   -8.335720
  H     -3.453870    6.603510   -8.793830
  H     -1.833620    6.097290   -8.306790
  H     -3.314380    4.265940   -7.759020
  H     -5.746810    3.846830   -5.961640
  H     -6.370950    2.089770   -7.406120
  H     -3.550890    2.273850   -8.577220
  H     -4.054390    0.448390   -9.930600
  H     -5.406210   -1.294100  -11.005000
  H     -7.797310   -2.228130  -11.128070
  H    -10.115100   -2.626180  -10.910130
  H    -12.605060   -2.598000  -10.259010
  H    -14.147230   -1.650060   -8.527510
  H    -15.825150    2.124030   -3.628460
  H    -16.581860   -0.825950   -3.924310
  H    -17.173630    0.361430   -2.653020

 Total Charge           Charge          ....    0
 Multiplicity           Mult            ....    1
 Number of Electrons    NEL             ....  512
 Basis Dimension        Dim             .... 1073

ORBITAL ENERGIES
----------------

  NO   OCC          E(Eh)            E(eV)
   0   2.0000    -482.888566    -13140.0659
   1   2.0000     -88.974975     -2421.1322
   2   2.0000     -88.971958     -2421.0501
   3   2.0000     -88.949987     -2420.4522
   4   2.0000     -88.948028     -2420.3989
   5   2.0000     -88.947342     -2420.3802
   6   2.0000     -62.565912     -1702.5050
   7   2.0000     -56.399863     -1534.7183
   8   2.0000     -56.397193     -1534.6456
   9   2.0000     -56.397113     -1534.6435
  10   2.0000     -24.802123      -674.9001
  11   2.0000     -24.796381      -674.7438
  12   2.0000     -24.793765      -674.6726
  13   2.0000     -24.793288      -674.6597
  14   2.0000     -19.216457      -522.9064
  15   2.0000     -14.417134      -392.3102
  16   2.0000     -14.416301      -392.2875
  17   2.0000     -14.399739      -391.8368
  18   2.0000     -14.397984      -391.7891
  19   2.0000     -10.377093      -282.3751
  20   2.0000     -10.374270      -282.2982
  21   2.0000     -10.373942      -282.2893
  22   2.0000     -10.373170      -282.2683
  23   2.0000     -10.365836      -282.0687
  24   2.0000     -10.358352      -281.8651
  25   2.0000     -10.345534      -281.5163
  26   2.0000     -10.342330      -281.4291
  27   2.0000     -10.340448      -281.3779
  28   2.0000     -10.325871      -280.9812
  29   2.0000     -10.322031      -280.8767
  30   2.0000     -10.319369      -280.8043
  31   2.0000     -10.319061      -280.7959
  32   2.0000     -10.318188      -280.7722
  33   2.0000     -10.315096      -280.6880
  34   2.0000     -10.315025      -280.6861
  35   2.0000     -10.314511      -280.6721
  36   2.0000     -10.312689      -280.6225
  37   2.0000     -10.311457      -280.5890
  38   2.0000     -10.309732      -280.5421
  39   2.0000     -10.309041      -280.5233
  40   2.0000     -10.307951      -280.4936
  41   2.0000     -10.307855      -280.4910
  42   2.0000     -10.307582      -280.4836
  43   2.0000     -10.306021      -280.4411
  44   2.0000     -10.305953      -280.4392
  45   2.0000     -10.300712      -280.2966
  46   2.0000     -10.298913      -280.2477
  47   2.0000     -10.295106      -280.1441
  48   2.0000     -10.294731      -280.1339
  49   2.0000     -10.292614      -280.0763
  50   2.0000     -10.291149      -280.0364
  51   2.0000     -10.290066      -280.0069
  52   2.0000     -10.287678      -279.9420
  53   2.0000     -10.287141      -279.9273
  54   2.0000     -10.286685      -279.9149
  55   2.0000     -10.284951      -279.8677
  56   2.0000     -10.284819      -279.8641
  57   2.0000     -10.281675      -279.7786
  58   2.0000     -10.281541      -279.7750
  59   2.0000     -10.276119      -279.6274
  60   2.0000     -10.274583      -279.5856
  61   2.0000     -10.274471      -279.5826
  62   2.0000     -10.274126      -279.5732
  63   2.0000     -10.274064      -279.5715
  64   2.0000     -10.273056      -279.5441
  65   2.0000     -10.271569      -279.5036
  66   2.0000     -10.269814      -279.4558
  67   2.0000     -10.267107      -279.3822
  68   2.0000     -10.265415      -279.3362
  69   2.0000      -8.795242      -239.3307
  70   2.0000      -8.071029      -219.6239
  71   2.0000      -8.067453      -219.5266
  72   2.0000      -8.045750      -218.9360
  73   2.0000      -8.044065      -218.8901
  74   2.0000      -8.043534      -218.8757
  75   2.0000      -6.631419      -180.4501
  76   2.0000      -6.617046      -180.0590
  77   2.0000      -6.616840      -180.0534
  78   2.0000      -6.040715      -164.3762
  79   2.0000      -6.036468      -164.2606
  80   2.0000      -6.036463      -164.2605
  81   2.0000      -6.032421      -164.1505
  82   2.0000      -6.032215      -164.1449
  83   2.0000      -6.030020      -164.0852
  84   2.0000      -6.015475      -163.6894
  85   2.0000      -6.013307      -163.6304
  86   2.0000      -6.013268      -163.6293
  87   2.0000      -6.011354      -163.5773
  88   2.0000      -6.009167      -163.5177
  89   2.0000      -6.009012      -163.5135
  90   2.0000      -6.006822      -163.4539
  91   2.0000      -6.006465      -163.4442
  92   2.0000      -6.004422      -163.3886
  93   2.0000      -2.747341       -74.7590
  94   2.0000      -2.743271       -74.6482
  95   2.0000      -2.743162       -74.6452
  96   2.0000      -2.731713       -74.3337
  97   2.0000      -2.731699       -74.3333
  98   2.0000      -1.322560       -35.9887
  99   2.0000      -1.315081       -35.7852
 100   2.0000      -1.306043       -35.5392
 101   2.0000      -1.296834       -35.2887
 102   2.0000      -1.132397       -30.8141
 103   2.0000      -1.074781       -29.2463
 104   2.0000      -1.022981       -27.8367
 105   2.0000      -1.013890       -27.5894
 106   2.0000      -1.012326       -27.5468
 107   2.0000      -0.997737       -27.1498
 108   2.0000      -0.995108       -27.0783
 109   2.0000      -0.989358       -26.9218
 110   2.0000      -0.980547       -26.6821
 111   2.0000      -0.975998       -26.5583
 112   2.0000      -0.971505       -26.4360
 113   2.0000      -0.953368       -25.9425
 114   2.0000      -0.943681       -25.6789
 115   2.0000      -0.915358       -24.9081
 116   2.0000      -0.912646       -24.8344
 117   2.0000      -0.910136       -24.7661
 118   2.0000      -0.908284       -24.7157
 119   2.0000      -0.889331       -24.1999
 120   2.0000      -0.886441       -24.1213
 121   2.0000      -0.885847       -24.1051
 122   2.0000      -0.873687       -23.7742
 123   2.0000      -0.870532       -23.6884
 124   2.0000      -0.859293       -23.3825
 125   2.0000      -0.852118       -23.1873
 126   2.0000      -0.847476       -23.0610
 127   2.0000      -0.846443       -23.0329
 128   2.0000      -0.841036       -22.8858
 129   2.0000      -0.829163       -22.5627
 130   2.0000      -0.828020       -22.5316
 131   2.0000      -0.825171       -22.4540
 132   2.0000      -0.812270       -22.1030
 133   2.0000      -0.792830       -21.5740
 134   2.0000      -0.779023       -21.1983
 135   2.0000      -0.775212       -21.0946
 136   2.0000      -0.764198       -20.7949
 137   2.0000      -0.758883       -20.6503
 138   2.0000      -0.742206       -20.1965
 139   2.0000      -0.741153       -20.1678
 140   2.0000      -0.733680       -19.9644
 141   2.0000      -0.726887       -19.7796
 142   2.0000      -0.714513       -19.4429
 143   2.0000      -0.710445       -19.3322
 144   2.0000      -0.697634       -18.9836
 145   2.0000      -0.690594       -18.7920
 146   2.0000      -0.683686       -18.6040
 147   2.0000      -0.677795       -18.4437
 148   2.0000      -0.676144       -18.3988
 149   2.0000      -0.670492       -18.2450
 150   2.0000      -0.664906       -18.0930
 151   2.0000      -0.656680       -17.8692
 152   2.0000      -0.654680       -17.8147
 153   2.0000      -0.651329       -17.7236
 154   2.0000      -0.644399       -17.5350
 155   2.0000      -0.635280       -17.2868
 156   2.0000      -0.630938       -17.1687
 157   2.0000      -0.625263       -17.0143
 158   2.0000      -0.623959       -16.9788
 159   2.0000      -0.617493       -16.8028
 160   2.0000      -0.612832       -16.6760
 161   2.0000      -0.611153       -16.6303
 162   2.0000      -0.608759       -16.5652
 163   2.0000      -0.606723       -16.5098
 164   2.0000      -0.603055       -16.4100
 165   2.0000      -0.597107       -16.2481
 166   2.0000      -0.595252       -16.1976
 167   2.0000      -0.589583       -16.0434
 168   2.0000      -0.587988       -16.0000
 169   2.0000      -0.576909       -15.6985
 170   2.0000      -0.571161       -15.5421
 171   2.0000      -0.565736       -15.3944
 172   2.0000      -0.565373       -15.3846
 173   2.0000      -0.559033       -15.2121
 174   2.0000      -0.554064       -15.0768
 175   2.0000      -0.550214       -14.9721
 176   2.0000      -0.548784       -14.9332
 177   2.0000      -0.547397       -14.8954
 178   2.0000      -0.539701       -14.6860
 179   2.0000      -0.538263       -14.6469
 180   2.0000      -0.534425       -14.5424
 181   2.0000      -0.531086       -14.4516
 182   2.0000      -0.530123       -14.4254
 183   2.0000      -0.529604       -14.4113
 184   2.0000      -0.524905       -14.2834
 185   2.0000      -0.517897       -14.0927
 186   2.0000      -0.513995       -13.9865
 187   2.0000      -0.511644       -13.9226
 188   2.0000      -0.508387       -13.8339
 189   2.0000      -0.507995       -13.8233
 190   2.0000      -0.507705       -13.8154
 191   2.0000      -0.506736       -13.7890
 192   2.0000      -0.505888       -13.7659
 193   2.0000      -0.501029       -13.6337
 194   2.0000      -0.498617       -13.5681
 195   2.0000      -0.497554       -13.5391
 196   2.0000      -0.495919       -13.4947
 197   2.0000      -0.493949       -13.4410
 198   2.0000      -0.493111       -13.4182
 199   2.0000      -0.491260       -13.3679
 200   2.0000      -0.488441       -13.2911
 201   2.0000      -0.484538       -13.1850
 202   2.0000      -0.483951       -13.1690
 203   2.0000      -0.480345       -13.0708
 204   2.0000      -0.471434       -12.8284
 205   2.0000      -0.469402       -12.7731
 206   2.0000      -0.466074       -12.6825
 207   2.0000      -0.464084       -12.6284
 208   2.0000      -0.462370       -12.5817
 209   2.0000      -0.460530       -12.5317
 210   2.0000      -0.457566       -12.4510
 211   2.0000      -0.454262       -12.3611
 212   2.0000      -0.453459       -12.3393
 213   2.0000      -0.450001       -12.2452
 214   2.0000      -0.449339       -12.2271
 215   2.0000      -0.446943       -12.1619
 216   2.0000      -0.444318       -12.0905
 217   2.0000      -0.442974       -12.0539
 218   2.0000      -0.439268       -11.9531
 219   2.0000      -0.437339       -11.9006
 220   2.0000      -0.435027       -11.8377
 221   2.0000      -0.427964       -11.6455
 222   2.0000      -0.425540       -11.5795
 223   2.0000      -0.424201       -11.5431
 224   2.0000      -0.423540       -11.5251
 225   2.0000      -0.420191       -11.4340
 226   2.0000      -0.415945       -11.3184
 227   2.0000      -0.414400       -11.2764
 228   2.0000      -0.412212       -11.2169
 229   2.0000      -0.411689       -11.2026
 230   2.0000      -0.410388       -11.1672
 231   2.0000      -0.402655       -10.9568
 232   2.0000      -0.401146       -10.9157
 233   2.0000      -0.397137       -10.8066
 234   2.0000      -0.388015       -10.5584
 235   2.0000      -0.379335       -10.3222
 236   2.0000      -0.376070       -10.2334
 237   2.0000      -0.373286       -10.1576
 238   2.0000      -0.369440       -10.0530
 239   2.0000      -0.363009        -9.8780
 240   2.0000      -0.350858        -9.5473
 241   2.0000      -0.342732        -9.3262
 242   2.0000      -0.339599        -9.2410
 243   2.0000      -0.333452        -9.0737
 244   2.0000      -0.332125        -9.0376
 245   2.0000      -0.325777        -8.8648
 246   2.0000      -0.324481        -8.8296
 247   2.0000      -0.323932        -8.8146
 248   2.0000      -0.315522        -8.5858
 249   2.0000      -0.314467        -8.5571
 250   2.0000      -0.314331        -8.5534
 251   2.0000      -0.293018        -7.9734
 252   2.0000      -0.287540        -7.8244
 253   2.0000      -0.267922        -7.2905
 254   2.0000      -0.247784        -6.7426
 255   2.0000      -0.206450        -5.6178
 256   0.0000      -0.092686        -2.5221
 257   0.0000      -0.082968        -2.2577
 258   0.0000      -0.054221        -1.4754
 259   0.0000      -0.049624        -1.3504
 260   0.0000      -0.035495        -0.9659

MULLIKEN ATOMIC CHARGES
-----------------------
   0 C :    0.333644
   1 C :   -0.345340
   2 C :   -0.188786
   3 N :    0.157859
   4 C :   -0.191069
   5 N :    0.165304
   6 C :    0.006716
   7 C :   -0.014175
   8 C :   -0.062366
   9 C :    0.117724
  10 C :   -0.091546
  11 C :   -0.016169
  12 S :    0.186844
  13 C :   -0.123881
  14 C :    0.056569
  15 Br:    0.030786
  16 C :    0.156945
  17 O :   -0.131606
  18 C :   -0.056360
  19 C :    0.000619
  20 C :   -0.034738
  21 N :   -0.088980
  22 C :    0.087199
  23 C :   -0.041099
  24 C :    0.052054
  25 N :   -0.067902
  26 C :   -0.024476
  27 C :    0.075511
  28 C :   -0.166091
  29 S :    0.125027
  30 C :   -0.124851
  31 C :   -0.082427
  32 C :    0.114023
  33 C :    0.132862
  34 C :   -0.046526
  35 C :    0.017232
  36 C :   -0.013132
  37 C :    0.018641
  38 C :    0.002758
  39 C :   -0.026426
  40 C :    0.038968
  41 C :    0.020005
  42 C :   -0.032842
  43 S :    0.073123
  44 C :   -0.059599
  45 C :    0.034801
  46 C :    0.026094
  47 C :   -0.014646
  48 S :    0.105721
  49 C :   -0.018508
  50 C :   -0.153284
  51 S :    0.157150
  52 C :   -0.160245
  53 C :    0.076760
  54 C :    0.071989
  55 C :    0.141865
  56 F :   -0.162506
  57 C :    0.147933
  58 F :   -0.165958
  59 C :    0.156323
  60 F :   -0.164089
  61 C :    0.135947
  62 F :   -0.177188
  63 C :   -0.004941
  64 C :   -0.031990
  65 H :   -0.008093
  66 H :   -0.006714
  67 H :   -0.015151
  68 H :    0.052254
  69 H :    0.004076
  70 H :   -0.007864
  71 H :   -0.007561
  72 H :    0.007692
  73 H :    0.015165
  74 H :    0.007799
  75 H :    0.033423
  76 H :    0.028868
  77 H :   -0.017742
  78 H :    0.007911
  79 H :    0.000406
  80 H :   -0.017819
  81 H :   -0.016459
  82 H :   -0.012226
  83 H :   -0.014256
  84 H :   -0.012380
  85 H :   -0.011407
  86 H :   -0.005836
  87 H :    0.008233
  88 H :    0.021646
  89 H :    0.024781
Sum of atomic charges:   -0.0000000

LOEWDIN ATOMIC CHARGES
----------------------
   0 C :    0.076687
   1 C :   -0.128267
   2 C :   -0.017307
   3 N :   -0.047088
   4 C :   -0.018888
   5 N :   -0.042261
   6 C :   -0.021793
   7 C :   -0.051058
   8 C :    0.026081
   9 C :   -0.028610
  10 C :   -0.141980
  11 C :   -0.008091
  12 S :    0.433139
  13 C :   -0.271301
  14 C :   -0.065096
  15 Br:    0.152905
  16 C :    0.088394
  17 O :   -0.124559
  18 C :   -0.070115
  19 C :    0.088533
  20 C :    0.023229
  21 N :   -0.096528
  22 C :    0.055755
  23 C :   -0.063529
  24 C :    0.043821
  25 N :   -0.086390
  26 C :   -0.045562
  27 C :    0.000040
  28 C :   -0.174188
  29 S :    0.443157
  30 C :   -0.191754
  31 C :   -0.056466
  32 C :   -0.045331
  33 C :   -0.056121
  34 C :   -0.018110
  35 C :   -0.019168
  36 C :   -0.030136
  37 C :   -0.035161
  38 C :   -0.053943
  39 C :   -0.147259
  40 C :   -0.025736
  41 C :   -0.042583
  42 C :   -0.172116
  43 S :    0.394969
  44 C :   -0.181196
  45 C :   -0.028361
  46 C :   -0.036286
  47 C :   -0.135676
  48 S :    0.394257
  49 C :   -0.096559
  50 C :   -0.163847
  51 S :    0.484585
  52 C :   -0.181563
  53 C :   -0.065864
  54 C :   -0.081410
  55 C :    0.048371
  56 F :   -0.042918
  57 C :    0.026595
  58 F :   -0.044148
  59 C :    0.033655
  60 F :   -0.043071
  61 C :    0.048858
  62 F :   -0.049494
  63 C :   -0.051198
  64 C :   -0.047708
  65 H :    0.042427
  66 H :    0.041151
  67 H :    0.037310
  68 H :    0.051650
  69 H :    0.025917
  70 H :    0.033196
  71 H :    0.029691
  72 H :    0.033324
  73 H :    0.021391
  74 H :    0.032996
  75 H :    0.037288
  76 H :    0.033929
  77 H :    0.023698
  78 H :    0.035328
  79 H :    0.013939
  80 H :    0.026877
  81 H :    0.034410
  82 H :    0.033638
  83 H :    0.031325
  84 H :    0.032576
  85 H :    0.033277
  86 H :    0.034224
  87 H :    0.025625
  88 H :    0.015897
  89 H :    0.021677

  Mayer bond orders larger than 0.100000
B(  0-C ,  1-C ) :   1.6695 B(  0-C ,  6-C ) :   1.0206 B(  0-C , 18-C ) :   1.0014
B(  1-C ,  2-C ) :   1.1345 B(  1-C ,  4-C ) :   1.1492 B(  2-C ,  3-N ) :   2.9754
B(  4-C ,  5-N ) :   2.9774 B(  6-C ,  7-C ) :   1.2719 B(  6-C , 11-C ) :   1.3977
B(  7-C ,  8-C ) :   1.4215 B(  7-C , 16-C ) :   0.9421 B(  8-C ,  9-C ) :   1.2521
B(  8-C , 65-H ) :   1.0158 B(  9-C , 10-C ) :   1.2944 B(  9-C , 14-C ) :   1.1671
B( 10-C , 11-C ) :   1.3411 B( 10-C , 12-S ) :   1.0875 B( 11-C , 66-H ) :   0.9789
B( 12-S , 13-C ) :   1.0816 B( 13-C , 14-C ) :   1.6197 B( 13-C , 15-Br) :   1.0242
B( 14-C , 67-H ) :   0.9935 B( 16-C , 17-O ) :   2.2348 B( 16-C , 18-C ) :   0.9139
B( 18-C , 19-C ) :   1.8865 B( 19-C , 20-C ) :   0.9089 B( 19-C , 68-H ) :   0.9313
B( 20-C , 21-N ) :   1.5044 B( 20-C , 25-N ) :   1.5332 B( 21-N , 22-C ) :   1.5208
B( 22-C , 23-C ) :   1.3894 B( 22-C , 69-H ) :   0.9792 B( 23-C , 24-C ) :   1.3296
B( 23-C , 70-H ) :   0.9742 B( 24-C , 25-N ) :   1.4957 B( 24-C , 26-C ) :   1.0948
B( 26-C , 27-C ) :   1.7299 B( 26-C , 71-H ) :   0.9703 B( 27-C , 28-C ) :   1.0781
B( 27-C , 72-H ) :   0.9451 B( 28-C , 29-S ) :   1.1421 B( 28-C , 33-C ) :   1.4479
B( 29-S , 30-C ) :   1.1486 B( 30-C , 31-C ) :   1.5905 B( 30-C , 73-H ) :   0.9663
B( 31-C , 32-C ) :   1.0954 B( 31-C , 33-C ) :   1.2346 B( 32-C , 74-H ) :   0.9505
B( 32-C , 75-H ) :   0.9438 B( 32-C , 76-H ) :   0.9428 B( 33-C , 34-C ) :   1.1020
B( 34-C , 35-C ) :   1.6959 B( 34-C , 77-H ) :   0.9465 B( 35-C , 36-C ) :   1.1808
B( 35-C , 78-H ) :   0.9703 B( 36-C , 37-C ) :   1.6051 B( 36-C , 79-H ) :   0.9571
B( 37-C , 38-C ) :   1.2251 B( 37-C , 80-H ) :   0.9589 B( 38-C , 39-C ) :   1.5535
B( 38-C , 81-H ) :   0.9595 B( 39-C , 40-C ) :   1.1561 B( 39-C , 43-S ) :   1.0414
B( 40-C , 41-C ) :   1.5782 B( 40-C , 82-H ) :   0.9990 B( 41-C , 42-C ) :   1.1933
B( 41-C , 83-H ) :   0.9942 B( 42-C , 43-S ) :   1.0482 B( 42-C , 44-C ) :   1.4905
B( 44-C , 45-C ) :   1.1930 B( 44-C , 48-S ) :   1.0609 B( 45-C , 46-C ) :   1.5824
B( 45-C , 84-H ) :   0.9935 B( 46-C , 47-C ) :   1.1522 B( 46-C , 85-H ) :   0.9990
B( 47-C , 48-S ) :   1.0530 B( 47-C , 49-C ) :   1.5945 B( 49-C , 50-C ) :   1.1693
B( 49-C , 86-H ) :   0.9442 B( 50-C , 51-S ) :   1.1611 B( 50-C , 52-C ) :   0.1008
B( 50-C , 54-C ) :   1.3504 B( 51-S , 52-C ) :   1.1344 B( 52-C , 53-C ) :   1.3932
B( 52-C , 63-C ) :   1.1438 B( 53-C , 54-C ) :   1.2006 B( 53-C , 61-C ) :   1.1180
B( 54-C , 55-C ) :   1.1347 B( 55-C , 56-F ) :   1.1726 B( 55-C , 57-C ) :   1.4301
B( 57-C , 58-F ) :   1.1587 B( 57-C , 59-C ) :   1.1429 B( 59-C , 60-F ) :   1.1612
B( 59-C , 61-C ) :   1.4522 B( 61-C , 62-F ) :   1.1232 B( 63-C , 64-C ) :   1.8920
B( 63-C , 87-H ) :   0.9488 B( 64-C , 88-H ) :   0.9560 B( 64-C , 89-H ) :   0.9469

-----------------------------------------------------------------------------
         ABSORPTION SPECTRUM VIA TRANSITION ELECTRIC DIPOLE MOMENTS
-----------------------------------------------------------------------------
State   Energy  Wavelength   fosc         T2         TX        TY        TZ
        (cm-1)    (nm)                  (au**2)     (au)      (au)      (au)
-----------------------------------------------------------------------------
   0   11400.5    877.2   0.781810506  22.57623  -4.64263  -0.96917   0.28790
   1   16597.2    602.5   0.000117373   0.00233   0.04619   0.01299   0.00512
   2   18086.1    552.9   0.033076678   0.60208   0.10570   0.34354   0.68767
   3   20285.0    493.0   0.942435774  15.29508  -0.53031   1.99572   3.32129
   4   22236.6    449.7   0.001688044   0.02499   0.14235   0.00200  -0.06873
   5   22386.2    446.7   0.021246661   0.31245  -0.41337   0.04976   0.37296
   6   24117.3    414.6   0.000237224   0.00324  -0.04598   0.01813   0.02821
   7   25148.9    397.6   0.332896883   4.35779  -1.38640  -1.55998  -0.04615
   8   26943.9    371.1   0.027872604   0.34056   0.36967   0.43904   0.10558
   9   28144.4    355.3   0.004515012   0.05281   0.18084   0.05517   0.13063
  10   28406.8    352.0   0.057666184   0.66830   0.55906   0.54772  -0.23615
  11   28754.5    347.8   0.406316105   4.65193  -1.89007  -0.28578  -0.99895
  12   29771.3    335.9   0.222655282   2.46213  -0.04521   1.50802   0.43124
  13   29798.4    335.6   0.000745071   0.00823  -0.00275  -0.06966   0.05807
  14   30394.9    329.0   0.010423554   0.11290  -0.31549  -0.11179   0.02943
  15   30847.6    324.2   0.129393922   1.38092   1.00935   0.59812  -0.06626
  16   30949.6    323.1   0.095869271   1.01977  -0.08257   0.13692  -0.99710
  17   31033.6    322.2   0.020106607   0.21330  -0.23648   0.23184   0.32190
  18   31579.0    316.7   0.324858407   3.38666   0.35407   1.67284  -0.68037
  19   31823.2    314.2   0.007264622   0.07515  -0.05129  -0.26921   0.00688
  20   32654.2    306.2   0.000474607   0.00478  -0.00062  -0.02134   0.06579
  21   32816.4    304.7   0.015842813   0.15893  -0.31651  -0.09590   0.22261
  22   33187.9    301.3   0.029307134   0.29072   0.01728   0.51879  -0.14587
  23   33462.3    298.8   0.000575708   0.00566  -0.02362  -0.02282  -0.06772
  24   33631.7    297.3   0.008418138   0.08240   0.02637   0.21393   0.18958
  25   33714.9    296.6   0.025930554   0.25320   0.00020  -0.46567  -0.19066
  26   34206.0    292.3   0.019538908   0.18805  -0.35921  -0.12578  -0.20784
  27   34233.5    292.1   0.034145816   0.32837  -0.18448   0.44791   0.30612
  28   34262.2    291.9   0.010889483   0.10463   0.30045  -0.09791  -0.06911
  29   34442.4    290.3   0.090535273   0.86537   0.48836   0.24426  -0.75313
  30   34648.9    288.6   0.530544898   5.04090  -1.53141  -0.91770  -1.36143
  31   35463.0    282.0   0.137629929   1.27765  -0.32648  -0.96724   0.48530
  32   35778.9    279.5   0.068105135   0.62665   0.58477   0.35373  -0.39946
  33   35869.3    278.8   0.041989223   0.38538   0.03187   0.44278   0.43395
  34   35938.8    278.3   0.052468494   0.48063  -0.02319  -0.66959   0.17815
  35   36228.0    276.0   0.072668361   0.66035   0.29209  -0.73630  -0.18138
  36   37099.8    269.5   0.009596785   0.08516  -0.00132   0.07069   0.28312
  37   37295.9    268.1   0.000353150   0.00312  -0.04519  -0.03242   0.00490
  38   37663.0    265.5   0.000723434   0.00632   0.03997  -0.06874   0.00085
  39   37718.0    265.1   0.007726658   0.06744   0.16803  -0.14202   0.13798
  40   37815.6    264.4   0.128268544   1.11667   0.04124   1.05453   0.05412
  41   37817.2    264.4   0.075199813   0.65464  -0.41079  -0.40104   0.57015
  42   39285.8    254.5   0.032865919   0.27541  -0.12650   0.02134   0.50888
  43   39321.8    254.3   0.003366541   0.02819   0.13705  -0.08387   0.04866
  44   39574.4    252.7   0.000753932   0.00627  -0.05623   0.01041   0.05479
  45   39724.9    251.7   0.000404898   0.00336  -0.03243   0.00026   0.04800
  46   40049.7    249.7   0.144519237   1.18796   0.78609   0.47319  -0.58831
  47   40122.4    249.2   0.015290744   0.12546   0.21775   0.13988  -0.24183
  48   40285.1    248.2   0.027659279   0.22603  -0.21503  -0.28309   0.31568

FINAL SINGLE POINT ENERGY     -7174.869349475794

DIPOLE MOMENT
-------------
                                X             Y             Z
Electronic contribution:   -124.73574      14.47170      57.39115
Nuclear contribution   :    124.58317     -16.79068     -60.93717
                        -----------------------------------------
Total Dipole Moment    :     -0.15258      -2.31898      -3.54602
                        -----------------------------------------
Magnitude (a.u.)       :      4.23972
Magnitude (Debye)      :     10.77651

Rotational constants in cm-1:     0.000830     0.000723     0.000448
Rotational constants in MHz :    24.885977    21.689733    13.432215

                             ****ORCA TERMINATED NORMALLY****
TOTAL RUN TIME: 0 days 0 hours 8 minutes 50 seconds 828 msec
