                         Program Version 4.2.0 -  RELEASE  -
|  1> # ORCA input file
|  2> # SCF done       -191.423397010775          0.000748079259
|  3> ! CAM-B3LYP def2-SVP def2/J RIJCOSX Grid4 TightSCF
|  4> %maxcore 5000
|  5> %tddft
|  6>     Mode sTDDFT
|  7>     Ethresh 5.0
|  8>     maxcore 5000
|  9> end
| 10>
| 11> %pal
| 12>   nprocs 6
| 13>   end
| 14> * xyz 0 1
| 15>    C       -5.65690         6.98345         4.40496
| 16>    C       -5.23684         7.83368         5.39727
| 17>    C       -6.09195         8.69932         6.10887
| 18>    N       -6.73961         9.42912         6.71402
| 19>    C       -3.91201         7.92337         5.87255
| 20>    N       -2.86435         8.02945         6.33126
| 21>    C       -7.04054         6.77698         3.99088
| 22>    C       -7.07467         5.72074         3.04776
| 23>    C       -8.24073         5.27725         2.47491
| 24>    C       -9.43308         5.90657         2.85139
| 25>    C       -9.38832         6.96429         3.78944
| 26>    C       -8.20700         7.41276         4.36953
| 27>    S      -10.97168         7.60676         4.10491
| 28>    C      -11.66329         6.45920         2.98989
| 29>    C      -10.75695         5.63684         2.40947
| 30>   Br      -13.51606         6.45355         2.69615
| 31>    C       -5.70118         5.23996         2.80212
| 32>    O       -5.36783         4.39295         1.99258
| 33>    C       -4.82829         6.05786         3.66212
| 34>    C       -3.45290         6.09781         3.60504
| 35>    C       -2.56543         5.14694         3.07665
| 36>    C       -2.69195         3.75395         2.93349
| 37>    C       -1.51164         3.17748         2.34138
| 38>    C       -1.18170         1.83828         2.14814
| 39>    C        0.03434         1.50558         1.56713
| 40>    C        0.96028         2.49439         1.19805
| 41>    C        0.68213         3.81785         1.44876
| 42>    C       -0.53658         4.14863         2.02867
| 43>    S       -1.02027         5.74367         2.49984
| 44>    C        0.34102         0.14363         1.34197
| 45>    N        0.58137        -0.96103         1.15176
| 46>    C       -3.81787         3.08259         3.45591
| 47>    C       -4.46545         1.94381         3.03040
| 48>    C       -5.61311         1.40402         3.65713
| 49>    C       -6.18945         0.36633         2.98078
| 50>    C       -5.52226         0.03251         1.78913
| 51>    S       -4.15654         1.08194         1.53848
| 52>    C       -5.82915        -0.99375         0.89545
| 53>    C       -6.92231        -1.86951         0.92945
| 54>    C       -6.92377        -2.78483        -0.09515
| 55>    C       -5.83044        -2.67066        -0.96296
| 56>    S       -4.79867        -1.35294        -0.46594
| 57>    C       -5.55311        -3.48190        -2.06507
| 58>    C       -4.43194        -3.37954        -2.84936
| 59>    C       -4.14803        -4.21035        -3.93522
| 60>    C       -2.99965        -4.18559        -4.73540
| 61>    C       -2.98697        -5.13976        -5.72484
| 62>    C       -4.13262        -5.94559        -5.73977
| 63>    S       -5.22913        -5.47364        -4.47044
| 64>    C       -4.43462        -6.99692        -6.60867
| 65>    C       -3.64878        -7.50034        -7.65659
| 66>    C       -4.23069        -8.54658        -8.32421
| 67>    C       -5.49913        -8.90354        -7.83244
| 68>    S       -5.93220        -7.88061        -6.48479
| 69>    C       -6.31445        -9.92438        -8.29916
| 70>    C       -7.57350       -10.19310        -7.78596
| 71>    C       -8.44086       -11.21004        -8.13805
| 72>    C       -8.25063       -12.42472        -8.87634
| 73>    C       -7.07707       -13.12999        -9.03167
| 74>    C       -6.97516       -14.33789        -9.74712
| 75>    N       -6.82622       -15.31282       -10.33661
| 76>    C       -5.86009       -12.80104        -8.40469
| 77>    N       -4.85305       -12.61545        -7.88350
| 78>    C       -9.57554       -12.91659        -9.25914
| 79>    C      -10.55598       -12.12781        -8.60730
| 80>    C       -9.88072       -11.06445        -7.83304
| 81>    O      -10.39616       -10.22320        -7.12744
| 82>    C      -11.90143       -12.36560        -8.73708
| 83>    C      -12.30061       -13.42669        -9.55828
| 84>    C      -11.31519       -14.19935       -10.21444
| 85>    C       -9.95141       -13.96341       -10.07653
| 86>    S      -12.02723       -15.45172       -11.18641
| 87>    C      -13.61824       -14.92885       -10.70041
| 88>    C      -13.61852       -13.87079        -9.85607
| 89>   Br      -15.12856       -15.82848       -11.35595
| 90>    H       -8.23502         4.47028         1.75889
| 91>    H       -8.22378         8.22585         5.07583
| 92>    H      -11.01030         4.87302         1.69709
| 93>    H       -2.97346         7.00162         3.96427
| 94>    H       -1.85005         1.05170         2.45588
| 95>    H        1.89425         2.20457         0.74156
| 96>    H        1.39506         4.59170         1.21208
| 97>    H       -4.30507         3.59230         4.28177
| 98>    H       -5.98133         1.80003         4.58719
| 99>    H       -7.06400        -0.16127         3.31604
|100>    H       -7.68087        -1.81469         1.68890
|101>    H       -7.68040        -3.53665        -0.23302
|102>    H       -6.27804        -4.25385        -2.29150
|103>    H       -3.69822        -2.61816        -2.61552
|104>    H       -2.20724        -3.47786        -4.56793
|105>    H       -2.18380        -5.26795        -6.42728
|106>    H       -2.68306        -7.09433        -7.89738
|107>    H       -3.77838        -9.07006        -9.14720
|108>    H       -5.93101       -10.50326        -9.12661
|109>    H       -7.98599        -9.47799        -7.07947
|110>    H      -12.62552       -11.75380        -8.22232
|111>    H       -9.23852       -14.57829       -10.60027
|112>    H      -14.50942       -13.42002        -9.45839
|113> *
|114>
|115>                          ****END OF INPUT****

CARTESIAN COORDINATES (ANGSTROEM)
---------------------------------
  C     -5.656900    6.983450    4.404960
  C     -5.236840    7.833680    5.397270
  C     -6.091950    8.699320    6.108870
  N     -6.739610    9.429120    6.714020
  C     -3.912010    7.923370    5.872550
  N     -2.864350    8.029450    6.331260
  C     -7.040540    6.776980    3.990880
  C     -7.074670    5.720740    3.047760
  C     -8.240730    5.277250    2.474910
  C     -9.433080    5.906570    2.851390
  C     -9.388320    6.964290    3.789440
  C     -8.207000    7.412760    4.369530
  S    -10.971680    7.606760    4.104910
  C    -11.663290    6.459200    2.989890
  C    -10.756950    5.636840    2.409470
  Br   -13.516060    6.453550    2.696150
  C     -5.701180    5.239960    2.802120
  O     -5.367830    4.392950    1.992580
  C     -4.828290    6.057860    3.662120
  C     -3.452900    6.097810    3.605040
  C     -2.565430    5.146940    3.076650
  C     -2.691950    3.753950    2.933490
  C     -1.511640    3.177480    2.341380
  C     -1.181700    1.838280    2.148140
  C      0.034340    1.505580    1.567130
  C      0.960280    2.494390    1.198050
  C      0.682130    3.817850    1.448760
  C     -0.536580    4.148630    2.028670
  S     -1.020270    5.743670    2.499840
  C      0.341020    0.143630    1.341970
  N      0.581370   -0.961030    1.151760
  C     -3.817870    3.082590    3.455910
  C     -4.465450    1.943810    3.030400
  C     -5.613110    1.404020    3.657130
  C     -6.189450    0.366330    2.980780
  C     -5.522260    0.032510    1.789130
  S     -4.156540    1.081940    1.538480
  C     -5.829150   -0.993750    0.895450
  C     -6.922310   -1.869510    0.929450
  C     -6.923770   -2.784830   -0.095150
  C     -5.830440   -2.670660   -0.962960
  S     -4.798670   -1.352940   -0.465940
  C     -5.553110   -3.481900   -2.065070
  C     -4.431940   -3.379540   -2.849360
  C     -4.148030   -4.210350   -3.935220
  C     -2.999650   -4.185590   -4.735400
  C     -2.986970   -5.139760   -5.724840
  C     -4.132620   -5.945590   -5.739770
  S     -5.229130   -5.473640   -4.470440
  C     -4.434620   -6.996920   -6.608670
  C     -3.648780   -7.500340   -7.656590
  C     -4.230690   -8.546580   -8.324210
  C     -5.499130   -8.903540   -7.832440
  S     -5.932200   -7.880610   -6.484790
  C     -6.314450   -9.924380   -8.299160
  C     -7.573500  -10.193100   -7.785960
  C     -8.440860  -11.210040   -8.138050
  C     -8.250630  -12.424720   -8.876340
  C     -7.077070  -13.129990   -9.031670
  C     -6.975160  -14.337890   -9.747120
  N     -6.826220  -15.312820  -10.336610
  C     -5.860090  -12.801040   -8.404690
  N     -4.853050  -12.615450   -7.883500
  C     -9.575540  -12.916590   -9.259140
  C    -10.555980  -12.127810   -8.607300
  C     -9.880720  -11.064450   -7.833040
  O    -10.396160  -10.223200   -7.127440
  C    -11.901430  -12.365600   -8.737080
  C    -12.300610  -13.426690   -9.558280
  C    -11.315190  -14.199350  -10.214440
  C     -9.951410  -13.963410  -10.076530
  S    -12.027230  -15.451720  -11.186410
  C    -13.618240  -14.928850  -10.700410
  C    -13.618520  -13.870790   -9.856070
  Br   -15.128560  -15.828480  -11.355950
  H     -8.235020    4.470280    1.758890
  H     -8.223780    8.225850    5.075830
  H    -11.010300    4.873020    1.697090
  H     -2.973460    7.001620    3.964270
  H     -1.850050    1.051700    2.455880
  H      1.894250    2.204570    0.741560
  H      1.395060    4.591700    1.212080
  H     -4.305070    3.592300    4.281770
  H     -5.981330    1.800030    4.587190
  H     -7.064000   -0.161270    3.316040
  H     -7.680870   -1.814690    1.688900
  H     -7.680400   -3.536650   -0.233020
  H     -6.278040   -4.253850   -2.291500
  H     -3.698220   -2.618160   -2.615520
  H     -2.207240   -3.477860   -4.567930
  H     -2.183800   -5.267950   -6.427280
  H     -2.683060   -7.094330   -7.897380
  H     -3.778380   -9.070060   -9.147200
  H     -5.931010  -10.503260   -9.126610
  H     -7.985990   -9.477990   -7.079470
  H    -12.625520  -11.753800   -8.222320
  H     -9.238520  -14.578290  -10.600270
  H    -14.509420  -13.420020   -9.458390

 Total Charge           Charge          ....    0
 Multiplicity           Mult            ....    1
 Number of Electrons    NEL             ....  610
 Basis Dimension        Dim             .... 1229

ORBITAL ENERGIES
----------------

  NO   OCC          E(Eh)            E(eV)
   0   2.0000    -482.892333    -13140.1684
   1   2.0000    -482.875004    -13139.6969
   2   2.0000     -88.982882     -2421.3473
   3   2.0000     -88.976552     -2421.1751
   4   2.0000     -88.970805     -2421.0187
   5   2.0000     -88.969927     -2420.9948
   6   2.0000     -88.966642     -2420.9054
   7   2.0000     -88.962421     -2420.7905
   8   2.0000     -88.959872     -2420.7212
   9   2.0000     -62.570031     -1702.6171
  10   2.0000     -62.552702     -1702.1456
  11   2.0000     -56.403990     -1534.8306
  12   2.0000     -56.401259     -1534.7563
  13   2.0000     -56.401231     -1534.7555
  14   2.0000     -56.386640     -1534.3585
  15   2.0000     -56.383951     -1534.2853
  16   2.0000     -56.383913     -1534.2843
  17   2.0000     -19.224966      -523.1379
  18   2.0000     -19.193526      -522.2824
  19   2.0000     -14.423262      -392.4769
  20   2.0000     -14.423155      -392.4740
  21   2.0000     -14.411030      -392.1441
  22   2.0000     -14.396251      -391.7419
  23   2.0000     -14.393899      -391.6779
  24   2.0000     -10.373190      -282.2689
  25   2.0000     -10.366246      -282.0799
  26   2.0000     -10.351512      -281.6789
  27   2.0000     -10.349394      -281.6213
  28   2.0000     -10.345622      -281.5187
  29   2.0000     -10.344140      -281.4784
  30   2.0000     -10.336265      -281.2641
  31   2.0000     -10.335261      -281.2368
  32   2.0000     -10.334340      -281.2117
  33   2.0000     -10.334149      -281.2065
  34   2.0000     -10.333629      -281.1923
  35   2.0000     -10.333483      -281.1884
  36   2.0000     -10.332734      -281.1680
  37   2.0000     -10.331834      -281.1435
  38   2.0000     -10.331246      -281.1275
  39   2.0000     -10.326416      -280.9961
  40   2.0000     -10.325853      -280.9807
  41   2.0000     -10.325716      -280.9770
  42   2.0000     -10.324078      -280.9324
  43   2.0000     -10.323927      -280.9283
  44   2.0000     -10.323590      -280.9192
  45   2.0000     -10.321921      -280.8738
  46   2.0000     -10.320594      -280.8377
  47   2.0000     -10.319662      -280.8123
  48   2.0000     -10.315684      -280.7040
  49   2.0000     -10.315320      -280.6941
  50   2.0000     -10.314745      -280.6785
  51   2.0000     -10.313594      -280.6472
  52   2.0000     -10.312293      -280.6118
  53   2.0000     -10.311922      -280.6017
  54   2.0000     -10.311786      -280.5980
  55   2.0000     -10.310521      -280.5635
  56   2.0000     -10.310450      -280.5616
  57   2.0000     -10.309596      -280.5384
  58   2.0000     -10.309527      -280.5365
  59   2.0000     -10.308820      -280.5173
  60   2.0000     -10.308666      -280.5131
  61   2.0000     -10.308185      -280.5000
  62   2.0000     -10.306912      -280.4653
  63   2.0000     -10.306594      -280.4567
  64   2.0000     -10.304060      -280.3877
  65   2.0000     -10.303973      -280.3854
  66   2.0000     -10.303245      -280.3655
  67   2.0000     -10.301655      -280.3223
  68   2.0000     -10.301090      -280.3069
  69   2.0000     -10.300735      -280.2973
  70   2.0000     -10.300709      -280.2965
  71   2.0000     -10.300283      -280.2849
  72   2.0000     -10.297680      -280.2141
  73   2.0000     -10.293839      -280.1096
  74   2.0000     -10.291799      -280.0541
  75   2.0000     -10.291245      -280.0390
  76   2.0000     -10.289242      -279.9845
  77   2.0000     -10.288672      -279.9690
  78   2.0000     -10.285194      -279.8744
  79   2.0000     -10.284167      -279.8464
  80   2.0000     -10.278624      -279.6956
  81   2.0000     -10.274937      -279.5952
  82   2.0000     -10.271643      -279.5056
  83   2.0000      -8.799446      -239.4451
  84   2.0000      -8.782110      -238.9734
  85   2.0000      -8.078846      -219.8366
  86   2.0000      -8.072651      -219.6680
  87   2.0000      -8.066890      -219.5112
  88   2.0000      -8.066299      -219.4952
  89   2.0000      -8.063018      -219.4059
  90   2.0000      -8.058331      -219.2783
  91   2.0000      -8.056134      -219.2185
  92   2.0000      -6.635777      -180.5687
  93   2.0000      -6.621171      -180.1712
  94   2.0000      -6.620954      -180.1653
  95   2.0000      -6.618349      -180.0944
  96   2.0000      -6.603867      -179.7004
  97   2.0000      -6.603694      -179.6956
  98   2.0000      -6.048546      -164.5893
  99   2.0000      -6.044241      -164.4722
 100   2.0000      -6.042145      -164.4151
 101   2.0000      -6.040085      -164.3591
 102   2.0000      -6.038173      -164.3070
 103   2.0000      -6.036542      -164.2627
 104   2.0000      -6.035846      -164.2437
 105   2.0000      -6.034029      -164.1943
 106   2.0000      -6.032538      -164.1537
 107   2.0000      -6.032424      -164.1506
 108   2.0000      -6.031844      -164.1348
 109   2.0000      -6.028527      -164.0446
 110   2.0000      -6.028040      -164.0313
 111   2.0000      -6.027988      -164.0299
 112   2.0000      -6.027524      -164.0173
 113   2.0000      -6.025671      -163.9668
 114   2.0000      -6.024305      -163.9297
 115   2.0000      -6.023758      -163.9148
 116   2.0000      -6.021645      -163.8573
 117   2.0000      -6.019578      -163.8011
 118   2.0000      -6.017419      -163.7423
 119   2.0000      -2.751628       -74.8756
 120   2.0000      -2.747549       -74.7646
 121   2.0000      -2.747396       -74.7604
 122   2.0000      -2.735777       -74.4443
 123   2.0000      -2.735767       -74.4440
 124   2.0000      -2.734218       -74.4019
 125   2.0000      -2.730150       -74.2912
 126   2.0000      -2.730068       -74.2889
 127   2.0000      -2.718527       -73.9749
 128   2.0000      -2.718515       -73.9745
 129   2.0000      -1.138356       -30.9763
 130   2.0000      -1.107793       -30.1446
 131   2.0000      -1.031232       -28.0612
 132   2.0000      -1.026566       -27.9343
 133   2.0000      -1.021002       -27.7829
 134   2.0000      -1.019220       -27.7344
 135   2.0000      -1.012916       -27.5629
 136   2.0000      -1.006486       -27.3879
 137   2.0000      -1.001680       -27.2571
 138   2.0000      -0.999368       -27.1942
 139   2.0000      -0.998397       -27.1678
 140   2.0000      -0.996290       -27.1104
 141   2.0000      -0.995121       -27.0786
 142   2.0000      -0.989352       -26.9216
 143   2.0000      -0.974201       -26.5094
 144   2.0000      -0.971055       -26.4237
 145   2.0000      -0.965674       -26.2773
 146   2.0000      -0.949342       -25.8329
 147   2.0000      -0.929719       -25.2989
 148   2.0000      -0.926860       -25.2212
 149   2.0000      -0.917637       -24.9702
 150   2.0000      -0.916193       -24.9309
 151   2.0000      -0.909812       -24.7572
 152   2.0000      -0.903059       -24.5735
 153   2.0000      -0.893567       -24.3152
 154   2.0000      -0.892051       -24.2739
 155   2.0000      -0.888040       -24.1648
 156   2.0000      -0.879340       -23.9281
 157   2.0000      -0.874289       -23.7906
 158   2.0000      -0.870036       -23.6749
 159   2.0000      -0.867447       -23.6044
 160   2.0000      -0.860899       -23.4263
 161   2.0000      -0.859646       -23.3921
 162   2.0000      -0.848985       -23.1021
 163   2.0000      -0.845020       -22.9942
 164   2.0000      -0.839090       -22.8328
 165   2.0000      -0.836496       -22.7622
 166   2.0000      -0.836260       -22.7558
 167   2.0000      -0.825443       -22.4615
 168   2.0000      -0.814053       -22.1515
 169   2.0000      -0.805551       -21.9202
 170   2.0000      -0.791665       -21.5423
 171   2.0000      -0.780129       -21.2284
 172   2.0000      -0.768289       -20.9062
 173   2.0000      -0.763132       -20.7659
 174   2.0000      -0.746287       -20.3075
 175   2.0000      -0.741489       -20.1770
 176   2.0000      -0.737802       -20.0766
 177   2.0000      -0.725554       -19.7433
 178   2.0000      -0.719797       -19.5867
 179   2.0000      -0.708834       -19.2884
 180   2.0000      -0.703133       -19.1332
 181   2.0000      -0.698679       -19.0120
 182   2.0000      -0.695219       -18.9179
 183   2.0000      -0.689196       -18.7540
 184   2.0000      -0.684192       -18.6178
 185   2.0000      -0.673178       -18.3181
 186   2.0000      -0.671480       -18.2719
 187   2.0000      -0.667081       -18.1522
 188   2.0000      -0.662218       -18.0199
 189   2.0000      -0.657772       -17.8989
 190   2.0000      -0.649054       -17.6617
 191   2.0000      -0.644880       -17.5481
 192   2.0000      -0.642116       -17.4729
 193   2.0000      -0.637742       -17.3538
 194   2.0000      -0.633124       -17.2282
 195   2.0000      -0.631642       -17.1878
 196   2.0000      -0.624178       -16.9847
 197   2.0000      -0.622003       -16.9256
 198   2.0000      -0.616977       -16.7888
 199   2.0000      -0.614201       -16.7133
 200   2.0000      -0.610665       -16.6170
 201   2.0000      -0.606261       -16.4972
 202   2.0000      -0.605245       -16.4695
 203   2.0000      -0.597762       -16.2659
 204   2.0000      -0.584673       -15.9098
 205   2.0000      -0.582471       -15.8499
 206   2.0000      -0.579032       -15.7563
 207   2.0000      -0.574531       -15.6338
 208   2.0000      -0.569082       -15.4855
 209   2.0000      -0.565211       -15.3802
 210   2.0000      -0.556354       -15.1391
 211   2.0000      -0.552610       -15.0373
 212   2.0000      -0.550908       -14.9910
 213   2.0000      -0.548338       -14.9210
 214   2.0000      -0.546836       -14.8802
 215   2.0000      -0.541012       -14.7217
 216   2.0000      -0.535920       -14.5831
 217   2.0000      -0.533697       -14.5226
 218   2.0000      -0.533243       -14.5103
 219   2.0000      -0.528625       -14.3846
 220   2.0000      -0.526189       -14.3183
 221   2.0000      -0.524146       -14.2627
 222   2.0000      -0.522918       -14.2293
 223   2.0000      -0.520638       -14.1673
 224   2.0000      -0.518885       -14.1196
 225   2.0000      -0.517040       -14.0694
 226   2.0000      -0.516676       -14.0595
 227   2.0000      -0.515204       -14.0194
 228   2.0000      -0.512685       -13.9509
 229   2.0000      -0.512242       -13.9388
 230   2.0000      -0.508826       -13.8459
 231   2.0000      -0.508503       -13.8371
 232   2.0000      -0.503664       -13.7054
 233   2.0000      -0.501199       -13.6383
 234   2.0000      -0.500120       -13.6090
 235   2.0000      -0.492786       -13.4094
 236   2.0000      -0.490477       -13.3466
 237   2.0000      -0.488746       -13.2995
 238   2.0000      -0.487349       -13.2614
 239   2.0000      -0.484975       -13.1969
 240   2.0000      -0.482873       -13.1396
 241   2.0000      -0.479738       -13.0543
 242   2.0000      -0.478882       -13.0310
 243   2.0000      -0.478312       -13.0155
 244   2.0000      -0.477414       -12.9911
 245   2.0000      -0.474185       -12.9032
 246   2.0000      -0.472848       -12.8669
 247   2.0000      -0.467955       -12.7337
 248   2.0000      -0.467094       -12.7103
 249   2.0000      -0.465589       -12.6693
 250   2.0000      -0.457744       -12.4558
 251   2.0000      -0.456056       -12.4099
 252   2.0000      -0.455027       -12.3819
 253   2.0000      -0.454371       -12.3641
 254   2.0000      -0.451891       -12.2966
 255   2.0000      -0.451108       -12.2753
 256   2.0000      -0.447253       -12.1704
 257   2.0000      -0.446641       -12.1537
 258   2.0000      -0.444459       -12.0943
 259   2.0000      -0.443316       -12.0632
 260   2.0000      -0.438450       -11.9308
 261   2.0000      -0.438185       -11.9236
 262   2.0000      -0.435962       -11.8631
 263   2.0000      -0.433835       -11.8052
 264   2.0000      -0.431778       -11.7493
 265   2.0000      -0.430867       -11.7245
 266   2.0000      -0.429756       -11.6943
 267   2.0000      -0.427757       -11.6399
 268   2.0000      -0.426156       -11.5963
 269   2.0000      -0.424017       -11.5381
 270   2.0000      -0.421948       -11.4818
 271   2.0000      -0.418098       -11.3770
 272   2.0000      -0.416219       -11.3259
 273   2.0000      -0.414610       -11.2821
 274   2.0000      -0.413288       -11.2461
 275   2.0000      -0.411857       -11.2072
 276   2.0000      -0.406028       -11.0486
 277   2.0000      -0.402655       -10.9568
 278   2.0000      -0.398815       -10.8523
 279   2.0000      -0.393150       -10.6982
 280   2.0000      -0.391255       -10.6466
 281   2.0000      -0.385277       -10.4839
 282   2.0000      -0.381712       -10.3869
 283   2.0000      -0.381186       -10.3726
 284   2.0000      -0.374913       -10.2019
 285   2.0000      -0.368640       -10.0312
 286   2.0000      -0.364645        -9.9225
 287   2.0000      -0.358926        -9.7669
 288   2.0000      -0.355471        -9.6728
 289   2.0000      -0.354207        -9.6385
 290   2.0000      -0.350532        -9.5385
 291   2.0000      -0.347204        -9.4479
 292   2.0000      -0.344317        -9.3693
 293   2.0000      -0.336316        -9.1516
 294   2.0000      -0.330871        -9.0035
 295   2.0000      -0.322865        -8.7856
 296   2.0000      -0.318609        -8.6698
 297   2.0000      -0.314089        -8.5468
 298   2.0000      -0.307367        -8.3639
 299   2.0000      -0.300639        -8.1808
 300   2.0000      -0.300104        -8.1663
 301   2.0000      -0.290856        -7.9146
 302   2.0000      -0.279014        -7.5924
 303   2.0000      -0.253894        -6.9088
 304   2.0000      -0.206849        -5.6286
 305   0.0000      -0.134932        -3.6717
 306   0.0000      -0.103418        -2.8141
 307   0.0000      -0.076967        -2.0944
 308   0.0000      -0.065881        -1.7927
 309   0.0000      -0.048742        -1.3263

MULLIKEN ATOMIC CHARGES
-----------------------
   0 C :    0.295441
   1 C :   -0.335659
   2 C :   -0.185022
   3 N :    0.153930
   4 C :   -0.210930
   5 N :    0.166620
   6 C :    0.019338
   7 C :   -0.009150
   8 C :   -0.079154
   9 C :    0.118838
  10 C :   -0.090302
  11 C :   -0.025679
  12 S :    0.189049
  13 C :   -0.122939
  14 C :    0.036030
  15 Br:    0.026599
  16 C :    0.127928
  17 O :   -0.149361
  18 C :   -0.115441
  19 C :    0.017368
  20 C :   -0.130398
  21 C :    0.179838
  22 C :    0.087133
  23 C :   -0.038816
  24 C :   -0.103154
  25 C :    0.047273
  26 C :    0.012472
  27 C :   -0.059211
  28 S :    0.159699
  29 C :   -0.144282
  30 N :    0.102420
  31 C :   -0.070293
  32 C :   -0.010777
  33 C :    0.026521
  34 C :    0.034137
  35 C :   -0.050591
  36 S :    0.115404
  37 C :   -0.042282
  38 C :    0.022345
  39 C :    0.028385
  40 C :   -0.021222
  41 S :    0.106000
  42 C :   -0.009374
  43 C :    0.010871
  44 C :   -0.036630
  45 C :    0.038665
  46 C :    0.013969
  47 C :   -0.026665
  48 S :    0.106779
  49 C :   -0.055966
  50 C :    0.035124
  51 C :    0.035444
  52 C :   -0.018664
  53 S :    0.111048
  54 C :    0.002615
  55 C :    0.014558
  56 C :   -0.127515
  57 C :    0.289369
  58 C :   -0.355239
  59 C :   -0.178174
  60 N :    0.132899
  61 C :   -0.219611
  62 N :    0.156233
  63 C :    0.008667
  64 C :   -0.006204
  65 C :    0.134247
  66 O :   -0.159645
  67 C :   -0.075825
  68 C :    0.112492
  69 C :   -0.089688
  70 C :   -0.026573
  71 S :    0.176312
  72 C :   -0.125479
  73 C :    0.039132
  74 Br:    0.011494
  75 H :   -0.010836
  76 H :   -0.004852
  77 H :   -0.003210
  78 H :    0.033275
  79 H :    0.007084
  80 H :    0.005098
  81 H :   -0.006458
  82 H :    0.012803
  83 H :   -0.003401
  84 H :   -0.007001
  85 H :   -0.005185
  86 H :   -0.000708
  87 H :    0.003654
  88 H :    0.005548
  89 H :   -0.000548
  90 H :   -0.005208
  91 H :   -0.006369
  92 H :    0.001230
  93 H :    0.007637
  94 H :    0.012438
  95 H :   -0.015782
  96 H :   -0.008225
  97 H :   -0.007753
Sum of atomic charges:   -0.0000000

LOEWDIN ATOMIC CHARGES
----------------------
   0 C :    0.071751
   1 C :   -0.137541
   2 C :   -0.018698
   3 N :   -0.049507
   4 C :   -0.027089
   5 N :   -0.047187
   6 C :   -0.023259
   7 C :   -0.049314
   8 C :    0.017130
   9 C :   -0.032553
  10 C :   -0.145482
  11 C :   -0.009152
  12 S :    0.435135
  13 C :   -0.270776
  14 C :   -0.071843
  15 Br:    0.139028
  16 C :    0.069843
  17 O :   -0.137153
  18 C :   -0.095023
  19 C :    0.035933
  20 C :   -0.157537
  21 C :   -0.014510
  22 C :   -0.046021
  23 C :    0.019132
  24 C :   -0.073195
  25 C :    0.018451
  26 C :   -0.031679
  27 C :   -0.131776
  28 S :    0.433681
  29 C :   -0.029869
  30 N :   -0.056657
  31 C :   -0.027945
  32 C :   -0.135941
  33 C :   -0.022940
  34 C :   -0.029067
  35 C :   -0.169899
  36 S :    0.424809
  37 C :   -0.175697
  38 C :   -0.027042
  39 C :   -0.032732
  40 C :   -0.135918
  41 S :    0.403032
  42 C :   -0.058663
  43 C :   -0.033249
  44 C :   -0.154909
  45 C :   -0.019637
  46 C :   -0.040138
  47 C :   -0.152858
  48 S :    0.406359
  49 C :   -0.190345
  50 C :   -0.012948
  51 C :   -0.037271
  52 C :   -0.106012
  53 S :    0.410300
  54 C :   -0.063057
  55 C :    0.043711
  56 C :   -0.108320
  57 C :    0.066433
  58 C :   -0.157588
  59 C :   -0.020235
  60 N :   -0.069034
  61 C :   -0.024269
  62 N :   -0.065781
  63 C :   -0.014657
  64 C :   -0.050702
  65 C :    0.076850
  66 O :   -0.160580
  67 C :    0.016918
  68 C :   -0.038112
  69 C :   -0.145483
  70 C :   -0.017341
  71 S :    0.425709
  72 C :   -0.276293
  73 C :   -0.070880
  74 Br:    0.127734
  75 H :    0.040170
  76 H :    0.041338
  77 H :    0.038663
  78 H :    0.045680
  79 H :    0.027163
  80 H :    0.042954
  81 H :    0.037838
  82 H :    0.040912
  83 H :    0.036558
  84 H :    0.035126
  85 H :    0.034788
  86 H :    0.038197
  87 H :    0.032019
  88 H :    0.033542
  89 H :    0.038503
  90 H :    0.034941
  91 H :    0.035084
  92 H :    0.039754
  93 H :    0.038149
  94 H :    0.032984
  95 H :    0.038602
  96 H :    0.039491
  97 H :    0.036965

  Mayer bond orders larger than 0.100000
B(  0-C ,  1-C ) :   1.6340 B(  0-C ,  6-C ) :   1.0050 B(  0-C , 18-C ) :   1.0711
B(  1-C ,  2-C ) :   1.1429 B(  1-C ,  4-C ) :   1.1418 B(  2-C ,  3-N ) :   2.9708
B(  4-C ,  5-N ) :   2.9961 B(  6-C ,  7-C ) :   1.2697 B(  6-C , 11-C ) :   1.4126
B(  7-C ,  8-C ) :   1.4273 B(  7-C , 16-C ) :   0.9336 B(  8-C ,  9-C ) :   1.2396
B(  8-C , 75-H ) :   1.0181 B(  9-C , 10-C ) :   1.3094 B(  9-C , 14-C ) :   1.1643
B( 10-C , 11-C ) :   1.3235 B( 10-C , 12-S ) :   1.0858 B( 11-C , 76-H ) :   0.9825
B( 12-S , 13-C ) :   1.0890 B( 13-C , 14-C ) :   1.6145 B( 13-C , 15-Br) :   1.0204
B( 14-C , 77-H ) :   1.0008 B( 16-C , 17-O ) :   2.1797 B( 16-C , 18-C ) :   0.9794
B( 18-C , 19-C ) :   1.5416 B( 19-C , 20-C ) :   1.2414 B( 19-C , 78-H ) :   0.9253
B( 20-C , 21-C ) :   1.4022 B( 20-C , 28-S ) :   1.0669 B( 21-C , 22-C ) :   1.1170
B( 21-C , 31-C ) :   1.1835 B( 22-C , 23-C ) :   1.2924 B( 22-C , 27-C ) :   1.3129
B( 23-C , 24-C ) :   1.4398 B( 23-C , 79-H ) :   0.9755 B( 24-C , 25-C ) :   1.3192
B( 24-C , 29-C ) :   1.0588 B( 25-C , 26-C ) :   1.4369 B( 25-C , 80-H ) :   0.9926
B( 26-C , 27-C ) :   1.3281 B( 26-C , 81-H ) :   0.9941 B( 27-C , 28-S ) :   1.0827
B( 29-C , 30-N ) :   3.0520 B( 31-C , 32-C ) :   1.5517 B( 31-C , 82-H ) :   0.9377
B( 32-C , 33-C ) :   1.1665 B( 32-C , 36-S ) :   1.0448 B( 33-C , 34-C ) :   1.5503
B( 33-C , 83-H ) :   1.0012 B( 34-C , 35-C ) :   1.2221 B( 34-C , 84-H ) :   0.9950
B( 35-C , 36-S ) :   1.0738 B( 35-C , 37-C ) :   1.4169 B( 37-C , 38-C ) :   1.2520
B( 37-C , 41-S ) :   1.0664 B( 38-C , 39-C ) :   1.5021 B( 38-C , 85-H ) :   0.9955
B( 39-C , 40-C ) :   1.2247 B( 39-C , 86-H ) :   1.0016 B( 40-C , 41-S ) :   1.0695
B( 40-C , 42-C ) :   1.4339 B( 42-C , 43-C ) :   1.2954 B( 42-C , 87-H ) :   0.9728
B( 43-C , 44-C ) :   1.4366 B( 43-C , 88-H ) :   0.9729 B( 44-C , 45-C ) :   1.2333
B( 44-C , 48-S ) :   1.0552 B( 45-C , 46-C ) :   1.4893 B( 45-C , 89-H ) :   1.0010
B( 46-C , 47-C ) :   1.2664 B( 46-C , 90-H ) :   0.9956 B( 47-C , 48-S ) :   1.0884
B( 47-C , 49-C ) :   1.3837 B( 49-C , 50-C ) :   1.2647 B( 49-C , 53-S ) :   1.0604
B( 50-C , 51-C ) :   1.4985 B( 50-C , 91-H ) :   0.9945 B( 51-C , 52-C ) :   1.2152
B( 51-C , 92-H ) :   1.0015 B( 52-C , 53-S ) :   1.0866 B( 52-C , 54-C ) :   1.4563
B( 54-C , 55-C ) :   1.2551 B( 54-C , 93-H ) :   0.9640 B( 55-C , 56-C ) :   1.4922
B( 55-C , 94-H ) :   0.9393 B( 56-C , 57-C ) :   1.1043 B( 56-C , 65-C ) :   0.9708
B( 57-C , 58-C ) :   1.5840 B( 57-C , 63-C ) :   1.0013 B( 58-C , 59-C ) :   1.1362
B( 58-C , 61-C ) :   1.1699 B( 59-C , 60-N ) :   2.9719 B( 61-C , 62-N ) :   3.0092
B( 63-C , 64-C ) :   1.2754 B( 63-C , 70-C ) :   1.4261 B( 64-C , 65-C ) :   0.9185
B( 64-C , 67-C ) :   1.4381 B( 65-C , 66-O ) :   2.2405 B( 67-C , 68-C ) :   1.2425
B( 67-C , 95-H ) :   1.0156 B( 68-C , 69-C ) :   1.3190 B( 68-C , 73-C ) :   1.1610
B( 69-C , 70-C ) :   1.3170 B( 69-C , 71-S ) :   1.0809 B( 70-C , 96-H ) :   0.9815
B( 71-S , 72-C ) :   1.0858 B( 72-C , 73-C ) :   1.6202 B( 72-C , 74-Br) :   1.0113
B( 73-C , 97-H ) :   1.0003

-----------------------------------------------------------------------------
         ABSORPTION SPECTRUM VIA TRANSITION ELECTRIC DIPOLE MOMENTS
-----------------------------------------------------------------------------
State   Energy  Wavelength   fosc         T2         TX        TY        TZ
        (cm-1)    (nm)                  (au**2)     (au)      (au)      (au)
-----------------------------------------------------------------------------
   0    4556.1   2194.8   0.949232536  68.58854   1.08985   6.51956   4.98961
   1   11046.8    905.2   0.089633742   2.67123   0.76065   0.80100   1.20459
   2   13751.7    727.2   0.024882683   0.59569   0.67826  -0.27254   0.24772
   3   16757.9    596.7   0.042506705   0.83505  -0.80839  -0.42305   0.05079
   4   18325.4    545.7   0.042250272   0.75902   0.60248   0.30876  -0.54837
   5   21090.5    474.1   0.034318835   0.53570  -0.05045   0.68539   0.25179
   6   21149.3    472.8   0.169875898   2.64431  -0.01544   1.50818  -0.60782
   7   21765.7    459.4   0.069576658   1.05237  -0.30251   0.81335   0.54710
   8   22519.4    444.1   0.042466736   0.62082   0.46761   0.62509   0.10688
   9   22991.0    435.0   0.091271784   1.30693  -0.99205   0.21893   0.52425
  10   24133.7    414.4   0.067898984   0.92622   0.89436  -0.14533   0.32436
  11   25351.8    394.4   0.495497878   6.43440  -2.44958  -0.15470   0.64034
  12   25434.4    393.2   0.006785081   0.08782  -0.15019  -0.18998  -0.17080
  13   26228.4    381.3   0.017226382   0.21622   0.01612   0.40209   0.23299
  14   26344.1    379.6   0.022115888   0.27637  -0.14482  -0.50075  -0.06822
  15   26476.5    377.7   0.036067643   0.44847  -0.27529   0.60986  -0.02751
  16   26684.3    374.8   0.088341833   1.08990   0.66687  -0.09269  -0.79786
  17   27338.9    365.8   0.155908951   1.87744  -1.28403  -0.47554   0.05068
  18   27710.3    360.9   0.008211677   0.09756   0.22448   0.16777  -0.13792
  19   28146.6    355.3   0.012238995   0.14315   0.25343   0.03832  -0.27831
  20   28187.6    354.8   0.040671954   0.47502  -0.23992   0.55619   0.32880
  21   28454.8    351.4   0.078570190   0.90903   0.79584  -0.36683  -0.37563
  22   28724.3    348.1   0.092429066   1.05934  -0.09667  -0.98600  -0.27892
  23   29126.7    343.3   0.179719654   2.03133  -1.42029  -0.03282   0.11416
  24   29813.8    335.4   0.000133724   0.00148  -0.01997  -0.03273  -0.00254
  25   30015.0    333.2   0.296004611   3.24666  -1.41753  -0.64685  -0.90491
  26   30406.8    328.9   0.156050401   1.68955   1.26170  -0.28308  -0.13235
  27   30873.3    323.9   0.219749170   2.34326   1.46511   0.34915   0.27348
  28   31378.8    318.7   0.031961633   0.33533  -0.36511   0.25319   0.37137
  29   31536.1    317.1   0.403366313   4.21082  -2.03957   0.18927  -0.12302
  30   31884.8    313.6   0.024972343   0.25784  -0.06702   0.37964   0.33049
  31   32062.5    311.9   0.328224232   3.37015  -1.67199  -0.64091  -0.40475
  32   32500.7    307.7   0.035554299   0.36014  -0.58782  -0.04958   0.11024
  33   32570.5    307.0   0.169543185   1.71369   1.27839   0.05501   0.27639
  34   32832.7    304.6   0.019560996   0.19614   0.36212  -0.21504  -0.13698
  35   32960.9    303.4   0.026337141   0.26305   0.36517   0.30736   0.18771
  36   33199.8    301.2   0.044356906   0.43985  -0.23798   0.53872   0.30494
  37   33632.4    297.3   0.011322993   0.11084  -0.32502  -0.03359   0.06378
  38   33970.1    294.4   0.139133513   1.34837   1.07308   0.44300  -0.02521
  39   34360.2    291.0   0.057598634   0.55186   0.30945   0.39069   0.55087
  40   34421.1    290.5   0.162017245   1.54957  -1.04025  -0.43177  -0.53011
  41   34660.4    288.5   0.172959324   1.64281  -1.26488   0.02058   0.20603
  42   34810.4    287.3   0.048886318   0.46233  -0.60232  -0.22743  -0.21868
  43   35016.5    285.6   0.178907431   1.68202  -1.24702  -0.07687  -0.34794
  44   35393.3    282.5   0.069866081   0.64986   0.35429  -0.51947  -0.50447
  45   35593.3    281.0   0.009459454   0.08749  -0.05150  -0.06884   0.28302
  46   35955.4    278.1   0.003156175   0.02890   0.16116   0.03569  -0.04065
  47   35992.3    277.8   0.004895379   0.04478  -0.20801  -0.01797  -0.03444
  48   36156.7    276.6   0.004374155   0.03983   0.07528  -0.17888   0.04651
  49   36500.3    274.0   0.022532564   0.20323   0.43526  -0.11076   0.03889
  50   36965.7    270.5   0.085496199   0.76142  -0.86989  -0.06369  -0.02538
  51   37127.9    269.3   0.029795703   0.26420   0.23725  -0.38097  -0.25054
  52   37403.2    267.4   0.049320331   0.43410   0.62962  -0.16984  -0.09397
  53   37465.9    266.9   0.028069283   0.24664   0.34555  -0.11687  -0.33702
  54   37977.7    263.3   0.009515238   0.08248   0.20533  -0.18716  -0.07276
  55   38436.5    260.2   0.177121280   1.51706  -0.98986   0.65619   0.32658
  56   38703.9    258.4   0.060875339   0.51780   0.22643   0.50335   0.46170
  57   38775.0    257.9   0.043025441   0.36530   0.53565  -0.16511  -0.22610
  58   39254.3    254.7   0.026134575   0.21918  -0.26221   0.25649   0.29094
  59   39681.8    252.0   0.003813147   0.03163   0.06156  -0.09282  -0.13867
  60   39738.0    251.6   0.030491338   0.25261  -0.31179   0.29094   0.26599
  61   40066.4    249.6   0.010047621   0.08256   0.15597   0.07680  -0.22876
  62   40241.6    248.5   0.002193812   0.01795  -0.04285  -0.09690  -0.08198

FINAL SINGLE POINT ENERGY    -10617.168784513080

DIPOLE MOMENT
-------------
                                X             Y             Z
Electronic contribution:   -163.47206     -35.24510     -42.09686
Nuclear contribution   :    162.71506      39.36240      42.96883
                        -----------------------------------------
Total Dipole Moment    :     -0.75699       4.11730       0.87196
                        -----------------------------------------
Magnitude (a.u.)       :      4.27615
Magnitude (Debye)      :     10.86912

Rotational constants in cm-1:     0.000853     0.000130     0.000114
Rotational constants in MHz :    25.580520     3.896074     3.425003

                             ****ORCA TERMINATED NORMALLY****
TOTAL RUN TIME: 0 days 0 hours 12 minutes 43 seconds 588 msec
