                         Program Version 4.2.0 -  RELEASE  -
|  1> # ORCA input file
|  2> # SCF done       -185.884164265202          0.000911898606
|  3> ! CAM-B3LYP def2-SVP def2/J RIJCOSX Grid4 TightSCF
|  4> %maxcore 5000
|  5> %tddft
|  6>     Mode sTDDFT
|  7>     Ethresh 5.0
|  8>     maxcore 5000
|  9> end
| 10>
| 11> %pal
| 12>   nprocs 6
| 13>   end
| 14> * xyz 0 1
| 15>    C      -14.18053         5.25366        -1.73475
| 16>    C      -14.94773         4.11451        -1.82156
| 17>    C      -16.26086         4.08390        -2.33133
| 18>    N      -17.33313         3.99066        -2.73296
| 19>    C      -14.55352         2.82354        -1.41824
| 20>    N      -14.31395         1.74039        -1.11721
| 21>    C      -14.60617         6.58670        -2.15836
| 22>    C      -13.55845         7.50219        -1.89522
| 23>    C      -13.65056         8.83993        -2.18898
| 24>    C      -14.83556         9.29960        -2.77438
| 25>    C      -15.87626         8.37849        -3.03486
| 26>    C      -15.78281         7.02412        -2.73544
| 27>    S      -17.24882         9.15493        -3.76591
| 28>    C      -16.41603        10.68581        -3.71076
| 29>    C      -15.17486        10.62152        -3.17387
| 30>   Br      -17.26277        12.22444        -4.37070
| 31>    C      -12.41953         6.77855        -1.29207
| 32>    O      -11.36276         7.26785        -0.94190
| 33>    C      -12.83930         5.36545        -1.22014
| 34>    C      -12.04655         4.33647        -0.75434
| 35>    C      -10.74631         4.48079        -0.27956
| 36>    C       -9.97516         3.41240         0.13327
| 37>    C       -8.63971         3.46428         0.59565
| 38>    C       -8.10629         2.24749         0.90215
| 39>    C       -8.99884         1.17222         0.70202
| 40>    S      -10.54295         1.75834         0.12013
| 41>    C       -8.76196        -0.17664         0.89105
| 42>    C       -7.55969        -0.80494         1.29118
| 43>    C       -7.63133        -2.16216         1.34785
| 44>    C       -8.90195        -2.68790         0.99974
| 45>    S      -10.00800        -1.36703         0.60927
| 46>    C       -9.25964        -4.00348         0.93991
| 47>    N      -10.50307        -4.41052         0.58406
| 48>    C      -10.98435        -5.67762         0.46339
| 49>    S      -12.43027        -5.88666        -0.48479
| 50>    C      -12.32205        -7.60053        -0.25064
| 51>    N      -13.31637        -8.40698        -0.81182
| 52>    O      -13.22556        -9.61061        -0.64844
| 53>    O      -14.20282        -7.83733        -1.42595
| 54>    C      -11.24381        -7.97360         0.50666
| 55>    C      -10.46515        -6.88567         0.94293
| 56>    C       -9.33708        -7.03958         1.83730
| 57>    C       -8.55901        -8.13503         1.86268
| 58>    C       -7.48022        -8.31591         2.79165
| 59>    C       -6.62957        -9.35363         2.81872
| 60>    C       -6.62724       -10.49377         1.85121
| 61>    C       -5.56311        -9.45362         3.87826
| 62>    N       -5.92079        -8.78504         5.10503
| 63>    C       -5.00733        -8.42780         6.01452
| 64>    C       -5.30228        -8.09720         7.30652
| 65>    C       -4.38047        -7.71422         8.29026
| 66>    C       -3.01017        -7.80863         8.36832
| 67>    C       -1.99394        -8.55117         7.67288
| 68>    C       -2.12387        -9.73352         6.97603
| 69>    C       -1.04953       -10.43201         6.39080
| 70>    N       -0.23050       -11.03981         5.86173
| 71>    C       -3.32489       -10.43169         6.78507
| 72>    N       -4.27813       -11.03906         6.56991
| 73>    C       -0.69833        -7.96897         8.03299
| 74>    C       -0.89410        -7.03677         9.08000
| 75>    C       -2.33856        -6.95000         9.37527
| 76>    O       -2.87440        -6.28639        10.23673
| 77>    C        0.14028        -6.34914         9.66395
| 78>    C        1.43288        -6.58167         9.18033
| 79>    C        1.61680        -7.49910         8.12038
| 80>    C        0.56917        -8.20291         7.53699
| 81>    S        3.28973        -7.62306         7.66528
| 82>    C        3.71335        -6.45911         8.89259
| 83>    C        2.65870        -6.00010         9.60660
| 84>   Br        5.50848        -5.96021         9.11429
| 85>    H      -12.83396         9.51177        -1.97558
| 86>    H      -16.60475         6.36409        -2.95609
| 87>    H      -14.52354        11.46933        -3.06404
| 88>    H      -12.45102         3.33164        -0.76486
| 89>    H      -10.30766         5.46743        -0.24289
| 90>    H       -8.11565         4.39953         0.68002
| 91>    H       -7.10443         2.09926         1.26315
| 92>    H       -6.67555        -0.23684         1.51600
| 93>    H       -6.81529        -2.80549         1.62419
| 94>    H       -8.53080        -4.76982         1.14959
| 95>    H      -11.12999        -3.67303         0.27707
| 96>    H      -11.05681        -8.99946         0.76613
| 97>    H       -9.15588        -6.23702         2.54014
| 98>    H       -8.74032        -8.92148         1.14628
| 99>    H       -7.36402        -7.53358         3.53213
|100>    H       -7.10108       -10.23495         0.91028
|101>    H       -7.15518       -11.34654         2.27966
|102>    H       -5.60515       -10.80850         1.64919
|103>    H       -4.63173        -9.01270         3.50338
|104>    H       -5.35630       -10.51409         4.08844
|105>    H       -6.84699        -8.99780         5.45315
|106>    H       -4.00090        -8.31042         5.63573
|107>    H       -6.34411        -8.09863         7.59944
|108>    H       -4.80793        -7.20442         9.14994
|109>    H       -0.03984        -5.65399        10.46882
|110>    H        0.76306        -8.88769         6.72837
|111>    H        2.73910        -5.28105        10.40126
|112> *
|113>
|114>                          ****END OF INPUT****

CARTESIAN COORDINATES (ANGSTROEM)
---------------------------------
  C    -14.180530    5.253660   -1.734750
  C    -14.947730    4.114510   -1.821560
  C    -16.260860    4.083900   -2.331330
  N    -17.333130    3.990660   -2.732960
  C    -14.553520    2.823540   -1.418240
  N    -14.313950    1.740390   -1.117210
  C    -14.606170    6.586700   -2.158360
  C    -13.558450    7.502190   -1.895220
  C    -13.650560    8.839930   -2.188980
  C    -14.835560    9.299600   -2.774380
  C    -15.876260    8.378490   -3.034860
  C    -15.782810    7.024120   -2.735440
  S    -17.248820    9.154930   -3.765910
  C    -16.416030   10.685810   -3.710760
  C    -15.174860   10.621520   -3.173870
  Br   -17.262770   12.224440   -4.370700
  C    -12.419530    6.778550   -1.292070
  O    -11.362760    7.267850   -0.941900
  C    -12.839300    5.365450   -1.220140
  C    -12.046550    4.336470   -0.754340
  C    -10.746310    4.480790   -0.279560
  C     -9.975160    3.412400    0.133270
  C     -8.639710    3.464280    0.595650
  C     -8.106290    2.247490    0.902150
  C     -8.998840    1.172220    0.702020
  S    -10.542950    1.758340    0.120130
  C     -8.761960   -0.176640    0.891050
  C     -7.559690   -0.804940    1.291180
  C     -7.631330   -2.162160    1.347850
  C     -8.901950   -2.687900    0.999740
  S    -10.008000   -1.367030    0.609270
  C     -9.259640   -4.003480    0.939910
  N    -10.503070   -4.410520    0.584060
  C    -10.984350   -5.677620    0.463390
  S    -12.430270   -5.886660   -0.484790
  C    -12.322050   -7.600530   -0.250640
  N    -13.316370   -8.406980   -0.811820
  O    -13.225560   -9.610610   -0.648440
  O    -14.202820   -7.837330   -1.425950
  C    -11.243810   -7.973600    0.506660
  C    -10.465150   -6.885670    0.942930
  C     -9.337080   -7.039580    1.837300
  C     -8.559010   -8.135030    1.862680
  C     -7.480220   -8.315910    2.791650
  C     -6.629570   -9.353630    2.818720
  C     -6.627240  -10.493770    1.851210
  C     -5.563110   -9.453620    3.878260
  N     -5.920790   -8.785040    5.105030
  C     -5.007330   -8.427800    6.014520
  C     -5.302280   -8.097200    7.306520
  C     -4.380470   -7.714220    8.290260
  C     -3.010170   -7.808630    8.368320
  C     -1.993940   -8.551170    7.672880
  C     -2.123870   -9.733520    6.976030
  C     -1.049530  -10.432010    6.390800
  N     -0.230500  -11.039810    5.861730
  C     -3.324890  -10.431690    6.785070
  N     -4.278130  -11.039060    6.569910
  C     -0.698330   -7.968970    8.032990
  C     -0.894100   -7.036770    9.080000
  C     -2.338560   -6.950000    9.375270
  O     -2.874400   -6.286390   10.236730
  C      0.140280   -6.349140    9.663950
  C      1.432880   -6.581670    9.180330
  C      1.616800   -7.499100    8.120380
  C      0.569170   -8.202910    7.536990
  S      3.289730   -7.623060    7.665280
  C      3.713350   -6.459110    8.892590
  C      2.658700   -6.000100    9.606600
  Br     5.508480   -5.960210    9.114290
  H    -12.833960    9.511770   -1.975580
  H    -16.604750    6.364090   -2.956090
  H    -14.523540   11.469330   -3.064040
  H    -12.451020    3.331640   -0.764860
  H    -10.307660    5.467430   -0.242890
  H     -8.115650    4.399530    0.680020
  H     -7.104430    2.099260    1.263150
  H     -6.675550   -0.236840    1.516000
  H     -6.815290   -2.805490    1.624190
  H     -8.530800   -4.769820    1.149590
  H    -11.129990   -3.673030    0.277070
  H    -11.056810   -8.999460    0.766130
  H     -9.155880   -6.237020    2.540140
  H     -8.740320   -8.921480    1.146280
  H     -7.364020   -7.533580    3.532130
  H     -7.101080  -10.234950    0.910280
  H     -7.155180  -11.346540    2.279660
  H     -5.605150  -10.808500    1.649190
  H     -4.631730   -9.012700    3.503380
  H     -5.356300  -10.514090    4.088440
  H     -6.846990   -8.997800    5.453150
  H     -4.000900   -8.310420    5.635730
  H     -6.344110   -8.098630    7.599440
  H     -4.807930   -7.204420    9.149940
  H     -0.039840   -5.653990   10.468820
  H      0.763060   -8.887690    6.728370
  H      2.739100   -5.281050   10.401260

 Total Charge           Charge          ....    0
 Multiplicity           Mult            ....    1
 Number of Electrons    NEL             ....  570
 Basis Dimension        Dim             .... 1171

ORBITAL ENERGIES
----------------

  NO   OCC          E(Eh)            E(eV)
   0   2.0000    -482.884424    -13139.9532
   1   2.0000    -482.877794    -13139.7728
   2   2.0000     -88.995568     -2421.6925
   3   2.0000     -88.975300     -2421.1410
   4   2.0000     -88.973420     -2421.0898
   5   2.0000     -88.965456     -2420.8731
   6   2.0000     -88.961188     -2420.7570
   7   2.0000     -62.562128     -1702.4021
   8   2.0000     -62.555497     -1702.2216
   9   2.0000     -56.396076     -1534.6153
  10   2.0000     -56.393367     -1534.5415
  11   2.0000     -56.393333     -1534.5406
  12   2.0000     -56.389437     -1534.4346
  13   2.0000     -56.386741     -1534.3612
  14   2.0000     -56.386706     -1534.3603
  15   2.0000     -19.243663      -523.6467
  16   2.0000     -19.242738      -523.6215
  17   2.0000     -19.205713      -522.6140
  18   2.0000     -19.201196      -522.4911
  19   2.0000     -14.655172      -398.7875
  20   2.0000     -14.510550      -394.8521
  21   2.0000     -14.474152      -393.8617
  22   2.0000     -14.420775      -392.4092
  23   2.0000     -14.411515      -392.1572
  24   2.0000     -14.402659      -391.9163
  25   2.0000     -14.399358      -391.8264
  26   2.0000     -10.383935      -282.5612
  27   2.0000     -10.364911      -282.0436
  28   2.0000     -10.357526      -281.8426
  29   2.0000     -10.356653      -281.8189
  30   2.0000     -10.356570      -281.8166
  31   2.0000     -10.352090      -281.6947
  32   2.0000     -10.351424      -281.6766
  33   2.0000     -10.349245      -281.6173
  34   2.0000     -10.344418      -281.4859
  35   2.0000     -10.340501      -281.3793
  36   2.0000     -10.336465      -281.2695
  37   2.0000     -10.334803      -281.2243
  38   2.0000     -10.332158      -281.1523
  39   2.0000     -10.328487      -281.0524
  40   2.0000     -10.325198      -280.9629
  41   2.0000     -10.324462      -280.9429
  42   2.0000     -10.323796      -280.9248
  43   2.0000     -10.323211      -280.9089
  44   2.0000     -10.322371      -280.8860
  45   2.0000     -10.318964      -280.7933
  46   2.0000     -10.318445      -280.7792
  47   2.0000     -10.316298      -280.7207
  48   2.0000     -10.314324      -280.6670
  49   2.0000     -10.313929      -280.6563
  50   2.0000     -10.313205      -280.6366
  51   2.0000     -10.308838      -280.5177
  52   2.0000     -10.308428      -280.5066
  53   2.0000     -10.308345      -280.5043
  54   2.0000     -10.306680      -280.4590
  55   2.0000     -10.305513      -280.4273
  56   2.0000     -10.304253      -280.3930
  57   2.0000     -10.304023      -280.3867
  58   2.0000     -10.303716      -280.3784
  59   2.0000     -10.302465      -280.3443
  60   2.0000     -10.300576      -280.2929
  61   2.0000     -10.298960      -280.2489
  62   2.0000     -10.297398      -280.2065
  63   2.0000     -10.295950      -280.1670
  64   2.0000     -10.294821      -280.1363
  65   2.0000     -10.294810      -280.1360
  66   2.0000     -10.294196      -280.1193
  67   2.0000     -10.292686      -280.0782
  68   2.0000     -10.291190      -280.0375
  69   2.0000     -10.289309      -279.9863
  70   2.0000     -10.288763      -279.9715
  71   2.0000     -10.287507      -279.9373
  72   2.0000     -10.287236      -279.9299
  73   2.0000     -10.282174      -279.7922
  74   2.0000     -10.281060      -279.7619
  75   2.0000     -10.278670      -279.6968
  76   2.0000     -10.277432      -279.6632
  77   2.0000     -10.273985      -279.5694
  78   2.0000      -8.791544      -239.2301
  79   2.0000      -8.784913      -239.0496
  80   2.0000      -8.091449      -220.1795
  81   2.0000      -8.071785      -219.6444
  82   2.0000      -8.069436      -219.5805
  83   2.0000      -8.061500      -219.3646
  84   2.0000      -8.057187      -219.2472
  85   2.0000      -6.627826      -180.3523
  86   2.0000      -6.621164      -180.1710
  87   2.0000      -6.613287      -179.9567
  88   2.0000      -6.613092      -179.9514
  89   2.0000      -6.606673      -179.7767
  90   2.0000      -6.606480      -179.7715
  91   2.0000      -6.061177      -164.9330
  92   2.0000      -6.056753      -164.8126
  93   2.0000      -6.052715      -164.7027
  94   2.0000      -6.041577      -164.3997
  95   2.0000      -6.039108      -164.3325
  96   2.0000      -6.037546      -164.2900
  97   2.0000      -6.034871      -164.2172
  98   2.0000      -6.032542      -164.1538
  99   2.0000      -6.031180      -164.1167
 100   2.0000      -6.030656      -164.1025
 101   2.0000      -6.026933      -164.0012
 102   2.0000      -6.026788      -163.9972
 103   2.0000      -6.022816      -163.8892
 104   2.0000      -6.022702      -163.8861
 105   2.0000      -6.018312      -163.7666
 106   2.0000      -2.743698       -74.6598
 107   2.0000      -2.739601       -74.5483
 108   2.0000      -2.739499       -74.5456
 109   2.0000      -2.737043       -74.4787
 110   2.0000      -2.732961       -74.3677
 111   2.0000      -2.732860       -74.3649
 112   2.0000      -2.727921       -74.2305
 113   2.0000      -2.727903       -74.2300
 114   2.0000      -2.721320       -74.0509
 115   2.0000      -2.721299       -74.0503
 116   2.0000      -1.323958       -36.0267
 117   2.0000      -1.143245       -31.1093
 118   2.0000      -1.120793       -30.4983
 119   2.0000      -1.114628       -30.3306
 120   2.0000      -1.113771       -30.3072
 121   2.0000      -1.075156       -29.2565
 122   2.0000      -1.022426       -27.8216
 123   2.0000      -1.020678       -27.7741
 124   2.0000      -1.013418       -27.5765
 125   2.0000      -1.013127       -27.5686
 126   2.0000      -1.010364       -27.4934
 127   2.0000      -1.000414       -27.2226
 128   2.0000      -0.995376       -27.0856
 129   2.0000      -0.992021       -26.9943
 130   2.0000      -0.985314       -26.8118
 131   2.0000      -0.980357       -26.6769
 132   2.0000      -0.975499       -26.5447
 133   2.0000      -0.948447       -25.8086
 134   2.0000      -0.939791       -25.5730
 135   2.0000      -0.931866       -25.3574
 136   2.0000      -0.925541       -25.1852
 137   2.0000      -0.918983       -25.0068
 138   2.0000      -0.907529       -24.6951
 139   2.0000      -0.905804       -24.6482
 140   2.0000      -0.903038       -24.5729
 141   2.0000      -0.896003       -24.3815
 142   2.0000      -0.884495       -24.0683
 143   2.0000      -0.883042       -24.0288
 144   2.0000      -0.875840       -23.8328
 145   2.0000      -0.873997       -23.7827
 146   2.0000      -0.868666       -23.6376
 147   2.0000      -0.866566       -23.5805
 148   2.0000      -0.859916       -23.3995
 149   2.0000      -0.842167       -22.9165
 150   2.0000      -0.836850       -22.7718
 151   2.0000      -0.833229       -22.6733
 152   2.0000      -0.825965       -22.4757
 153   2.0000      -0.817770       -22.2527
 154   2.0000      -0.808785       -22.0082
 155   2.0000      -0.801172       -21.8010
 156   2.0000      -0.795529       -21.6474
 157   2.0000      -0.782008       -21.2795
 158   2.0000      -0.769369       -20.9356
 159   2.0000      -0.765991       -20.8437
 160   2.0000      -0.751655       -20.4536
 161   2.0000      -0.746287       -20.3075
 162   2.0000      -0.737669       -20.0730
 163   2.0000      -0.729277       -19.8446
 164   2.0000      -0.717911       -19.5354
 165   2.0000      -0.706953       -19.2372
 166   2.0000      -0.699683       -19.0393
 167   2.0000      -0.693160       -18.8618
 168   2.0000      -0.684577       -18.6283
 169   2.0000      -0.683322       -18.5941
 170   2.0000      -0.680290       -18.5116
 171   2.0000      -0.676604       -18.4113
 172   2.0000      -0.666076       -18.1249
 173   2.0000      -0.660793       -17.9811
 174   2.0000      -0.656927       -17.8759
 175   2.0000      -0.653458       -17.7815
 176   2.0000      -0.646515       -17.5926
 177   2.0000      -0.645422       -17.5628
 178   2.0000      -0.639014       -17.3885
 179   2.0000      -0.636304       -17.3147
 180   2.0000      -0.633374       -17.2350
 181   2.0000      -0.629063       -17.1177
 182   2.0000      -0.625226       -17.0133
 183   2.0000      -0.622340       -16.9347
 184   2.0000      -0.619234       -16.8502
 185   2.0000      -0.611189       -16.6313
 186   2.0000      -0.610839       -16.6218
 187   2.0000      -0.602632       -16.3984
 188   2.0000      -0.596627       -16.2350
 189   2.0000      -0.593049       -16.1377
 190   2.0000      -0.588311       -16.0088
 191   2.0000      -0.587126       -15.9765
 192   2.0000      -0.582478       -15.8500
 193   2.0000      -0.580288       -15.7904
 194   2.0000      -0.572719       -15.5845
 195   2.0000      -0.570316       -15.5191
 196   2.0000      -0.566933       -15.4270
 197   2.0000      -0.557558       -15.1719
 198   2.0000      -0.551236       -14.9999
 199   2.0000      -0.548140       -14.9156
 200   2.0000      -0.546093       -14.8600
 201   2.0000      -0.540140       -14.6980
 202   2.0000      -0.536563       -14.6006
 203   2.0000      -0.533294       -14.5117
 204   2.0000      -0.532849       -14.4996
 205   2.0000      -0.530875       -14.4458
 206   2.0000      -0.529181       -14.3997
 207   2.0000      -0.526343       -14.3225
 208   2.0000      -0.523835       -14.2543
 209   2.0000      -0.521137       -14.1809
 210   2.0000      -0.519200       -14.1281
 211   2.0000      -0.516762       -14.0618
 212   2.0000      -0.514265       -13.9939
 213   2.0000      -0.513479       -13.9725
 214   2.0000      -0.510134       -13.8815
 215   2.0000      -0.507202       -13.8017
 216   2.0000      -0.505514       -13.7557
 217   2.0000      -0.500510       -13.6196
 218   2.0000      -0.497703       -13.5432
 219   2.0000      -0.497003       -13.5241
 220   2.0000      -0.496752       -13.5173
 221   2.0000      -0.493886       -13.4393
 222   2.0000      -0.490769       -13.3545
 223   2.0000      -0.487569       -13.2674
 224   2.0000      -0.484943       -13.1960
 225   2.0000      -0.481974       -13.1152
 226   2.0000      -0.480952       -13.0874
 227   2.0000      -0.479870       -13.0579
 228   2.0000      -0.479279       -13.0419
 229   2.0000      -0.478892       -13.0313
 230   2.0000      -0.475569       -12.9409
 231   2.0000      -0.468530       -12.7493
 232   2.0000      -0.465548       -12.6682
 233   2.0000      -0.462647       -12.5893
 234   2.0000      -0.460112       -12.5203
 235   2.0000      -0.459239       -12.4965
 236   2.0000      -0.456464       -12.4210
 237   2.0000      -0.455476       -12.3941
 238   2.0000      -0.453707       -12.3460
 239   2.0000      -0.448593       -12.2068
 240   2.0000      -0.446322       -12.1450
 241   2.0000      -0.443638       -12.0720
 242   2.0000      -0.441709       -12.0195
 243   2.0000      -0.439203       -11.9513
 244   2.0000      -0.437470       -11.9042
 245   2.0000      -0.436670       -11.8824
 246   2.0000      -0.436481       -11.8773
 247   2.0000      -0.430565       -11.7163
 248   2.0000      -0.428008       -11.6467
 249   2.0000      -0.427834       -11.6419
 250   2.0000      -0.427587       -11.6352
 251   2.0000      -0.420569       -11.4443
 252   2.0000      -0.418114       -11.3774
 253   2.0000      -0.417197       -11.3525
 254   2.0000      -0.413424       -11.2498
 255   2.0000      -0.410237       -11.1631
 256   2.0000      -0.409261       -11.1366
 257   2.0000      -0.406991       -11.0748
 258   2.0000      -0.398147       -10.8341
 259   2.0000      -0.394175       -10.7260
 260   2.0000      -0.390971       -10.6389
 261   2.0000      -0.386705       -10.5228
 262   2.0000      -0.383933       -10.4474
 263   2.0000      -0.379180       -10.3180
 264   2.0000      -0.376742       -10.2517
 265   2.0000      -0.373929       -10.1751
 266   2.0000      -0.372083       -10.1249
 267   2.0000      -0.371370       -10.1055
 268   2.0000      -0.367330        -9.9956
 269   2.0000      -0.366774        -9.9804
 270   2.0000      -0.362217        -9.8564
 271   2.0000      -0.350913        -9.5488
 272   2.0000      -0.349733        -9.5167
 273   2.0000      -0.340756        -9.2725
 274   2.0000      -0.329063        -8.9543
 275   2.0000      -0.328221        -8.9313
 276   2.0000      -0.321409        -8.7460
 277   2.0000      -0.312607        -8.5065
 278   2.0000      -0.304982        -8.2990
 279   2.0000      -0.304042        -8.2734
 280   2.0000      -0.293056        -7.9745
 281   2.0000      -0.284774        -7.7491
 282   2.0000      -0.279741        -7.6121
 283   2.0000      -0.272104        -7.4043
 284   2.0000      -0.229433        -6.2432
 285   0.0000      -0.107365        -2.9215
 286   0.0000      -0.080141        -2.1808
 287   0.0000      -0.065315        -1.7773
 288   0.0000      -0.053951        -1.4681
 289   0.0000      -0.048955        -1.3321

MULLIKEN ATOMIC CHARGES
-----------------------
   0 C :    0.330113
   1 C :   -0.369280
   2 C :   -0.189372
   3 N :    0.139285
   4 C :   -0.184311
   5 N :    0.125815
   6 C :    0.012538
   7 C :   -0.005369
   8 C :   -0.078952
   9 C :    0.118581
  10 C :   -0.091918
  11 C :   -0.026456
  12 S :    0.180394
  13 C :   -0.123112
  14 C :    0.035971
  15 Br:    0.015109
  16 C :    0.135140
  17 O :   -0.165896
  18 C :   -0.085288
  19 C :   -0.044210
  20 C :   -0.029756
  21 C :    0.010119
  22 C :    0.022495
  23 C :    0.046222
  24 C :   -0.057367
  25 S :    0.103003
  26 C :   -0.032867
  27 C :    0.022632
  28 C :    0.053199
  29 C :   -0.062652
  30 S :    0.080144
  31 C :    0.046590
  32 N :   -0.016684
  33 C :   -0.116841
  34 S :    0.184810
  35 C :   -0.008381
  36 N :    0.279230
  37 O :   -0.250354
  38 O :   -0.260925
  39 C :   -0.003450
  40 C :    0.098476
  41 C :   -0.051919
  42 C :    0.012765
  43 C :    0.002616
  44 C :   -0.235814
  45 C :    0.085041
  46 C :    0.213807
  47 N :   -0.128524
  48 C :    0.077032
  49 C :   -0.027203
  50 C :    0.041212
  51 C :   -0.148433
  52 C :    0.294502
  53 C :   -0.382169
  54 C :   -0.177050
  55 N :    0.142867
  56 C :   -0.187256
  57 N :    0.133043
  58 C :   -0.006173
  59 C :    0.011116
  60 C :    0.124712
  61 O :   -0.158164
  62 C :   -0.076438
  63 C :    0.114756
  64 C :   -0.091208
  65 C :   -0.027095
  66 S :    0.179408
  67 C :   -0.124362
  68 C :    0.037269
  69 Br:    0.019008
  70 H :   -0.015746
  71 H :   -0.009763
  72 H :   -0.006405
  73 H :    0.013441
  74 H :    0.016567
  75 H :   -0.000747
  76 H :   -0.006904
  77 H :   -0.006528
  78 H :   -0.003246
  79 H :    0.028661
  80 H :    0.151152
  81 H :    0.012497
  82 H :    0.004803
  83 H :   -0.005030
  84 H :   -0.024352
  85 H :    0.026323
  86 H :    0.045659
  87 H :    0.029129
  88 H :    0.040990
  89 H :    0.041606
  90 H :    0.136190
  91 H :    0.038442
  92 H :   -0.012556
  93 H :    0.024716
  94 H :   -0.011849
  95 H :   -0.007000
  96 H :   -0.003817
Sum of atomic charges:   -0.0000000

LOEWDIN ATOMIC CHARGES
----------------------
   0 C :    0.073693
   1 C :   -0.157225
   2 C :   -0.019243
   3 N :   -0.067959
   4 C :   -0.019237
   5 N :   -0.070850
   6 C :   -0.018341
   7 C :   -0.048799
   8 C :    0.017162
   9 C :   -0.035784
  10 C :   -0.145739
  11 C :   -0.013386
  12 S :    0.427841
  13 C :   -0.274542
  14 C :   -0.071251
  15 Br:    0.130254
  16 C :    0.082046
  17 O :   -0.158722
  18 C :   -0.108912
  19 C :    0.049492
  20 C :   -0.076180
  21 C :   -0.102381
  22 C :   -0.043714
  23 C :   -0.007746
  24 C :   -0.200426
  25 S :    0.405544
  26 C :   -0.143046
  27 C :   -0.047317
  28 C :   -0.009445
  29 C :   -0.199037
  30 S :    0.370698
  31 C :    0.025153
  32 N :    0.049357
  33 C :   -0.106257
  34 S :    0.461509
  35 C :   -0.208256
  36 N :    0.274056
  37 O :   -0.216661
  38 O :   -0.226458
  39 C :    0.003216
  40 C :   -0.101240
  41 C :   -0.038368
  42 C :   -0.016716
  43 C :   -0.059609
  44 C :   -0.030710
  45 C :   -0.045661
  46 C :    0.045835
  47 N :    0.039017
  48 C :    0.109417
  49 C :   -0.129924
  50 C :    0.078841
  51 C :   -0.137569
  52 C :    0.072114
  53 C :   -0.175497
  54 C :   -0.023714
  55 N :   -0.068392
  56 C :   -0.006442
  57 N :   -0.072648
  58 C :   -0.019737
  59 C :   -0.050920
  60 C :    0.080971
  61 O :   -0.157043
  62 C :    0.019704
  63 C :   -0.035736
  64 C :   -0.146048
  65 C :   -0.016029
  66 S :    0.427691
  67 C :   -0.273822
  68 C :   -0.070541
  69 Br:    0.132834
  70 H :    0.038741
  71 H :    0.040077
  72 H :    0.037492
  73 H :    0.031083
  74 H :    0.038509
  75 H :    0.038696
  76 H :    0.034611
  77 H :    0.035431
  78 H :    0.037204
  79 H :    0.042368
  80 H :    0.088597
  81 H :    0.045206
  82 H :    0.027736
  83 H :    0.027303
  84 H :    0.021932
  85 H :    0.032308
  86 H :    0.045752
  87 H :    0.037900
  88 H :    0.042290
  89 H :    0.032072
  90 H :    0.089838
  91 H :    0.037229
  92 H :    0.030029
  93 H :    0.046426
  94 H :    0.040274
  95 H :    0.039374
  96 H :    0.038356

  Mayer bond orders larger than 0.100000
B(  0-C ,  1-C ) :   1.5829 B(  0-C ,  6-C ) :   0.9890 B(  0-C , 18-C ) :   1.1119
B(  1-C ,  2-C ) :   1.1497 B(  1-C ,  4-C ) :   1.1548 B(  2-C ,  3-N ) :   2.9626
B(  4-C ,  5-N ) :   2.9532 B(  6-C ,  7-C ) :   1.2790 B(  6-C , 11-C ) :   1.4202
B(  7-C ,  8-C ) :   1.4277 B(  7-C , 16-C ) :   0.9364 B(  8-C ,  9-C ) :   1.2396
B(  8-C , 70-H ) :   1.0165 B(  9-C , 10-C ) :   1.3163 B(  9-C , 14-C ) :   1.1599
B( 10-C , 11-C ) :   1.3200 B( 10-C , 12-S ) :   1.0837 B( 11-C , 71-H ) :   0.9790
B( 12-S , 13-C ) :   1.0859 B( 13-C , 14-C ) :   1.6198 B( 13-C , 15-Br) :   1.0137
B( 14-C , 72-H ) :   1.0004 B( 16-C , 17-O ) :   2.1852 B( 16-C , 18-C ) :   0.9662
B( 18-C , 19-C ) :   1.4803 B( 19-C , 20-C ) :   1.2559 B( 19-C , 73-H ) :   0.9431
B( 20-C , 21-C ) :   1.4187 B( 20-C , 74-H ) :   0.9786 B( 21-C , 22-C ) :   1.1763
B( 21-C , 25-S ) :   1.0862 B( 22-C , 23-C ) :   1.5446 B( 22-C , 75-H ) :   1.0028
B( 23-C , 24-C ) :   1.2145 B( 23-C , 76-H ) :   0.9938 B( 24-C , 25-S ) :   1.0396
B( 24-C , 26-C ) :   1.4794 B( 26-C , 27-C ) :   1.1962 B( 26-C , 30-S ) :   1.0801
B( 27-C , 28-C ) :   1.6002 B( 27-C , 77-H ) :   0.9924 B( 28-C , 29-C ) :   1.1608
B( 28-C , 78-H ) :   0.9939 B( 29-C , 30-S ) :   1.0017 B( 29-C , 31-C ) :   1.5815
B( 31-C , 32-N ) :   1.1907 B( 31-C , 79-H ) :   0.9557 B( 32-N , 33-C ) :   1.1768
B( 32-N , 80-H ) :   0.8990 B( 33-C , 34-S ) :   1.1401 B( 33-C , 40-C ) :   1.3906
B( 34-S , 35-C ) :   1.0849 B( 35-C , 36-N ) :   0.9713 B( 35-C , 39-C ) :   1.4848
B( 36-N , 37-O ) :   1.5322 B( 36-N , 38-O ) :   1.5109 B( 37-O , 38-O ) :   0.2600
B( 39-C , 40-C ) :   1.2472 B( 39-C , 81-H ) :   1.0013 B( 40-C , 41-C ) :   1.0190
B( 41-C , 42-C ) :   1.7569 B( 41-C , 82-H ) :   0.9682 B( 42-C , 43-C ) :   1.0867
B( 42-C , 83-H ) :   0.9739 B( 43-C , 44-C ) :   1.7867 B( 43-C , 84-H ) :   0.9701
B( 44-C , 45-C ) :   1.0819 B( 44-C , 46-C ) :   1.0029 B( 45-C , 85-H ) :   0.9534
B( 45-C , 86-H ) :   0.9443 B( 45-C , 87-H ) :   0.9511 B( 46-C , 47-N ) :   0.9958
B( 46-C , 88-H ) :   0.9187 B( 46-C , 89-H ) :   0.9328 B( 47-N , 48-C ) :   1.3427
B( 47-N , 90-H ) :   0.9296 B( 48-C , 49-C ) :   1.4459 B( 48-C , 91-H ) :   0.9555
B( 49-C , 50-C ) :   1.3223 B( 49-C , 92-H ) :   0.9552 B( 50-C , 51-C ) :   1.5092
B( 50-C , 93-H ) :   0.9275 B( 51-C , 52-C ) :   1.1014 B( 51-C , 60-C ) :   0.9709
B( 52-C , 53-C ) :   1.5621 B( 52-C , 58-C ) :   1.0043 B( 53-C , 54-C ) :   1.1256
B( 53-C , 56-C ) :   1.2007 B( 54-C , 55-N ) :   2.9827 B( 56-C , 57-N ) :   2.9131
B( 58-C , 59-C ) :   1.2810 B( 58-C , 65-C ) :   1.4189 B( 59-C , 60-C ) :   0.9181
B( 59-C , 62-C ) :   1.4314 B( 60-C , 61-O ) :   2.2425 B( 62-C , 63-C ) :   1.2429
B( 62-C , 94-H ) :   1.0178 B( 63-C , 64-C ) :   1.3168 B( 63-C , 68-C ) :   1.1607
B( 64-C , 65-C ) :   1.3214 B( 64-C , 66-S ) :   1.0822 B( 65-C , 95-H ) :   0.9823
B( 66-S , 67-C ) :   1.0863 B( 67-C , 68-C ) :   1.6194 B( 67-C , 69-Br) :   1.0160
B( 68-C , 96-H ) :   1.0010

-----------------------------------------------------------------------------
         ABSORPTION SPECTRUM VIA TRANSITION ELECTRIC DIPOLE MOMENTS
-----------------------------------------------------------------------------
State   Energy  Wavelength   fosc         T2         TX        TY        TZ
        (cm-1)    (nm)                  (au**2)     (au)      (au)      (au)
-----------------------------------------------------------------------------
   0   12485.2    800.9   1.445476784  38.11460   2.34872  -5.53907   1.38449
   1   21850.5    457.7   0.280853125   4.23150  -1.23457  -1.58211  -0.45196
   2   22443.2    445.6   0.377678264   5.54004  -2.21105   0.55230  -0.58843
   3   23718.4    421.6   0.094673376   1.31407  -0.62819  -0.95819  -0.03644
   4   23938.1    417.7   0.430249213   5.91706   1.81056   1.50266   0.61721
   5   24680.8    405.2   0.000658715   0.00879  -0.04809   0.06072   0.05278
   6   25761.1    388.2   0.200457937   2.56174  -0.93105   1.13232  -0.64243
   7   27020.2    370.1   0.044877372   0.54678  -0.48622   0.39464  -0.39323
   8   27202.4    367.6   0.000015477   0.00019   0.00417   0.01158  -0.00599
   9   27341.6    365.7   0.014022003   0.16883  -0.22915  -0.34104  -0.00445
  10   28604.8    349.6   0.039703202   0.45694  -0.15217  -0.53229   0.38788
  11   28655.1    349.0   0.006428328   0.07385  -0.13188   0.07940  -0.22396
  12   29011.9    344.7   0.002344122   0.02660  -0.11181   0.09653  -0.06914
  13   30221.8    330.9   0.698144983   7.60504   2.43629   0.80962   1.00701
  14   30712.9    325.6   0.112710527   1.20814  -0.96930  -0.25648  -0.45036
  15   31430.9    318.2   0.014412329   0.15096  -0.33819  -0.13747  -0.13299
  16   31577.0    316.7   0.189096573   1.97146  -0.94374  -0.74010  -0.73011
  17   31720.9    315.2   0.073882884   0.76679   0.68974   0.33247   0.42486
  18   31770.5    314.8   0.123239679   1.27703  -0.93682   0.41614  -0.47562
  19   32004.8    312.5   0.004099501   0.04217  -0.13749   0.00750  -0.15235
  20   32009.8    312.4   0.165383544   1.70092   0.86508   0.57368   0.78958
  21   32344.2    309.2   0.149583973   1.52253   0.87741  -0.62701   0.59961
  22   32504.1    307.7   0.531640534   5.38462  -0.23227   2.26048  -0.46998
  23   32873.1    304.2   0.003358088   0.03363   0.18145  -0.00885  -0.02502
  24   33128.0    301.9   0.109861385   1.09176   0.68332   0.61718   0.49389
  25   33753.6    296.3   0.000019152   0.00019   0.01127  -0.00693  -0.00344
  26   34169.3    292.7   0.011999369   0.11561   0.24987   0.08291   0.21518
  27   35018.7    285.6   0.383665534   3.60686   1.21235   1.08025   0.98495
  28   35391.2    282.6   0.068131722   0.63377  -0.58478  -0.51346  -0.16781
  29   35718.9    280.0   0.111612769   1.02871   0.12064   1.00578  -0.05050
  30   35931.9    278.3   0.017173483   0.15735  -0.35975  -0.06975  -0.15184
  31   36334.0    275.2   0.003682598   0.03337   0.10034  -0.11443   0.10102
  32   36687.4    272.6   0.129074283   1.15824   0.71742   0.79383   0.11564
  33   37303.9    268.1   0.063063549   0.55654   0.67897  -0.15288   0.26865
  34   37978.0    263.3   0.000289087   0.00251   0.00154   0.05004   0.00016
  35   38224.8    261.6   0.006047012   0.05208   0.03492   0.22542  -0.00693
  36   38400.1    260.4   0.199848543   1.71334  -0.05376  -1.29717   0.16676
  37   38706.8    258.4   0.001337694   0.01138   0.04282   0.07779  -0.05910
  38   38932.1    256.9   0.356919849   3.01813   1.39174  -0.71317   0.75669
  39   39399.1    253.8   0.002309698   0.01930  -0.12936  -0.00662   0.05021
  40   40051.2    249.7   0.026334936   0.21647  -0.40659  -0.20796  -0.08890
  41   40222.2    248.6   0.053395852   0.43704  -0.65841   0.01648   0.05707

FINAL SINGLE POINT ENERGY     -9816.602614397314

DIPOLE MOMENT
-------------
                                X             Y             Z
Electronic contribution:     27.13576     146.41963      -9.48070
Nuclear contribution   :    -23.34381    -146.06084      10.37848
                        -----------------------------------------
Total Dipole Moment    :      3.79195       0.35879       0.89778
                        -----------------------------------------
Magnitude (a.u.)       :      3.91326
Magnitude (Debye)      :      9.94672

Rotational constants in cm-1:     0.000856     0.000140     0.000122
Rotational constants in MHz :    25.660427     4.187049     3.664326

                             ****ORCA TERMINATED NORMALLY****
TOTAL RUN TIME: 0 days 0 hours 9 minutes 57 seconds 532 msec
