                         Program Version 4.2.0 -  RELEASE  -
|  1> # ORCA input file
|  2> # SCF done       -192.000541256091          0.000449109628
|  3> ! CAM-B3LYP def2-SVP def2/J RIJCOSX Grid4 TightSCF
|  4> %maxcore 5000
|  5> %tddft
|  6>     Mode sTDDFT
|  7>     Ethresh 5.0
|  8>     maxcore 5000
|  9> end
| 10>
| 11> %pal
| 12>   nprocs 6
| 13>   end
| 14> * xyz 0 1
| 15>    C       -8.47978        -0.67596        -2.47480
| 16>    C       -9.46730        -0.80082        -3.41629
| 17>    C       -9.38598        -1.65313        -4.53755
| 18>    N       -9.37377        -2.32403        -5.46872
| 19>    C      -10.69695        -0.10872        -3.39407
| 20>    N      -11.71479         0.41957        -3.44714
| 21>    C       -7.22140        -1.40938        -2.45198
| 22>    C       -6.51415        -1.06643        -1.27237
| 23>    C       -5.28148        -1.59192        -0.96756
| 24>    C       -4.71933        -2.50106        -1.86941
| 25>    C       -5.43218        -2.83710        -3.04609
| 26>    C       -6.67835        -2.30535        -3.35404
| 27>    S       -4.55250        -3.97049        -4.02418
| 28>    C       -3.25737        -3.97994        -2.85641
| 29>    C       -3.47114        -3.17599        -1.78734
| 30>   Br       -1.74491        -5.04436        -3.16211
| 31>    C       -7.30279        -0.10314        -0.48607
| 32>    O       -6.97752         0.41574         0.56354
| 33>    C       -8.52342         0.16075        -1.28917
| 34>    C       -9.39000         1.18860        -1.05940
| 35>    C       -9.48167         1.95465         0.13109
| 36>    S       -9.75305         3.67128        -0.00976
| 37>    C       -9.67380         3.89267         1.70819
| 38>    C       -9.50028         2.66887         2.34763
| 39>    C       -9.39415         1.58616         1.46414
| 40>    C       -9.41367         0.18443         1.99566
| 41>    F      -10.72838        -0.17216         2.22117
| 42>    C       -8.60547         0.18300         3.29311
| 43>    F       -8.47407        -1.08709         3.79169
| 44>    C       -9.23097         1.10304         4.34438
| 45>    F      -10.47868         0.66583         4.70110
| 46>    C       -9.34715         2.54738         3.83605
| 47>    F       -8.19885         3.22727         4.21734
| 48>    C       -9.77627         5.16513         2.32476
| 49>    C       -9.90242         6.32037         1.62677
| 50>    C      -10.02249         7.63618         2.13852
| 51>    S      -10.45888         8.88635         1.00377
| 52>    C      -10.47709        10.10894         2.23467
| 53>    C      -10.15077         9.55049         3.46659
| 54>    C       -9.86734         8.17577         3.41004
| 55>    C       -9.42535         7.40255         4.61764
| 56>    F      -10.44848         6.59588         5.07290
| 57>    C       -8.98505         8.36996         5.72118
| 58>    F       -8.70047         7.68365         6.87100
| 59>    C      -10.02477         9.46135         5.97215
| 60>    F      -11.26957         8.94399         6.20720
| 61>    C      -10.09893        10.35506         4.72985
| 62>    F       -8.97807        11.17284         4.73186
| 63>    C      -10.78392        11.45950         1.94569
| 64>    C      -11.01991        11.91505         0.68860
| 65>    C      -11.34611        13.24424         0.34613
| 66>    S      -11.54515        14.45834         1.58086
| 67>    C      -11.88377        15.64386         0.39236
| 68>    C      -11.83530        15.17615        -0.88514
| 69>    C      -12.15503        16.05260        -2.05105
| 70>    C      -11.51900        13.78338        -0.93665
| 71>    C      -11.39536        12.96624        -2.10865
| 72>    C      -11.08850        13.37021        -3.36156
| 73>    C      -10.94141        12.50965        -4.49557
| 74>    C      -11.08977        11.16599        -4.51872
| 75>    C      -10.90020        10.38829        -5.70348
| 76>    C      -11.02058         9.05225        -5.78626
| 77>    C      -11.39603         8.17969        -4.62570
| 78>    C      -10.77559         8.30707        -7.07956
| 79>    N      -10.17792         9.05680        -8.15017
| 80>    C      -10.92977         9.90128        -8.93474
| 81>    C      -10.44986        10.92594        -9.63151
| 82>    H       -4.76876        -1.31188        -0.06082
| 83>    H       -7.17929        -2.58868        -4.26453
| 84>    H       -2.77758        -3.06174        -0.97447
| 85>    H      -10.02189         1.52587        -1.87224
| 86>    H       -9.02347        -0.56159         1.30108
| 87>    H       -7.59299         0.53690         3.05637
| 88>    H       -8.62426         1.08827         5.25965
| 89>    H      -10.17754         3.03419         4.36655
| 90>    H       -9.76911         5.15871         3.40072
| 91>    H       -9.95053         6.25194         0.54565
| 92>    H       -8.59401         6.72413         4.37934
| 93>    H       -8.05226         8.86221         5.41117
| 94>    H       -9.74852        10.04955         6.85618
| 95>    H      -10.96575        11.02341         4.81104
| 96>    H      -10.80712        12.14950         2.77718
| 97>    H      -10.94655        11.20377        -0.12385
| 98>    H      -12.11413        16.64354         0.70632
| 99>    H      -12.68908        16.93738        -1.71180
|100>    H      -12.77393        15.52019        -2.77018
|101>    H      -11.24406        16.38233        -2.55011
|102>    H      -11.52936        11.90731        -1.94006
|103>    H      -10.89119        14.41358        -3.55132
|104>    H      -10.67270        13.00264        -5.42197
|105>    H      -11.34935        10.63390        -3.61599
|106>    H      -10.64113        10.94832        -6.59268
|107>    H      -10.58992         8.15105        -3.89223
|108>    H      -11.58939         7.16254        -4.95729
|109>    H      -12.28832         8.55429        -4.12811
|110>    H      -11.73318         7.90852        -7.43742
|111>    H      -10.12883         7.44705        -6.86419
|112>    H       -9.23975         9.38353        -7.96304
|113>    H      -11.97438         9.62606        -8.99649
|114>    H       -9.41175        11.20844        -9.58172
|115>    H      -11.07761        11.49519       -10.28963
|116> *
|117>
|118>                          ****END OF INPUT****

CARTESIAN COORDINATES (ANGSTROEM)
---------------------------------
  C     -8.479780   -0.675960   -2.474800
  C     -9.467300   -0.800820   -3.416290
  C     -9.385980   -1.653130   -4.537550
  N     -9.373770   -2.324030   -5.468720
  C    -10.696950   -0.108720   -3.394070
  N    -11.714790    0.419570   -3.447140
  C     -7.221400   -1.409380   -2.451980
  C     -6.514150   -1.066430   -1.272370
  C     -5.281480   -1.591920   -0.967560
  C     -4.719330   -2.501060   -1.869410
  C     -5.432180   -2.837100   -3.046090
  C     -6.678350   -2.305350   -3.354040
  S     -4.552500   -3.970490   -4.024180
  C     -3.257370   -3.979940   -2.856410
  C     -3.471140   -3.175990   -1.787340
  Br    -1.744910   -5.044360   -3.162110
  C     -7.302790   -0.103140   -0.486070
  O     -6.977520    0.415740    0.563540
  C     -8.523420    0.160750   -1.289170
  C     -9.390000    1.188600   -1.059400
  C     -9.481670    1.954650    0.131090
  S     -9.753050    3.671280   -0.009760
  C     -9.673800    3.892670    1.708190
  C     -9.500280    2.668870    2.347630
  C     -9.394150    1.586160    1.464140
  C     -9.413670    0.184430    1.995660
  F    -10.728380   -0.172160    2.221170
  C     -8.605470    0.183000    3.293110
  F     -8.474070   -1.087090    3.791690
  C     -9.230970    1.103040    4.344380
  F    -10.478680    0.665830    4.701100
  C     -9.347150    2.547380    3.836050
  F     -8.198850    3.227270    4.217340
  C     -9.776270    5.165130    2.324760
  C     -9.902420    6.320370    1.626770
  C    -10.022490    7.636180    2.138520
  S    -10.458880    8.886350    1.003770
  C    -10.477090   10.108940    2.234670
  C    -10.150770    9.550490    3.466590
  C     -9.867340    8.175770    3.410040
  C     -9.425350    7.402550    4.617640
  F    -10.448480    6.595880    5.072900
  C     -8.985050    8.369960    5.721180
  F     -8.700470    7.683650    6.871000
  C    -10.024770    9.461350    5.972150
  F    -11.269570    8.943990    6.207200
  C    -10.098930   10.355060    4.729850
  F     -8.978070   11.172840    4.731860
  C    -10.783920   11.459500    1.945690
  C    -11.019910   11.915050    0.688600
  C    -11.346110   13.244240    0.346130
  S    -11.545150   14.458340    1.580860
  C    -11.883770   15.643860    0.392360
  C    -11.835300   15.176150   -0.885140
  C    -12.155030   16.052600   -2.051050
  C    -11.519000   13.783380   -0.936650
  C    -11.395360   12.966240   -2.108650
  C    -11.088500   13.370210   -3.361560
  C    -10.941410   12.509650   -4.495570
  C    -11.089770   11.165990   -4.518720
  C    -10.900200   10.388290   -5.703480
  C    -11.020580    9.052250   -5.786260
  C    -11.396030    8.179690   -4.625700
  C    -10.775590    8.307070   -7.079560
  N    -10.177920    9.056800   -8.150170
  C    -10.929770    9.901280   -8.934740
  C    -10.449860   10.925940   -9.631510
  H     -4.768760   -1.311880   -0.060820
  H     -7.179290   -2.588680   -4.264530
  H     -2.777580   -3.061740   -0.974470
  H    -10.021890    1.525870   -1.872240
  H     -9.023470   -0.561590    1.301080
  H     -7.592990    0.536900    3.056370
  H     -8.624260    1.088270    5.259650
  H    -10.177540    3.034190    4.366550
  H     -9.769110    5.158710    3.400720
  H     -9.950530    6.251940    0.545650
  H     -8.594010    6.724130    4.379340
  H     -8.052260    8.862210    5.411170
  H     -9.748520   10.049550    6.856180
  H    -10.965750   11.023410    4.811040
  H    -10.807120   12.149500    2.777180
  H    -10.946550   11.203770   -0.123850
  H    -12.114130   16.643540    0.706320
  H    -12.689080   16.937380   -1.711800
  H    -12.773930   15.520190   -2.770180
  H    -11.244060   16.382330   -2.550110
  H    -11.529360   11.907310   -1.940060
  H    -10.891190   14.413580   -3.551320
  H    -10.672700   13.002640   -5.421970
  H    -11.349350   10.633900   -3.615990
  H    -10.641130   10.948320   -6.592680
  H    -10.589920    8.151050   -3.892230
  H    -11.589390    7.162540   -4.957290
  H    -12.288320    8.554290   -4.128110
  H    -11.733180    7.908520   -7.437420
  H    -10.128830    7.447050   -6.864190
  H     -9.239750    9.383530   -7.963040
  H    -11.974380    9.626060   -8.996490
  H     -9.411750   11.208440   -9.581720
  H    -11.077610   11.495190  -10.289630

 Total Charge           Charge          ....    0
 Multiplicity           Mult            ....    1
 Number of Electrons    NEL             ....  534
 Basis Dimension        Dim             .... 1142

ORBITAL ENERGIES
----------------

  NO   OCC          E(Eh)            E(eV)
   0   2.0000    -482.889842    -13140.1006
   1   2.0000     -88.981413     -2421.3073
   2   2.0000     -88.977624     -2421.2043
   3   2.0000     -88.971937     -2421.0495
   4   2.0000     -88.955591     -2420.6047
   5   2.0000     -62.567584     -1702.5505
   6   2.0000     -56.401540     -1534.7639
   7   2.0000     -56.398810     -1534.6896
   8   2.0000     -56.398780     -1534.6888
   9   2.0000     -24.766114      -673.9202
  10   2.0000     -24.763859      -673.8589
  11   2.0000     -24.763134      -673.8391
  12   2.0000     -24.761442      -673.7931
  13   2.0000     -24.761045      -673.7823
  14   2.0000     -24.754548      -673.6055
  15   2.0000     -24.753403      -673.5743
  16   2.0000     -24.748732      -673.4472
  17   2.0000     -19.227501      -523.2069
  18   2.0000     -14.421007      -392.4156
  19   2.0000     -14.420929      -392.4134
  20   2.0000     -14.407803      -392.0563
  21   2.0000     -10.378868      -282.4234
  22   2.0000     -10.366983      -282.0999
  23   2.0000     -10.366101      -282.0759
  24   2.0000     -10.364870      -282.0424
  25   2.0000     -10.364357      -282.0285
  26   2.0000     -10.361451      -281.9494
  27   2.0000     -10.360965      -281.9362
  28   2.0000     -10.356842      -281.8240
  29   2.0000     -10.355830      -281.7965
  30   2.0000     -10.353081      -281.7217
  31   2.0000     -10.349540      -281.6253
  32   2.0000     -10.347730      -281.5761
  33   2.0000     -10.332115      -281.1511
  34   2.0000     -10.332033      -281.1489
  35   2.0000     -10.329979      -281.0930
  36   2.0000     -10.324107      -280.9332
  37   2.0000     -10.323422      -280.9146
  38   2.0000     -10.323324      -280.9119
  39   2.0000     -10.322199      -280.8813
  40   2.0000     -10.321025      -280.8494
  41   2.0000     -10.315334      -280.6945
  42   2.0000     -10.314038      -280.6592
  43   2.0000     -10.312148      -280.6078
  44   2.0000     -10.309176      -280.5270
  45   2.0000     -10.308406      -280.5060
  46   2.0000     -10.308022      -280.4956
  47   2.0000     -10.307434      -280.4795
  48   2.0000     -10.303035      -280.3598
  49   2.0000     -10.303001      -280.3589
  50   2.0000     -10.301946      -280.3302
  51   2.0000     -10.300377      -280.2875
  52   2.0000     -10.300259      -280.2843
  53   2.0000     -10.298846      -280.2458
  54   2.0000     -10.298288      -280.2307
  55   2.0000     -10.297245      -280.2023
  56   2.0000     -10.295069      -280.1431
  57   2.0000     -10.294062      -280.1157
  58   2.0000     -10.290952      -280.0310
  59   2.0000     -10.289572      -279.9935
  60   2.0000     -10.287501      -279.9371
  61   2.0000     -10.282368      -279.7975
  62   2.0000     -10.276995      -279.6513
  63   2.0000     -10.275510      -279.6108
  64   2.0000     -10.275367      -279.6069
  65   2.0000     -10.271202      -279.4936
  66   2.0000     -10.270497      -279.4744
  67   2.0000     -10.268669      -279.4247
  68   2.0000     -10.268292      -279.4144
  69   2.0000     -10.257699      -279.1262
  70   2.0000     -10.228110      -278.3210
  71   2.0000      -8.797038      -239.3796
  72   2.0000      -8.077296      -219.7944
  73   2.0000      -8.073283      -219.6852
  74   2.0000      -8.067550      -219.5292
  75   2.0000      -8.051559      -219.0941
  76   2.0000      -6.633383      -180.5035
  77   2.0000      -6.618744      -180.1052
  78   2.0000      -6.618549      -180.0999
  79   2.0000      -6.046974      -164.5465
  80   2.0000      -6.042693      -164.4300
  81   2.0000      -6.042442      -164.4232
  82   2.0000      -6.038583      -164.3182
  83   2.0000      -6.038460      -164.3148
  84   2.0000      -6.036610      -164.2645
  85   2.0000      -6.035436      -164.2326
  86   2.0000      -6.032781      -164.1603
  87   2.0000      -6.029808      -164.0794
  88   2.0000      -6.020754      -163.8331
  89   2.0000      -6.016663      -163.7217
  90   2.0000      -6.013811      -163.6441
  91   2.0000      -2.749230       -74.8104
  92   2.0000      -2.745183       -74.7002
  93   2.0000      -2.744958       -74.6941
  94   2.0000      -2.733361       -74.3785
  95   2.0000      -2.733345       -74.3781
  96   2.0000      -1.288608       -35.0648
  97   2.0000      -1.280578       -34.8463
  98   2.0000      -1.277231       -34.7552
  99   2.0000      -1.273039       -34.6412
 100   2.0000      -1.272414       -34.6241
 101   2.0000      -1.266687       -34.4683
 102   2.0000      -1.262053       -34.3422
 103   2.0000      -1.258202       -34.2374
 104   2.0000      -1.142078       -31.0775
 105   2.0000      -1.029525       -28.0148
 106   2.0000      -1.019335       -27.7375
 107   2.0000      -1.013970       -27.5915
 108   2.0000      -1.012874       -27.5617
 109   2.0000      -1.008142       -27.4329
 110   2.0000      -0.999476       -27.1971
 111   2.0000      -0.996281       -27.1102
 112   2.0000      -0.988323       -26.8936
 113   2.0000      -0.950312       -25.8593
 114   2.0000      -0.933388       -25.3988
 115   2.0000      -0.927504       -25.2387
 116   2.0000      -0.923456       -25.1285
 117   2.0000      -0.916905       -24.9503
 118   2.0000      -0.914651       -24.8889
 119   2.0000      -0.912713       -24.8362
 120   2.0000      -0.896291       -24.3893
 121   2.0000      -0.894673       -24.3453
 122   2.0000      -0.892288       -24.2804
 123   2.0000      -0.879785       -23.9402
 124   2.0000      -0.863714       -23.5029
 125   2.0000      -0.861066       -23.4308
 126   2.0000      -0.848320       -23.0840
 127   2.0000      -0.844815       -22.9886
 128   2.0000      -0.841754       -22.9053
 129   2.0000      -0.841541       -22.8995
 130   2.0000      -0.835564       -22.7369
 131   2.0000      -0.826515       -22.4906
 132   2.0000      -0.816895       -22.2289
 133   2.0000      -0.808284       -21.9945
 134   2.0000      -0.795498       -21.6466
 135   2.0000      -0.778284       -21.1782
 136   2.0000      -0.766971       -20.8703
 137   2.0000      -0.761151       -20.7120
 138   2.0000      -0.755625       -20.5616
 139   2.0000      -0.748501       -20.3677
 140   2.0000      -0.744845       -20.2683
 141   2.0000      -0.742289       -20.1987
 142   2.0000      -0.736616       -20.0444
 143   2.0000      -0.721023       -19.6200
 144   2.0000      -0.717169       -19.5152
 145   2.0000      -0.703718       -19.1492
 146   2.0000      -0.698719       -19.0131
 147   2.0000      -0.696654       -18.9569
 148   2.0000      -0.687779       -18.7154
 149   2.0000      -0.673795       -18.3349
 150   2.0000      -0.671753       -18.2793
 151   2.0000      -0.669248       -18.2112
 152   2.0000      -0.663904       -18.0657
 153   2.0000      -0.662315       -18.0225
 154   2.0000      -0.648345       -17.6424
 155   2.0000      -0.643402       -17.5079
 156   2.0000      -0.636728       -17.3263
 157   2.0000      -0.630687       -17.1619
 158   2.0000      -0.627660       -17.0795
 159   2.0000      -0.621689       -16.9170
 160   2.0000      -0.618867       -16.8402
 161   2.0000      -0.618058       -16.8182
 162   2.0000      -0.614988       -16.7347
 163   2.0000      -0.610991       -16.6259
 164   2.0000      -0.610472       -16.6118
 165   2.0000      -0.606424       -16.5016
 166   2.0000      -0.604323       -16.4445
 167   2.0000      -0.598168       -16.2770
 168   2.0000      -0.597115       -16.2483
 169   2.0000      -0.595230       -16.1970
 170   2.0000      -0.593983       -16.1631
 171   2.0000      -0.588478       -16.0133
 172   2.0000      -0.584954       -15.9174
 173   2.0000      -0.579244       -15.7620
 174   2.0000      -0.574945       -15.6451
 175   2.0000      -0.573433       -15.6039
 176   2.0000      -0.571412       -15.5489
 177   2.0000      -0.565690       -15.3932
 178   2.0000      -0.556800       -15.1513
 179   2.0000      -0.555801       -15.1241
 180   2.0000      -0.555031       -15.1032
 181   2.0000      -0.554116       -15.0783
 182   2.0000      -0.550896       -14.9906
 183   2.0000      -0.548554       -14.9269
 184   2.0000      -0.547670       -14.9029
 185   2.0000      -0.545983       -14.8570
 186   2.0000      -0.544659       -14.8209
 187   2.0000      -0.540232       -14.7005
 188   2.0000      -0.536137       -14.5890
 189   2.0000      -0.533630       -14.5208
 190   2.0000      -0.527962       -14.3666
 191   2.0000      -0.523237       -14.2380
 192   2.0000      -0.521680       -14.1956
 193   2.0000      -0.518869       -14.1191
 194   2.0000      -0.514893       -14.0110
 195   2.0000      -0.513707       -13.9787
 196   2.0000      -0.511827       -13.9275
 197   2.0000      -0.509959       -13.8767
 198   2.0000      -0.507899       -13.8206
 199   2.0000      -0.505693       -13.7606
 200   2.0000      -0.502334       -13.6692
 201   2.0000      -0.501290       -13.6408
 202   2.0000      -0.498860       -13.5747
 203   2.0000      -0.496861       -13.5203
 204   2.0000      -0.495438       -13.4816
 205   2.0000      -0.492682       -13.4066
 206   2.0000      -0.491415       -13.3721
 207   2.0000      -0.486951       -13.2506
 208   2.0000      -0.482311       -13.1243
 209   2.0000      -0.481001       -13.0887
 210   2.0000      -0.479242       -13.0408
 211   2.0000      -0.477989       -13.0067
 212   2.0000      -0.474056       -12.8997
 213   2.0000      -0.473404       -12.8820
 214   2.0000      -0.470172       -12.7940
 215   2.0000      -0.468344       -12.7443
 216   2.0000      -0.467280       -12.7153
 217   2.0000      -0.464707       -12.6453
 218   2.0000      -0.462777       -12.5928
 219   2.0000      -0.462666       -12.5898
 220   2.0000      -0.459238       -12.4965
 221   2.0000      -0.455620       -12.3981
 222   2.0000      -0.454468       -12.3667
 223   2.0000      -0.453851       -12.3499
 224   2.0000      -0.450803       -12.2670
 225   2.0000      -0.448954       -12.2166
 226   2.0000      -0.446270       -12.1436
 227   2.0000      -0.444850       -12.1050
 228   2.0000      -0.441053       -12.0017
 229   2.0000      -0.436398       -11.8750
 230   2.0000      -0.433894       -11.8069
 231   2.0000      -0.432202       -11.7608
 232   2.0000      -0.432006       -11.7555
 233   2.0000      -0.431917       -11.7531
 234   2.0000      -0.428870       -11.6701
 235   2.0000      -0.427740       -11.6394
 236   2.0000      -0.422538       -11.4978
 237   2.0000      -0.422353       -11.4928
 238   2.0000      -0.420444       -11.4409
 239   2.0000      -0.418090       -11.3768
 240   2.0000      -0.417268       -11.3544
 241   2.0000      -0.414263       -11.2727
 242   2.0000      -0.413358       -11.2481
 243   2.0000      -0.409663       -11.1475
 244   2.0000      -0.407080       -11.0772
 245   2.0000      -0.404805       -11.0153
 246   2.0000      -0.400036       -10.8855
 247   2.0000      -0.396225       -10.7818
 248   2.0000      -0.392330       -10.6758
 249   2.0000      -0.390250       -10.6192
 250   2.0000      -0.387912       -10.5556
 251   2.0000      -0.382689       -10.4135
 252   2.0000      -0.379158       -10.3174
 253   2.0000      -0.376812       -10.2536
 254   2.0000      -0.369245       -10.0477
 255   2.0000      -0.355272        -9.6674
 256   2.0000      -0.351475        -9.5641
 257   2.0000      -0.340595        -9.2680
 258   2.0000      -0.337714        -9.1897
 259   2.0000      -0.324708        -8.8358
 260   2.0000      -0.322033        -8.7630
 261   2.0000      -0.315370        -8.5817
 262   2.0000      -0.299732        -8.1561
 263   2.0000      -0.287827        -7.8322
 264   2.0000      -0.263739        -7.1767
 265   2.0000      -0.257388        -7.0039
 266   2.0000      -0.236951        -6.4478
 267   0.0000      -0.103748        -2.8231
 268   0.0000      -0.076368        -2.0781
 269   0.0000      -0.064062        -1.7432
 270   0.0000      -0.038761        -1.0547
 271   0.0000      -0.017220        -0.4686

MULLIKEN ATOMIC CHARGES
-----------------------
   0 C :    0.297649
   1 C :   -0.336634
   2 C :   -0.183835
   3 N :    0.152801
   4 C :   -0.202942
   5 N :    0.167822
   6 C :    0.022407
   7 C :   -0.023076
   8 C :   -0.063937
   9 C :    0.117107
  10 C :   -0.090005
  11 C :   -0.020507
  12 S :    0.191757
  13 C :   -0.124465
  14 C :    0.039794
  15 Br:    0.029273
  16 C :    0.143388
  17 O :   -0.159816
  18 C :   -0.096514
  19 C :    0.006108
  20 C :   -0.139759
  21 S :    0.145696
  22 C :   -0.067928
  23 C :   -0.087993
  24 C :   -0.005677
  25 C :    0.353185
  26 F :   -0.238102
  27 C :    0.175057
  28 F :   -0.235537
  29 C :    0.232926
  30 F :   -0.235618
  31 C :    0.289867
  32 F :   -0.256056
  33 C :   -0.025880
  34 C :    0.046979
  35 C :   -0.112762
  36 S :    0.116696
  37 C :   -0.078014
  38 C :   -0.059124
  39 C :   -0.062890
  40 C :    0.311920
  41 F :   -0.238361
  42 C :    0.196466
  43 F :   -0.230482
  44 C :    0.237922
  45 F :   -0.230379
  46 C :    0.256143
  47 F :   -0.252013
  48 C :   -0.019239
  49 C :    0.014745
  50 C :   -0.127206
  51 S :    0.108026
  52 C :   -0.103028
  53 C :   -0.096072
  54 C :    0.111419
  55 C :    0.145790
  56 C :   -0.037361
  57 C :    0.015460
  58 C :   -0.000527
  59 C :    0.029924
  60 C :   -0.000883
  61 C :   -0.221712
  62 C :    0.081849
  63 C :    0.187837
  64 N :   -0.181504
  65 C :    0.050565
  66 C :   -0.082495
  67 H :   -0.009130
  68 H :   -0.005208
  69 H :   -0.000073
  70 H :    0.034961
  71 H :    0.005278
  72 H :    0.041038
  73 H :    0.024689
  74 H :    0.038915
  75 H :    0.019535
  76 H :   -0.008888
  77 H :    0.024856
  78 H :    0.029037
  79 H :    0.023285
  80 H :    0.026209
  81 H :    0.005155
  82 H :   -0.007637
  83 H :    0.016218
  84 H :    0.008614
  85 H :    0.031630
  86 H :    0.038492
  87 H :   -0.018453
  88 H :   -0.027550
  89 H :   -0.017525
  90 H :   -0.026908
  91 H :   -0.021122
  92 H :    0.030847
  93 H :    0.011360
  94 H :    0.034142
  95 H :    0.025582
  96 H :    0.016722
  97 H :    0.106655
  98 H :    0.001103
  99 H :   -0.008771
 100 H :    0.008693
Sum of atomic charges:   -0.0000000

LOEWDIN ATOMIC CHARGES
----------------------
   0 C :    0.073099
   1 C :   -0.135121
   2 C :   -0.018272
   3 N :   -0.048706
   4 C :   -0.024595
   5 N :   -0.045002
   6 C :   -0.020245
   7 C :   -0.052172
   8 C :    0.025192
   9 C :   -0.031532
  10 C :   -0.142579
  11 C :   -0.008166
  12 S :    0.437160
  13 C :   -0.270140
  14 C :   -0.069669
  15 Br:    0.141091
  16 C :    0.083347
  17 O :   -0.147504
  18 C :   -0.094654
  19 C :    0.051521
  20 C :   -0.173490
  21 S :    0.463164
  22 C :   -0.130717
  23 C :   -0.078027
  24 C :   -0.031741
  25 C :    0.102917
  26 F :   -0.117806
  27 C :    0.074688
  28 F :   -0.112260
  29 C :    0.084952
  30 F :   -0.108843
  31 C :    0.105505
  32 F :   -0.130962
  33 C :   -0.039547
  34 C :   -0.028779
  35 C :   -0.162060
  36 S :    0.452782
  37 C :   -0.141757
  38 C :   -0.086513
  39 C :   -0.067140
  40 C :    0.096244
  41 F :   -0.114988
  42 C :    0.073887
  43 F :   -0.108624
  44 C :    0.083967
  45 F :   -0.107623
  46 C :    0.100195
  47 F :   -0.130893
  48 C :   -0.060729
  49 C :   -0.021062
  50 C :   -0.176258
  51 S :    0.432049
  52 C :   -0.180418
  53 C :   -0.056354
  54 C :   -0.045015
  55 C :   -0.042457
  56 C :   -0.022846
  57 C :   -0.024247
  58 C :   -0.038434
  59 C :   -0.009058
  60 C :   -0.060498
  61 C :   -0.039011
  62 C :   -0.053363
  63 C :    0.031640
  64 N :   -0.038002
  65 C :    0.025703
  66 C :   -0.161195
  67 H :    0.041799
  68 H :    0.041640
  69 H :    0.039920
  70 H :    0.046831
  71 H :    0.024771
  72 H :    0.035345
  73 H :    0.030486
  74 H :    0.033985
  75 H :    0.034763
  76 H :    0.022764
  77 H :    0.028871
  78 H :    0.032286
  79 H :    0.029238
  80 H :    0.028447
  81 H :    0.027688
  82 H :    0.024091
  83 H :    0.022751
  84 H :    0.032808
  85 H :    0.036057
  86 H :    0.034829
  87 H :    0.023610
  88 H :    0.027517
  89 H :    0.027848
  90 H :    0.019336
  91 H :    0.028163
  92 H :    0.037779
  93 H :    0.029427
  94 H :    0.036295
  95 H :    0.034582
  96 H :    0.028066
  97 H :    0.070187
  98 H :    0.024082
  99 H :    0.012640
 100 H :    0.021069

  Mayer bond orders larger than 0.100000
B(  0-C ,  1-C ) :   1.6512 B(  0-C ,  6-C ) :   1.0106 B(  0-C , 18-C ) :   1.0555
B(  1-C ,  2-C ) :   1.1383 B(  1-C ,  4-C ) :   1.1409 B(  2-C ,  3-N ) :   2.9719
B(  4-C ,  5-N ) :   2.9908 B(  6-C ,  7-C ) :   1.2677 B(  6-C , 11-C ) :   1.4078
B(  7-C ,  8-C ) :   1.4214 B(  7-C , 16-C ) :   0.9500 B(  8-C ,  9-C ) :   1.2472
B(  8-C , 67-H ) :   1.0170 B(  9-C , 10-C ) :   1.3015 B(  9-C , 14-C ) :   1.1643
B( 10-C , 11-C ) :   1.3292 B( 10-C , 12-S ) :   1.0897 B( 11-C , 68-H ) :   0.9807
B( 12-S , 13-C ) :   1.0871 B( 13-C , 14-C ) :   1.6178 B( 13-C , 15-Br) :   1.0218
B( 14-C , 69-H ) :   0.9998 B( 16-C , 17-O ) :   2.1718 B( 16-C , 18-C ) :   0.9482
B( 18-C , 19-C ) :   1.6275 B( 19-C , 20-C ) :   1.1425 B( 19-C , 70-H ) :   0.9315
B( 20-C , 21-S ) :   1.1057 B( 20-C , 24-C ) :   1.5021 B( 21-S , 22-C ) :   1.1448
B( 22-C , 23-C ) :   1.4616 B( 22-C , 33-C ) :   1.1775 B( 23-C , 24-C ) :   1.3558
B( 23-C , 31-C ) :   0.9895 B( 24-C , 25-C ) :   0.9576 B( 25-C , 26-F ) :   1.0535
B( 25-C , 27-C ) :   0.9888 B( 25-C , 71-H ) :   0.9198 B( 27-C , 28-F ) :   1.0428
B( 27-C , 29-C ) :   0.9964 B( 27-C , 72-H ) :   0.9369 B( 29-C , 30-F ) :   1.0351
B( 29-C , 31-C ) :   0.9753 B( 29-C , 73-H ) :   0.9227 B( 31-C , 32-F ) :   1.0132
B( 31-C , 74-H ) :   0.9136 B( 33-C , 34-C ) :   1.6374 B( 33-C , 75-H ) :   0.9497
B( 34-C , 35-C ) :   1.1499 B( 34-C , 76-H ) :   0.9476 B( 35-C , 36-S ) :   1.1175
B( 35-C , 39-C ) :   1.5106 B( 36-S , 37-C ) :   1.1340 B( 37-C , 38-C ) :   1.4682
B( 37-C , 48-C ) :   1.1787 B( 38-C , 39-C ) :   1.3550 B( 38-C , 46-C ) :   0.9739
B( 39-C , 40-C ) :   0.9568 B( 40-C , 41-F ) :   1.0078 B( 40-C , 42-C ) :   0.9883
B( 40-C , 77-H ) :   0.9242 B( 42-C , 43-F ) :   1.0530 B( 42-C , 44-C ) :   0.9963
B( 42-C , 78-H ) :   0.9329 B( 44-C , 45-F ) :   1.0464 B( 44-C , 46-C ) :   0.9914
B( 44-C , 79-H ) :   0.9281 B( 46-C , 47-F ) :   1.0183 B( 46-C , 80-H ) :   0.9200
B( 48-C , 49-C ) :   1.6272 B( 48-C , 81-H ) :   0.9640 B( 49-C , 50-C ) :   1.1957
B( 49-C , 82-H ) :   0.9633 B( 50-C , 51-S ) :   1.1191 B( 50-C , 55-C ) :   1.3938
B( 51-S , 52-C ) :   1.1430 B( 52-C , 53-C ) :   1.6014 B( 52-C , 83-H ) :   0.9652
B( 53-C , 54-C ) :   1.0918 B( 53-C , 55-C ) :   1.2274 B( 54-C , 84-H ) :   0.9470
B( 54-C , 85-H ) :   0.9463 B( 54-C , 86-H ) :   0.9401 B( 55-C , 56-C ) :   1.1190
B( 56-C , 57-C ) :   1.7122 B( 56-C , 87-H ) :   0.9484 B( 57-C , 58-C ) :   1.1055
B( 57-C , 88-H ) :   0.9769 B( 58-C , 59-C ) :   1.7135 B( 58-C , 89-H ) :   0.9796
B( 59-C , 60-C ) :   1.1152 B( 59-C , 90-H ) :   0.9605 B( 60-C , 61-C ) :   1.7771
B( 60-C , 91-H ) :   0.9671 B( 61-C , 62-C ) :   1.0746 B( 61-C , 63-C ) :   0.9899
B( 62-C , 92-H ) :   0.9469 B( 62-C , 93-H ) :   0.9559 B( 62-C , 94-H ) :   0.9482
B( 63-C , 64-N ) :   1.0833 B( 63-C , 95-H ) :   0.9214 B( 63-C , 96-H ) :   0.9405
B( 64-N , 65-C ) :   1.1482 B( 64-N , 97-H ) :   0.9455 B( 65-C , 66-C ) :   1.8959
B( 65-C , 98-H ) :   0.9603 B( 66-C , 99-H ) :   0.9560 B( 66-C ,100-H ) :   0.9536

-----------------------------------------------------------------------------
         ABSORPTION SPECTRUM VIA TRANSITION ELECTRIC DIPOLE MOMENTS
-----------------------------------------------------------------------------
State   Energy  Wavelength   fosc         T2         TX        TY        TZ
        (cm-1)    (nm)                  (au**2)     (au)      (au)      (au)
-----------------------------------------------------------------------------
   0   16058.4    622.7   0.976749755  20.02424   1.03272  -4.34469  -0.28530
   1   21363.5    468.1   0.633481805   9.76197  -0.34872   1.42038   2.76096
   2   22828.6    438.0   0.363326180   5.23955   0.48054  -1.70625   1.44822
   3   24494.5    408.3   0.076384327   1.02662   0.07609   0.16140  -0.99739
   4   24726.5    404.4   0.018104166   0.24104  -0.01918   0.29435  -0.39247
   5   25910.0    386.0   0.125798758   1.59840   0.35768  -1.18266   0.26790
   6   27108.2    368.9   0.150352252   1.82593   1.26507  -0.34676  -0.32448
   7   27713.4    360.8   0.151941861   1.80494  -0.86242   0.98982  -0.28535
   8   28788.2    347.4   0.219389041   2.50886  -0.00799   1.17108   1.06647
   9   29337.2    340.9   0.012998911   0.14587  -0.01868   0.31479   0.21547
  10   29529.0    338.6   0.344406855   3.83971  -0.13484   1.49693   1.25727
  11   29810.5    335.5   0.077416683   0.85495   0.21769   0.65259   0.61781
  12   30269.0    330.4   0.352789399   3.83702  -0.66813   1.59005   0.92864
  13   32046.3    312.0   0.022872939   0.23497  -0.24824   0.39610   0.12827
  14   32569.7    307.0   0.438793422   4.43529   1.95454  -0.46969   0.62806
  15   32646.2    306.3   0.206822755   2.08565   1.28708  -0.52611   0.39023
  16   33359.8    299.8   0.010011395   0.09880   0.08041   0.27152   0.13641
  17   33899.2    295.0   0.116349041   1.12992  -0.24054   1.03535  -0.01075
  18   34333.1    291.3   0.257991104   2.47382  -0.58178   1.26870   0.72508
  19   34852.1    286.9   0.033520504   0.31663  -0.16530   0.42192   0.33360
  20   35346.7    282.9   0.054746861   0.50990  -0.37980   0.60195   0.05759
  21   35504.3    281.7   0.068002861   0.63055  -0.41152  -0.40779   0.54305
  22   35812.2    279.2   0.051041896   0.46921   0.40045  -0.45657  -0.31686
  23   36598.4    273.2   0.050625287   0.45539   0.34408  -0.25369   0.52214
  24   37658.4    265.5   0.078182363   0.68347  -0.14100   0.30351  -0.75596
  25   37951.2    263.5   0.081100194   0.70351   0.23216   0.17959   0.78573
  26   38982.4    256.5   0.176112657   1.48730   0.27139   0.77119   0.90494
  27   39352.1    254.1   0.195584389   1.63622  -0.07246  -0.69309  -1.07266
  28   39545.9    252.9   0.043596590   0.36293  -0.10744   0.55071   0.21934
  29   40268.1    248.3   0.166289741   1.35950  -0.41764   0.92138   0.57976

FINAL SINGLE POINT ENERGY     -7126.538821023314

DIPOLE MOMENT
-------------
                                X             Y             Z
Electronic contribution:     99.81815    -200.99242      54.14150
Nuclear contribution   :    -97.67635     203.44381     -54.65400
                        -----------------------------------------
Total Dipole Moment    :      2.14180       2.45139      -0.51250
                        -----------------------------------------
Magnitude (a.u.)       :      3.29534
Magnitude (Debye)      :      8.37608

Rotational constants in cm-1:     0.000946     0.000335     0.000270
Rotational constants in MHz :    28.363229    10.047476     8.092493

                             ****ORCA TERMINATED NORMALLY****
TOTAL RUN TIME: 0 days 0 hours 8 minutes 31 seconds 59 msec
