                         Program Version 4.2.0 -  RELEASE  -
|  1> # ORCA input file
|  2> # SCF done       -196.369422542923          0.000928202592
|  3> ! CAM-B3LYP def2-SVP def2/J RIJCOSX Grid4 TightSCF
|  4> %maxcore 5000
|  5> %tddft
|  6>     Mode sTDDFT
|  7>     Ethresh 5.0
|  8>     maxcore 5000
|  9> end
| 10>
| 11> %pal
| 12>   nprocs 6
| 13>   end
| 14> * xyz 0 1
| 15>    C       -1.62511         0.20742         0.83006
| 16>    C       -1.61227        -0.88693         1.65577
| 17>    C       -0.62588        -1.13337         2.63195
| 18>    N        0.14834        -1.38347         3.44159
| 19>    C       -2.58682        -1.90506         1.62922
| 20>    N       -3.35873        -2.75453         1.63900
| 21>    C       -0.63708         1.28406         0.82039
| 22>    C       -0.99272         2.22733        -0.17879
| 23>    C       -0.25491         3.35970        -0.42657
| 24>    C        0.88988         3.57393         0.34808
| 25>    C        1.23787         2.62798         1.34152
| 26>    C        0.49101         1.48197         1.59179
| 27>    S        2.68564         3.08808         2.18230
| 28>    C        2.80381         4.52531         1.20189
| 29>    C        1.81002         4.65588         0.29082
| 30>   Br        4.22535         5.71734         1.47554
| 31>    C       -2.22341         1.77651        -0.83640
| 32>    O       -2.82713         2.33327        -1.75157
| 33>    C       -2.60183         0.52023        -0.18635
| 34>    C       -3.73586        -0.16617        -0.55591
| 35>    N       -4.51279         0.32076        -1.52659
| 36>    C       -5.66638        -0.19476        -2.01858
| 37>    S       -6.33135        -1.68774        -1.43485
| 38>    C       -7.65230        -1.49751        -2.54102
| 39>    N       -8.64171        -2.49070        -2.55958
| 40>    O       -9.56769        -2.34828        -3.33561
| 41>    O       -8.49801        -3.42383        -1.79044
| 42>    C       -7.58023        -0.36154        -3.30131
| 43>    C       -6.43776         0.41284        -3.01947
| 44>    C       -6.07654         1.65657        -3.64554
| 45>    C       -6.85239         2.34274        -4.50431
| 46>    C       -6.50563         3.59700        -5.13160
| 47>    C       -5.20913         4.13400        -5.08833
| 48>    C       -4.95518         5.34015        -5.69199
| 49>    C       -5.97890         6.04535        -6.34743
| 50>    C       -7.26147         5.51970        -6.41093
| 51>    C       -7.50884         4.30199        -5.81150
| 52>    C       -5.43221         7.28751        -6.84654
| 53>    C       -4.06599         7.34528        -6.51604
| 54>    C       -3.63776         6.07771        -5.81087
| 55>    C       -3.00370         6.35790        -4.44055
| 56>    C       -3.94837         7.10712        -3.50763
| 57>    C       -2.71444         5.20879        -6.69812
| 58>    C       -1.38993         5.84264        -7.10231
| 59>    C       -3.33013         8.46428        -6.82494
| 60>    C       -3.93896         9.54101        -7.48812
| 61>    C       -5.29358         9.45368        -7.83153
| 62>    C       -6.04313         8.33997        -7.51287
| 63>    C       -3.12880        10.69603        -7.80235
| 64>    C       -3.57399        11.91709        -8.14723
| 65>    C       -2.67227        12.98174        -8.46313
| 66>    N       -3.07091        14.27462        -8.70322
| 67>    C       -1.99992        15.06836        -8.98728
| 68>    C       -0.87312        14.27771        -8.93697
| 69>    C       -1.30216        12.97030        -8.60477
| 70>    S        0.12336        11.91840        -8.57014
| 71>    O        0.38205        11.42030        -7.24157
| 72>    O        0.07451        10.93180        -9.61896
| 73>    C        1.24298        13.28440        -9.00079
| 74>    C        0.54136        14.42433        -9.14599
| 75>    C        2.62918        13.00608        -9.15430
| 76>    C        3.65533        13.87762        -9.50217
| 77>    C        4.87097        13.13904        -9.56378
| 78>    C        6.15750        13.51991        -9.87356
| 79>    C        7.15047        12.52910        -9.86092
| 80>    C        8.51591        12.58614       -10.13190
| 81>    C        9.07421        11.28440        -9.98218
| 82>    C        8.05186        10.42136        -9.61626
| 83>    C        6.83217        11.15742        -9.52974
| 84>    C        5.55022        10.77572        -9.21722
| 85>    C        4.55185        11.76667        -9.23332
| 86>    C        3.18629        11.70259        -8.98491
| 87>    C       10.45300        10.90120       -10.17394
| 88>    C       11.44214        11.71582       -10.52984
| 89>    H       -0.55058         4.06000        -1.19191
| 90>    H        0.79746         0.79271         2.36063
| 91>    H        1.72798         5.48058        -0.39328
| 92>    H       -4.03760        -1.09419        -0.08801
| 93>    H       -4.16287         1.21389        -1.92221
| 94>    H       -8.32746        -0.11980        -4.03409
| 95>    H       -5.11089         2.06078        -3.38009
| 96>    H       -7.83696         1.96584        -4.74599
| 97>    H       -4.41433         3.60151        -4.58959
| 98>    H       -8.05149         6.05061        -6.92045
| 99>    H       -8.50361         3.88141        -5.85243
|100>    H       -2.09984         6.95155        -4.58108
|101>    H       -2.71912         5.40770        -3.98303
|102>    H       -4.23638         8.06194        -3.94210
|103>    H       -3.46231         7.29646        -2.55313
|104>    H       -4.85053         6.52719        -3.32500
|105>    H       -3.26879         4.94953        -7.60416
|106>    H       -2.51609         4.28023        -6.15721
|107>    H       -1.54920         6.71491        -7.72944
|108>    H       -0.80727         5.12135        -7.67174
|109>    H       -0.80616         6.13440        -6.23351
|110>    H       -2.29022         8.55043        -6.54890
|111>    H       -5.75956        10.26728        -8.36601
|112>    H       -7.08937         8.28987        -7.77613
|113>    H       -2.05759        10.55444        -7.73227
|114>    H       -4.62978        12.14777        -8.19038
|115>    H       -4.02735        14.58904        -8.66512
|116>    H       -2.11656        16.11163        -9.20211
|117>    H        0.97769        15.37573        -9.40557
|118>    H        3.55746        14.92922        -9.69790
|119>    H        6.40160        14.54340       -10.12259
|120>    H        9.06058        13.46981       -10.41023
|121>    H        8.15245         9.36779        -9.42789
|122>    H        5.30287         9.75300        -8.97067
|123>    H        2.61372        10.83492        -8.71500
|124>    H       10.65979         9.85125       -10.00676
|125>    H       11.28611        12.76558       -10.71009
|126>    H       12.44855        11.35682       -10.65756
|127> *
|128>
|129>                          ****END OF INPUT****

CARTESIAN COORDINATES (ANGSTROEM)
---------------------------------
  C     -1.625110    0.207420    0.830060
  C     -1.612270   -0.886930    1.655770
  C     -0.625880   -1.133370    2.631950
  N      0.148340   -1.383470    3.441590
  C     -2.586820   -1.905060    1.629220
  N     -3.358730   -2.754530    1.639000
  C     -0.637080    1.284060    0.820390
  C     -0.992720    2.227330   -0.178790
  C     -0.254910    3.359700   -0.426570
  C      0.889880    3.573930    0.348080
  C      1.237870    2.627980    1.341520
  C      0.491010    1.481970    1.591790
  S      2.685640    3.088080    2.182300
  C      2.803810    4.525310    1.201890
  C      1.810020    4.655880    0.290820
  Br     4.225350    5.717340    1.475540
  C     -2.223410    1.776510   -0.836400
  O     -2.827130    2.333270   -1.751570
  C     -2.601830    0.520230   -0.186350
  C     -3.735860   -0.166170   -0.555910
  N     -4.512790    0.320760   -1.526590
  C     -5.666380   -0.194760   -2.018580
  S     -6.331350   -1.687740   -1.434850
  C     -7.652300   -1.497510   -2.541020
  N     -8.641710   -2.490700   -2.559580
  O     -9.567690   -2.348280   -3.335610
  O     -8.498010   -3.423830   -1.790440
  C     -7.580230   -0.361540   -3.301310
  C     -6.437760    0.412840   -3.019470
  C     -6.076540    1.656570   -3.645540
  C     -6.852390    2.342740   -4.504310
  C     -6.505630    3.597000   -5.131600
  C     -5.209130    4.134000   -5.088330
  C     -4.955180    5.340150   -5.691990
  C     -5.978900    6.045350   -6.347430
  C     -7.261470    5.519700   -6.410930
  C     -7.508840    4.301990   -5.811500
  C     -5.432210    7.287510   -6.846540
  C     -4.065990    7.345280   -6.516040
  C     -3.637760    6.077710   -5.810870
  C     -3.003700    6.357900   -4.440550
  C     -3.948370    7.107120   -3.507630
  C     -2.714440    5.208790   -6.698120
  C     -1.389930    5.842640   -7.102310
  C     -3.330130    8.464280   -6.824940
  C     -3.938960    9.541010   -7.488120
  C     -5.293580    9.453680   -7.831530
  C     -6.043130    8.339970   -7.512870
  C     -3.128800   10.696030   -7.802350
  C     -3.573990   11.917090   -8.147230
  C     -2.672270   12.981740   -8.463130
  N     -3.070910   14.274620   -8.703220
  C     -1.999920   15.068360   -8.987280
  C     -0.873120   14.277710   -8.936970
  C     -1.302160   12.970300   -8.604770
  S      0.123360   11.918400   -8.570140
  O      0.382050   11.420300   -7.241570
  O      0.074510   10.931800   -9.618960
  C      1.242980   13.284400   -9.000790
  C      0.541360   14.424330   -9.145990
  C      2.629180   13.006080   -9.154300
  C      3.655330   13.877620   -9.502170
  C      4.870970   13.139040   -9.563780
  C      6.157500   13.519910   -9.873560
  C      7.150470   12.529100   -9.860920
  C      8.515910   12.586140  -10.131900
  C      9.074210   11.284400   -9.982180
  C      8.051860   10.421360   -9.616260
  C      6.832170   11.157420   -9.529740
  C      5.550220   10.775720   -9.217220
  C      4.551850   11.766670   -9.233320
  C      3.186290   11.702590   -8.984910
  C     10.453000   10.901200  -10.173940
  C     11.442140   11.715820  -10.529840
  H     -0.550580    4.060000   -1.191910
  H      0.797460    0.792710    2.360630
  H      1.727980    5.480580   -0.393280
  H     -4.037600   -1.094190   -0.088010
  H     -4.162870    1.213890   -1.922210
  H     -8.327460   -0.119800   -4.034090
  H     -5.110890    2.060780   -3.380090
  H     -7.836960    1.965840   -4.745990
  H     -4.414330    3.601510   -4.589590
  H     -8.051490    6.050610   -6.920450
  H     -8.503610    3.881410   -5.852430
  H     -2.099840    6.951550   -4.581080
  H     -2.719120    5.407700   -3.983030
  H     -4.236380    8.061940   -3.942100
  H     -3.462310    7.296460   -2.553130
  H     -4.850530    6.527190   -3.325000
  H     -3.268790    4.949530   -7.604160
  H     -2.516090    4.280230   -6.157210
  H     -1.549200    6.714910   -7.729440
  H     -0.807270    5.121350   -7.671740
  H     -0.806160    6.134400   -6.233510
  H     -2.290220    8.550430   -6.548900
  H     -5.759560   10.267280   -8.366010
  H     -7.089370    8.289870   -7.776130
  H     -2.057590   10.554440   -7.732270
  H     -4.629780   12.147770   -8.190380
  H     -4.027350   14.589040   -8.665120
  H     -2.116560   16.111630   -9.202110
  H      0.977690   15.375730   -9.405570
  H      3.557460   14.929220   -9.697900
  H      6.401600   14.543400  -10.122590
  H      9.060580   13.469810  -10.410230
  H      8.152450    9.367790   -9.427890
  H      5.302870    9.753000   -8.970670
  H      2.613720   10.834920   -8.715000
  H     10.659790    9.851250  -10.006760
  H     11.286110   12.765580  -10.710090
  H     12.448550   11.356820  -10.657560

 Total Charge           Charge          ....    0
 Multiplicity           Mult            ....    1
 Number of Electrons    NEL             ....  556
 Basis Dimension        Dim             .... 1256

ORBITAL ENERGIES
----------------

  NO   OCC          E(Eh)            E(eV)
   0   2.0000    -482.888736    -13140.0705
   1   2.0000     -89.134042     -2425.4606
   2   2.0000     -88.989719     -2421.5334
   3   2.0000     -88.980505     -2421.2826
   4   2.0000     -62.566437     -1702.5193
   5   2.0000     -56.400397     -1534.7328
   6   2.0000     -56.397662     -1534.6584
   7   2.0000     -56.397635     -1534.6577
   8   2.0000     -19.239206      -523.5254
   9   2.0000     -19.238360      -523.5024
  10   2.0000     -19.237307      -523.4737
  11   2.0000     -19.184615      -522.0399
  12   2.0000     -19.182148      -521.9728
  13   2.0000     -14.650617      -398.6636
  14   2.0000     -14.497162      -394.4878
  15   2.0000     -14.477232      -393.9455
  16   2.0000     -14.421191      -392.4206
  17   2.0000     -14.416936      -392.3048
  18   2.0000     -10.383204      -282.5413
  19   2.0000     -10.372296      -282.2445
  20   2.0000     -10.370151      -282.1861
  21   2.0000     -10.363016      -281.9920
  22   2.0000     -10.348754      -281.6039
  23   2.0000     -10.347726      -281.5759
  24   2.0000     -10.344306      -281.4829
  25   2.0000     -10.330831      -281.1162
  26   2.0000     -10.323548      -280.9180
  27   2.0000     -10.322671      -280.8942
  28   2.0000     -10.320151      -280.8256
  29   2.0000     -10.314497      -280.6717
  30   2.0000     -10.312744      -280.6240
  31   2.0000     -10.311142      -280.5804
  32   2.0000     -10.310966      -280.5757
  33   2.0000     -10.310514      -280.5634
  34   2.0000     -10.309029      -280.5229
  35   2.0000     -10.306914      -280.4654
  36   2.0000     -10.301220      -280.3104
  37   2.0000     -10.301215      -280.3103
  38   2.0000     -10.301012      -280.3048
  39   2.0000     -10.300986      -280.3041
  40   2.0000     -10.297540      -280.2103
  41   2.0000     -10.296022      -280.1690
  42   2.0000     -10.291042      -280.0335
  43   2.0000     -10.288171      -279.9554
  44   2.0000     -10.285927      -279.8943
  45   2.0000     -10.283272      -279.8221
  46   2.0000     -10.281012      -279.7606
  47   2.0000     -10.280615      -279.7498
  48   2.0000     -10.279959      -279.7319
  49   2.0000     -10.278449      -279.6908
  50   2.0000     -10.277760      -279.6721
  51   2.0000     -10.276838      -279.6470
  52   2.0000     -10.276674      -279.6425
  53   2.0000     -10.276261      -279.6313
  54   2.0000     -10.274279      -279.5773
  55   2.0000     -10.272958      -279.5414
  56   2.0000     -10.272444      -279.5274
  57   2.0000     -10.271975      -279.5147
  58   2.0000     -10.271570      -279.5036
  59   2.0000     -10.271454      -279.5005
  60   2.0000     -10.270992      -279.4879
  61   2.0000     -10.270689      -279.4797
  62   2.0000     -10.270312      -279.4694
  63   2.0000     -10.270126      -279.4643
  64   2.0000     -10.268763      -279.4272
  65   2.0000     -10.267880      -279.4032
  66   2.0000     -10.267193      -279.3845
  67   2.0000     -10.266482      -279.3652
  68   2.0000     -10.264314      -279.3062
  69   2.0000     -10.262909      -279.2679
  70   2.0000     -10.261850      -279.2391
  71   2.0000     -10.261704      -279.2351
  72   2.0000     -10.261616      -279.2328
  73   2.0000     -10.259869      -279.1852
  74   2.0000     -10.259355      -279.1713
  75   2.0000     -10.254633      -279.0428
  76   2.0000     -10.247428      -278.8467
  77   2.0000     -10.246123      -278.8112
  78   2.0000      -8.795864      -239.3476
  79   2.0000      -8.197840      -223.0746
  80   2.0000      -8.084893      -220.0011
  81   2.0000      -8.076445      -219.7712
  82   2.0000      -6.632202      -180.4714
  83   2.0000      -6.617592      -180.0738
  84   2.0000      -6.617362      -180.0676
  85   2.0000      -6.166894      -167.8097
  86   2.0000      -6.166700      -167.8044
  87   2.0000      -6.166125      -167.7888
  88   2.0000      -6.054522      -164.7519
  89   2.0000      -6.050196      -164.6342
  90   2.0000      -6.046391      -164.5307
  91   2.0000      -6.046114      -164.5231
  92   2.0000      -6.041834      -164.4067
  93   2.0000      -6.037713      -164.2945
  94   2.0000      -2.748072       -74.7788
  95   2.0000      -2.743934       -74.6662
  96   2.0000      -2.743832       -74.6635
  97   2.0000      -2.732188       -74.3466
  98   2.0000      -2.732168       -74.3461
  99   2.0000      -1.320471       -35.9318
 100   2.0000      -1.187392       -32.3106
 101   2.0000      -1.151295       -31.3283
 102   2.0000      -1.139518       -31.0079
 103   2.0000      -1.104963       -30.0676
 104   2.0000      -1.090367       -29.6704
 105   2.0000      -1.063553       -28.9407
 106   2.0000      -1.028468       -27.9860
 107   2.0000      -1.017894       -27.6983
 108   2.0000      -1.010612       -27.5002
 109   2.0000      -0.998624       -27.1739
 110   2.0000      -0.994709       -27.0674
 111   2.0000      -0.987135       -26.8613
 112   2.0000      -0.985551       -26.8182
 113   2.0000      -0.963400       -26.2154
 114   2.0000      -0.948616       -25.8131
 115   2.0000      -0.946943       -25.7676
 116   2.0000      -0.945989       -25.7417
 117   2.0000      -0.927607       -25.2415
 118   2.0000      -0.917089       -24.9553
 119   2.0000      -0.913820       -24.8663
 120   2.0000      -0.900585       -24.5062
 121   2.0000      -0.898172       -24.4405
 122   2.0000      -0.894894       -24.3513
 123   2.0000      -0.891470       -24.2581
 124   2.0000      -0.884666       -24.0730
 125   2.0000      -0.873036       -23.7565
 126   2.0000      -0.861588       -23.4450
 127   2.0000      -0.860807       -23.4238
 128   2.0000      -0.853674       -23.2296
 129   2.0000      -0.848919       -23.1003
 130   2.0000      -0.839828       -22.8529
 131   2.0000      -0.835098       -22.7242
 132   2.0000      -0.835000       -22.7215
 133   2.0000      -0.833249       -22.6739
 134   2.0000      -0.831347       -22.6221
 135   2.0000      -0.819297       -22.2942
 136   2.0000      -0.800996       -21.7962
 137   2.0000      -0.795997       -21.6602
 138   2.0000      -0.790749       -21.5174
 139   2.0000      -0.780106       -21.2278
 140   2.0000      -0.769795       -20.9472
 141   2.0000      -0.767593       -20.8873
 142   2.0000      -0.762988       -20.7620
 143   2.0000      -0.754946       -20.5431
 144   2.0000      -0.748416       -20.3654
 145   2.0000      -0.738065       -20.0838
 146   2.0000      -0.729374       -19.8473
 147   2.0000      -0.728488       -19.8232
 148   2.0000      -0.714205       -19.4345
 149   2.0000      -0.709110       -19.2959
 150   2.0000      -0.695850       -18.9350
 151   2.0000      -0.693197       -18.8628
 152   2.0000      -0.687866       -18.7178
 153   2.0000      -0.686249       -18.6738
 154   2.0000      -0.677690       -18.4409
 155   2.0000      -0.674773       -18.3615
 156   2.0000      -0.668790       -18.1987
 157   2.0000      -0.665277       -18.1031
 158   2.0000      -0.662721       -18.0336
 159   2.0000      -0.656810       -17.8727
 160   2.0000      -0.652159       -17.7461
 161   2.0000      -0.646800       -17.6003
 162   2.0000      -0.639285       -17.3958
 163   2.0000      -0.636704       -17.3256
 164   2.0000      -0.631961       -17.1965
 165   2.0000      -0.631380       -17.1807
 166   2.0000      -0.628755       -17.1093
 167   2.0000      -0.625379       -17.0174
 168   2.0000      -0.622754       -16.9460
 169   2.0000      -0.619954       -16.8698
 170   2.0000      -0.607831       -16.5399
 171   2.0000      -0.606212       -16.4959
 172   2.0000      -0.601716       -16.3735
 173   2.0000      -0.597510       -16.2591
 174   2.0000      -0.591178       -16.0868
 175   2.0000      -0.585478       -15.9317
 176   2.0000      -0.582643       -15.8545
 177   2.0000      -0.577969       -15.7273
 178   2.0000      -0.575653       -15.6643
 179   2.0000      -0.573136       -15.5958
 180   2.0000      -0.565783       -15.3957
 181   2.0000      -0.562400       -15.3037
 182   2.0000      -0.561145       -15.2695
 183   2.0000      -0.558399       -15.1948
 184   2.0000      -0.552276       -15.0282
 185   2.0000      -0.550834       -14.9890
 186   2.0000      -0.542803       -14.7704
 187   2.0000      -0.541519       -14.7355
 188   2.0000      -0.540320       -14.7029
 189   2.0000      -0.537831       -14.6351
 190   2.0000      -0.536445       -14.5974
 191   2.0000      -0.535072       -14.5600
 192   2.0000      -0.532808       -14.4984
 193   2.0000      -0.529659       -14.4128
 194   2.0000      -0.528223       -14.3737
 195   2.0000      -0.526689       -14.3319
 196   2.0000      -0.524076       -14.2608
 197   2.0000      -0.523755       -14.2521
 198   2.0000      -0.520198       -14.1553
 199   2.0000      -0.518000       -14.0955
 200   2.0000      -0.514707       -14.0059
 201   2.0000      -0.513384       -13.9699
 202   2.0000      -0.510751       -13.8982
 203   2.0000      -0.508626       -13.8404
 204   2.0000      -0.505463       -13.7544
 205   2.0000      -0.504412       -13.7258
 206   2.0000      -0.502353       -13.6697
 207   2.0000      -0.501521       -13.6471
 208   2.0000      -0.497005       -13.5242
 209   2.0000      -0.492100       -13.3907
 210   2.0000      -0.490446       -13.3457
 211   2.0000      -0.485852       -13.2207
 212   2.0000      -0.481854       -13.1119
 213   2.0000      -0.481533       -13.1032
 214   2.0000      -0.476917       -12.9776
 215   2.0000      -0.474432       -12.9099
 216   2.0000      -0.471976       -12.8431
 217   2.0000      -0.469388       -12.7727
 218   2.0000      -0.465594       -12.6694
 219   2.0000      -0.465349       -12.6628
 220   2.0000      -0.464204       -12.6316
 221   2.0000      -0.459813       -12.5121
 222   2.0000      -0.458687       -12.4815
 223   2.0000      -0.457176       -12.4404
 224   2.0000      -0.454641       -12.3714
 225   2.0000      -0.454145       -12.3579
 226   2.0000      -0.453046       -12.3280
 227   2.0000      -0.451472       -12.2852
 228   2.0000      -0.449892       -12.2422
 229   2.0000      -0.447039       -12.1646
 230   2.0000      -0.444372       -12.0920
 231   2.0000      -0.443672       -12.0729
 232   2.0000      -0.441754       -12.0207
 233   2.0000      -0.437927       -11.9166
 234   2.0000      -0.436862       -11.8876
 235   2.0000      -0.431269       -11.7354
 236   2.0000      -0.430979       -11.7275
 237   2.0000      -0.430544       -11.7157
 238   2.0000      -0.423719       -11.5300
 239   2.0000      -0.422006       -11.4834
 240   2.0000      -0.419636       -11.4189
 241   2.0000      -0.418208       -11.3800
 242   2.0000      -0.416818       -11.3422
 243   2.0000      -0.414010       -11.2658
 244   2.0000      -0.413304       -11.2466
 245   2.0000      -0.408384       -11.1127
 246   2.0000      -0.403343       -10.9755
 247   2.0000      -0.394558       -10.7365
 248   2.0000      -0.393535       -10.7086
 249   2.0000      -0.392310       -10.6753
 250   2.0000      -0.389512       -10.5991
 251   2.0000      -0.388177       -10.5628
 252   2.0000      -0.386253       -10.5105
 253   2.0000      -0.384132       -10.4528
 254   2.0000      -0.378750       -10.3063
 255   2.0000      -0.378090       -10.2883
 256   2.0000      -0.377896       -10.2831
 257   2.0000      -0.376052       -10.2329
 258   2.0000      -0.375122       -10.2076
 259   2.0000      -0.367734       -10.0066
 260   2.0000      -0.363001        -9.8778
 261   2.0000      -0.360131        -9.7997
 262   2.0000      -0.359745        -9.7892
 263   2.0000      -0.350432        -9.5357
 264   2.0000      -0.348089        -9.4720
 265   2.0000      -0.342916        -9.3312
 266   2.0000      -0.332760        -9.0549
 267   2.0000      -0.325027        -8.8444
 268   2.0000      -0.322932        -8.7874
 269   2.0000      -0.319504        -8.6941
 270   2.0000      -0.314126        -8.5478
 271   2.0000      -0.300605        -8.1799
 272   2.0000      -0.296297        -8.0626
 273   2.0000      -0.287512        -7.8236
 274   2.0000      -0.268540        -7.3073
 275   2.0000      -0.263600        -7.1729
 276   2.0000      -0.246021        -6.6946
 277   2.0000      -0.232151        -6.3171
 278   0.0000      -0.095356        -2.5948
 279   0.0000      -0.090179        -2.4539
 280   0.0000      -0.072389        -1.9698
 281   0.0000      -0.048477        -1.3191
 282   0.0000      -0.037689        -1.0256

MULLIKEN ATOMIC CHARGES
-----------------------
   0 C :    0.327138
   1 C :   -0.345247
   2 C :   -0.186218
   3 N :    0.150265
   4 C :   -0.198109
   5 N :    0.150901
   6 C :    0.009307
   7 C :    0.000312
   8 C :   -0.070567
   9 C :    0.116003
  10 C :   -0.091935
  11 C :   -0.020337
  12 S :    0.191935
  13 C :   -0.125094
  14 C :    0.038545
  15 Br:    0.028899
  16 C :    0.165891
  17 O :   -0.231047
  18 C :   -0.132167
  19 C :    0.031086
  20 N :   -0.005543
  21 C :   -0.128219
  22 S :    0.178362
  23 C :    0.002138
  24 N :    0.276319
  25 O :   -0.247110
  26 O :   -0.256032
  27 C :   -0.001645
  28 C :    0.149971
  29 C :   -0.033734
  30 C :   -0.002303
  31 C :    0.119232
  32 C :   -0.094169
  33 C :    0.017075
  34 C :    0.102323
  35 C :   -0.046305
  36 C :   -0.020603
  37 C :    0.099823
  38 C :    0.034210
  39 C :   -0.134311
  40 C :    0.046006
  41 C :    0.027346
  42 C :    0.076650
  43 C :    0.027292
  44 C :   -0.112558
  45 C :    0.120473
  46 C :   -0.013671
  47 C :   -0.048272
  48 C :   -0.008774
  49 C :    0.027680
  50 C :    0.002915
  51 N :   -0.042414
  52 C :   -0.018833
  53 C :    0.083706
  54 C :   -0.073840
  55 S :    0.798021
  56 O :   -0.469626
  57 O :   -0.466730
  58 C :   -0.012375
  59 C :    0.003525
  60 C :    0.070763
  61 C :   -0.046802
  62 C :    0.055437
  63 C :    0.000605
  64 C :    0.040650
  65 C :   -0.018018
  66 C :    0.055849
  67 C :   -0.023024
  68 C :    0.052717
  69 C :    0.007526
  70 C :    0.047760
  71 C :   -0.017705
  72 C :    0.013263
  73 C :   -0.027142
  74 H :   -0.009784
  75 H :   -0.005081
  76 H :    0.000587
  77 H :    0.045662
  78 H :    0.185710
  79 H :    0.013750
  80 H :   -0.011917
  81 H :   -0.025646
  82 H :   -0.033619
  83 H :   -0.035484
  84 H :   -0.029254
  85 H :    0.009365
  86 H :    0.001384
  87 H :    0.020695
  88 H :    0.005386
  89 H :    0.019094
  90 H :    0.004220
  91 H :   -0.004905
  92 H :    0.030586
  93 H :    0.012958
  94 H :    0.003074
  95 H :   -0.020134
  96 H :   -0.033708
  97 H :   -0.037836
  98 H :   -0.013079
  99 H :   -0.042690
 100 H :    0.127349
 101 H :   -0.005087
 102 H :   -0.021940
 103 H :   -0.031160
 104 H :   -0.025798
 105 H :   -0.025442
 106 H :   -0.027570
 107 H :   -0.021686
 108 H :    0.000528
 109 H :   -0.020545
 110 H :    0.005853
 111 H :    0.018724
Sum of atomic charges:   -0.0000000

LOEWDIN ATOMIC CHARGES
----------------------
   0 C :    0.078807
   1 C :   -0.148880
   2 C :   -0.019862
   3 N :   -0.053815
   4 C :   -0.020908
   5 N :   -0.052558
   6 C :   -0.017969
   7 C :   -0.051572
   8 C :    0.023785
   9 C :   -0.033851
  10 C :   -0.143668
  11 C :   -0.007193
  12 S :    0.438218
  13 C :   -0.270957
  14 C :   -0.069988
  15 Br:    0.140425
  16 C :    0.097860
  17 O :   -0.182350
  18 C :   -0.148729
  19 C :    0.113017
  20 N :    0.082344
  21 C :   -0.119469
  22 S :    0.470105
  23 C :   -0.199605
  24 N :    0.273363
  25 O :   -0.213607
  26 O :   -0.222269
  27 C :    0.002680
  28 C :   -0.077803
  29 C :   -0.040576
  30 C :    0.001039
  31 C :   -0.029343
  32 C :   -0.014721
  33 C :    0.009072
  34 C :   -0.013729
  35 C :   -0.019808
  36 C :   -0.017480
  37 C :   -0.016243
  38 C :    0.003765
  39 C :   -0.034235
  40 C :   -0.016440
  41 C :   -0.056398
  42 C :   -0.009549
  43 C :   -0.058791
  44 C :   -0.013617
  45 C :   -0.025570
  46 C :   -0.014817
  47 C :   -0.018698
  48 C :    0.010476
  49 C :   -0.048369
  50 C :    0.004462
  51 N :    0.097187
  52 C :   -0.009679
  53 C :   -0.080727
  54 C :   -0.227996
  55 S :    1.179521
  56 O :   -0.510923
  57 O :   -0.506941
  58 C :   -0.145926
  59 C :   -0.016288
  60 C :   -0.080705
  61 C :    0.023370
  62 C :   -0.063154
  63 C :    0.079540
  64 C :   -0.069054
  65 C :    0.049513
  66 C :   -0.065803
  67 C :    0.022360
  68 C :   -0.067603
  69 C :    0.081675
  70 C :   -0.072224
  71 C :    0.047245
  72 C :   -0.020498
  73 C :   -0.058132
  74 H :    0.041372
  75 H :    0.042115
  76 H :    0.039952
  77 H :    0.036934
  78 H :    0.084038
  79 H :    0.045190
  80 H :    0.026770
  81 H :    0.027019
  82 H :    0.024962
  83 H :    0.026878
  84 H :    0.025778
  85 H :    0.020981
  86 H :    0.020353
  87 H :    0.025648
  88 H :    0.022637
  89 H :    0.024391
  90 H :    0.026464
  91 H :    0.019306
  92 H :    0.027797
  93 H :    0.027951
  94 H :    0.019909
  95 H :    0.030405
  96 H :    0.023339
  97 H :    0.026190
  98 H :    0.026138
  99 H :    0.022714
 100 H :    0.093122
 101 H :    0.022867
 102 H :    0.032308
 103 H :    0.022194
 104 H :    0.034337
 105 H :    0.024387
 106 H :    0.024054
 107 H :    0.036709
 108 H :    0.024721
 109 H :    0.028690
 110 H :    0.016958
 111 H :    0.023686

  Mayer bond orders larger than 0.100000
B(  0-C ,  1-C ) :   1.6278 B(  0-C ,  6-C ) :   1.0034 B(  0-C , 18-C ) :   1.0979
B(  1-C ,  2-C ) :   1.1439 B(  1-C ,  4-C ) :   1.1485 B(  2-C ,  3-N ) :   2.9686
B(  4-C ,  5-N ) :   2.9577 B(  6-C ,  7-C ) :   1.2733 B(  6-C , 11-C ) :   1.4276
B(  7-C ,  8-C ) :   1.4203 B(  7-C , 16-C ) :   0.9837 B(  8-C ,  9-C ) :   1.2430
B(  8-C , 74-H ) :   1.0193 B(  9-C , 10-C ) :   1.3097 B(  9-C , 14-C ) :   1.1637
B( 10-C , 11-C ) :   1.3186 B( 10-C , 12-S ) :   1.0908 B( 11-C , 75-H ) :   0.9805
B( 12-S , 13-C ) :   1.0884 B( 13-C , 14-C ) :   1.6165 B( 13-C , 15-Br) :   1.0219
B( 14-C , 76-H ) :   1.0001 B( 16-C , 17-O ) :   2.0145 B( 16-C , 18-C ) :   1.0138
B( 17-O , 78-H ) :   0.1455 B( 18-C , 19-C ) :   1.4403 B( 19-C , 20-N ) :   1.3524
B( 19-C , 77-H ) :   0.9319 B( 20-N , 21-C ) :   1.1883 B( 20-N , 78-H ) :   0.8213
B( 21-C , 22-S ) :   1.1296 B( 21-C , 28-C ) :   1.3772 B( 22-S , 23-C ) :   1.0851
B( 23-C , 24-N ) :   0.9642 B( 23-C , 27-C ) :   1.5026 B( 24-N , 25-O ) :   1.5343
B( 24-N , 26-O ) :   1.5168 B( 25-O , 26-O ) :   0.2624 B( 27-C , 28-C ) :   1.2165
B( 27-C , 79-H ) :   1.0011 B( 28-C , 29-C ) :   1.0646 B( 29-C , 30-C ) :   1.7355
B( 29-C , 80-H ) :   0.9621 B( 30-C , 31-C ) :   1.0579 B( 30-C , 81-H ) :   0.9846
B( 31-C , 32-C ) :   1.2993 B( 31-C , 36-C ) :   1.3365 B( 32-C , 33-C ) :   1.4126
B( 32-C , 82-H ) :   0.9967 B( 33-C , 34-C ) :   1.3618 B( 33-C , 39-C ) :   0.9268
B( 34-C , 35-C ) :   1.3447 B( 34-C , 37-C ) :   0.9970 B( 35-C , 36-C ) :   1.3728
B( 35-C , 83-H ) :   0.9911 B( 36-C , 84-H ) :   0.9937 B( 37-C , 38-C ) :   1.3846
B( 37-C , 47-C ) :   1.3318 B( 38-C , 39-C ) :   0.9187 B( 38-C , 44-C ) :   1.3745
B( 39-C , 40-C ) :   1.0328 B( 39-C , 42-C ) :   1.0128 B( 40-C , 41-C ) :   1.1040
B( 40-C , 85-H ) :   0.9382 B( 40-C , 86-H ) :   0.9389 B( 41-C , 87-H ) :   0.9651
B( 41-C , 88-H ) :   0.9645 B( 41-C , 89-H ) :   0.9631 B( 42-C , 43-C ) :   1.1158
B( 42-C , 90-H ) :   0.9386 B( 42-C , 91-H ) :   0.9371 B( 43-C , 92-H ) :   0.9608
B( 43-C , 93-H ) :   0.9594 B( 43-C , 94-H ) :   0.9628 B( 44-C , 45-C ) :   1.2912
B( 44-C , 95-H ) :   1.0117 B( 45-C , 46-C ) :   1.3525 B( 45-C , 48-C ) :   1.0571
B( 46-C , 47-C ) :   1.3922 B( 46-C , 96-H ) :   0.9842 B( 47-C , 97-H ) :   0.9899
B( 48-C , 49-C ) :   1.6998 B( 48-C , 98-H ) :   0.9728 B( 49-C , 50-C ) :   1.0995
B( 49-C , 99-H ) :   0.9573 B( 50-C , 51-N ) :   1.2316 B( 50-C , 54-C ) :   1.4945
B( 51-N , 52-C ) :   1.2034 B( 51-N ,100-H ) :   0.9330 B( 52-C , 53-C ) :   1.4424
B( 52-C ,101-H ) :   0.9860 B( 53-C , 54-C ) :   1.3424 B( 53-C , 59-C ) :   1.0334
B( 54-C , 55-S ) :   0.8150 B( 55-S , 56-O ) :   1.6536 B( 55-S , 57-O ) :   1.6841
B( 55-S , 58-C ) :   0.8041 B( 58-C , 59-C ) :   1.7155 B( 58-C , 60-C ) :   1.1082
B( 59-C ,102-H ) :   0.9910 B( 60-C , 61-C ) :   1.4716 B( 60-C , 71-C ) :   1.1904
B( 61-C , 62-C ) :   1.1279 B( 61-C ,103-H ) :   1.0107 B( 62-C , 63-C ) :   1.3986
B( 62-C , 70-C ) :   1.1521 B( 63-C , 64-C ) :   1.1639 B( 63-C ,104-H ) :   1.0039
B( 64-C , 65-C ) :   1.3848 B( 64-C , 68-C ) :   1.1431 B( 65-C , 66-C ) :   1.1866
B( 65-C ,105-H ) :   1.0072 B( 66-C , 67-C ) :   1.4680 B( 66-C , 72-C ) :   1.0814
B( 67-C , 68-C ) :   1.1087 B( 67-C ,106-H ) :   1.0158 B( 68-C , 69-C ) :   1.4249
B( 69-C , 70-C ) :   1.1532 B( 69-C ,107-H ) :   1.0056 B( 70-C , 71-C ) :   1.3817
B( 71-C ,108-H ) :   0.9889 B( 72-C , 73-C ) :   1.9382 B( 72-C ,109-H ) :   0.9660
B( 73-C ,110-H ) :   0.9526 B( 73-C ,111-H ) :   0.9491

-----------------------------------------------------------------------------
         ABSORPTION SPECTRUM VIA TRANSITION ELECTRIC DIPOLE MOMENTS
-----------------------------------------------------------------------------
State   Energy  Wavelength   fosc         T2         TX        TY        TZ
        (cm-1)    (nm)                  (au**2)     (au)      (au)      (au)
-----------------------------------------------------------------------------
   0    8114.7   1232.3   0.003076202   0.12480   0.34393  -0.06369  -0.04954
   1   20390.6    490.4   0.605853460   9.78169   1.92434  -0.83835   2.31857
   2   21373.4    467.9   0.102599156   1.58033  -1.19803  -0.36907   0.09394
   3   22403.4    446.4   0.302988674   4.45234  -2.04980   0.43581   0.24641
   4   23599.8    423.7   0.017044298   0.23776  -0.39409  -0.16531  -0.23480
   5   24662.1    405.5   0.213951755   2.85602   1.54544   0.61851   0.29168
   6   25545.4    391.5   0.117017037   1.50804  -1.17955  -0.04597   0.33849
   7   26329.0    379.8   1.663204376  20.79635   3.49162   2.60515  -1.34839
   8   26787.8    373.3   0.228440736   2.80745  -1.29750  -0.52068  -0.92350
   9   28001.2    357.1   0.070999455   0.83475  -0.17985   0.75360  -0.48424
  10   28377.5    352.4   0.797867082   9.25618  -1.81854   2.33306  -0.71129
  11   29211.3    342.3   0.060031584   0.67656   0.66369   0.47668   0.09406
  12   29513.9    338.8   0.024793973   0.27656   0.51324   0.11417  -0.01082
  13   29836.3    335.2   0.574793671   6.34225   1.82012   1.74031  -0.02735
  14   30835.9    324.3   0.113583704   1.21265   0.49923   0.98154  -0.00317
  15   31292.0    319.6   0.869788390   9.15072  -1.98437   2.28195  -0.07545
  16   31480.2    317.7   0.134869487   1.41043   1.17022   0.18656   0.07888
  17   31606.5    316.4   0.325131461   3.38656   1.27259   1.28770  -0.32999
  18   31763.1    314.8   0.018989085   0.19681   0.20283  -0.26588  -0.29152
  19   31883.2    313.6   0.337044431   3.48017  -1.65625  -0.72916   0.45315
  20   33318.5    300.1   0.040307842   0.39827  -0.56739   0.27143  -0.05166
  21   33937.6    294.7   0.040288391   0.39082   0.54311   0.16470  -0.26214
  22   34048.2    293.7   0.003077208   0.02975  -0.09412  -0.13098   0.06115
  23   34095.9    293.3   0.431089742   4.16237   0.67956   1.67193  -0.95144
  24   34433.0    290.4   0.000692611   0.00662  -0.00891  -0.06426   0.04912
  25   34583.0    289.2   0.153116577   1.45759  -1.00816  -0.65771   0.09284
  26   34667.2    288.5   0.251633332   2.38960  -0.26539  -1.45190   0.45951
  27   35122.0    284.7   0.021539662   0.20190  -0.18124  -0.40363   0.07831
  28   35213.4    284.0   0.006944560   0.06493   0.23923   0.03643  -0.07981
  29   35698.7    280.1   0.013668577   0.12605   0.22428  -0.18710  -0.20186
  30   36259.5    275.8   0.025582087   0.23227  -0.38925  -0.28255   0.03031
  31   36425.8    274.5   0.000181364   0.00164  -0.03913   0.00152  -0.01026
  32   36656.3    272.8   0.017587815   0.15796   0.31050  -0.16383  -0.18629
  33   36843.4    271.4   0.016861913   0.15067  -0.06105  -0.10992  -0.36723
  34   37045.2    269.9   0.000771787   0.00686  -0.06550  -0.01095  -0.04948
  35   37155.6    269.1   0.000366383   0.00325   0.05280  -0.01903  -0.00983
  36   37589.2    266.0   0.046616906   0.40828  -0.63581   0.02173  -0.05962
  37   38143.0    262.2   0.003954978   0.03414  -0.14300   0.11662  -0.00930
  38   38241.7    261.5   0.087262122   0.75121   0.56647  -0.03269   0.65518
  39   38296.5    261.1   0.126705707   1.08921   0.89378   0.31424   0.43774
  40   38523.3    259.6   0.168638517   1.44115  -1.10782   0.39840  -0.23486
  41   38618.2    258.9   0.039799881   0.33929   0.41384  -0.31753   0.25923
  42   39007.9    256.4   0.003056011   0.02579   0.02749   0.09986   0.12273
  43   39365.0    254.0   0.000231281   0.00193   0.03703   0.01397  -0.01918
  44   39620.5    252.4   0.062717788   0.52113   0.65155  -0.02088  -0.31012
  45   39854.3    250.9   0.026659252   0.22022   0.19304  -0.35151   0.24371
  46   40100.2    249.4   0.028761130   0.23612  -0.01058   0.41515  -0.25231
  47   40225.3    248.6   0.048327353   0.39552   0.53678  -0.12294   0.30377

FINAL SINGLE POINT ENERGY     -6723.311227963556

DIPOLE MOMENT
-------------
                                X             Y             Z
Electronic contribution:     45.97662     -57.61891     122.51932
Nuclear contribution   :    -45.40239      62.89623    -124.30598
                        -----------------------------------------
Total Dipole Moment    :      0.57422       5.27731      -1.78666
                        -----------------------------------------
Magnitude (a.u.)       :      5.60107
Magnitude (Debye)      :     14.23678

Rotational constants in cm-1:     0.000736     0.000296     0.000228
Rotational constants in MHz :    22.074235     8.877114     6.838158

                             ****ORCA TERMINATED NORMALLY****
TOTAL RUN TIME: 0 days 0 hours 11 minutes 55 seconds 425 msec
