                         Program Version 4.2.0 -  RELEASE  -
|  1> # ORCA input file
|  2> # SCF done       -182.550826841528          0.000599537362
|  3> ! CAM-B3LYP def2-SVP def2/J RIJCOSX Grid4 TightSCF
|  4> %maxcore 5000
|  5> %tddft
|  6>     Mode sTDDFT
|  7>     Ethresh 5.0
|  8>     maxcore 5000
|  9> end
| 10>
| 11> %pal
| 12>   nprocs 6
| 13>   end
| 14> * xyz 0 1
| 15>    C       -4.36461         1.98492         5.27402
| 16>    C       -3.26195         2.69736         5.69923
| 17>    C       -2.20671         2.12639         6.43248
| 18>    N       -1.30212         1.69194         6.99332
| 19>    C       -3.00811         4.06315         5.47604
| 20>    N       -2.70814         5.16788         5.36050
| 21>    C       -4.61591         0.57915         5.60521
| 22>    C       -5.86132         0.20778         5.04649
| 23>    C       -6.38951        -1.05114         5.17031
| 24>    C       -5.65713        -1.99460         5.90104
| 25>    C       -4.43136        -1.60922         6.48357
| 26>    C       -3.89093        -0.33434         6.34550
| 27>    S       -3.71189        -2.91669         7.37986
| 28>    C       -5.04453        -3.95138         6.94244
| 29>    C       -5.98476        -3.35097         6.17743
| 30>   Br       -5.06981        -5.72951         7.53695
| 31>    C       -6.46588         1.39703         4.41228
| 32>    O       -7.62779         1.49025         4.04104
| 33>    C       -5.45997         2.45099         4.46637
| 34>    C       -5.57296         3.73422         3.93316
| 35>    C       -6.45531         4.29229         3.02626
| 36>    C       -7.39794         3.77807         2.13122
| 37>    C       -8.18614         4.62084         1.31823
| 38>    C       -8.98608         3.96251         0.42345
| 39>    C       -8.83539         2.56921         0.47969
| 40>    S       -7.68551         2.12089         1.71320
| 41>    C       -9.53442         1.61101        -0.25953
| 42>    C      -10.49678         1.83174        -1.25270
| 43>    C      -11.04386         0.67599        -1.75335
| 44>    C      -10.53155        -0.49514        -1.17769
| 45>    S       -9.31295        -0.09713         0.00985
| 46>    C      -10.96452        -1.78736        -1.47139
| 47>    C      -10.52175        -2.97398        -0.93753
| 48>    S       -9.20458        -3.08758         0.20349
| 49>    C       -9.34178        -4.82647         0.33799
| 50>    C      -10.40235        -5.30183        -0.48477
| 51>    C      -11.05126        -4.27447        -1.20810
| 52>    C      -12.09901        -4.59339        -2.07043
| 53>    C      -12.49845        -5.90487        -2.21767
| 54>    S      -13.82067        -6.28355        -3.31520
| 55>    C      -11.85230        -6.93377        -1.49534
| 56>    O      -12.28876        -8.21146        -1.67926
| 57>    C      -10.81733        -6.62854        -0.64115
| 58>    C       -8.49377        -5.56722         1.13769
| 59>    C       -7.40192        -5.04061         1.81562
| 60>    C       -6.54848        -5.78326         2.60230
| 61>    C       -5.39239        -5.27955         3.19385
| 62>    C       -4.48846        -5.97440         4.00934
| 63>    C       -3.41507        -5.22366         4.41984
| 64>    C       -3.43208        -3.90748         3.93663
| 65>    S       -4.84785        -3.63379         2.95211
| 66>    C       -2.50462        -2.89600         4.16804
| 67>    C       -1.35038        -2.95787         4.97269
| 68>    C       -0.65336        -1.78502         5.02121
| 69>    C       -1.22719        -0.74568         4.25582
| 70>    S       -2.68048        -1.31281         3.45749
| 71>    C       -0.77010         0.54573         4.14227
| 72>    C       -1.43359         1.53727         3.40880
| 73>    O       -2.56104         1.23749         2.69319
| 74>    C       -1.19195         2.89769         3.27088
| 75>    C       -0.29589         3.98949         3.65678
| 76>    O        0.70512         3.99637         4.32263
| 77>    N       -0.85505         5.10595         3.03050
| 78>    C       -2.00926         4.86560         2.30296
| 79>    O       -2.64754         5.69241         1.70244
| 80>    C       -2.21573         3.41668         2.44318
| 81>    C       -3.03767         2.36356         2.09946
| 82>    C       -4.18558         2.27966         1.24813
| 83>    C       -4.65831         3.33496         0.58375
| 84>    H       -7.34036        -1.30194         4.72735
| 85>    H       -2.94929        -0.09701         6.81098
| 86>    H       -6.87187        -3.84064         5.81844
| 87>    H       -4.83766         4.44048         4.29799
| 88>    H       -6.37274         5.37153         2.95034
| 89>    H       -8.15355         5.69092         1.42256
| 90>    H       -9.67153         4.44882        -0.24663
| 91>    H      -10.77694         2.81813        -1.57406
| 92>    H      -11.80506         0.64830        -2.51303
| 93>    H      -11.76471        -1.85051        -2.19725
| 94>    H      -12.60952        -3.82884        -2.63339
| 95>    H      -13.78978        -7.59231        -3.08845
| 96>    H      -11.77225        -8.81759        -1.13548
| 97>    H      -10.32789        -7.42102        -0.09318
| 98>    H       -8.67676        -6.63046         1.21623
| 99>    H       -7.19356        -3.98423         1.69486
|100>    H       -6.76167        -6.83115         2.77073
|101>    H       -4.64481        -7.00216         4.28514
|102>    H       -2.62740        -5.59574         5.04971
|103>    H       -1.06749        -3.85018         5.50122
|104>    H        0.24425        -1.62648         5.59071
|105>    H        0.12115         0.84661         4.66992
|106>    H       -0.48880         6.03686         3.16955
|107>    H       -4.63761         1.30053         1.17052
|108>    H       -4.20124         4.30629         0.67317
|109>    H       -5.50797         3.24735        -0.06978
|110> *
|111>
|112>                          ****END OF INPUT****

CARTESIAN COORDINATES (ANGSTROEM)
---------------------------------
  C     -4.364610    1.984920    5.274020
  C     -3.261950    2.697360    5.699230
  C     -2.206710    2.126390    6.432480
  N     -1.302120    1.691940    6.993320
  C     -3.008110    4.063150    5.476040
  N     -2.708140    5.167880    5.360500
  C     -4.615910    0.579150    5.605210
  C     -5.861320    0.207780    5.046490
  C     -6.389510   -1.051140    5.170310
  C     -5.657130   -1.994600    5.901040
  C     -4.431360   -1.609220    6.483570
  C     -3.890930   -0.334340    6.345500
  S     -3.711890   -2.916690    7.379860
  C     -5.044530   -3.951380    6.942440
  C     -5.984760   -3.350970    6.177430
  Br    -5.069810   -5.729510    7.536950
  C     -6.465880    1.397030    4.412280
  O     -7.627790    1.490250    4.041040
  C     -5.459970    2.450990    4.466370
  C     -5.572960    3.734220    3.933160
  C     -6.455310    4.292290    3.026260
  C     -7.397940    3.778070    2.131220
  C     -8.186140    4.620840    1.318230
  C     -8.986080    3.962510    0.423450
  C     -8.835390    2.569210    0.479690
  S     -7.685510    2.120890    1.713200
  C     -9.534420    1.611010   -0.259530
  C    -10.496780    1.831740   -1.252700
  C    -11.043860    0.675990   -1.753350
  C    -10.531550   -0.495140   -1.177690
  S     -9.312950   -0.097130    0.009850
  C    -10.964520   -1.787360   -1.471390
  C    -10.521750   -2.973980   -0.937530
  S     -9.204580   -3.087580    0.203490
  C     -9.341780   -4.826470    0.337990
  C    -10.402350   -5.301830   -0.484770
  C    -11.051260   -4.274470   -1.208100
  C    -12.099010   -4.593390   -2.070430
  C    -12.498450   -5.904870   -2.217670
  S    -13.820670   -6.283550   -3.315200
  C    -11.852300   -6.933770   -1.495340
  O    -12.288760   -8.211460   -1.679260
  C    -10.817330   -6.628540   -0.641150
  C     -8.493770   -5.567220    1.137690
  C     -7.401920   -5.040610    1.815620
  C     -6.548480   -5.783260    2.602300
  C     -5.392390   -5.279550    3.193850
  C     -4.488460   -5.974400    4.009340
  C     -3.415070   -5.223660    4.419840
  C     -3.432080   -3.907480    3.936630
  S     -4.847850   -3.633790    2.952110
  C     -2.504620   -2.896000    4.168040
  C     -1.350380   -2.957870    4.972690
  C     -0.653360   -1.785020    5.021210
  C     -1.227190   -0.745680    4.255820
  S     -2.680480   -1.312810    3.457490
  C     -0.770100    0.545730    4.142270
  C     -1.433590    1.537270    3.408800
  O     -2.561040    1.237490    2.693190
  C     -1.191950    2.897690    3.270880
  C     -0.295890    3.989490    3.656780
  O      0.705120    3.996370    4.322630
  N     -0.855050    5.105950    3.030500
  C     -2.009260    4.865600    2.302960
  O     -2.647540    5.692410    1.702440
  C     -2.215730    3.416680    2.443180
  C     -3.037670    2.363560    2.099460
  C     -4.185580    2.279660    1.248130
  C     -4.658310    3.334960    0.583750
  H     -7.340360   -1.301940    4.727350
  H     -2.949290   -0.097010    6.810980
  H     -6.871870   -3.840640    5.818440
  H     -4.837660    4.440480    4.297990
  H     -6.372740    5.371530    2.950340
  H     -8.153550    5.690920    1.422560
  H     -9.671530    4.448820   -0.246630
  H    -10.776940    2.818130   -1.574060
  H    -11.805060    0.648300   -2.513030
  H    -11.764710   -1.850510   -2.197250
  H    -12.609520   -3.828840   -2.633390
  H    -13.789780   -7.592310   -3.088450
  H    -11.772250   -8.817590   -1.135480
  H    -10.327890   -7.421020   -0.093180
  H     -8.676760   -6.630460    1.216230
  H     -7.193560   -3.984230    1.694860
  H     -6.761670   -6.831150    2.770730
  H     -4.644810   -7.002160    4.285140
  H     -2.627400   -5.595740    5.049710
  H     -1.067490   -3.850180    5.501220
  H      0.244250   -1.626480    5.590710
  H      0.121150    0.846610    4.669920
  H     -0.488800    6.036860    3.169550
  H     -4.637610    1.300530    1.170520
  H     -4.201240    4.306290    0.673170
  H     -5.507970    3.247350   -0.069780

 Total Charge           Charge          ....    0
 Multiplicity           Mult            ....    1
 Number of Electrons    NEL             ....  552
 Basis Dimension        Dim             .... 1142

ORBITAL ENERGIES
----------------

  NO   OCC          E(Eh)            E(eV)
   0   2.0000    -482.880531    -13139.8473
   1   2.0000     -88.964886     -2420.8576
   2   2.0000     -88.964753     -2420.8540
   3   2.0000     -88.963063     -2420.8080
   4   2.0000     -88.963030     -2420.8071
   5   2.0000     -88.956795     -2420.6375
   6   2.0000     -88.944773     -2420.3103
   7   2.0000     -88.935916     -2420.0693
   8   2.0000     -62.558007     -1702.2899
   9   2.0000     -56.391918     -1534.5021
  10   2.0000     -56.389319     -1534.4314
  11   2.0000     -56.389227     -1534.4289
  12   2.0000     -19.310777      -525.4730
  13   2.0000     -19.271734      -524.4106
  14   2.0000     -19.202163      -522.5174
  15   2.0000     -19.201938      -522.5113
  16   2.0000     -19.185287      -522.0582
  17   2.0000     -14.441597      -392.9758
  18   2.0000     -14.392223      -391.6323
  19   2.0000     -14.390358      -391.5815
  20   2.0000     -10.390633      -282.7435
  21   2.0000     -10.390289      -282.7341
  22   2.0000     -10.362921      -281.9894
  23   2.0000     -10.356873      -281.8248
  24   2.0000     -10.356654      -281.8189
  25   2.0000     -10.346532      -281.5434
  26   2.0000     -10.331868      -281.1444
  27   2.0000     -10.330753      -281.1141
  28   2.0000     -10.325595      -280.9737
  29   2.0000     -10.324772      -280.9513
  30   2.0000     -10.321771      -280.8697
  31   2.0000     -10.320776      -280.8426
  32   2.0000     -10.320566      -280.8369
  33   2.0000     -10.314678      -280.6767
  34   2.0000     -10.312328      -280.6127
  35   2.0000     -10.310902      -280.5739
  36   2.0000     -10.309049      -280.5235
  37   2.0000     -10.306720      -280.4601
  38   2.0000     -10.306540      -280.4552
  39   2.0000     -10.304849      -280.4092
  40   2.0000     -10.301808      -280.3264
  41   2.0000     -10.300503      -280.2909
  42   2.0000     -10.300111      -280.2803
  43   2.0000     -10.298425      -280.2344
  44   2.0000     -10.297949      -280.2214
  45   2.0000     -10.297865      -280.2192
  46   2.0000     -10.297742      -280.2158
  47   2.0000     -10.297729      -280.2154
  48   2.0000     -10.297484      -280.2088
  49   2.0000     -10.295034      -280.1421
  50   2.0000     -10.294321      -280.1227
  51   2.0000     -10.294027      -280.1147
  52   2.0000     -10.292488      -280.0728
  53   2.0000     -10.292467      -280.0723
  54   2.0000     -10.290796      -280.0268
  55   2.0000     -10.290695      -280.0240
  56   2.0000     -10.290007      -280.0053
  57   2.0000     -10.288367      -279.9607
  58   2.0000     -10.285324      -279.8779
  59   2.0000     -10.284905      -279.8665
  60   2.0000     -10.284841      -279.8648
  61   2.0000     -10.284682      -279.8604
  62   2.0000     -10.283545      -279.8295
  63   2.0000     -10.280473      -279.7459
  64   2.0000     -10.278427      -279.6902
  65   2.0000     -10.276631      -279.6414
  66   2.0000     -10.273893      -279.5668
  67   2.0000     -10.269572      -279.4493
  68   2.0000     -10.268827      -279.4290
  69   2.0000     -10.266304      -279.3603
  70   2.0000     -10.261890      -279.2402
  71   2.0000     -10.261048      -279.2173
  72   2.0000     -10.258518      -279.1485
  73   2.0000      -8.787347      -239.1159
  74   2.0000      -8.060209      -219.3294
  75   2.0000      -8.059428      -219.3082
  76   2.0000      -8.058385      -219.2798
  77   2.0000      -8.058365      -219.2793
  78   2.0000      -8.052345      -219.1155
  79   2.0000      -8.038703      -218.7442
  80   2.0000      -8.031646      -218.5522
  81   2.0000      -6.623415      -180.2323
  82   2.0000      -6.609162      -179.8444
  83   2.0000      -6.609070      -179.8419
  84   2.0000      -6.029700      -164.0765
  85   2.0000      -6.029125      -164.0608
  86   2.0000      -6.028132      -164.0338
  87   2.0000      -6.027825      -164.0254
  88   2.0000      -6.025706      -163.9678
  89   2.0000      -6.024794      -163.9430
  90   2.0000      -6.023906      -163.9188
  91   2.0000      -6.023789      -163.9156
  92   2.0000      -6.021787      -163.8612
  93   2.0000      -6.021738      -163.8598
  94   2.0000      -6.020823      -163.8349
  95   2.0000      -6.020026      -163.8132
  96   2.0000      -6.019547      -163.8002
  97   2.0000      -6.017644      -163.7484
  98   2.0000      -6.014079      -163.6514
  99   2.0000      -6.008056      -163.4875
 100   2.0000      -6.003685      -163.3686
 101   2.0000      -6.001823      -163.3179
 102   2.0000      -6.000982      -163.2950
 103   2.0000      -5.997723      -163.2063
 104   2.0000      -5.991979      -163.0500
 105   2.0000      -2.739311       -74.5404
 106   2.0000      -2.735355       -74.4328
 107   2.0000      -2.735239       -74.4296
 108   2.0000      -2.723932       -74.1220
 109   2.0000      -2.723912       -74.1214
 110   2.0000      -1.225586       -33.3499
 111   2.0000      -1.166207       -31.7341
 112   2.0000      -1.145396       -31.1678
 113   2.0000      -1.125200       -30.6182
 114   2.0000      -1.099642       -29.9228
 115   2.0000      -1.033074       -28.1114
 116   2.0000      -1.012378       -27.5482
 117   2.0000      -1.008477       -27.4420
 118   2.0000      -1.002698       -27.2848
 119   2.0000      -0.992894       -27.0180
 120   2.0000      -0.991521       -26.9806
 121   2.0000      -0.988989       -26.9117
 122   2.0000      -0.972645       -26.4670
 123   2.0000      -0.966079       -26.2883
 124   2.0000      -0.965957       -26.2850
 125   2.0000      -0.953282       -25.9401
 126   2.0000      -0.930291       -25.3145
 127   2.0000      -0.924106       -25.1462
 128   2.0000      -0.922945       -25.1146
 129   2.0000      -0.919940       -25.0329
 130   2.0000      -0.905471       -24.6391
 131   2.0000      -0.891763       -24.2661
 132   2.0000      -0.889764       -24.2117
 133   2.0000      -0.882169       -24.0050
 134   2.0000      -0.879218       -23.9247
 135   2.0000      -0.868664       -23.6375
 136   2.0000      -0.866302       -23.5733
 137   2.0000      -0.862292       -23.4642
 138   2.0000      -0.852704       -23.2033
 139   2.0000      -0.848589       -23.0913
 140   2.0000      -0.842394       -22.9227
 141   2.0000      -0.836991       -22.7757
 142   2.0000      -0.828317       -22.5397
 143   2.0000      -0.822257       -22.3748
 144   2.0000      -0.816780       -22.2257
 145   2.0000      -0.811042       -22.0696
 146   2.0000      -0.810379       -22.0515
 147   2.0000      -0.798775       -21.7358
 148   2.0000      -0.790241       -21.5036
 149   2.0000      -0.771576       -20.9956
 150   2.0000      -0.761319       -20.7166
 151   2.0000      -0.760071       -20.6826
 152   2.0000      -0.752985       -20.4898
 153   2.0000      -0.742389       -20.2014
 154   2.0000      -0.735358       -20.0101
 155   2.0000      -0.733117       -19.9491
 156   2.0000      -0.719202       -19.5705
 157   2.0000      -0.706497       -19.2248
 158   2.0000      -0.697283       -18.9740
 159   2.0000      -0.690079       -18.7780
 160   2.0000      -0.683688       -18.6041
 161   2.0000      -0.674655       -18.3583
 162   2.0000      -0.670589       -18.2476
 163   2.0000      -0.665143       -18.0995
 164   2.0000      -0.661217       -17.9926
 165   2.0000      -0.657674       -17.8962
 166   2.0000      -0.653107       -17.7720
 167   2.0000      -0.645365       -17.5613
 168   2.0000      -0.640990       -17.4422
 169   2.0000      -0.638749       -17.3812
 170   2.0000      -0.635230       -17.2855
 171   2.0000      -0.629049       -17.1173
 172   2.0000      -0.627388       -17.0721
 173   2.0000      -0.620426       -16.8827
 174   2.0000      -0.611753       -16.6467
 175   2.0000      -0.608470       -16.5573
 176   2.0000      -0.606662       -16.5081
 177   2.0000      -0.600903       -16.3514
 178   2.0000      -0.596671       -16.2362
 179   2.0000      -0.588845       -16.0233
 180   2.0000      -0.586012       -15.9462
 181   2.0000      -0.584871       -15.9151
 182   2.0000      -0.581691       -15.8286
 183   2.0000      -0.574599       -15.6356
 184   2.0000      -0.569750       -15.5037
 185   2.0000      -0.564859       -15.3706
 186   2.0000      -0.560721       -15.2580
 187   2.0000      -0.556399       -15.1404
 188   2.0000      -0.553353       -15.0575
 189   2.0000      -0.548266       -14.9191
 190   2.0000      -0.542347       -14.7580
 191   2.0000      -0.538935       -14.6652
 192   2.0000      -0.536529       -14.5997
 193   2.0000      -0.534873       -14.5546
 194   2.0000      -0.530785       -14.4434
 195   2.0000      -0.530396       -14.4328
 196   2.0000      -0.529225       -14.4009
 197   2.0000      -0.523496       -14.2450
 198   2.0000      -0.520688       -14.1686
 199   2.0000      -0.518334       -14.1046
 200   2.0000      -0.514332       -13.9957
 201   2.0000      -0.511123       -13.9084
 202   2.0000      -0.510642       -13.8953
 203   2.0000      -0.507797       -13.8179
 204   2.0000      -0.506954       -13.7949
 205   2.0000      -0.504917       -13.7395
 206   2.0000      -0.501488       -13.6462
 207   2.0000      -0.500979       -13.6323
 208   2.0000      -0.499589       -13.5945
 209   2.0000      -0.496525       -13.5111
 210   2.0000      -0.494755       -13.4630
 211   2.0000      -0.490401       -13.3445
 212   2.0000      -0.488546       -13.2940
 213   2.0000      -0.486870       -13.2484
 214   2.0000      -0.482987       -13.1428
 215   2.0000      -0.481127       -13.0921
 216   2.0000      -0.478800       -13.0288
 217   2.0000      -0.476884       -12.9767
 218   2.0000      -0.474880       -12.9221
 219   2.0000      -0.473370       -12.8810
 220   2.0000      -0.471495       -12.8300
 221   2.0000      -0.469571       -12.7777
 222   2.0000      -0.468950       -12.7608
 223   2.0000      -0.462850       -12.5948
 224   2.0000      -0.456789       -12.4299
 225   2.0000      -0.456222       -12.4144
 226   2.0000      -0.454392       -12.3646
 227   2.0000      -0.449938       -12.2434
 228   2.0000      -0.448636       -12.2080
 229   2.0000      -0.447046       -12.1647
 230   2.0000      -0.442954       -12.0534
 231   2.0000      -0.442636       -12.0447
 232   2.0000      -0.437618       -11.9082
 233   2.0000      -0.436376       -11.8744
 234   2.0000      -0.433378       -11.7928
 235   2.0000      -0.430108       -11.7038
 236   2.0000      -0.429184       -11.6787
 237   2.0000      -0.425387       -11.5754
 238   2.0000      -0.423836       -11.5332
 239   2.0000      -0.423201       -11.5159
 240   2.0000      -0.419827       -11.4241
 241   2.0000      -0.419218       -11.4075
 242   2.0000      -0.418967       -11.4007
 243   2.0000      -0.411176       -11.1887
 244   2.0000      -0.406635       -11.0651
 245   2.0000      -0.404510       -11.0073
 246   2.0000      -0.399066       -10.8591
 247   2.0000      -0.397544       -10.8177
 248   2.0000      -0.394211       -10.7270
 249   2.0000      -0.388074       -10.5600
 250   2.0000      -0.384353       -10.4588
 251   2.0000      -0.379035       -10.3141
 252   2.0000      -0.375400       -10.2152
 253   2.0000      -0.370547       -10.0831
 254   2.0000      -0.370377       -10.0785
 255   2.0000      -0.369341       -10.0503
 256   2.0000      -0.359504        -9.7826
 257   2.0000      -0.356735        -9.7072
 258   2.0000      -0.350554        -9.5391
 259   2.0000      -0.346639        -9.4325
 260   2.0000      -0.346031        -9.4160
 261   2.0000      -0.337253        -9.1771
 262   2.0000      -0.336293        -9.1510
 263   2.0000      -0.332015        -9.0346
 264   2.0000      -0.327196        -8.9034
 265   2.0000      -0.322107        -8.7650
 266   2.0000      -0.320205        -8.7132
 267   2.0000      -0.303072        -8.2470
 268   2.0000      -0.300896        -8.1878
 269   2.0000      -0.293093        -7.9755
 270   2.0000      -0.286812        -7.8045
 271   2.0000      -0.282682        -7.6922
 272   2.0000      -0.270449        -7.3593
 273   2.0000      -0.263718        -7.1761
 274   2.0000      -0.223806        -6.0901
 275   2.0000      -0.198080        -5.3900
 276   0.0000      -0.121307        -3.3009
 277   0.0000      -0.081156        -2.2084
 278   0.0000      -0.054520        -1.4836
 279   0.0000      -0.040727        -1.1082
 280   0.0000      -0.027762        -0.7554

MULLIKEN ATOMIC CHARGES
-----------------------
   0 C :    0.318301
   1 C :   -0.427301
   2 C :   -0.190205
   3 N :    0.116167
   4 C :   -0.162506
   5 N :    0.117974
   6 C :    0.023175
   7 C :    0.019410
   8 C :   -0.103673
   9 C :    0.131310
  10 C :   -0.095185
  11 C :   -0.045046
  12 S :    0.156678
  13 C :   -0.131230
  14 C :    0.045056
  15 Br:   -0.003555
  16 C :    0.099401
  17 O :   -0.193566
  18 C :   -0.067563
  19 C :   -0.037644
  20 C :   -0.010631
  21 C :   -0.026085
  22 C :    0.012083
  23 C :    0.022713
  24 C :   -0.076813
  25 S :    0.163750
  26 C :   -0.018330
  27 C :    0.012589
  28 C :    0.026712
  29 C :   -0.062084
  30 S :    0.102595
  31 C :   -0.011372
  32 C :   -0.067202
  33 S :    0.084390
  34 C :   -0.021225
  35 C :    0.111681
  36 C :    0.142733
  37 C :   -0.065736
  38 C :   -0.100193
  39 S :    0.034007
  40 C :    0.166387
  41 O :   -0.200210
  42 C :   -0.103834
  43 C :   -0.050728
  44 C :    0.018104
  45 C :   -0.015478
  46 C :   -0.019057
  47 C :    0.019385
  48 C :    0.061948
  49 C :   -0.079584
  50 S :    0.112523
  51 C :   -0.026939
  52 C :    0.037858
  53 C :    0.052897
  54 C :   -0.054758
  55 S :    0.145869
  56 C :    0.033005
  57 C :    0.064886
  58 O :   -0.238679
  59 C :   -0.013131
  60 C :    0.166726
  61 O :   -0.125537
  62 N :   -0.148901
  63 C :    0.194707
  64 O :   -0.147899
  65 C :   -0.083703
  66 C :    0.131127
  67 C :   -0.028118
  68 C :    0.044056
  69 H :   -0.024563
  70 H :   -0.017778
  71 H :   -0.010334
  72 H :   -0.004051
  73 H :   -0.007534
  74 H :   -0.016717
  75 H :   -0.022865
  76 H :   -0.017072
  77 H :   -0.012861
  78 H :   -0.009961
  79 H :   -0.026960
  80 H :    0.085719
  81 H :    0.188411
  82 H :   -0.049213
  83 H :   -0.020347
  84 H :    0.015475
  85 H :   -0.014973
  86 H :   -0.014100
  87 H :   -0.009430
  88 H :   -0.008993
  89 H :    0.006292
  90 H :    0.029882
  91 H :    0.142599
  92 H :   -0.006073
  93 H :    0.049558
  94 H :    0.039387
Sum of atomic charges:   -0.0000000

LOEWDIN ATOMIC CHARGES
----------------------
   0 C :    0.066282
   1 C :   -0.186277
   2 C :   -0.012951
   3 N :   -0.091897
   4 C :   -0.021542
   5 N :   -0.088675
   6 C :   -0.017534
   7 C :   -0.039084
   8 C :    0.002933
   9 C :   -0.042592
  10 C :   -0.153478
  11 C :   -0.028337
  12 S :    0.421015
  13 C :   -0.281516
  14 C :   -0.070829
  15 Br:    0.123330
  16 C :    0.053308
  17 O :   -0.187744
  18 C :   -0.122466
  19 C :   -0.000181
  20 C :   -0.067795
  21 C :   -0.140848
  22 C :   -0.055670
  23 C :   -0.045231
  24 C :   -0.214794
  25 S :    0.500584
  26 C :   -0.152059
  27 C :   -0.062496
  28 C :   -0.027271
  29 C :   -0.186868
  30 S :    0.412625
  31 C :   -0.042076
  32 C :   -0.178077
  33 S :    0.418527
  34 C :   -0.126650
  35 C :   -0.046310
  36 C :   -0.028776
  37 C :   -0.033640
  38 C :   -0.159135
  39 S :    0.231965
  40 C :    0.033284
  41 O :   -0.056379
  42 C :   -0.060352
  43 C :   -0.072633
  44 C :   -0.008309
  45 C :   -0.068956
  46 C :   -0.130924
  47 C :   -0.052238
  48 C :   -0.015597
  49 C :   -0.194016
  50 S :    0.422368
  51 C :   -0.151520
  52 C :   -0.043838
  53 C :   -0.004938
  54 C :   -0.155274
  55 S :    0.445433
  56 C :   -0.009975
  57 C :    0.040967
  58 O :    0.006670
  59 C :   -0.058831
  60 C :    0.085071
  61 O :   -0.145038
  62 N :    0.012140
  63 C :    0.089894
  64 O :   -0.156560
  65 C :   -0.097149
  66 C :    0.092992
  67 C :   -0.057703
  68 C :    0.030872
  69 H :    0.035106
  70 H :    0.035407
  71 H :    0.035237
  72 H :    0.040533
  73 H :    0.039644
  74 H :    0.030569
  75 H :    0.027743
  76 H :    0.030731
  77 H :    0.032571
  78 H :    0.041222
  79 H :    0.029556
  80 H :   -0.014920
  81 H :    0.099371
  82 H :    0.025428
  83 H :    0.029724
  84 H :    0.019315
  85 H :    0.033673
  86 H :    0.032079
  87 H :    0.032720
  88 H :    0.032078
  89 H :    0.042694
  90 H :    0.059370
  91 H :    0.097919
  92 H :    0.032865
  93 H :    0.030914
  94 H :    0.031215

  Mayer bond orders larger than 0.100000
B(  0-C ,  1-C ) :   1.5036 B(  0-C ,  6-C ) :   0.9762 B(  0-C , 18-C ) :   1.1995
B(  1-C ,  2-C ) :   1.1740 B(  1-C ,  4-C ) :   1.1807 B(  2-C ,  3-N ) :   2.8966
B(  4-C ,  5-N ) :   2.8669 B(  6-C ,  7-C ) :   1.2809 B(  6-C , 11-C ) :   1.4212
B(  7-C ,  8-C ) :   1.4318 B(  7-C , 16-C ) :   0.9169 B(  8-C ,  9-C ) :   1.2126
B(  8-C , 69-H ) :   1.0184 B(  9-C , 10-C ) :   1.3414 B(  9-C , 14-C ) :   1.1515
B( 10-C , 11-C ) :   1.2927 B( 10-C , 12-S ) :   1.0721 B( 11-C , 70-H ) :   0.9812
B( 12-S , 13-C ) :   1.0800 B( 13-C , 14-C ) :   1.6119 B( 13-C , 15-Br) :   1.0022
B( 14-C , 71-H ) :   1.0007 B( 16-C , 17-O ) :   2.1205 B( 16-C , 18-C ) :   1.0185
B( 18-C , 19-C ) :   1.2594 B( 19-C , 20-C ) :   1.5301 B( 19-C , 72-H ) :   0.9352
B( 20-C , 21-C ) :   1.2746 B( 20-C , 73-H ) :   0.9457 B( 21-C , 22-C ) :   1.2972
B( 21-C , 25-S ) :   1.1405 B( 22-C , 23-C ) :   1.4127 B( 22-C , 74-H ) :   1.0017
B( 23-C , 24-C ) :   1.3273 B( 23-C , 75-H ) :   0.9939 B( 24-C , 25-S ) :   1.1046
B( 24-C , 26-C ) :   1.2661 B( 26-C , 27-C ) :   1.3562 B( 26-C , 30-S ) :   1.1142
B( 27-C , 28-C ) :   1.3954 B( 27-C , 76-H ) :   0.9954 B( 28-C , 29-C ) :   1.3181
B( 28-C , 77-H ) :   1.0007 B( 29-C , 30-S ) :   1.0652 B( 29-C , 31-C ) :   1.3014
B( 31-C , 32-C ) :   1.4915 B( 31-C , 78-H ) :   0.9617 B( 32-C , 33-S ) :   1.0366
B( 32-C , 36-C ) :   1.1393 B( 33-S , 34-C ) :   1.0900 B( 34-C , 35-C ) :   1.1471
B( 34-C , 43-C ) :   1.4312 B( 35-C , 36-C ) :   1.2945 B( 35-C , 42-C ) :   1.2621
B( 36-C , 37-C ) :   1.2966 B( 37-C , 38-C ) :   1.4478 B( 37-C , 79-H ) :   0.9883
B( 38-C , 39-S ) :   1.0814 B( 38-C , 40-C ) :   1.3020 B( 39-S , 80-H ) :   0.9415
B( 40-C , 41-O ) :   1.1707 B( 40-C , 42-C ) :   1.4338 B( 41-O , 81-H ) :   0.9554
B( 42-C , 82-H ) :   0.9810 B( 43-C , 44-C ) :   1.3222 B( 43-C , 83-H ) :   0.9744
B( 44-C , 45-C ) :   1.4104 B( 44-C , 84-H ) :   0.9689 B( 45-C , 46-C ) :   1.3086
B( 45-C , 85-H ) :   0.9874 B( 46-C , 47-C ) :   1.2812 B( 46-C , 50-S ) :   1.0954
B( 47-C , 48-C ) :   1.4251 B( 47-C , 86-H ) :   1.0021 B( 48-C , 49-C ) :   1.3052
B( 48-C , 87-H ) :   0.9982 B( 49-C , 50-S ) :   1.0766 B( 49-C , 51-C ) :   1.3551
B( 51-C , 52-C ) :   1.2430 B( 51-C , 55-S ) :   1.1030 B( 52-C , 53-C ) :   1.5149
B( 52-C , 88-H ) :   0.9975 B( 53-C , 54-C ) :   1.1780 B( 53-C , 89-H ) :   1.0054
B( 54-C , 55-S ) :   1.0566 B( 54-C , 56-C ) :   1.4797 B( 56-C , 57-C ) :   1.2581
B( 56-C , 90-H ) :   0.9580 B( 57-C , 58-O ) :   1.0931 B( 57-C , 59-C ) :   1.3520
B( 58-O , 66-C ) :   1.1242 B( 59-C , 60-C ) :   0.8741 B( 59-C , 65-C ) :   1.3083
B( 60-C , 61-O ) :   2.2811 B( 60-C , 62-N ) :   1.0767 B( 62-N , 63-C ) :   1.1049
B( 62-N , 91-H ) :   0.9150 B( 63-C , 64-O ) :   2.1892 B( 63-C , 65-C ) :   0.8724
B( 65-C , 66-C ) :   1.4199 B( 66-C , 67-C ) :   1.1524 B( 67-C , 68-C ) :   1.8818
B( 67-C , 92-H ) :   0.9526 B( 68-C , 93-H ) :   0.9280 B( 68-C , 94-H ) :   0.9368

-----------------------------------------------------------------------------
         ABSORPTION SPECTRUM VIA TRANSITION ELECTRIC DIPOLE MOMENTS
-----------------------------------------------------------------------------
State   Energy  Wavelength   fosc         T2         TX        TY        TZ
        (cm-1)    (nm)                  (au**2)     (au)      (au)      (au)
-----------------------------------------------------------------------------
   0    3336.1   2997.5   0.050173065   4.95110   1.78914  -1.32005  -0.08680
   1    7376.2   1355.7   0.065791664   2.93639   1.23328   0.95507   0.70939
   2   13353.4    748.9   1.491508068  36.77131  -3.91982  -3.73427  -2.73159
   3   15959.2    626.6   0.062418821   1.28760  -0.59223  -0.93910   0.23443
   4   16175.4    618.2   0.047920813   0.97531  -0.83991   0.30164  -0.42294
   5   16614.4    601.9   0.034908329   0.69170  -0.42357  -0.57285   0.42910
   6   18210.6    549.1   0.363581600   6.57285  -0.19522   2.53988  -0.28941
   7   19417.5    515.0   0.066930772   1.13477  -0.79107  -0.67982  -0.21639
   8   19758.9    506.1   0.588108395   9.79875  -1.43522   1.84802  -2.07936
   9   20411.9    489.9   0.164042922   2.64576   1.25559  -0.29507   0.99106
  10   20887.2    478.8   0.103792412   1.63592  -0.78815   0.30167  -0.96111
  11   21898.1    456.7   0.301543807   4.53335  -1.29823   0.52121  -1.60509
  12   22708.1    440.4   0.012318218   0.17858   0.14839   0.34741  -0.18940
  13   24328.8    411.0   0.170599945   2.30852   0.91982  -0.37535   1.14959
  14   24640.5    405.8   0.202400357   2.70419  -0.25333   1.54176  -0.51284
  15   25125.7    398.0   0.115844367   1.51786   0.92825   0.25611   0.76852
  16   25743.3    388.5   0.008283099   0.10593   0.08986   0.03409   0.31095
  17   25922.9    385.8   0.098886612   1.25582   0.91494   0.51897   0.38648
  18   26417.4    378.5   0.489296330   6.09757  -0.74401  -2.35162   0.11791
  19   26818.8    372.9   0.035279585   0.43307   0.48335  -0.08456   0.43851
  20   27217.0    367.4   0.035360514   0.42772  -0.46495   0.12499  -0.44263
  21   27633.6    361.9   0.020337974   0.24230  -0.25357   0.10326  -0.40906
  22   27820.7    359.4   0.007433744   0.08797   0.29493   0.03131  -0.00001
  23   28367.0    352.5   0.063603491   0.73815  -0.56466   0.59436  -0.25700
  24   29103.2    343.6   0.120582803   1.36402  -0.61873   0.60382  -0.78524
  25   29575.2    338.1   0.000615412   0.00685  -0.00606  -0.03026   0.07680
  26   29667.4    337.1   0.018446443   0.20470   0.25129  -0.25213   0.27925
  27   29730.9    336.4   0.066265647   0.73376  -0.49885   0.48047  -0.50404
  28   30207.8    331.0   0.068153862   0.74276   0.47073   0.61863   0.37210
  29   30314.4    329.9   0.008893991   0.09659  -0.21930  -0.19362  -0.10491
  30   30517.6    327.7   0.000831076   0.00897   0.04292  -0.07365   0.04122
  31   30937.1    323.2   0.038311242   0.40768  -0.36194  -0.50974   0.12981
  32   31230.5    320.2   0.167322087   1.76380  -0.33545  -1.23907   0.34056
  33   31571.9    316.7   0.030990244   0.32315  -0.15830  -0.54297  -0.05715
  34   31807.6    314.4   0.021548395   0.22303   0.20564   0.41588  -0.08821
  35   31908.5    313.4   0.035526895   0.36654   0.47827   0.13586   0.34547
  36   32123.2    311.3   0.008863858   0.09084  -0.14097  -0.26003   0.05789
  37   32364.9    309.0   0.215486316   2.19190  -0.36886  -1.38572   0.36827
  38   32763.4    305.2   0.127601001   1.28215   0.23638   1.10291  -0.09935
  39   33003.0    303.0   0.048203993   0.48084  -0.41718  -0.55073   0.05911
  40   33383.9    299.5   0.025968034   0.25608  -0.07765  -0.49988   0.01327
  41   33610.3    297.5   0.057036166   0.55867   0.30803   0.61871   0.28458
  42   33770.8    296.1   0.056031664   0.54622   0.12155  -0.60342   0.40906
  43   34238.3    292.1   0.021181204   0.20366   0.04285  -0.41770   0.16540
  44   34304.9    291.5   0.021348807   0.20488  -0.02965   0.44959   0.04324
  45   34453.2    290.2   0.024088875   0.23018   0.14495  -0.41244   0.19763
  46   34714.0    288.1   0.002523361   0.02393  -0.11787  -0.05984  -0.08035
  47   34907.9    286.5   0.065150748   0.61443   0.52301   0.57967   0.06975
  48   35063.3    285.2   0.007490055   0.07032   0.10064   0.23754  -0.06142
  49   35509.9    281.6   0.012920896   0.11979   0.09593  -0.21372   0.25477
  50   35578.3    281.1   0.059016051   0.54609  -0.00367  -0.63690   0.37474
  51   35655.3    280.5   0.015021688   0.13870  -0.17472   0.17957  -0.27555
  52   35886.3    278.7   0.093127914   0.85433   0.86719   0.01062   0.31970
  53   36011.2    277.7   0.008148533   0.07449   0.13324  -0.23820  -0.00038
  54   36563.5    273.5   0.010690049   0.09625  -0.27569  -0.10498  -0.09604
  55   36715.5    272.4   0.026684900   0.23927  -0.20050   0.32405  -0.30670
  56   36938.2    270.7   0.058184221   0.51857   0.59893   0.25082   0.31136
  57   37512.5    266.6   0.029592175   0.25970  -0.36884  -0.29272  -0.19487
  58   37701.2    265.2   0.184894640   1.61452  -0.78014  -0.94653  -0.33165
  59   37969.5    263.4   0.047802194   0.41447   0.33072   0.53701   0.12928
  60   38191.7    261.8   0.030890581   0.26628  -0.36012  -0.22543  -0.29287
  61   38246.6    261.5   0.017005327   0.14638   0.14403   0.34838   0.06528
  62   38266.7    261.3   0.023184034   0.19945  -0.35143  -0.11083  -0.25233
  63   38520.4    259.6   0.001869843   0.01598   0.04305  -0.09493   0.07152
  64   38694.3    258.4   0.022137090   0.18834  -0.31908   0.07927  -0.28328
  65   38975.1    256.6   0.033054901   0.27921  -0.13513  -0.49144  -0.13941
  66   39038.7    256.2   0.002816983   0.02376  -0.11064  -0.10074   0.03696
  67   39085.7    255.8   0.003344359   0.02817  -0.03074  -0.09190  -0.13703
  68   39186.6    255.2   0.040890558   0.34353  -0.42689  -0.02097  -0.40107
  69   39533.3    253.0   0.025718264   0.21417   0.34999  -0.29769   0.05527
  70   39567.8    252.7   0.013444375   0.11186   0.32116   0.01322   0.09241
  71   39690.9    251.9   0.022338600   0.18529   0.33131  -0.10496   0.25397
  72   39889.2    250.7   0.028694270   0.23682  -0.19325   0.23095  -0.38227
  73   39942.0    250.4   0.014466004   0.11923  -0.07367   0.26575  -0.20780
  74   40139.1    249.1   0.010901750   0.08941   0.07769  -0.21244   0.19557
  75   40269.4    248.3   0.042932301   0.35098  -0.50136  -0.15649  -0.27409
  76   40315.9    248.0   0.096472861   0.78778  -0.70423  -0.15760  -0.51672

FINAL SINGLE POINT ENERGY     -7932.774346143940

DIPOLE MOMENT
-------------
                                X             Y             Z
Electronic contribution:     24.13801     -45.59925      65.12612
Nuclear contribution   :    -26.00609      40.30771     -67.60339
                        -----------------------------------------
Total Dipole Moment    :     -1.86808      -5.29154      -2.47727
                        -----------------------------------------
Magnitude (a.u.)       :      6.13408
Magnitude (Debye)      :     15.59159

Rotational constants in cm-1:     0.001132     0.000631     0.000451
Rotational constants in MHz :    33.942648    18.914535    13.532387

                             ****ORCA TERMINATED NORMALLY****
TOTAL RUN TIME: 0 days 0 hours 13 minutes 44 seconds 780 msec
