                         Program Version 4.2.0 -  RELEASE  -
|  1> # ORCA input file
|  2> # SCF done       -186.381032176635          0.000307816555
|  3> ! CAM-B3LYP def2-SVP def2/J RIJCOSX Grid4 TightSCF
|  4> %maxcore 5000
|  5> %tddft
|  6>     Mode sTDDFT
|  7>     Ethresh 5.0
|  8>     maxcore 5000
|  9> end
| 10>
| 11> %pal
| 12>   nprocs 6
| 13>   end
| 14> * xyz 0 1
| 15>    C      -12.68152        -0.00107        -3.74727
| 16>    C      -13.32001        -0.77268        -2.81214
| 17>    C      -14.24997        -1.78681        -3.12024
| 18>    N      -15.01214        -2.62285        -3.31338
| 19>    C      -13.12845        -0.64117        -1.42141
| 20>    N      -12.99988        -0.56226        -0.28348
| 21>    C      -12.85151        -0.09121        -5.19522
| 22>    C      -12.03614         0.88906        -5.81964
| 23>    C      -11.97948         1.04904        -7.18338
| 24>    C      -12.76373         0.20070        -7.97151
| 25>    C      -13.57441        -0.77431        -7.34134
| 26>    C      -13.63214        -0.93489        -5.96154
| 27>    S      -14.45938        -1.71541        -8.50104
| 28>    C      -13.73900        -0.80148        -9.79990
| 29>    C      -12.87945         0.16098        -9.38749
| 30>   Br      -14.18945        -1.20339       -11.57480
| 31>    C      -11.31597         1.63566        -4.78379
| 32>    O      -10.52644         2.56094        -4.93596
| 33>    C      -11.72599         1.05519        -3.49865
| 34>    C      -11.21110         1.51439        -2.31336
| 35>    N      -10.32283         2.51760        -2.31154
| 36>    C       -9.72143         3.07093        -1.23057
| 37>    S      -10.05322         2.50563         0.37681
| 38>    C       -8.95472         3.69572         0.99549
| 39>    N       -8.76068         3.75009         2.38482
| 40>    O       -7.98952         4.58673         2.81231
| 41>    O       -9.38402         2.94830         3.05532
| 42>    C       -8.37849         4.47176         0.02867
| 43>    C       -8.80407         4.13120        -1.27192
| 44>    C       -8.37122         4.76493        -2.48971
| 45>    C       -7.58155         5.85615        -2.51802
| 46>    C       -7.11004         6.56016        -3.68095
| 47>    C       -7.28202         6.20715        -5.01014
| 48>    F       -7.92847         5.07828        -5.34350
| 49>    C       -6.79930         6.98812        -6.07436
| 50>    F       -7.04444         6.54065        -7.32008
| 51>    C       -6.08355         8.16147        -5.91964
| 52>    C       -5.89000         8.56424        -4.57556
| 53>    C       -6.39586         7.77446        -3.48430
| 54>    N       -6.14110         8.33674        -2.30434
| 55>    S       -5.36341         9.72015        -2.54128
| 56>    N       -5.30355         9.68108        -4.14375
| 57>    C       -5.68190         8.93300        -7.08479
| 58>    C       -4.54690         9.61351        -7.26678
| 59>    C       -3.39037         9.62533        -6.32380
| 60>    C       -4.37374        10.44595        -8.51557
| 61>    N       -3.19677        10.09080        -9.27389
| 62>    C       -2.11117        10.85661        -9.42953
| 63>    C       -1.76443        11.94046        -8.67168
| 64>    C       -0.62011        12.72646        -8.87734
| 65>    C        0.20347        12.87646        -9.96746
| 66>    C        0.07429        12.59962       -11.37396
| 67>    C       -1.08579        12.49716       -12.10910
| 68>    C       -1.12721        12.32348       -13.50534
| 69>    N       -1.23089        12.15915       -14.63768
| 70>    C       -2.37568        12.61301       -11.56684
| 71>    N       -3.45158        12.69600       -11.17038
| 72>    C        1.40740        12.70810       -11.96861
| 73>    C        2.29412        13.23814       -11.00054
| 74>    C        1.55869        13.42771        -9.73247
| 75>    O        1.98303        13.90177        -8.70011
| 76>    C        3.61565        13.49371       -11.26944
| 77>    C        4.08868        13.19998       -12.55350
| 78>    C        3.19948        12.65473       -13.50810
| 79>    C        1.85895        12.40460       -13.23790
| 80>    S        3.99463        12.35405       -15.02430
| 81>    C        5.48942        12.96277       -14.36462
| 82>    C        5.40077        13.36816       -13.07610
| 83>   Br        7.02679        13.00213       -15.43965
| 84>    H      -11.34874         1.80303        -7.62745
| 85>    H      -14.26459        -1.69270        -5.53032
| 86>    H      -12.34811         0.81623       -10.05322
| 87>    H      -11.49063         1.09555        -1.35508
| 88>    H      -10.09913         2.87366        -3.26086
| 89>    H       -7.67315         5.24588         0.26765
| 90>    H       -8.71939         4.32527        -3.41156
| 91>    H       -7.25484         6.31321        -1.59533
| 92>    H       -6.41140         8.91412        -7.88565
| 93>    H       -3.39153         8.74536        -5.68811
| 94>    H       -3.44412        10.50274        -5.68099
| 95>    H       -2.45362         9.66260        -6.87604
| 96>    H       -4.29535        11.49969        -8.23832
| 97>    H       -5.24819        10.33780        -9.16371
| 98>    H       -3.27945         9.26282        -9.84238
| 99>    H       -1.41774        10.50694       -10.18448
|100>    H       -2.35488        12.18766        -7.80236
|101>    H       -0.27285        13.27932        -8.00853
|102>    H        4.26563        13.90820       -10.51495
|103>    H        1.22199        11.98408       -13.99824
|104>    H        6.22489        13.76933       -12.51494
|105> *
|106>
|107>                          ****END OF INPUT****

CARTESIAN COORDINATES (ANGSTROEM)
---------------------------------
  C    -12.681520   -0.001070   -3.747270
  C    -13.320010   -0.772680   -2.812140
  C    -14.249970   -1.786810   -3.120240
  N    -15.012140   -2.622850   -3.313380
  C    -13.128450   -0.641170   -1.421410
  N    -12.999880   -0.562260   -0.283480
  C    -12.851510   -0.091210   -5.195220
  C    -12.036140    0.889060   -5.819640
  C    -11.979480    1.049040   -7.183380
  C    -12.763730    0.200700   -7.971510
  C    -13.574410   -0.774310   -7.341340
  C    -13.632140   -0.934890   -5.961540
  S    -14.459380   -1.715410   -8.501040
  C    -13.739000   -0.801480   -9.799900
  C    -12.879450    0.160980   -9.387490
  Br   -14.189450   -1.203390  -11.574800
  C    -11.315970    1.635660   -4.783790
  O    -10.526440    2.560940   -4.935960
  C    -11.725990    1.055190   -3.498650
  C    -11.211100    1.514390   -2.313360
  N    -10.322830    2.517600   -2.311540
  C     -9.721430    3.070930   -1.230570
  S    -10.053220    2.505630    0.376810
  C     -8.954720    3.695720    0.995490
  N     -8.760680    3.750090    2.384820
  O     -7.989520    4.586730    2.812310
  O     -9.384020    2.948300    3.055320
  C     -8.378490    4.471760    0.028670
  C     -8.804070    4.131200   -1.271920
  C     -8.371220    4.764930   -2.489710
  C     -7.581550    5.856150   -2.518020
  C     -7.110040    6.560160   -3.680950
  C     -7.282020    6.207150   -5.010140
  F     -7.928470    5.078280   -5.343500
  C     -6.799300    6.988120   -6.074360
  F     -7.044440    6.540650   -7.320080
  C     -6.083550    8.161470   -5.919640
  C     -5.890000    8.564240   -4.575560
  C     -6.395860    7.774460   -3.484300
  N     -6.141100    8.336740   -2.304340
  S     -5.363410    9.720150   -2.541280
  N     -5.303550    9.681080   -4.143750
  C     -5.681900    8.933000   -7.084790
  C     -4.546900    9.613510   -7.266780
  C     -3.390370    9.625330   -6.323800
  C     -4.373740   10.445950   -8.515570
  N     -3.196770   10.090800   -9.273890
  C     -2.111170   10.856610   -9.429530
  C     -1.764430   11.940460   -8.671680
  C     -0.620110   12.726460   -8.877340
  C      0.203470   12.876460   -9.967460
  C      0.074290   12.599620  -11.373960
  C     -1.085790   12.497160  -12.109100
  C     -1.127210   12.323480  -13.505340
  N     -1.230890   12.159150  -14.637680
  C     -2.375680   12.613010  -11.566840
  N     -3.451580   12.696000  -11.170380
  C      1.407400   12.708100  -11.968610
  C      2.294120   13.238140  -11.000540
  C      1.558690   13.427710   -9.732470
  O      1.983030   13.901770   -8.700110
  C      3.615650   13.493710  -11.269440
  C      4.088680   13.199980  -12.553500
  C      3.199480   12.654730  -13.508100
  C      1.858950   12.404600  -13.237900
  S      3.994630   12.354050  -15.024300
  C      5.489420   12.962770  -14.364620
  C      5.400770   13.368160  -13.076100
  Br     7.026790   13.002130  -15.439650
  H    -11.348740    1.803030   -7.627450
  H    -14.264590   -1.692700   -5.530320
  H    -12.348110    0.816230  -10.053220
  H    -11.490630    1.095550   -1.355080
  H    -10.099130    2.873660   -3.260860
  H     -7.673150    5.245880    0.267650
  H     -8.719390    4.325270   -3.411560
  H     -7.254840    6.313210   -1.595330
  H     -6.411400    8.914120   -7.885650
  H     -3.391530    8.745360   -5.688110
  H     -3.444120   10.502740   -5.680990
  H     -2.453620    9.662600   -6.876040
  H     -4.295350   11.499690   -8.238320
  H     -5.248190   10.337800   -9.163710
  H     -3.279450    9.262820   -9.842380
  H     -1.417740   10.506940  -10.184480
  H     -2.354880   12.187660   -7.802360
  H     -0.272850   13.279320   -8.008530
  H      4.265630   13.908200  -10.514950
  H      1.221990   11.984080  -13.998240
  H      6.224890   13.769330  -12.514940

 Total Charge           Charge          ....    0
 Multiplicity           Mult            ....    1
 Number of Electrons    NEL             ....  556
 Basis Dimension        Dim             .... 1123

ORBITAL ENERGIES
----------------

  NO   OCC          E(Eh)            E(eV)
   0   2.0000    -482.892618    -13140.1762
   1   2.0000    -482.880999    -13139.8600
   2   2.0000     -89.038442     -2422.8592
   3   2.0000     -88.996301     -2421.7125
   4   2.0000     -88.984636     -2421.3950
   5   2.0000     -88.969459     -2420.9821
   6   2.0000     -62.570318     -1702.6249
   7   2.0000     -62.558681     -1702.3082
   8   2.0000     -56.404279     -1534.8384
   9   2.0000     -56.401543     -1534.7640
  10   2.0000     -56.401517     -1534.7633
  11   2.0000     -56.392626     -1534.5214
  12   2.0000     -56.389926     -1534.4479
  13   2.0000     -56.389888     -1534.4469
  14   2.0000     -24.814034      -675.2242
  15   2.0000     -24.809347      -675.0966
  16   2.0000     -19.244920      -523.6809
  17   2.0000     -19.243900      -523.6532
  18   2.0000     -19.240964      -523.5732
  19   2.0000     -19.200177      -522.4634
  20   2.0000     -14.656221      -398.8161
  21   2.0000     -14.502513      -394.6334
  22   2.0000     -14.472131      -393.8067
  23   2.0000     -14.453079      -393.2883
  24   2.0000     -14.451541      -393.2464
  25   2.0000     -14.426124      -392.5548
  26   2.0000     -14.421636      -392.4327
  27   2.0000     -14.410827      -392.1385
  28   2.0000     -14.405428      -391.9916
  29   2.0000     -10.392370      -282.7908
  30   2.0000     -10.390389      -282.7369
  31   2.0000     -10.387337      -282.6538
  32   2.0000     -10.379956      -282.4530
  33   2.0000     -10.376842      -282.3682
  34   2.0000     -10.367190      -282.1056
  35   2.0000     -10.353641      -281.7369
  36   2.0000     -10.353623      -281.7364
  37   2.0000     -10.352929      -281.7175
  38   2.0000     -10.352759      -281.7129
  39   2.0000     -10.351471      -281.6778
  40   2.0000     -10.349702      -281.6297
  41   2.0000     -10.342577      -281.4358
  42   2.0000     -10.342278      -281.4277
  43   2.0000     -10.335176      -281.2344
  44   2.0000     -10.333764      -281.1960
  45   2.0000     -10.328326      -281.0480
  46   2.0000     -10.327759      -281.0326
  47   2.0000     -10.327734      -281.0319
  48   2.0000     -10.324640      -280.9477
  49   2.0000     -10.320586      -280.8374
  50   2.0000     -10.319056      -280.7958
  51   2.0000     -10.318133      -280.7707
  52   2.0000     -10.317653      -280.7576
  53   2.0000     -10.317403      -280.7508
  54   2.0000     -10.317010      -280.7401
  55   2.0000     -10.315489      -280.6987
  56   2.0000     -10.313832      -280.6536
  57   2.0000     -10.313755      -280.6515
  58   2.0000     -10.313130      -280.6345
  59   2.0000     -10.310145      -280.5533
  60   2.0000     -10.307472      -280.4806
  61   2.0000     -10.306781      -280.4618
  62   2.0000     -10.305372      -280.4234
  63   2.0000     -10.305317      -280.4219
  64   2.0000     -10.305079      -280.4154
  65   2.0000     -10.300556      -280.2924
  66   2.0000     -10.300265      -280.2845
  67   2.0000     -10.299807      -280.2720
  68   2.0000     -10.299295      -280.2581
  69   2.0000     -10.297788      -280.2171
  70   2.0000     -10.292833      -280.0822
  71   2.0000     -10.290899      -280.0296
  72   2.0000     -10.290219      -280.0111
  73   2.0000     -10.282660      -279.8054
  74   2.0000     -10.276019      -279.6247
  75   2.0000     -10.274235      -279.5761
  76   2.0000     -10.271109      -279.4911
  77   2.0000      -8.799748      -239.4533
  78   2.0000      -8.788072      -239.1356
  79   2.0000      -8.130286      -221.2363
  80   2.0000      -8.091494      -220.1807
  81   2.0000      -8.080519      -219.8821
  82   2.0000      -8.065409      -219.4709
  83   2.0000      -6.636074      -180.5768
  84   2.0000      -6.624334      -180.2573
  85   2.0000      -6.621478      -180.1796
  86   2.0000      -6.621249      -180.1733
  87   2.0000      -6.609822      -179.8624
  88   2.0000      -6.609637      -179.8574
  89   2.0000      -6.101485      -166.0298
  90   2.0000      -6.093748      -165.8193
  91   2.0000      -6.092665      -165.7899
  92   2.0000      -6.061126      -164.9316
  93   2.0000      -6.056775      -164.8132
  94   2.0000      -6.052984      -164.7101
  95   2.0000      -6.050165      -164.6334
  96   2.0000      -6.045925      -164.5180
  97   2.0000      -6.041810      -164.4060
  98   2.0000      -6.035105      -164.2236
  99   2.0000      -6.030839      -164.1075
 100   2.0000      -6.026646      -163.9934
 101   2.0000      -2.751980       -74.8852
 102   2.0000      -2.747807       -74.7716
 103   2.0000      -2.747689       -74.7684
 104   2.0000      -2.740239       -74.5657
 105   2.0000      -2.736107       -74.4532
 106   2.0000      -2.736063       -74.4521
 107   2.0000      -2.736056       -74.4519
 108   2.0000      -2.736008       -74.4506
 109   2.0000      -2.724476       -74.1368
 110   2.0000      -2.724445       -74.1359
 111   2.0000      -1.334821       -36.3223
 112   2.0000      -1.326553       -36.0973
 113   2.0000      -1.316367       -35.8202
 114   2.0000      -1.156764       -31.4772
 115   2.0000      -1.145856       -31.1803
 116   2.0000      -1.140499       -31.0346
 117   2.0000      -1.115084       -30.3430
 118   2.0000      -1.110607       -30.2211
 119   2.0000      -1.067810       -29.0566
 120   2.0000      -1.032885       -28.1062
 121   2.0000      -1.022483       -27.8232
 122   2.0000      -1.016941       -27.6724
 123   2.0000      -1.015005       -27.6197
 124   2.0000      -1.006482       -27.3878
 125   2.0000      -1.003284       -27.3007
 126   2.0000      -0.999192       -27.1894
 127   2.0000      -0.996604       -27.1190
 128   2.0000      -0.988772       -26.9059
 129   2.0000      -0.987574       -26.8733
 130   2.0000      -0.980051       -26.6686
 131   2.0000      -0.951513       -25.8920
 132   2.0000      -0.936617       -25.4867
 133   2.0000      -0.934642       -25.4329
 134   2.0000      -0.926332       -25.2068
 135   2.0000      -0.918396       -24.9908
 136   2.0000      -0.911700       -24.8086
 137   2.0000      -0.903755       -24.5924
 138   2.0000      -0.900377       -24.5005
 139   2.0000      -0.895789       -24.3756
 140   2.0000      -0.892339       -24.2818
 141   2.0000      -0.881856       -23.9965
 142   2.0000      -0.878372       -23.9017
 143   2.0000      -0.874144       -23.7867
 144   2.0000      -0.868110       -23.6225
 145   2.0000      -0.858705       -23.3666
 146   2.0000      -0.848011       -23.0756
 147   2.0000      -0.839333       -22.8394
 148   2.0000      -0.826724       -22.4963
 149   2.0000      -0.821149       -22.3446
 150   2.0000      -0.807464       -21.9722
 151   2.0000      -0.798735       -21.7347
 152   2.0000      -0.797112       -21.6905
 153   2.0000      -0.772980       -21.0339
 154   2.0000      -0.767886       -20.8953
 155   2.0000      -0.761601       -20.7242
 156   2.0000      -0.757404       -20.6100
 157   2.0000      -0.745232       -20.2788
 158   2.0000      -0.743075       -20.2201
 159   2.0000      -0.734431       -19.9849
 160   2.0000      -0.724678       -19.7195
 161   2.0000      -0.712575       -19.3901
 162   2.0000      -0.707375       -19.2487
 163   2.0000      -0.700113       -19.0511
 164   2.0000      -0.692456       -18.8427
 165   2.0000      -0.686303       -18.6753
 166   2.0000      -0.680720       -18.5233
 167   2.0000      -0.678860       -18.4727
 168   2.0000      -0.669057       -18.2060
 169   2.0000      -0.663969       -18.0675
 170   2.0000      -0.655742       -17.8436
 171   2.0000      -0.654845       -17.8192
 172   2.0000      -0.650451       -17.6997
 173   2.0000      -0.647678       -17.6242
 174   2.0000      -0.641156       -17.4467
 175   2.0000      -0.638045       -17.3621
 176   2.0000      -0.637699       -17.3527
 177   2.0000      -0.636546       -17.3213
 178   2.0000      -0.628567       -17.1042
 179   2.0000      -0.627433       -17.0733
 180   2.0000      -0.620786       -16.8924
 181   2.0000      -0.614847       -16.7308
 182   2.0000      -0.611970       -16.6525
 183   2.0000      -0.604372       -16.4458
 184   2.0000      -0.602530       -16.3957
 185   2.0000      -0.600713       -16.3462
 186   2.0000      -0.590864       -16.0782
 187   2.0000      -0.588429       -16.0120
 188   2.0000      -0.584770       -15.9124
 189   2.0000      -0.577392       -15.7116
 190   2.0000      -0.571395       -15.5484
 191   2.0000      -0.569143       -15.4872
 192   2.0000      -0.566406       -15.4127
 193   2.0000      -0.566273       -15.4091
 194   2.0000      -0.564559       -15.3624
 195   2.0000      -0.558802       -15.2058
 196   2.0000      -0.556491       -15.1429
 197   2.0000      -0.555824       -15.1247
 198   2.0000      -0.552426       -15.0323
 199   2.0000      -0.550764       -14.9871
 200   2.0000      -0.546741       -14.8776
 201   2.0000      -0.542962       -14.7748
 202   2.0000      -0.541130       -14.7249
 203   2.0000      -0.539957       -14.6930
 204   2.0000      -0.532721       -14.4961
 205   2.0000      -0.530963       -14.4482
 206   2.0000      -0.528058       -14.3692
 207   2.0000      -0.524373       -14.2689
 208   2.0000      -0.520541       -14.1647
 209   2.0000      -0.517782       -14.0896
 210   2.0000      -0.516125       -14.0445
 211   2.0000      -0.510720       -13.8974
 212   2.0000      -0.507683       -13.8148
 213   2.0000      -0.507154       -13.8004
 214   2.0000      -0.506237       -13.7754
 215   2.0000      -0.501771       -13.6539
 216   2.0000      -0.500114       -13.6088
 217   2.0000      -0.494578       -13.4582
 218   2.0000      -0.492612       -13.4047
 219   2.0000      -0.490621       -13.3505
 220   2.0000      -0.486005       -13.2249
 221   2.0000      -0.482264       -13.1231
 222   2.0000      -0.479801       -13.0560
 223   2.0000      -0.478681       -13.0256
 224   2.0000      -0.477344       -12.9892
 225   2.0000      -0.472483       -12.8569
 226   2.0000      -0.470527       -12.8037
 227   2.0000      -0.468426       -12.7465
 228   2.0000      -0.464730       -12.6459
 229   2.0000      -0.463501       -12.6125
 230   2.0000      -0.458621       -12.4797
 231   2.0000      -0.457613       -12.4523
 232   2.0000      -0.455833       -12.4038
 233   2.0000      -0.455247       -12.3879
 234   2.0000      -0.451736       -12.2924
 235   2.0000      -0.451370       -12.2824
 236   2.0000      -0.450011       -12.2454
 237   2.0000      -0.448235       -12.1971
 238   2.0000      -0.446185       -12.1413
 239   2.0000      -0.443512       -12.0686
 240   2.0000      -0.438730       -11.9384
 241   2.0000      -0.435850       -11.8601
 242   2.0000      -0.435466       -11.8496
 243   2.0000      -0.435368       -11.8470
 244   2.0000      -0.433951       -11.8084
 245   2.0000      -0.431448       -11.7403
 246   2.0000      -0.421335       -11.4651
 247   2.0000      -0.420911       -11.4536
 248   2.0000      -0.418661       -11.3923
 249   2.0000      -0.416366       -11.3299
 250   2.0000      -0.412531       -11.2255
 251   2.0000      -0.405346       -11.0300
 252   2.0000      -0.402716       -10.9585
 253   2.0000      -0.399466       -10.8700
 254   2.0000      -0.397656       -10.8208
 255   2.0000      -0.391419       -10.6510
 256   2.0000      -0.383832       -10.4446
 257   2.0000      -0.382023       -10.3954
 258   2.0000      -0.381872       -10.3913
 259   2.0000      -0.381521       -10.3817
 260   2.0000      -0.380138       -10.3441
 261   2.0000      -0.373362       -10.1597
 262   2.0000      -0.370641       -10.0857
 263   2.0000      -0.370433       -10.0800
 264   2.0000      -0.363965        -9.9040
 265   2.0000      -0.363417        -9.8891
 266   2.0000      -0.349218        -9.5027
 267   2.0000      -0.345087        -9.3903
 268   2.0000      -0.343181        -9.3384
 269   2.0000      -0.334883        -9.1126
 270   2.0000      -0.326965        -8.8972
 271   2.0000      -0.323036        -8.7903
 272   2.0000      -0.308101        -8.3839
 273   2.0000      -0.305484        -8.3126
 274   2.0000      -0.300398        -8.1742
 275   2.0000      -0.288376        -7.8471
 276   2.0000      -0.270820        -7.3694
 277   2.0000      -0.265434        -7.2228
 278   0.0000      -0.097221        -2.6455
 279   0.0000      -0.082851        -2.2545
 280   0.0000      -0.075143        -2.0447
 281   0.0000      -0.074322        -2.0224
 282   0.0000      -0.046687        -1.2704

MULLIKEN ATOMIC CHARGES
-----------------------
   0 C :    0.324809
   1 C :   -0.340673
   2 C :   -0.184047
   3 N :    0.152621
   4 C :   -0.196460
   5 N :    0.147599
   6 C :    0.009277
   7 C :   -0.009971
   8 C :   -0.064130
   9 C :    0.115784
  10 C :   -0.095635
  11 C :   -0.017325
  12 S :    0.194315
  13 C :   -0.124654
  14 C :    0.040897
  15 Br:    0.030126
  16 C :    0.165401
  17 O :   -0.216588
  18 C :   -0.125572
  19 C :    0.022847
  20 N :   -0.006997
  21 C :   -0.118865
  22 S :    0.177034
  23 C :    0.008125
  24 N :    0.275243
  25 O :   -0.244737
  26 O :   -0.252862
  27 C :    0.003529
  28 C :    0.129202
  29 C :   -0.022104
  30 C :   -0.037833
  31 C :    0.040242
  32 C :    0.155070
  33 F :   -0.164969
  34 C :    0.181659
  35 F :   -0.172010
  36 C :   -0.033003
  37 C :    0.026470
  38 C :    0.003530
  39 N :   -0.286264
  40 S :    0.519106
  41 N :   -0.278528
  42 C :   -0.056891
  43 C :   -0.182581
  44 C :    0.134117
  45 C :    0.203291
  46 N :   -0.132021
  47 C :    0.090792
  48 C :   -0.058849
  49 C :    0.054755
  50 C :   -0.157174
  51 C :    0.285847
  52 C :   -0.372104
  53 C :   -0.175852
  54 N :    0.139561
  55 C :   -0.206285
  56 N :    0.145383
  57 C :   -0.009238
  58 C :    0.010737
  59 C :    0.128737
  60 O :   -0.158448
  61 C :   -0.078843
  62 C :    0.114019
  63 C :   -0.091396
  64 C :   -0.024674
  65 S :    0.178125
  66 C :   -0.125098
  67 C :    0.041407
  68 Br:    0.016458
  69 H :   -0.007329
  70 H :   -0.002758
  71 H :   -0.001354
  72 H :    0.049047
  73 H :    0.186143
  74 H :    0.018890
  75 H :    0.003278
  76 H :    0.000239
  77 H :   -0.001907
  78 H :    0.013616
  79 H :    0.039350
  80 H :    0.017044
  81 H :    0.054238
  82 H :    0.025484
  83 H :    0.136915
  84 H :    0.036519
  85 H :   -0.006934
  86 H :    0.023138
  87 H :   -0.013375
  88 H :   -0.007897
  89 H :   -0.005779
Sum of atomic charges:   -0.0000000

LOEWDIN ATOMIC CHARGES
----------------------
   0 C :    0.078418
   1 C :   -0.146181
   2 C :   -0.019985
   3 N :   -0.051180
   4 C :   -0.020459
   5 N :   -0.050913
   6 C :   -0.018108
   7 C :   -0.052428
   8 C :    0.025459
   9 C :   -0.033271
  10 C :   -0.143369
  11 C :   -0.006805
  12 S :    0.439542
  13 C :   -0.270579
  14 C :   -0.069784
  15 Br:    0.141626
  16 C :    0.096443
  17 O :   -0.170993
  18 C :   -0.144174
  19 C :    0.110851
  20 N :    0.077267
  21 C :   -0.109262
  22 S :    0.474612
  23 C :   -0.198986
  24 N :    0.273001
  25 O :   -0.210556
  26 O :   -0.219751
  27 C :    0.005762
  28 C :   -0.087207
  29 C :   -0.011494
  30 C :   -0.014336
  31 C :   -0.053545
  32 C :    0.069662
  33 F :   -0.039460
  34 C :    0.073883
  35 F :   -0.051056
  36 C :   -0.057204
  37 C :   -0.048920
  38 C :   -0.044889
  39 N :   -0.287416
  40 S :    0.651161
  41 N :   -0.277590
  42 C :   -0.049582
  43 C :   -0.009628
  44 C :   -0.054115
  45 C :    0.053156
  46 N :    0.045014
  47 C :    0.103745
  48 C :   -0.135553
  49 C :    0.081829
  50 C :   -0.138911
  51 C :    0.070200
  52 C :   -0.172837
  53 C :   -0.023754
  54 N :   -0.069985
  55 C :   -0.012517
  56 N :   -0.069650
  57 C :   -0.019496
  58 C :   -0.050408
  59 C :    0.080181
  60 O :   -0.158990
  61 C :    0.018963
  62 C :   -0.035933
  63 C :   -0.146002
  64 C :   -0.015699
  65 S :    0.426417
  66 C :   -0.274278
  67 C :   -0.070371
  68 Br:    0.131216
  69 H :    0.042452
  70 H :    0.042535
  71 H :    0.039536
  72 H :    0.035964
  73 H :    0.085787
  74 H :    0.047621
  75 H :    0.027475
  76 H :    0.034765
  77 H :    0.031005
  78 H :    0.030624
  79 H :    0.040603
  80 H :    0.028840
  81 H :    0.045153
  82 H :    0.036696
  83 H :    0.090639
  84 H :    0.038839
  85 H :    0.028130
  86 H :    0.045433
  87 H :    0.039853
  88 H :    0.039335
  89 H :    0.037918

  Mayer bond orders larger than 0.100000
B(  0-C ,  1-C ) :   1.6309 B(  0-C ,  6-C ) :   1.0052 B(  0-C , 18-C ) :   1.0962
B(  1-C ,  2-C ) :   1.1414 B(  1-C ,  4-C ) :   1.1479 B(  2-C ,  3-N ) :   2.9690
B(  4-C ,  5-N ) :   2.9542 B(  6-C ,  7-C ) :   1.2730 B(  6-C , 11-C ) :   1.4248
B(  7-C ,  8-C ) :   1.4249 B(  7-C , 16-C ) :   0.9813 B(  8-C ,  9-C ) :   1.2424
B(  8-C , 69-H ) :   1.0177 B(  9-C , 10-C ) :   1.3073 B(  9-C , 14-C ) :   1.1652
B( 10-C , 11-C ) :   1.3227 B( 10-C , 12-S ) :   1.0916 B( 11-C , 70-H ) :   0.9790
B( 12-S , 13-C ) :   1.0881 B( 13-C , 14-C ) :   1.6156 B( 13-C , 15-Br) :   1.0227
B( 14-C , 71-H ) :   0.9998 B( 16-C , 17-O ) :   2.0395 B( 16-C , 18-C ) :   1.0004
B( 17-O , 73-H ) :   0.1416 B( 18-C , 19-C ) :   1.4656 B( 19-C , 20-N ) :   1.3322
B( 19-C , 72-H ) :   0.9295 B( 20-N , 21-C ) :   1.1981 B( 20-N , 73-H ) :   0.8218
B( 21-C , 22-S ) :   1.1394 B( 21-C , 28-C ) :   1.3739 B( 22-S , 23-C ) :   1.0800
B( 23-C , 24-N ) :   0.9603 B( 23-C , 27-C ) :   1.5105 B( 24-N , 25-O ) :   1.5361
B( 24-N , 26-O ) :   1.5183 B( 25-O , 26-O ) :   0.2640 B( 27-C , 28-C ) :   1.2095
B( 27-C , 74-H ) :   1.0011 B( 28-C , 29-C ) :   1.0660 B( 29-C , 30-C ) :   1.6911
B( 29-C , 75-H ) :   0.9673 B( 30-C , 31-C ) :   1.1339 B( 30-C , 76-H ) :   0.9721
B( 31-C , 32-C ) :   1.3639 B( 31-C , 36-C ) :   0.1281 B( 31-C , 38-C ) :   1.1575
B( 32-C , 33-F ) :   1.1316 B( 32-C , 34-C ) :   1.1413 B( 34-C , 35-F ) :   1.1657
B( 34-C , 36-C ) :   1.4422 B( 36-C , 37-C ) :   1.1982 B( 36-C , 42-C ) :   1.0117
B( 37-C , 38-C ) :   1.1464 B( 37-C , 41-N ) :   1.5335 B( 38-C , 39-N ) :   1.5530
B( 39-N , 40-S ) :   1.2645 B( 39-N , 41-N ) :   0.1484 B( 40-S , 41-N ) :   1.2658
B( 42-C , 43-C ) :   1.8520 B( 42-C , 77-H ) :   0.9548 B( 43-C , 44-C ) :   1.0947
B( 43-C , 45-C ) :   1.0397 B( 44-C , 78-H ) :   0.9444 B( 44-C , 79-H ) :   0.9270
B( 44-C , 80-H ) :   0.9411 B( 45-C , 46-N ) :   0.9633 B( 45-C , 81-H ) :   0.9220
B( 45-C , 82-H ) :   0.9386 B( 46-N , 47-C ) :   1.3409 B( 46-N , 83-H ) :   0.9378
B( 47-C , 48-C ) :   1.4707 B( 47-C , 84-H ) :   0.9583 B( 48-C , 49-C ) :   1.2974
B( 48-C , 85-H ) :   0.9488 B( 49-C , 50-C ) :   1.5259 B( 49-C , 86-H ) :   0.9292
B( 50-C , 51-C ) :   1.0919 B( 50-C , 59-C ) :   0.9724 B( 51-C , 52-C ) :   1.5801
B( 51-C , 57-C ) :   1.0027 B( 52-C , 53-C ) :   1.1284 B( 52-C , 55-C ) :   1.1864
B( 53-C , 54-N ) :   2.9810 B( 55-C , 56-N ) :   2.9777 B( 57-C , 58-C ) :   1.2829
B( 57-C , 64-C ) :   1.4193 B( 58-C , 59-C ) :   0.9139 B( 58-C , 61-C ) :   1.4342
B( 59-C , 60-O ) :   2.2472 B( 61-C , 62-C ) :   1.2427 B( 61-C , 87-H ) :   1.0157
B( 62-C , 63-C ) :   1.3173 B( 62-C , 67-C ) :   1.1610 B( 63-C , 64-C ) :   1.3234
B( 63-C , 65-S ) :   1.0805 B( 64-C , 88-H ) :   0.9809 B( 65-S , 66-C ) :   1.0862
B( 66-C , 67-C ) :   1.6216 B( 66-C , 68-Br) :   1.0144 B( 67-C , 89-H ) :   0.9997

-----------------------------------------------------------------------------
         ABSORPTION SPECTRUM VIA TRANSITION ELECTRIC DIPOLE MOMENTS
-----------------------------------------------------------------------------
State   Energy  Wavelength   fosc         T2         TX        TY        TZ
        (cm-1)    (nm)                  (au**2)     (au)      (au)      (au)
-----------------------------------------------------------------------------
   0   21530.7    464.5   1.223970973  18.71496   2.93317   3.17811   0.10531
   1   22459.2    445.3   0.357462279   5.23975   0.27516   0.08015  -2.27104
   2   24615.3    406.3   0.204829711   2.73945   0.42232   0.68744  -1.44517
   3   25596.3    390.7   0.235685180   3.03131   0.00159   0.16577  -1.73315
   4   26771.1    373.5   0.001024892   0.01260   0.09251  -0.05983   0.02158
   5   28665.1    348.9   0.036525776   0.41949  -0.13449   0.62495  -0.10414
   6   28889.3    346.1   0.030383094   0.34623   0.00002   0.10620  -0.57875
   7   29705.0    336.6   0.826437913   9.15918  -0.18512  -0.17187  -3.01585
   8   30454.5    328.4   0.614389038   6.64152   2.35925   0.51631  -0.89939
   9   30542.0    327.4   0.023134392   0.24937  -0.35290  -0.18865  -0.29873
  10   31097.5    321.6   0.010503514   0.11119  -0.13403  -0.15341   0.26400
  11   31457.0    317.9   0.030869322   0.32306  -0.50598  -0.20330   0.16036
  12   31667.7    315.8   0.094627897   0.98374   0.35882   0.47217  -0.79501
  13   31926.8    313.2   0.158785698   1.63731  -1.20894  -0.41586  -0.05333
  14   32423.1    308.4   0.306702247   3.11414   1.69454   0.44840  -0.20402
  15   32844.4    304.5   0.022810182   0.22864  -0.10095  -0.45570   0.10385
  16   33176.3    301.4   0.000233258   0.00231   0.03740  -0.02925   0.00774
  17   33584.4    297.8   0.052763263   0.51721   0.37214   0.35768   0.50079
  18   34011.4    294.0   0.578430671   5.59890   0.33070   0.54515  -2.27867
  19   34723.0    288.0   0.074657406   0.70783   0.01608   0.08420  -0.83695
  20   35138.6    284.6   0.354211871   3.31860  -1.78460  -0.36485  -0.02621
  21   35523.8    281.5   0.000098381   0.00091  -0.00357  -0.00367  -0.02976
  22   35559.4    281.2   0.038997917   0.36105  -0.58484  -0.12700  -0.05368
  23   36099.7    277.0   0.181049523   1.65109  -0.67509  -1.09068  -0.07590
  24   36770.2    272.0   0.000166259   0.00149  -0.02333   0.01654  -0.02589
  25   37590.8    266.0   0.474417820   4.15484  -0.67117  -0.92437   1.68817
  26   37643.3    265.7   0.008029991   0.07023   0.04574   0.08009  -0.24844
  27   37836.9    264.3   0.177316196   1.54279  -0.52681  -0.84279  -0.74496
  28   38096.4    262.5   0.006643244   0.05741  -0.22144  -0.08648  -0.02988
  29   38122.5    262.3   0.003696415   0.03192   0.17468   0.03471   0.01421
  30   38357.7    260.7   0.220093693   1.88899  -0.80350  -1.03959  -0.40328
  31   39814.2    251.2   0.034248732   0.28319  -0.28443  -0.35658   0.27412
  32   39928.1    250.5   0.003456117   0.02850   0.00443   0.04415  -0.16287
  33   40269.4    248.3   0.175201211   1.43231  -0.65679   0.09328   0.99611

FINAL SINGLE POINT ENERGY     -9571.600581112130

DIPOLE MOMENT
-------------
                                X             Y             Z
Electronic contribution:     22.21206     -39.79313    -119.59233
Nuclear contribution   :    -21.49726      39.47432     117.80930
                        -----------------------------------------
Total Dipole Moment    :      0.71480      -0.31881      -1.78303
                        -----------------------------------------
Magnitude (a.u.)       :      1.94725
Magnitude (Debye)      :      4.94952

Rotational constants in cm-1:     0.000883     0.000175     0.000151
Rotational constants in MHz :    26.482929     5.233137     4.515605

                             ****ORCA TERMINATED NORMALLY****
TOTAL RUN TIME: 0 days 0 hours 8 minutes 10 seconds 963 msec
