                         Program Version 4.2.0 -  RELEASE  -
|  1> # ORCA input file
|  2> # SCF done       -187.874787516887          0.000399324790
|  3> ! CAM-B3LYP def2-SVP def2/J RIJCOSX Grid4 TightSCF
|  4> %maxcore 5000
|  5> %tddft
|  6>     Mode sTDDFT
|  7>     Ethresh 5.0
|  8>     maxcore 5000
|  9> end
| 10>
| 11> %pal
| 12>   nprocs 6
| 13>   end
| 14> * xyz 0 1
| 15>    C      -11.66901        -0.23699        -8.87124
| 16>    C      -12.56800        -1.27110        -8.88204
| 17>    C      -12.76395        -2.14002        -9.97481
| 18>    N      -12.96156        -2.87637       -10.83273
| 19>    C      -13.39654        -1.59928        -7.78977
| 20>    N      -14.08228        -1.89686        -6.91863
| 21>    C      -10.77705         0.13915        -9.96536
| 22>    C       -9.96764         1.22776        -9.54562
| 23>    C       -9.04271         1.83015       -10.36336
| 24>    C       -8.91429         1.33740       -11.66469
| 25>    C       -9.71609         0.24648       -12.07727
| 26>    C      -10.64883        -0.36511       -11.24557
| 27>    S       -9.39646        -0.18798       -13.72883
| 28>    C       -8.21413         1.09034       -13.84174
| 29>    C       -8.06045         1.80218       -12.70083
| 30>   Br       -7.29969         1.36959       -15.45296
| 31>    C      -10.32016         1.57948        -8.17142
| 32>    O       -9.81948         2.45414        -7.46824
| 33>    C      -11.41147         0.67726        -7.78010
| 34>    C      -12.03658         0.80667        -6.56463
| 35>    N      -11.62013         1.75834        -5.71866
| 36>    C      -12.11893         2.09369        -4.50747
| 37>    S      -13.45637         1.25452        -3.78970
| 38>    C      -13.35803         2.32034        -2.42455
| 39>    N      -14.26970         2.13801        -1.37626
| 40>    O      -14.18917         2.89271        -0.42465
| 41>    O      -15.07630         1.23424        -1.49867
| 42>    C      -12.36277         3.25510        -2.52374
| 43>    C      -11.62782         3.14637        -3.71931
| 44>    C      -10.51659         3.97448        -4.10735
| 45>    C      -10.06390         5.04440        -3.42680
| 46>    C       -8.92882         5.79920        -3.87418
| 47>    C       -8.41478         6.87628        -3.26129
| 48>    C       -8.99203         7.48075        -2.01580
| 49>    C       -7.19949         7.56900        -3.82998
| 50>    N       -7.53088         8.86394        -4.37888
| 51>    C       -7.58427         9.14361        -5.68658
| 52>    C       -8.00882        10.32663        -6.20557
| 53>    C       -8.01033        10.62621        -7.58196
| 54>    S       -7.43626         9.53789        -8.81722
| 55>    C       -7.79929        10.65115       -10.13158
| 56>    C       -8.31521        11.84017        -9.59205
| 57>    C       -8.44392        11.79721        -8.18547
| 58>    S       -9.13058        13.25285        -7.54840
| 59>    C       -9.23637        13.91862        -9.16461
| 60>    C       -9.77821        15.25802        -9.42836
| 61>    O       -9.87908        15.66934       -10.56270
| 62>    C      -10.15613        16.08347        -8.22051
| 63>    C       -8.90191        16.73214        -7.62902
| 64>    C       -8.77684        13.05977       -10.12688
| 65>    C       -7.52407        10.40501       -11.47422
| 66>    C       -7.19411         9.22552       -12.10109
| 67>    C       -7.38075         7.85573       -11.71804
| 68>    C       -8.39833         7.35505       -10.93537
| 69>    C       -8.56407         5.98812       -10.67127
| 70>    N       -8.71631         4.87649       -10.42027
| 71>    C       -9.44732         8.14332       -10.42616
| 72>    N      -10.35136         8.73897       -10.04149
| 73>    C       -6.51085         7.04035       -12.56240
| 74>    C       -5.99906         7.85808       -13.59957
| 75>    C       -6.45291         9.25210       -13.38127
| 76>    O       -6.22961        10.21760       -14.07823
| 77>    C       -5.20876         7.35920       -14.60527
| 78>    C       -4.89654         5.99423       -14.57646
| 79>    C       -5.38312         5.19702       -13.51554
| 80>    C       -6.19262         5.69900       -12.50350
| 81>    S       -4.85469         3.54712       -13.66388
| 82>    C       -4.01929         3.93860       -15.14139
| 83>    C       -4.11728         5.24073       -15.49794
| 84>   Br       -3.09800         2.58973       -16.06196
| 85>    H       -8.46806         2.67587       -10.02401
| 86>    H      -11.24334        -1.18706       -11.60842
| 87>    H       -7.37938         2.62558       -12.59102
| 88>    H      -12.86558         0.18313        -6.25525
| 89>    H      -10.82572         2.31297        -6.10044
| 90>    H      -12.18411         3.97733        -1.74904
| 91>    H      -10.00648         3.70909        -5.02371
| 92>    H      -10.54826         5.35962        -2.51598
| 93>    H       -8.45713         5.43745        -4.77892
| 94>    H       -9.09392         6.72949        -1.23493
| 95>    H       -9.98186         7.89384        -2.20800
| 96>    H       -8.35464         8.27515        -1.63521
| 97>    H       -6.75318         6.96674        -4.62283
| 98>    H       -6.45507         7.70816        -3.03581
| 99>    H       -7.91662         9.54274        -3.73813
|100>    H       -7.22520         8.36716        -6.34932
|101>    H       -8.37589        11.10731        -5.55304
|102>    H      -10.63914        15.45590        -7.46965
|103>    H      -10.84949        16.86155        -8.54201
|104>    H       -8.19944        15.97665        -7.28443
|105>    H       -9.17383        17.36113        -6.78526
|106>    H       -8.41056        17.34897        -8.37771
|107>    H       -8.78151        13.31768       -11.17023
|108>    H       -7.48034        11.28547       -12.10835
|109>    H       -4.84466         7.99819       -15.39427
|110>    H       -6.53696         5.05942       -11.70792
|111>    H       -3.66136         5.65506       -16.37842
|112> *
|113>
|114>                          ****END OF INPUT****

CARTESIAN COORDINATES (ANGSTROEM)
---------------------------------
  C    -11.669010   -0.236990   -8.871240
  C    -12.568000   -1.271100   -8.882040
  C    -12.763950   -2.140020   -9.974810
  N    -12.961560   -2.876370  -10.832730
  C    -13.396540   -1.599280   -7.789770
  N    -14.082280   -1.896860   -6.918630
  C    -10.777050    0.139150   -9.965360
  C     -9.967640    1.227760   -9.545620
  C     -9.042710    1.830150  -10.363360
  C     -8.914290    1.337400  -11.664690
  C     -9.716090    0.246480  -12.077270
  C    -10.648830   -0.365110  -11.245570
  S     -9.396460   -0.187980  -13.728830
  C     -8.214130    1.090340  -13.841740
  C     -8.060450    1.802180  -12.700830
  Br    -7.299690    1.369590  -15.452960
  C    -10.320160    1.579480   -8.171420
  O     -9.819480    2.454140   -7.468240
  C    -11.411470    0.677260   -7.780100
  C    -12.036580    0.806670   -6.564630
  N    -11.620130    1.758340   -5.718660
  C    -12.118930    2.093690   -4.507470
  S    -13.456370    1.254520   -3.789700
  C    -13.358030    2.320340   -2.424550
  N    -14.269700    2.138010   -1.376260
  O    -14.189170    2.892710   -0.424650
  O    -15.076300    1.234240   -1.498670
  C    -12.362770    3.255100   -2.523740
  C    -11.627820    3.146370   -3.719310
  C    -10.516590    3.974480   -4.107350
  C    -10.063900    5.044400   -3.426800
  C     -8.928820    5.799200   -3.874180
  C     -8.414780    6.876280   -3.261290
  C     -8.992030    7.480750   -2.015800
  C     -7.199490    7.569000   -3.829980
  N     -7.530880    8.863940   -4.378880
  C     -7.584270    9.143610   -5.686580
  C     -8.008820   10.326630   -6.205570
  C     -8.010330   10.626210   -7.581960
  S     -7.436260    9.537890   -8.817220
  C     -7.799290   10.651150  -10.131580
  C     -8.315210   11.840170   -9.592050
  C     -8.443920   11.797210   -8.185470
  S     -9.130580   13.252850   -7.548400
  C     -9.236370   13.918620   -9.164610
  C     -9.778210   15.258020   -9.428360
  O     -9.879080   15.669340  -10.562700
  C    -10.156130   16.083470   -8.220510
  C     -8.901910   16.732140   -7.629020
  C     -8.776840   13.059770  -10.126880
  C     -7.524070   10.405010  -11.474220
  C     -7.194110    9.225520  -12.101090
  C     -7.380750    7.855730  -11.718040
  C     -8.398330    7.355050  -10.935370
  C     -8.564070    5.988120  -10.671270
  N     -8.716310    4.876490  -10.420270
  C     -9.447320    8.143320  -10.426160
  N    -10.351360    8.738970  -10.041490
  C     -6.510850    7.040350  -12.562400
  C     -5.999060    7.858080  -13.599570
  C     -6.452910    9.252100  -13.381270
  O     -6.229610   10.217600  -14.078230
  C     -5.208760    7.359200  -14.605270
  C     -4.896540    5.994230  -14.576460
  C     -5.383120    5.197020  -13.515540
  C     -6.192620    5.699000  -12.503500
  S     -4.854690    3.547120  -13.663880
  C     -4.019290    3.938600  -15.141390
  C     -4.117280    5.240730  -15.497940
  Br    -3.098000    2.589730  -16.061960
  H     -8.468060    2.675870  -10.024010
  H    -11.243340   -1.187060  -11.608420
  H     -7.379380    2.625580  -12.591020
  H    -12.865580    0.183130   -6.255250
  H    -10.825720    2.312970   -6.100440
  H    -12.184110    3.977330   -1.749040
  H    -10.006480    3.709090   -5.023710
  H    -10.548260    5.359620   -2.515980
  H     -8.457130    5.437450   -4.778920
  H     -9.093920    6.729490   -1.234930
  H     -9.981860    7.893840   -2.208000
  H     -8.354640    8.275150   -1.635210
  H     -6.753180    6.966740   -4.622830
  H     -6.455070    7.708160   -3.035810
  H     -7.916620    9.542740   -3.738130
  H     -7.225200    8.367160   -6.349320
  H     -8.375890   11.107310   -5.553040
  H    -10.639140   15.455900   -7.469650
  H    -10.849490   16.861550   -8.542010
  H     -8.199440   15.976650   -7.284430
  H     -9.173830   17.361130   -6.785260
  H     -8.410560   17.348970   -8.377710
  H     -8.781510   13.317680  -11.170230
  H     -7.480340   11.285470  -12.108350
  H     -4.844660    7.998190  -15.394270
  H     -6.536960    5.059420  -11.707920
  H     -3.661360    5.655060  -16.378420

 Total Charge           Charge          ....    0
 Multiplicity           Mult            ....    1
 Number of Electrons    NEL             ....  572
 Basis Dimension        Dim             .... 1171

ORBITAL ENERGIES
----------------

  NO   OCC          E(Eh)            E(eV)
   0   2.0000    -482.885580    -13139.9847
   1   2.0000    -482.881594    -13139.8762
   2   2.0000     -88.992484     -2421.6086
   3   2.0000     -88.975566     -2421.1482
   4   2.0000     -88.973803     -2421.1003
   5   2.0000     -88.972792     -2421.0728
   6   2.0000     -88.972513     -2421.0652
   7   2.0000     -62.563273     -1702.4332
   8   2.0000     -62.559181     -1702.3219
   9   2.0000     -56.397210     -1534.6461
  10   2.0000     -56.394508     -1534.5726
  11   2.0000     -56.394495     -1534.5722
  12   2.0000     -56.393132     -1534.5351
  13   2.0000     -56.390412     -1534.4611
  14   2.0000     -56.390381     -1534.4603
  15   2.0000     -19.241497      -523.5878
  16   2.0000     -19.240261      -523.5541
  17   2.0000     -19.231936      -523.3276
  18   2.0000     -19.211865      -522.7814
  19   2.0000     -19.203016      -522.5406
  20   2.0000     -14.652810      -398.7232
  21   2.0000     -14.492847      -394.3704
  22   2.0000     -14.474476      -393.8705
  23   2.0000     -14.418496      -392.3472
  24   2.0000     -14.415570      -392.2676
  25   2.0000     -14.413429      -392.2093
  26   2.0000     -14.403595      -391.9418
  27   2.0000     -10.377575      -282.3882
  28   2.0000     -10.375636      -282.3354
  29   2.0000     -10.369443      -282.1669
  30   2.0000     -10.366623      -282.0901
  31   2.0000     -10.357030      -281.8291
  32   2.0000     -10.356112      -281.8041
  33   2.0000     -10.355164      -281.7783
  34   2.0000     -10.354716      -281.7661
  35   2.0000     -10.349632      -281.6278
  36   2.0000     -10.344889      -281.4987
  37   2.0000     -10.342653      -281.4379
  38   2.0000     -10.340782      -281.3870
  39   2.0000     -10.339248      -281.3452
  40   2.0000     -10.334134      -281.2061
  41   2.0000     -10.329970      -281.0928
  42   2.0000     -10.323202      -280.9086
  43   2.0000     -10.322824      -280.8983
  44   2.0000     -10.322373      -280.8861
  45   2.0000     -10.321013      -280.8490
  46   2.0000     -10.318121      -280.7703
  47   2.0000     -10.316586      -280.7286
  48   2.0000     -10.315033      -280.6863
  49   2.0000     -10.313900      -280.6555
  50   2.0000     -10.313184      -280.6360
  51   2.0000     -10.312681      -280.6223
  52   2.0000     -10.309173      -280.5269
  53   2.0000     -10.307583      -280.4836
  54   2.0000     -10.307031      -280.4686
  55   2.0000     -10.306829      -280.4631
  56   2.0000     -10.303731      -280.3788
  57   2.0000     -10.303666      -280.3770
  58   2.0000     -10.303263      -280.3660
  59   2.0000     -10.302798      -280.3534
  60   2.0000     -10.301818      -280.3267
  61   2.0000     -10.300394      -280.2880
  62   2.0000     -10.299770      -280.2710
  63   2.0000     -10.298933      -280.2482
  64   2.0000     -10.297912      -280.2204
  65   2.0000     -10.296756      -280.1890
  66   2.0000     -10.295522      -280.1554
  67   2.0000     -10.293005      -280.0869
  68   2.0000     -10.292389      -280.0702
  69   2.0000     -10.292246      -280.0662
  70   2.0000     -10.291892      -280.0566
  71   2.0000     -10.289984      -280.0047
  72   2.0000     -10.289828      -280.0004
  73   2.0000     -10.288255      -279.9577
  74   2.0000     -10.286920      -279.9213
  75   2.0000     -10.280094      -279.7356
  76   2.0000     -10.278219      -279.6846
  77   2.0000     -10.271585      -279.5040
  78   2.0000      -8.792686      -239.2612
  79   2.0000      -8.788616      -239.1504
  80   2.0000      -8.087771      -220.0794
  81   2.0000      -8.071033      -219.6240
  82   2.0000      -8.068656      -219.5593
  83   2.0000      -8.068515      -219.5555
  84   2.0000      -8.067587      -219.5302
  85   2.0000      -6.628955      -180.3830
  86   2.0000      -6.624919      -180.2732
  87   2.0000      -6.614453      -179.9884
  88   2.0000      -6.614219      -179.9821
  89   2.0000      -6.610382      -179.8776
  90   2.0000      -6.610119      -179.8705
  91   2.0000      -6.057390      -164.8300
  92   2.0000      -6.053058      -164.7121
  93   2.0000      -6.049242      -164.6083
  94   2.0000      -6.040761      -164.3775
  95   2.0000      -6.038315      -164.3109
  96   2.0000      -6.037992      -164.3021
  97   2.0000      -6.037202      -164.2806
  98   2.0000      -6.036462      -164.2605
  99   2.0000      -6.034073      -164.1955
 100   2.0000      -6.033920      -164.1913
 101   2.0000      -6.033106      -164.1692
 102   2.0000      -6.032311      -164.1475
 103   2.0000      -6.030227      -164.0908
 104   2.0000      -6.029948      -164.0832
 105   2.0000      -6.029044      -164.0586
 106   2.0000      -2.744853       -74.6913
 107   2.0000      -2.740781       -74.5804
 108   2.0000      -2.740725       -74.5789
 109   2.0000      -2.740622       -74.5761
 110   2.0000      -2.736777       -74.4715
 111   2.0000      -2.736499       -74.4639
 112   2.0000      -2.729070       -74.2618
 113   2.0000      -2.729056       -74.2614
 114   2.0000      -2.724980       -74.1505
 115   2.0000      -2.724969       -74.1502
 116   2.0000      -1.322510       -35.9873
 117   2.0000      -1.147762       -31.2322
 118   2.0000      -1.141580       -31.0640
 119   2.0000      -1.129130       -30.7252
 120   2.0000      -1.117936       -30.4206
 121   2.0000      -1.102656       -30.0048
 122   2.0000      -1.073660       -29.2158
 123   2.0000      -1.024121       -27.8678
 124   2.0000      -1.022129       -27.8136
 125   2.0000      -1.019016       -27.7288
 126   2.0000      -1.013264       -27.5723
 127   2.0000      -1.011463       -27.5233
 128   2.0000      -1.009910       -27.4811
 129   2.0000      -0.995194       -27.0806
 130   2.0000      -0.990023       -26.9399
 131   2.0000      -0.989086       -26.9144
 132   2.0000      -0.982621       -26.7385
 133   2.0000      -0.963341       -26.2138
 134   2.0000      -0.943985       -25.6871
 135   2.0000      -0.940374       -25.5889
 136   2.0000      -0.938458       -25.5367
 137   2.0000      -0.923968       -25.1424
 138   2.0000      -0.914424       -24.8827
 139   2.0000      -0.907961       -24.7069
 140   2.0000      -0.904211       -24.6048
 141   2.0000      -0.900559       -24.5054
 142   2.0000      -0.887585       -24.1524
 143   2.0000      -0.882849       -24.0235
 144   2.0000      -0.882286       -24.0082
 145   2.0000      -0.881796       -23.9949
 146   2.0000      -0.879319       -23.9275
 147   2.0000      -0.867346       -23.6017
 148   2.0000      -0.852128       -23.1876
 149   2.0000      -0.850411       -23.1409
 150   2.0000      -0.844937       -22.9919
 151   2.0000      -0.831288       -22.6205
 152   2.0000      -0.826867       -22.5002
 153   2.0000      -0.825616       -22.4662
 154   2.0000      -0.813363       -22.1327
 155   2.0000      -0.803438       -21.8627
 156   2.0000      -0.792930       -21.5767
 157   2.0000      -0.785646       -21.3785
 158   2.0000      -0.765548       -20.8316
 159   2.0000      -0.761640       -20.7253
 160   2.0000      -0.754344       -20.5268
 161   2.0000      -0.751343       -20.4451
 162   2.0000      -0.746938       -20.3252
 163   2.0000      -0.732704       -19.9379
 164   2.0000      -0.729886       -19.8612
 165   2.0000      -0.712204       -19.3801
 166   2.0000      -0.711423       -19.3588
 167   2.0000      -0.700185       -19.0530
 168   2.0000      -0.690662       -18.7939
 169   2.0000      -0.688996       -18.7485
 170   2.0000      -0.685917       -18.6647
 171   2.0000      -0.678674       -18.4676
 172   2.0000      -0.670460       -18.2441
 173   2.0000      -0.660340       -17.9688
 174   2.0000      -0.658050       -17.9064
 175   2.0000      -0.654819       -17.8185
 176   2.0000      -0.646732       -17.5985
 177   2.0000      -0.640392       -17.4259
 178   2.0000      -0.639223       -17.3941
 179   2.0000      -0.634151       -17.2561
 180   2.0000      -0.632897       -17.2220
 181   2.0000      -0.625072       -17.0091
 182   2.0000      -0.618980       -16.8433
 183   2.0000      -0.618325       -16.8255
 184   2.0000      -0.611957       -16.6522
 185   2.0000      -0.609041       -16.5728
 186   2.0000      -0.603877       -16.4323
 187   2.0000      -0.602312       -16.3897
 188   2.0000      -0.593899       -16.1608
 189   2.0000      -0.593484       -16.1495
 190   2.0000      -0.590055       -16.0562
 191   2.0000      -0.587861       -15.9965
 192   2.0000      -0.576443       -15.6858
 193   2.0000      -0.575693       -15.6654
 194   2.0000      -0.573342       -15.6014
 195   2.0000      -0.562336       -15.3019
 196   2.0000      -0.558868       -15.2076
 197   2.0000      -0.558379       -15.1943
 198   2.0000      -0.555870       -15.1260
 199   2.0000      -0.551401       -15.0044
 200   2.0000      -0.547472       -14.8975
 201   2.0000      -0.545720       -14.8498
 202   2.0000      -0.541428       -14.7330
 203   2.0000      -0.537496       -14.6260
 204   2.0000      -0.534171       -14.5355
 205   2.0000      -0.533357       -14.5134
 206   2.0000      -0.532383       -14.4869
 207   2.0000      -0.530392       -14.4327
 208   2.0000      -0.527887       -14.3645
 209   2.0000      -0.524530       -14.2732
 210   2.0000      -0.522274       -14.2118
 211   2.0000      -0.517855       -14.0915
 212   2.0000      -0.516752       -14.0615
 213   2.0000      -0.515711       -14.0332
 214   2.0000      -0.515121       -14.0172
 215   2.0000      -0.510275       -13.8853
 216   2.0000      -0.508375       -13.8336
 217   2.0000      -0.506398       -13.7798
 218   2.0000      -0.504808       -13.7365
 219   2.0000      -0.502532       -13.6746
 220   2.0000      -0.498859       -13.5746
 221   2.0000      -0.498514       -13.5653
 222   2.0000      -0.494428       -13.4541
 223   2.0000      -0.492173       -13.3927
 224   2.0000      -0.490796       -13.3552
 225   2.0000      -0.487957       -13.2780
 226   2.0000      -0.480753       -13.0820
 227   2.0000      -0.477745       -13.0001
 228   2.0000      -0.476327       -12.9615
 229   2.0000      -0.474119       -12.9014
 230   2.0000      -0.471196       -12.8219
 231   2.0000      -0.470634       -12.8066
 232   2.0000      -0.465503       -12.6670
 233   2.0000      -0.464538       -12.6407
 234   2.0000      -0.460105       -12.5201
 235   2.0000      -0.459321       -12.4987
 236   2.0000      -0.457579       -12.4513
 237   2.0000      -0.454059       -12.3556
 238   2.0000      -0.450287       -12.2529
 239   2.0000      -0.449437       -12.2298
 240   2.0000      -0.447870       -12.1872
 241   2.0000      -0.446435       -12.1481
 242   2.0000      -0.443351       -12.0642
 243   2.0000      -0.443024       -12.0553
 244   2.0000      -0.440596       -11.9892
 245   2.0000      -0.438839       -11.9414
 246   2.0000      -0.436553       -11.8792
 247   2.0000      -0.435482       -11.8501
 248   2.0000      -0.433948       -11.8083
 249   2.0000      -0.430759       -11.7216
 250   2.0000      -0.428779       -11.6677
 251   2.0000      -0.428163       -11.6509
 252   2.0000      -0.427777       -11.6404
 253   2.0000      -0.426648       -11.6097
 254   2.0000      -0.423132       -11.5140
 255   2.0000      -0.419623       -11.4185
 256   2.0000      -0.417224       -11.3532
 257   2.0000      -0.411020       -11.1844
 258   2.0000      -0.410097       -11.1593
 259   2.0000      -0.405198       -11.0260
 260   2.0000      -0.402734       -10.9589
 261   2.0000      -0.392590       -10.6829
 262   2.0000      -0.388447       -10.5702
 263   2.0000      -0.386446       -10.5157
 264   2.0000      -0.383510       -10.4358
 265   2.0000      -0.381491       -10.3809
 266   2.0000      -0.375207       -10.2099
 267   2.0000      -0.370634       -10.0855
 268   2.0000      -0.369812       -10.0631
 269   2.0000      -0.367893       -10.0109
 270   2.0000      -0.365479        -9.9452
 271   2.0000      -0.360508        -9.8099
 272   2.0000      -0.354028        -9.6336
 273   2.0000      -0.341688        -9.2978
 274   2.0000      -0.335671        -9.1341
 275   2.0000      -0.333666        -9.0795
 276   2.0000      -0.325122        -8.8470
 277   2.0000      -0.319808        -8.7024
 278   2.0000      -0.315281        -8.5792
 279   2.0000      -0.312175        -8.4947
 280   2.0000      -0.310259        -8.4426
 281   2.0000      -0.306304        -8.3350
 282   2.0000      -0.291332        -7.9275
 283   2.0000      -0.290541        -7.9060
 284   2.0000      -0.268362        -7.3025
 285   2.0000      -0.243680        -6.6309
 286   0.0000      -0.097938        -2.6650
 287   0.0000      -0.087804        -2.3893
 288   0.0000      -0.067530        -1.8376
 289   0.0000      -0.057132        -1.5547
 290   0.0000      -0.047259        -1.2860

MULLIKEN ATOMIC CHARGES
-----------------------
   0 C :    0.324612
   1 C :   -0.340416
   2 C :   -0.183814
   3 N :    0.151196
   4 C :   -0.197608
   5 N :    0.141864
   6 C :    0.014023
   7 C :   -0.021864
   8 C :   -0.027565
   9 C :    0.113840
  10 C :   -0.091647
  11 C :   -0.026724
  12 S :    0.185357
  13 C :   -0.119748
  14 C :    0.062267
  15 Br:    0.022621
  16 C :    0.177509
  17 O :   -0.229401
  18 C :   -0.131019
  19 C :    0.029435
  20 N :   -0.014860
  21 C :   -0.113413
  22 S :    0.183673
  23 C :   -0.001607
  24 N :    0.275200
  25 O :   -0.251006
  26 O :   -0.254608
  27 C :    0.004459
  28 C :    0.136332
  29 C :   -0.030687
  30 C :   -0.003600
  31 C :    0.020016
  32 C :   -0.201927
  33 C :    0.073834
  34 C :    0.205884
  35 N :   -0.132280
  36 C :    0.083662
  37 C :   -0.058535
  38 C :   -0.067853
  39 S :    0.127324
  40 C :   -0.116849
  41 C :    0.197582
  42 C :   -0.051106
  43 S :    0.127003
  44 C :   -0.092404
  45 C :    0.035135
  46 O :   -0.164972
  47 C :    0.008616
  48 C :   -0.009729
  49 C :   -0.014772
  50 C :    0.007275
  51 C :   -0.156130
  52 C :    0.259088
  53 C :   -0.345880
  54 C :   -0.166226
  55 N :    0.132714
  56 C :   -0.218941
  57 N :    0.165853
  58 C :    0.006403
  59 C :    0.003849
  60 C :    0.138857
  61 O :   -0.153840
  62 C :   -0.076233
  63 C :    0.110831
  64 C :   -0.080963
  65 C :   -0.037301
  66 S :    0.163887
  67 C :   -0.124271
  68 C :    0.044335
  69 Br:    0.019978
  70 H :   -0.014791
  71 H :   -0.007155
  72 H :   -0.038692
  73 H :    0.044685
  74 H :    0.189056
  75 H :    0.008115
  76 H :   -0.003540
  77 H :   -0.017058
  78 H :   -0.019552
  79 H :    0.045852
  80 H :    0.044850
  81 H :    0.004839
  82 H :    0.018292
  83 H :    0.027896
  84 H :    0.127673
  85 H :    0.021834
  86 H :   -0.018355
  87 H :    0.025837
  88 H :    0.027064
  89 H :    0.019305
  90 H :    0.030118
  91 H :    0.031932
  92 H :    0.014349
  93 H :    0.019928
  94 H :   -0.010391
  95 H :   -0.013069
  96 H :   -0.003736
Sum of atomic charges:   -0.0000000

LOEWDIN ATOMIC CHARGES
----------------------
   0 C :    0.080339
   1 C :   -0.148575
   2 C :   -0.019675
   3 N :   -0.053544
   4 C :   -0.019531
   5 N :   -0.056003
   6 C :   -0.019154
   7 C :   -0.057083
   8 C :    0.041979
   9 C :   -0.032420
  10 C :   -0.142814
  11 C :   -0.011465
  12 S :    0.432554
  13 C :   -0.272336
  14 C :   -0.067411
  15 Br:    0.136578
  16 C :    0.102884
  17 O :   -0.173638
  18 C :   -0.141381
  19 C :    0.110204
  20 N :    0.073689
  21 C :   -0.107678
  22 S :    0.473462
  23 C :   -0.202654
  24 N :    0.273257
  25 O :   -0.217101
  26 O :   -0.221562
  27 C :    0.003196
  28 C :   -0.090644
  29 C :   -0.017160
  30 C :   -0.022419
  31 C :   -0.035338
  32 C :   -0.049073
  33 C :   -0.056252
  34 C :    0.048109
  35 N :    0.028364
  36 C :    0.079088
  37 C :   -0.148198
  38 C :   -0.117044
  39 S :    0.460873
  40 C :   -0.194290
  41 C :   -0.028502
  42 C :   -0.212233
  43 S :    0.416790
  44 C :   -0.181338
  45 C :    0.068258
  46 O :   -0.136730
  47 C :   -0.064969
  48 C :   -0.047893
  49 C :   -0.002137
  50 C :    0.050225
  51 C :   -0.130818
  52 C :    0.064826
  53 C :   -0.173743
  54 C :    0.001428
  55 N :   -0.076766
  56 C :   -0.040744
  57 N :   -0.061947
  58 C :   -0.014214
  59 C :   -0.048500
  60 C :    0.079798
  61 O :   -0.155496
  62 C :    0.020366
  63 C :   -0.036874
  64 C :   -0.145959
  65 C :   -0.025163
  66 S :    0.427226
  67 C :   -0.276334
  68 C :   -0.067375
  69 Br:    0.133730
  70 H :    0.034122
  71 H :    0.040886
  72 H :    0.026282
  73 H :    0.036580
  74 H :    0.080674
  75 H :    0.043511
  76 H :    0.032957
  77 H :    0.024300
  78 H :    0.029077
  79 H :    0.043065
  80 H :    0.041496
  81 H :    0.024557
  82 H :    0.033834
  83 H :    0.030004
  84 H :    0.084279
  85 H :    0.030612
  86 H :    0.028256
  87 H :    0.023601
  88 H :    0.040081
  89 H :    0.016927
  90 H :    0.030713
  91 H :    0.031518
  92 H :    0.044102
  93 H :    0.050080
  94 H :    0.040856
  95 H :    0.033760
  96 H :    0.038824

  Mayer bond orders larger than 0.100000
B(  0-C ,  1-C ) :   1.6312 B(  0-C ,  6-C ) :   1.0079 B(  0-C , 18-C ) :   1.0861
B(  1-C ,  2-C ) :   1.1404 B(  1-C ,  4-C ) :   1.1470 B(  2-C ,  3-N ) :   2.9720
B(  4-C ,  5-N ) :   2.9579 B(  6-C ,  7-C ) :   1.2604 B(  6-C , 11-C ) :   1.4212
B(  7-C ,  8-C ) :   1.4259 B(  7-C , 16-C ) :   0.9954 B(  8-C ,  9-C ) :   1.2456
B(  8-C , 70-H ) :   0.9983 B(  9-C , 10-C ) :   1.3037 B(  9-C , 14-C ) :   1.1668
B( 10-C , 11-C ) :   1.3151 B( 10-C , 12-S ) :   1.0899 B( 11-C , 71-H ) :   0.9834
B( 12-S , 13-C ) :   1.0835 B( 13-C , 14-C ) :   1.6153 B( 13-C , 15-Br) :   1.0229
B( 14-C , 72-H ) :   0.9984 B( 16-C , 17-O ) :   1.9980 B( 16-C , 18-C ) :   1.0038
B( 17-O , 74-H ) :   0.1540 B( 18-C , 19-C ) :   1.4726 B( 19-C , 20-N ) :   1.3219
B( 19-C , 73-H ) :   0.9336 B( 20-N , 21-C ) :   1.2097 B( 20-N , 74-H ) :   0.8121
B( 21-C , 22-S ) :   1.1385 B( 21-C , 28-C ) :   1.3690 B( 22-S , 23-C ) :   1.0801
B( 23-C , 24-N ) :   0.9662 B( 23-C , 27-C ) :   1.5037 B( 24-N , 25-O ) :   1.5313
B( 24-N , 26-O ) :   1.5186 B( 25-O , 26-O ) :   0.2611 B( 27-C , 28-C ) :   1.2230
B( 27-C , 75-H ) :   0.9991 B( 28-C , 29-C ) :   1.0423 B( 29-C , 30-C ) :   1.7431
B( 29-C , 76-H ) :   0.9787 B( 30-C , 31-C ) :   1.0984 B( 30-C , 77-H ) :   0.9710
B( 31-C , 32-C ) :   1.7893 B( 31-C , 78-H ) :   0.9795 B( 32-C , 33-C ) :   1.0609
B( 32-C , 34-C ) :   1.0495 B( 33-C , 79-H ) :   0.9442 B( 33-C , 80-H ) :   0.9519
B( 33-C , 81-H ) :   0.9537 B( 34-C , 35-N ) :   0.9882 B( 34-C , 82-H ) :   0.9387
B( 34-C , 83-H ) :   0.9303 B( 35-N , 36-C ) :   1.3088 B( 35-N , 84-H ) :   0.9352
B( 36-C , 37-C ) :   1.5157 B( 36-C , 85-H ) :   0.9640 B( 37-C , 38-C ) :   1.2577
B( 37-C , 86-H ) :   0.9619 B( 38-C , 39-S ) :   1.1527 B( 38-C , 42-C ) :   1.4090
B( 39-S , 40-C ) :   1.0514 B( 40-C , 41-C ) :   1.2655 B( 40-C , 50-C ) :   1.3053
B( 41-C , 42-C ) :   1.2888 B( 41-C , 49-C ) :   1.1610 B( 42-C , 43-S ) :   1.0363
B( 43-S , 44-C ) :   1.0892 B( 44-C , 45-C ) :   0.9427 B( 44-C , 49-C ) :   1.5738
B( 45-C , 46-O ) :   2.2171 B( 45-C , 47-C ) :   1.0356 B( 47-C , 48-C ) :   1.0865
B( 47-C , 87-H ) :   0.9308 B( 47-C , 88-H ) :   0.9194 B( 48-C , 89-H ) :   0.9711
B( 48-C , 90-H ) :   0.9695 B( 48-C , 91-H ) :   0.9678 B( 49-C , 92-H ) :   1.0073
B( 50-C , 51-C ) :   1.4785 B( 50-C , 93-H ) :   0.9435 B( 51-C , 52-C ) :   1.1126
B( 51-C , 60-C ) :   0.9709 B( 52-C , 53-C ) :   1.5759 B( 52-C , 58-C ) :   1.0060
B( 53-C , 54-C ) :   1.1493 B( 53-C , 56-C ) :   1.1574 B( 54-C , 55-N ) :   2.9661
B( 56-C , 57-N ) :   3.0284 B( 58-C , 59-C ) :   1.2851 B( 58-C , 65-C ) :   1.4266
B( 59-C , 60-C ) :   0.9109 B( 59-C , 62-C ) :   1.4374 B( 60-C , 61-O ) :   2.2564
B( 62-C , 63-C ) :   1.2431 B( 62-C , 94-H ) :   1.0156 B( 63-C , 64-C ) :   1.3217
B( 63-C , 68-C ) :   1.1604 B( 64-C , 65-C ) :   1.3195 B( 64-C , 66-S ) :   1.0749
B( 65-C , 95-H ) :   0.9790 B( 66-S , 67-C ) :   1.0901 B( 67-C , 68-C ) :   1.6207
B( 67-C , 69-Br) :   1.0177 B( 68-C , 96-H ) :   1.0002

-----------------------------------------------------------------------------
         ABSORPTION SPECTRUM VIA TRANSITION ELECTRIC DIPOLE MOMENTS
-----------------------------------------------------------------------------
State   Energy  Wavelength   fosc         T2         TX        TY        TZ
        (cm-1)    (nm)                  (au**2)     (au)      (au)      (au)
-----------------------------------------------------------------------------
   0   14835.0    674.1   0.472191906  10.47865   0.34062  -1.67730  -2.74760
   1   22428.8    445.9   0.921693852  13.52869  -0.29417   1.96533   3.09510
   2   23391.8    427.5   0.170550723   2.40030   0.39583   0.24692  -1.47738
   3   24104.4    414.9   0.045845896   0.62615   0.12641  -0.26043  -0.73644
   4   25682.5    389.4   0.087025507   1.11554   0.50357   0.63599  -0.67636
   5   25826.1    387.2   0.060404676   0.77000   0.40672  -0.30335  -0.71593
   6   26901.0    371.7   0.272417431   3.33382   1.16263  -0.29696  -1.37620
   7   27692.4    361.1   0.002126545   0.02528   0.01547   0.14479  -0.06384
   8   28543.6    350.3   0.507022266   5.84781  -1.35366  -1.05679   1.70253
   9   28776.1    347.5   0.049627426   0.56776   0.43792  -0.61069  -0.05515
  10   29136.0    343.2   0.221678427   2.50477   0.74597  -1.28866  -0.53634
  11   29614.6    337.7   0.327066656   3.63585   0.06736  -1.90552  -0.01785
  12   29777.6    335.8   0.113627508   1.25623   0.24565   0.63746   0.88855
  13   29883.6    334.6   0.005036550   0.05548   0.01103  -0.23227   0.03763
  14   30122.3    332.0   0.100235691   1.09550  -0.12124  -0.95198   0.41778
  15   30139.1    331.8   0.004914555   0.05368   0.21608  -0.05299  -0.06468
  16   30366.8    329.3   0.154163743   1.67132  -0.37352   0.25657  -1.21077
  17   30608.1    326.7   0.002996740   0.03223   0.08257  -0.14115   0.07411
  18   31323.7    319.2   0.086597792   0.91014  -0.18895  -0.50034   0.79000
  19   31888.3    313.6   0.078297361   0.80834  -0.62756  -0.04195   0.64245
  20   32288.5    309.7   0.457549733   4.66516   1.64615   0.92917  -1.04498
  21   33171.8    301.5   0.228095883   2.26373   0.91035   1.13599  -0.38017
  22   33415.1    299.3   0.425012360   4.18730  -1.27846   0.14101   1.59153
  23   33688.8    296.8   0.003574062   0.03493  -0.01696   0.10294   0.15506
  24   33821.5    295.7   0.001630571   0.01587  -0.04764   0.04554   0.10737
  25   34035.8    293.8   0.037630352   0.36398   0.22259  -0.54403  -0.13591
  26   34061.7    293.6   0.043548454   0.42090  -0.12451  -0.56714   0.28940
  27   34816.5    287.2   0.002288765   0.02164   0.03861  -0.13844   0.03139
  28   34947.7    286.1   0.436212272   4.10917   0.74268  -1.87665   0.18921
  29   35495.5    281.7   0.265601724   2.46339  -1.01422  -0.25614   1.17011
  30   35792.5    279.4   0.097135038   0.89343  -0.91090   0.24631   0.05505
  31   35803.6    279.3   0.013930163   0.12809  -0.31952   0.04808   0.15389
  32   35911.5    278.5   0.010668673   0.09780  -0.23996  -0.06025   0.19130
  33   36192.4    276.3   0.001078990   0.00981   0.05717  -0.07748   0.02332
  34   36790.8    271.8   0.072517427   0.64890  -0.53634  -0.57721   0.16754
  35   37095.8    269.6   0.397925593   3.53145  -1.31068  -1.34498  -0.06778
  36   37291.2    268.2   0.171867169   1.51727   0.09227   0.76001   0.96495
  37   38012.3    263.1   0.008316044   0.07202  -0.11372  -0.07644   0.23076
  38   38220.3    261.6   0.002012689   0.01734  -0.01475  -0.09632  -0.08855
  39   38442.7    260.1   0.189513090   1.62294  -0.49964  -0.84332   0.81370
  40   38696.2    258.4   0.013734795   0.11685  -0.06912  -0.09374   0.32138
  41   38912.0    257.0   0.067986970   0.57520   0.09601   0.64329  -0.39007
  42   39320.9    254.3   0.289509382   2.42390  -0.16979   1.51511  -0.31546
  43   40131.1    249.2   0.260775665   2.13925  -0.99135  -1.00028  -0.39486

FINAL SINGLE POINT ENERGY     -9853.748546553004

DIPOLE MOMENT
-------------
                                X             Y             Z
Electronic contribution:     68.92772    -130.36301    -174.43667
Nuclear contribution   :    -64.77584     133.13256     176.60035
                        -----------------------------------------
Total Dipole Moment    :      4.15188       2.76955       2.16369
                        -----------------------------------------
Magnitude (a.u.)       :      5.43967
Magnitude (Debye)      :     13.82655

Rotational constants in cm-1:     0.000570     0.000548     0.000305
Rotational constants in MHz :    17.102076    16.418790     9.156643

                             ****ORCA TERMINATED NORMALLY****
TOTAL RUN TIME: 0 days 0 hours 10 minutes 5 seconds 146 msec
