                         Program Version 4.2.0 -  RELEASE  -
|  1> # ORCA input file
|  2> # SCF done       -176.888177733320          0.001235681957
|  3> ! CAM-B3LYP def2-SVP def2/J RIJCOSX Grid4 TightSCF
|  4> %maxcore 5000
|  5> %tddft
|  6>     Mode sTDDFT
|  7>     Ethresh 5.0
|  8>     maxcore 5000
|  9> end
| 10>
| 11> %pal
| 12>   nprocs 6
| 13>   end
| 14> * xyz 0 1
| 15>    C       -8.13779         5.50226        -5.15527
| 16>    C       -7.16781         6.15511        -5.89937
| 17>    C       -6.17536         5.50282        -6.63304
| 18>    N       -5.38557         5.04493        -7.33940
| 19>    C       -7.10712         7.54132        -6.11120
| 20>    N       -6.98303         8.66402        -6.33106
| 21>    C       -8.17211         4.08267        -4.86445
| 22>    C       -9.38683         3.77199        -4.19286
| 23>    C       -9.70567         2.49837        -3.79424
| 24>    C       -8.78590         1.47775        -4.06536
| 25>    C       -7.57485         1.79738        -4.72462
| 26>    C       -7.24952         3.08456        -5.12875
| 27>    S       -6.58387         0.38679        -4.95567
| 28>    C       -7.79740        -0.59874        -4.17857
| 29>    C       -8.88579         0.09224        -3.76504
| 30>   Br       -7.51030        -2.44420        -3.99136
| 31>    C      -10.17165         5.00793        -4.05209
| 32>    O      -11.28850         5.14077        -3.56906
| 33>    C       -9.35261         6.07219        -4.64397
| 34>    C       -9.80943         7.35648        -4.78971
| 35>    N      -11.05853         7.70714        -4.44042
| 36>    C      -11.69106         8.84845        -4.84713
| 37>    S      -12.96835         9.49052        -3.85727
| 38>    C      -13.11189        10.83759        -4.94018
| 39>    N      -14.09252        11.79163        -4.67260
| 40>    O      -14.19171        12.73720        -5.43854
| 41>    O      -14.78738        11.60767        -3.68292
| 42>    C      -12.22415        10.78698        -5.98604
| 43>    C      -11.41587         9.63851        -5.96758
| 44>    C      -10.48867         9.32726        -7.04552
| 45>    C      -10.28571         8.09900        -7.54693
| 46>    C       -9.30554         7.81796        -8.55842
| 47>    C       -8.93459         6.60774        -9.00169
| 48>    C       -9.50321         5.29752        -8.55441
| 49>    C       -7.83268         6.49302       -10.04097
| 50>    N       -6.61682         7.16261        -9.64557
| 51>    C       -6.24922         8.41706        -9.95797
| 52>    C       -6.87499         9.26391       -10.83050
| 53>    C       -6.44107        10.55205       -11.19348
| 54>    C       -5.33481        11.26883       -10.79597
| 55>    C       -5.00390        12.56906       -11.25078
| 56>    C       -3.85480        13.08557       -10.72678
| 57>    C       -3.20787        12.22266        -9.82046
| 58>    S       -4.10815        10.73095        -9.65825
| 59>    C       -2.04497        12.40209        -9.09354
| 60>    C       -1.15412        13.49776        -9.07411
| 61>    C       -0.10799        13.33888        -8.21996
| 62>    C       -0.11219        12.10706        -7.50383
| 63>    S       -1.50210        11.14183        -8.00684
| 64>    C        0.80065        11.76073        -6.55387
| 65>    N        0.87843        10.60532        -5.84105
| 66>    C        1.62127        10.53395        -4.56603
| 67>    N        0.89679         9.63622        -3.69432
| 68>    C        0.31230         8.70058        -4.64043
| 69>    N       -0.81056         7.92343        -4.18125
| 70>    C       -1.64124         7.57337        -5.33338
| 71>    C       -0.83826         7.52439        -6.64802
| 72>    N       -0.38902         8.84863        -7.01761
| 73>    C       -0.16036         9.60951        -5.80401
| 74>    N       -1.82630         6.91881        -7.50550
| 75>    C       -2.29419         5.79329        -6.70985
| 76>    N       -2.23820         6.26080        -5.32397
| 77>    C       -3.30643         5.99688        -4.48336
| 78>    C       -3.63071         6.69290        -3.40169
| 79>    H      -10.63627         2.28963        -3.29010
| 80>    H       -6.31363         3.28087        -5.62602
| 81>    H       -9.72716        -0.35636        -3.26886
| 82>    H       -9.19304         8.12480        -5.23084
| 83>    H      -11.57766         6.99818        -3.90964
| 84>    H      -12.19257        11.53880        -6.75347
| 85>    H       -9.96525        10.17348        -7.46962
| 86>    H      -10.85954         7.26918        -7.15773
| 87>    H       -8.79094         8.68622        -8.94891
| 88>    H      -10.22734         5.40804        -7.75342
| 89>    H       -8.70292         4.64269        -8.20737
| 90>    H       -9.99161         4.80192        -9.39407
| 91>    H       -8.17092         6.91157       -10.99256
| 92>    H       -7.59452         5.43772       -10.20179
| 93>    H       -6.08162         6.69472        -8.92864
| 94>    H       -5.34125         8.72949        -9.46613
| 95>    H       -7.79196         8.94210       -11.30461
| 96>    H       -7.07520        11.07052       -11.90317
| 97>    H       -5.62959        13.08699       -11.95704
| 98>    H       -3.46270        14.05833       -10.96473
| 99>    H       -1.30864        14.36754        -9.68745
|100>    H        0.66914        14.06737        -8.06696
|101>    H        1.60009        12.45899        -6.34196
|102>    H        1.74860        11.52063        -4.11770
|103>    H        2.61223        10.09980        -4.76252
|104>    H        0.15002        10.11533        -3.19835
|105>    H        1.15957         8.08612        -5.00322
|106>    H       -0.51911         7.09325        -3.67727
|107>    H       -2.42597         8.34331        -5.43031
|108>    H        0.02491         6.82888        -6.49414
|109>    H        0.43431         8.82381        -7.60878
|110>    H       -1.11881        10.07609        -5.52058
|111>    H       -1.47148         6.63580        -8.41099
|112>    H       -1.64005         4.90398        -6.80483
|113>    H       -3.31056         5.52048        -7.01307
|114>    H       -3.84371         5.09883        -4.75714
|115>    H       -3.09128         7.57478        -3.10908
|116>    H       -4.44207         6.37825        -2.77159
|117> *
|118>
|119>                          ****END OF INPUT****

CARTESIAN COORDINATES (ANGSTROEM)
---------------------------------
  C     -8.137790    5.502260   -5.155270
  C     -7.167810    6.155110   -5.899370
  C     -6.175360    5.502820   -6.633040
  N     -5.385570    5.044930   -7.339400
  C     -7.107120    7.541320   -6.111200
  N     -6.983030    8.664020   -6.331060
  C     -8.172110    4.082670   -4.864450
  C     -9.386830    3.771990   -4.192860
  C     -9.705670    2.498370   -3.794240
  C     -8.785900    1.477750   -4.065360
  C     -7.574850    1.797380   -4.724620
  C     -7.249520    3.084560   -5.128750
  S     -6.583870    0.386790   -4.955670
  C     -7.797400   -0.598740   -4.178570
  C     -8.885790    0.092240   -3.765040
  Br    -7.510300   -2.444200   -3.991360
  C    -10.171650    5.007930   -4.052090
  O    -11.288500    5.140770   -3.569060
  C     -9.352610    6.072190   -4.643970
  C     -9.809430    7.356480   -4.789710
  N    -11.058530    7.707140   -4.440420
  C    -11.691060    8.848450   -4.847130
  S    -12.968350    9.490520   -3.857270
  C    -13.111890   10.837590   -4.940180
  N    -14.092520   11.791630   -4.672600
  O    -14.191710   12.737200   -5.438540
  O    -14.787380   11.607670   -3.682920
  C    -12.224150   10.786980   -5.986040
  C    -11.415870    9.638510   -5.967580
  C    -10.488670    9.327260   -7.045520
  C    -10.285710    8.099000   -7.546930
  C     -9.305540    7.817960   -8.558420
  C     -8.934590    6.607740   -9.001690
  C     -9.503210    5.297520   -8.554410
  C     -7.832680    6.493020  -10.040970
  N     -6.616820    7.162610   -9.645570
  C     -6.249220    8.417060   -9.957970
  C     -6.874990    9.263910  -10.830500
  C     -6.441070   10.552050  -11.193480
  C     -5.334810   11.268830  -10.795970
  C     -5.003900   12.569060  -11.250780
  C     -3.854800   13.085570  -10.726780
  C     -3.207870   12.222660   -9.820460
  S     -4.108150   10.730950   -9.658250
  C     -2.044970   12.402090   -9.093540
  C     -1.154120   13.497760   -9.074110
  C     -0.107990   13.338880   -8.219960
  C     -0.112190   12.107060   -7.503830
  S     -1.502100   11.141830   -8.006840
  C      0.800650   11.760730   -6.553870
  N      0.878430   10.605320   -5.841050
  C      1.621270   10.533950   -4.566030
  N      0.896790    9.636220   -3.694320
  C      0.312300    8.700580   -4.640430
  N     -0.810560    7.923430   -4.181250
  C     -1.641240    7.573370   -5.333380
  C     -0.838260    7.524390   -6.648020
  N     -0.389020    8.848630   -7.017610
  C     -0.160360    9.609510   -5.804010
  N     -1.826300    6.918810   -7.505500
  C     -2.294190    5.793290   -6.709850
  N     -2.238200    6.260800   -5.323970
  C     -3.306430    5.996880   -4.483360
  C     -3.630710    6.692900   -3.401690
  H    -10.636270    2.289630   -3.290100
  H     -6.313630    3.280870   -5.626020
  H     -9.727160   -0.356360   -3.268860
  H     -9.193040    8.124800   -5.230840
  H    -11.577660    6.998180   -3.909640
  H    -12.192570   11.538800   -6.753470
  H     -9.965250   10.173480   -7.469620
  H    -10.859540    7.269180   -7.157730
  H     -8.790940    8.686220   -8.948910
  H    -10.227340    5.408040   -7.753420
  H     -8.702920    4.642690   -8.207370
  H     -9.991610    4.801920   -9.394070
  H     -8.170920    6.911570  -10.992560
  H     -7.594520    5.437720  -10.201790
  H     -6.081620    6.694720   -8.928640
  H     -5.341250    8.729490   -9.466130
  H     -7.791960    8.942100  -11.304610
  H     -7.075200   11.070520  -11.903170
  H     -5.629590   13.086990  -11.957040
  H     -3.462700   14.058330  -10.964730
  H     -1.308640   14.367540   -9.687450
  H      0.669140   14.067370   -8.066960
  H      1.600090   12.458990   -6.341960
  H      1.748600   11.520630   -4.117700
  H      2.612230   10.099800   -4.762520
  H      0.150020   10.115330   -3.198350
  H      1.159570    8.086120   -5.003220
  H     -0.519110    7.093250   -3.677270
  H     -2.425970    8.343310   -5.430310
  H      0.024910    6.828880   -6.494140
  H      0.434310    8.823810   -7.608780
  H     -1.118810   10.076090   -5.520580
  H     -1.471480    6.635800   -8.410990
  H     -1.640050    4.903980   -6.804830
  H     -3.310560    5.520480   -7.013070
  H     -3.843710    5.098830   -4.757140
  H     -3.091280    7.574780   -3.109080
  H     -4.442070    6.378250   -2.771590

 Total Charge           Charge          ....    0
 Multiplicity           Mult            ....    1
 Number of Electrons    NEL             ....  508
 Basis Dimension        Dim             .... 1120

ORBITAL ENERGIES
----------------

  NO   OCC          E(Eh)            E(eV)
   0   2.0000    -482.895441    -13140.2530
   1   2.0000     -88.990689     -2421.5597
   2   2.0000     -88.987819     -2421.4817
   3   2.0000     -88.899697     -2419.0837
   4   2.0000     -88.899626     -2419.0818
   5   2.0000     -62.573153     -1702.7020
   6   2.0000     -56.407123     -1534.9159
   7   2.0000     -56.404376     -1534.8411
   8   2.0000     -56.404342     -1534.8402
   9   2.0000     -19.239743      -523.5400
  10   2.0000     -19.239328      -523.5287
  11   2.0000     -19.237902      -523.4899
  12   2.0000     -14.650901      -398.6713
  13   2.0000     -14.498976      -394.5372
  14   2.0000     -14.436052      -392.8249
  15   2.0000     -14.420757      -392.4087
  16   2.0000     -14.420569      -392.4036
  17   2.0000     -14.414805      -392.2468
  18   2.0000     -14.410465      -392.1287
  19   2.0000     -14.395001      -391.7079
  20   2.0000     -14.393478      -391.6665
  21   2.0000     -14.387138      -391.4939
  22   2.0000     -14.384407      -391.4196
  23   2.0000     -10.385755      -282.6108
  24   2.0000     -10.372058      -282.2381
  25   2.0000     -10.371604      -282.2257
  26   2.0000     -10.370692      -282.2009
  27   2.0000     -10.356628      -281.8182
  28   2.0000     -10.349278      -281.6182
  29   2.0000     -10.348353      -281.5930
  30   2.0000     -10.342034      -281.4211
  31   2.0000     -10.338771      -281.3323
  32   2.0000     -10.324752      -280.9508
  33   2.0000     -10.322784      -280.8972
  34   2.0000     -10.321873      -280.8724
  35   2.0000     -10.321276      -280.8562
  36   2.0000     -10.320716      -280.8410
  37   2.0000     -10.317561      -280.7551
  38   2.0000     -10.317466      -280.7525
  39   2.0000     -10.315794      -280.7070
  40   2.0000     -10.315654      -280.7032
  41   2.0000     -10.314705      -280.6774
  42   2.0000     -10.311393      -280.5873
  43   2.0000     -10.308584      -280.5108
  44   2.0000     -10.308298      -280.5030
  45   2.0000     -10.308228      -280.5011
  46   2.0000     -10.307601      -280.4841
  47   2.0000     -10.303752      -280.3794
  48   2.0000     -10.301878      -280.3284
  49   2.0000     -10.294489      -280.1273
  50   2.0000     -10.287636      -279.9408
  51   2.0000     -10.285578      -279.8848
  52   2.0000     -10.283971      -279.8411
  53   2.0000     -10.282919      -279.8125
  54   2.0000     -10.281059      -279.7618
  55   2.0000     -10.274530      -279.5842
  56   2.0000     -10.265505      -279.3386
  57   2.0000     -10.263489      -279.2837
  58   2.0000     -10.261761      -279.2367
  59   2.0000     -10.259715      -279.1810
  60   2.0000     -10.255013      -279.0531
  61   2.0000     -10.251628      -278.9610
  62   2.0000     -10.246482      -278.8210
  63   2.0000     -10.241007      -278.6720
  64   2.0000     -10.240424      -278.6561
  65   2.0000     -10.240201      -278.6500
  66   2.0000     -10.229449      -278.3575
  67   2.0000     -10.226766      -278.2844
  68   2.0000      -8.802575      -239.5303
  69   2.0000      -8.086274      -220.0387
  70   2.0000      -8.083757      -219.9702
  71   2.0000      -7.995492      -217.5684
  72   2.0000      -7.995088      -217.5574
  73   2.0000      -6.638952      -180.6551
  74   2.0000      -6.624262      -180.2553
  75   2.0000      -6.624065      -180.2500
  76   2.0000      -6.055832      -164.7876
  77   2.0000      -6.053442      -164.7225
  78   2.0000      -6.051449      -164.6683
  79   2.0000      -6.049177      -164.6065
  80   2.0000      -6.047902      -164.5718
  81   2.0000      -6.044978      -164.4922
  82   2.0000      -5.965276      -162.3234
  83   2.0000      -5.965114      -162.3190
  84   2.0000      -5.961253      -162.2139
  85   2.0000      -5.960862      -162.2033
  86   2.0000      -5.956432      -162.0828
  87   2.0000      -5.955569      -162.0593
  88   2.0000      -2.754801       -74.9620
  89   2.0000      -2.750703       -74.8504
  90   2.0000      -2.750514       -74.8453
  91   2.0000      -2.738858       -74.5281
  92   2.0000      -2.738853       -74.5280
  93   2.0000      -1.317914       -35.8623
  94   2.0000      -1.151253       -31.3272
  95   2.0000      -1.136800       -30.9339
  96   2.0000      -1.103566       -30.0295
  97   2.0000      -1.087002       -29.5788
  98   2.0000      -1.064550       -28.9679
  99   2.0000      -1.036776       -28.2121
 100   2.0000      -1.027809       -27.9681
 101   2.0000      -1.015985       -27.6464
 102   2.0000      -1.012384       -27.5484
 103   2.0000      -1.006100       -27.3774
 104   2.0000      -0.999977       -27.2108
 105   2.0000      -0.999813       -27.2063
 106   2.0000      -0.995737       -27.0954
 107   2.0000      -0.965613       -26.2757
 108   2.0000      -0.953210       -25.9382
 109   2.0000      -0.948525       -25.8107
 110   2.0000      -0.932055       -25.3625
 111   2.0000      -0.925259       -25.1776
 112   2.0000      -0.923462       -25.1287
 113   2.0000      -0.920536       -25.0491
 114   2.0000      -0.912798       -24.8385
 115   2.0000      -0.900103       -24.4930
 116   2.0000      -0.899037       -24.4640
 117   2.0000      -0.885299       -24.0902
 118   2.0000      -0.860016       -23.4022
 119   2.0000      -0.853641       -23.2288
 120   2.0000      -0.847230       -23.0543
 121   2.0000      -0.842081       -22.9142
 122   2.0000      -0.830608       -22.6020
 123   2.0000      -0.825525       -22.4637
 124   2.0000      -0.816869       -22.2281
 125   2.0000      -0.806050       -21.9337
 126   2.0000      -0.797920       -21.7125
 127   2.0000      -0.794224       -21.6119
 128   2.0000      -0.785511       -21.3748
 129   2.0000      -0.779395       -21.2084
 130   2.0000      -0.774945       -21.0873
 131   2.0000      -0.774442       -21.0736
 132   2.0000      -0.767524       -20.8854
 133   2.0000      -0.760226       -20.6868
 134   2.0000      -0.742527       -20.2052
 135   2.0000      -0.729452       -19.8494
 136   2.0000      -0.718510       -19.5517
 137   2.0000      -0.717334       -19.5197
 138   2.0000      -0.711206       -19.3529
 139   2.0000      -0.704438       -19.1687
 140   2.0000      -0.702158       -19.1067
 141   2.0000      -0.696294       -18.9471
 142   2.0000      -0.677041       -18.4232
 143   2.0000      -0.674169       -18.3451
 144   2.0000      -0.670640       -18.2490
 145   2.0000      -0.666415       -18.1341
 146   2.0000      -0.652764       -17.7626
 147   2.0000      -0.649452       -17.6725
 148   2.0000      -0.641283       -17.4502
 149   2.0000      -0.635985       -17.3060
 150   2.0000      -0.633427       -17.2364
 151   2.0000      -0.631081       -17.1726
 152   2.0000      -0.630457       -17.1556
 153   2.0000      -0.622266       -16.9327
 154   2.0000      -0.620832       -16.8937
 155   2.0000      -0.617252       -16.7963
 156   2.0000      -0.610766       -16.6198
 157   2.0000      -0.606244       -16.4967
 158   2.0000      -0.599669       -16.3178
 159   2.0000      -0.596208       -16.2236
 160   2.0000      -0.594927       -16.1888
 161   2.0000      -0.590911       -16.0795
 162   2.0000      -0.582093       -15.8396
 163   2.0000      -0.579415       -15.7667
 164   2.0000      -0.576561       -15.6890
 165   2.0000      -0.573272       -15.5995
 166   2.0000      -0.569891       -15.5075
 167   2.0000      -0.566510       -15.4155
 168   2.0000      -0.564479       -15.3602
 169   2.0000      -0.562158       -15.2971
 170   2.0000      -0.556200       -15.1350
 171   2.0000      -0.551650       -15.0112
 172   2.0000      -0.547835       -14.9073
 173   2.0000      -0.546662       -14.8754
 174   2.0000      -0.542797       -14.7702
 175   2.0000      -0.537302       -14.6207
 176   2.0000      -0.536251       -14.5921
 177   2.0000      -0.535397       -14.5689
 178   2.0000      -0.529872       -14.4185
 179   2.0000      -0.529393       -14.4055
 180   2.0000      -0.527656       -14.3582
 181   2.0000      -0.525237       -14.2924
 182   2.0000      -0.520641       -14.1674
 183   2.0000      -0.518384       -14.1060
 184   2.0000      -0.512164       -13.9367
 185   2.0000      -0.509952       -13.8765
 186   2.0000      -0.508293       -13.8314
 187   2.0000      -0.505386       -13.7522
 188   2.0000      -0.503469       -13.7001
 189   2.0000      -0.498650       -13.5689
 190   2.0000      -0.496096       -13.4995
 191   2.0000      -0.491061       -13.3624
 192   2.0000      -0.490566       -13.3490
 193   2.0000      -0.488560       -13.2944
 194   2.0000      -0.481590       -13.1047
 195   2.0000      -0.479567       -13.0497
 196   2.0000      -0.475793       -12.9470
 197   2.0000      -0.471799       -12.8383
 198   2.0000      -0.471604       -12.8330
 199   2.0000      -0.468876       -12.7588
 200   2.0000      -0.464898       -12.6505
 201   2.0000      -0.463108       -12.6018
 202   2.0000      -0.461095       -12.5470
 203   2.0000      -0.459735       -12.5100
 204   2.0000      -0.457310       -12.4440
 205   2.0000      -0.455462       -12.3937
 206   2.0000      -0.453902       -12.3513
 207   2.0000      -0.452158       -12.3039
 208   2.0000      -0.450336       -12.2543
 209   2.0000      -0.449437       -12.2298
 210   2.0000      -0.448599       -12.2070
 211   2.0000      -0.445917       -12.1340
 212   2.0000      -0.442942       -12.0531
 213   2.0000      -0.438257       -11.9256
 214   2.0000      -0.437408       -11.9025
 215   2.0000      -0.436381       -11.8745
 216   2.0000      -0.427046       -11.6205
 217   2.0000      -0.423654       -11.5282
 218   2.0000      -0.422730       -11.5031
 219   2.0000      -0.421132       -11.4596
 220   2.0000      -0.419636       -11.4189
 221   2.0000      -0.417007       -11.3473
 222   2.0000      -0.409777       -11.1506
 223   2.0000      -0.402906       -10.9636
 224   2.0000      -0.400409       -10.8957
 225   2.0000      -0.397842       -10.8258
 226   2.0000      -0.387235       -10.5372
 227   2.0000      -0.387050       -10.5322
 228   2.0000      -0.386120       -10.5068
 229   2.0000      -0.384685       -10.4678
 230   2.0000      -0.379859       -10.3365
 231   2.0000      -0.379575       -10.3288
 232   2.0000      -0.378509       -10.2997
 233   2.0000      -0.373553       -10.1649
 234   2.0000      -0.366999        -9.9865
 235   2.0000      -0.361640        -9.8407
 236   2.0000      -0.354908        -9.6575
 237   2.0000      -0.353668        -9.6238
 238   2.0000      -0.341753        -9.2996
 239   2.0000      -0.335182        -9.1208
 240   2.0000      -0.329720        -8.9721
 241   2.0000      -0.323778        -8.8104
 242   2.0000      -0.307744        -8.3741
 243   2.0000      -0.304321        -8.2810
 244   2.0000      -0.302842        -8.2408
 245   2.0000      -0.299721        -8.1558
 246   2.0000      -0.295776        -8.0485
 247   2.0000      -0.290558        -7.9065
 248   2.0000      -0.281360        -7.6562
 249   2.0000      -0.273926        -7.4539
 250   2.0000      -0.270865        -7.3706
 251   2.0000      -0.258744        -7.0408
 252   2.0000      -0.229537        -6.2460
 253   2.0000      -0.159683        -4.3452
 254   0.0000      -0.097660        -2.6575
 255   0.0000      -0.075985        -2.0676
 256   0.0000      -0.048935        -1.3316
 257   0.0000      -0.022811        -0.6207
 258   0.0000      -0.016640        -0.4528

MULLIKEN ATOMIC CHARGES
-----------------------
   0 C :    0.337332
   1 C :   -0.352637
   2 C :   -0.121149
   3 N :    0.083549
   4 C :   -0.203080
   5 N :    0.174183
   6 C :    0.000365
   7 C :   -0.007215
   8 C :   -0.066360
   9 C :    0.112182
  10 C :   -0.088508
  11 C :   -0.019219
  12 S :    0.188926
  13 C :   -0.123833
  14 C :    0.040874
  15 Br:    0.032237
  16 C :    0.165853
  17 O :   -0.200206
  18 C :   -0.148344
  19 C :    0.027293
  20 N :   -0.001712
  21 C :   -0.132378
  22 S :    0.198595
  23 C :   -0.007547
  24 N :    0.279206
  25 O :   -0.245413
  26 O :   -0.261884
  27 C :    0.004857
  28 C :    0.120809
  29 C :   -0.070113
  30 C :   -0.001263
  31 C :    0.028760
  32 C :   -0.225983
  33 C :    0.103249
  34 C :    0.222503
  35 N :   -0.157193
  36 C :    0.049609
  37 C :   -0.059555
  38 C :   -0.012850
  39 C :   -0.033329
  40 C :    0.021943
  41 C :    0.014114
  42 C :   -0.042596
  43 S :    0.009741
  44 C :   -0.036685
  45 C :    0.020221
  46 C :    0.022381
  47 C :   -0.040671
  48 S :    0.053179
  49 C :    0.027746
  50 N :   -0.280765
  51 C :    0.276820
  52 N :   -0.202117
  53 C :    0.072186
  54 N :   -0.146765
  55 C :    0.102956
  56 C :    0.089593
  57 N :   -0.134054
  58 C :    0.074868
  59 N :   -0.220961
  60 C :    0.298140
  61 N :   -0.308897
  62 C :    0.067459
  63 C :   -0.076639
  64 H :   -0.006963
  65 H :   -0.009973
  66 H :    0.000885
  67 H :    0.070330
  68 H :    0.166079
  69 H :    0.017979
  70 H :    0.019111
  71 H :    0.001982
  72 H :    0.002988
  73 H :   -0.000093
  74 H :    0.021756
  75 H :    0.033462
  76 H :    0.035667
  77 H :   -0.000752
  78 H :    0.123762
  79 H :    0.026149
  80 H :   -0.041393
  81 H :   -0.034433
  82 H :   -0.033454
  83 H :   -0.034569
  84 H :   -0.030966
  85 H :   -0.030990
  86 H :   -0.010451
  87 H :    0.014097
  88 H :    0.008832
  89 H :    0.105694
  90 H :   -0.015651
  91 H :    0.114909
  92 H :    0.014185
  93 H :   -0.032685
  94 H :    0.104149
  95 H :    0.014617
  96 H :    0.102803
  97 H :   -0.019156
  98 H :    0.000309
  99 H :   -0.009754
 100 H :    0.021564
 101 H :   -0.001831
Sum of atomic charges:   -0.0000000

LOEWDIN ATOMIC CHARGES
----------------------
   0 C :    0.086411
   1 C :   -0.156508
   2 C :    0.006177
   3 N :   -0.078045
   4 C :   -0.025732
   5 N :   -0.039928
   6 C :   -0.021750
   7 C :   -0.049691
   8 C :    0.025847
   9 C :   -0.031663
  10 C :   -0.143913
  11 C :   -0.009324
  12 S :    0.434000
  13 C :   -0.268364
  14 C :   -0.069140
  15 Br:    0.142432
  16 C :    0.091779
  17 O :   -0.170922
  18 C :   -0.150893
  19 C :    0.136420
  20 N :    0.067539
  21 C :   -0.125199
  22 S :    0.471502
  23 C :   -0.202024
  24 N :    0.275939
  25 O :   -0.212030
  26 O :   -0.229004
  27 C :    0.005671
  28 C :   -0.078691
  29 C :   -0.038822
  30 C :   -0.015189
  31 C :   -0.041226
  32 C :   -0.035216
  33 C :   -0.052106
  34 C :    0.046403
  35 N :    0.003174
  36 C :    0.037621
  37 C :   -0.150769
  38 C :   -0.061324
  39 C :   -0.176217
  40 C :   -0.044550
  41 C :   -0.060082
  42 C :   -0.198270
  43 S :    0.355714
  44 C :   -0.192629
  45 C :   -0.054396
  46 C :   -0.041410
  47 C :   -0.208423
  48 S :    0.379523
  49 C :   -0.016043
  50 N :   -0.074346
  51 C :    0.100210
  52 N :   -0.099421
  53 C :    0.045251
  54 N :   -0.096467
  55 C :    0.069410
  56 C :    0.045656
  57 N :   -0.094798
  58 C :    0.042345
  59 N :   -0.102347
  60 C :    0.098612
  61 N :   -0.081874
  62 C :    0.019562
  63 C :   -0.142178
  64 H :    0.042869
  65 H :    0.039325
  66 H :    0.040519
  67 H :    0.049371
  68 H :    0.088074
  69 H :    0.049617
  70 H :    0.039025
  71 H :    0.021441
  72 H :    0.037891
  73 H :    0.022812
  74 H :    0.030702
  75 H :    0.039109
  76 H :    0.037497
  77 H :    0.025886
  78 H :    0.070970
  79 H :    0.014636
  80 H :    0.014197
  81 H :    0.026808
  82 H :    0.024124
  83 H :    0.023519
  84 H :    0.024847
  85 H :    0.023632
  86 H :    0.025752
  87 H :    0.018804
  88 H :    0.013316
  89 H :    0.057960
  90 H :    0.002979
  91 H :    0.065631
  92 H :    0.015707
  93 H :   -0.013221
  94 H :    0.056966
  95 H :    0.006228
  96 H :    0.060743
  97 H :   -0.007549
  98 H :    0.008244
  99 H :    0.017053
 100 H :    0.019725
 101 H :    0.018515

  Mayer bond orders larger than 0.100000
B(  0-C ,  1-C ) :   1.5770 B(  0-C ,  6-C ) :   1.0059 B(  0-C , 18-C ) :   1.1258
B(  1-C ,  2-C ) :   1.2037 B(  1-C ,  4-C ) :   1.1600 B(  2-C ,  3-N ) :   2.7196
B(  4-C ,  5-N ) :   2.9182 B(  6-C ,  7-C ) :   1.2700 B(  6-C , 11-C ) :   1.4146
B(  7-C ,  8-C ) :   1.4256 B(  7-C , 16-C ) :   0.9668 B(  8-C ,  9-C ) :   1.2417
B(  8-C , 64-H ) :   1.0170 B(  9-C , 10-C ) :   1.3113 B(  9-C , 14-C ) :   1.1646
B( 10-C , 11-C ) :   1.3266 B( 10-C , 12-S ) :   1.0860 B( 11-C , 65-H ) :   0.9838
B( 12-S , 13-C ) :   1.0885 B( 13-C , 14-C ) :   1.6175 B( 13-C , 15-Br) :   1.0240
B( 14-C , 66-H ) :   0.9993 B( 16-C , 17-O ) :   2.1029 B( 16-C , 18-C ) :   0.9776
B( 17-O , 68-H ) :   0.1171 B( 18-C , 19-C ) :   1.4689 B( 19-C , 20-N ) :   1.3572
B( 19-C , 67-H ) :   0.9184 B( 20-N , 21-C ) :   1.1184 B( 20-N , 68-H ) :   0.8492
B( 21-C , 22-S ) :   1.1421 B( 21-C , 28-C ) :   1.4279 B( 22-S , 23-C ) :   1.1030
B( 23-C , 24-N ) :   0.9694 B( 23-C , 27-C ) :   1.4722 B( 24-N , 25-O ) :   1.5363
B( 24-N , 26-O ) :   1.5089 B( 25-O , 26-O ) :   0.2649 B( 27-C , 28-C ) :   1.2395
B( 27-C , 69-H ) :   1.0086 B( 28-C , 29-C ) :   0.9955 B( 29-C , 30-C ) :   1.7763
B( 29-C , 70-H ) :   0.9714 B( 30-C , 31-C ) :   1.1185 B( 30-C , 71-H ) :   0.9485
B( 31-C , 32-C ) :   1.7777 B( 31-C , 72-H ) :   0.9704 B( 32-C , 33-C ) :   1.0921
B( 32-C , 34-C ) :   1.0134 B( 33-C , 73-H ) :   0.9510 B( 33-C , 74-H ) :   0.9425
B( 33-C , 75-H ) :   0.9434 B( 34-C , 35-N ) :   1.0335 B( 34-C , 76-H ) :   0.9251
B( 34-C , 77-H ) :   0.9393 B( 35-N , 36-C ) :   1.2398 B( 35-N , 78-H ) :   0.9255
B( 36-C , 37-C ) :   1.5753 B( 36-C , 79-H ) :   0.9432 B( 37-C , 38-C ) :   1.2173
B( 37-C , 80-H ) :   0.9505 B( 38-C , 39-C ) :   1.5930 B( 38-C , 81-H ) :   0.9561
B( 39-C , 40-C ) :   1.1531 B( 39-C , 43-S ) :   1.0149 B( 40-C , 41-C ) :   1.5847
B( 40-C , 82-H ) :   0.9969 B( 41-C , 42-C ) :   1.1882 B( 41-C , 83-H ) :   0.9922
B( 42-C , 43-S ) :   1.0245 B( 42-C , 44-C ) :   1.5189 B( 44-C , 45-C ) :   1.1748
B( 44-C , 48-S ) :   1.0214 B( 45-C , 46-C ) :   1.6187 B( 45-C , 84-H ) :   0.9928
B( 46-C , 47-C ) :   1.1293 B( 46-C , 85-H ) :   0.9944 B( 47-C , 48-S ) :   0.9997
B( 47-C , 49-C ) :   1.6338 B( 49-C , 50-N ) :   1.1325 B( 49-C , 86-H ) :   0.9567
B( 50-N , 51-C ) :   0.9158 B( 50-N , 58-C ) :   1.0109 B( 51-C , 52-N ) :   1.0975
B( 51-C , 87-H ) :   0.9532 B( 51-C , 88-H ) :   0.9522 B( 52-N , 53-C ) :   1.0701
B( 52-N , 89-H ) :   0.9321 B( 53-C , 54-N ) :   1.1530 B( 53-C , 58-C ) :   1.0005
B( 53-C , 90-H ) :   0.8801 B( 54-N , 55-C ) :   1.0523 B( 54-N , 91-H ) :   0.9145
B( 55-C , 56-C ) :   1.0231 B( 55-C , 61-N ) :   1.0247 B( 55-C , 92-H ) :   0.8958
B( 56-C , 57-N ) :   1.1230 B( 56-C , 59-N ) :   1.0569 B( 56-C , 93-H ) :   0.8802
B( 57-N , 58-C ) :   1.0787 B( 57-N , 94-H ) :   0.9093 B( 58-C , 95-H ) :   0.8851
B( 59-N , 60-C ) :   1.0312 B( 59-N , 96-H ) :   0.9320 B( 60-C , 61-N ) :   0.9564
B( 60-C , 97-H ) :   0.9388 B( 60-C , 98-H ) :   0.9335 B( 61-N , 62-C ) :   1.1052
B( 62-C , 63-C ) :   1.9116 B( 62-C , 99-H ) :   0.9618 B( 63-C ,100-H ) :   0.9416
B( 63-C ,101-H ) :   0.9509

-----------------------------------------------------------------------------
         ABSORPTION SPECTRUM VIA TRANSITION ELECTRIC DIPOLE MOMENTS
-----------------------------------------------------------------------------
State   Energy  Wavelength   fosc         T2         TX        TY        TZ
        (cm-1)    (nm)                  (au**2)     (au)      (au)      (au)
-----------------------------------------------------------------------------
   0    1163.0   8598.8   0.000521582   0.14765  -0.22946  -0.25811   0.16847
   1    7570.5   1320.9   0.006358826   0.27652   0.38672   0.30611  -0.18239
   2   13919.4    718.4   0.007644942   0.18081   0.40393   0.13259  -0.00849
   3   15802.9    632.8   0.003128674   0.06518   0.03960   0.24915  -0.03915
   4   16708.2    598.5   0.438220958   8.63453   2.63737   1.03949   0.77347
   5   18272.5    547.3   0.610853884  11.00565   2.72567   1.03240   1.58447
   6   18800.0    531.9   0.001669954   0.02924  -0.16109   0.01136   0.05625
   7   19802.2    505.0   0.153543106   2.55266  -1.16599   0.96363  -0.51434
   8   22232.1    449.8   0.022607624   0.33477  -0.33390   0.08368  -0.46506
   9   22367.9    447.1   0.019295702   0.28400   0.39587   0.17987   0.30810
  10   24204.1    413.2   0.004136449   0.05626  -0.01750   0.01204  -0.23624
  11   24886.0    401.8   0.127655223   1.68872   0.80928  -1.00207   0.17216
  12   25658.3    389.7   0.330084284   4.23518  -1.66347   1.01586   0.66036
  13   26006.1    384.5   0.011807897   0.14948  -0.34428   0.00714   0.17577
  14   26781.3    373.4   0.000117171   0.00144   0.01603   0.02507  -0.02356
  15   27395.5    365.0   0.031453856   0.37798   0.17865  -0.46229   0.36380
  16   27586.4    362.5   0.016068383   0.19176  -0.13767   0.40735   0.08288
  17   28436.5    351.7   0.021558705   0.24959   0.05183   0.49609   0.02814
  18   28575.8    349.9   0.292719182   3.37232   0.23435   1.72050  -0.59772
  19   28771.4    347.6   0.042352657   0.48461   0.25199   0.53703  -0.36429
  20   29527.8    338.7   0.122146802   1.36184   0.37895  -1.09757   0.11651
  21   29581.1    338.1   0.351659997   3.91367  -0.66683   1.84337  -0.26646
  22   30803.7    324.6   0.001610450   0.01721   0.03046  -0.12397  -0.03026
  23   30931.9    323.3   0.006138947   0.06534  -0.03537   0.16481  -0.19216
  24   31327.3    319.2   0.094195797   0.98988  -0.28851  -0.71713   0.62640
  25   31473.1    317.7   0.188487510   1.97160   0.21102   0.86439  -1.08623
  26   31758.0    314.9   0.437945069   4.53985   0.46222  -2.05739   0.30554
  27   31869.6    313.8   0.075635582   0.78131   0.23117  -0.84384   0.12570
  28   32504.5    307.6   0.075357718   0.76324   0.01709   0.72644  -0.48500
  29   32561.7    307.1   0.000367356   0.00371   0.01284   0.03873  -0.04527
  30   32792.6    304.9   0.247494760   2.48466  -0.00844   1.43140  -0.66005
  31   33097.3    302.1   0.019110820   0.19009  -0.12186  -0.40951   0.08687
  32   33776.3    296.1   0.210683416   2.05349   1.05786   0.68968  -0.67733
  33   33812.0    295.8   0.028333497   0.27587   0.40173   0.23060  -0.24761
  34   33828.8    295.6   0.000927832   0.00903   0.05124   0.07924  -0.01118
  35   33973.4    294.3   0.023267663   0.22547   0.33557  -0.32485  -0.08567
  36   34246.2    292.0   0.006030480   0.05797  -0.04356   0.23588  -0.02085
  37   34492.8    289.9   0.030201095   0.28825   0.18778   0.49276  -0.10087
  38   34721.5    288.0   0.000698191   0.00662  -0.02284   0.01290  -0.07702
  39   34977.5    285.9   0.000090859   0.00086  -0.02112  -0.00901   0.01812
  40   35019.4    285.6   0.002629895   0.02472   0.10557  -0.08615  -0.07847
  41   35132.9    284.6   0.003380926   0.03168   0.14137  -0.10118  -0.03820
  42   36291.6    275.5   0.007044661   0.06390   0.02035   0.24917  -0.03745
  43   36348.0    275.1   0.007713282   0.06986  -0.04884   0.21525  -0.14540
  44   36568.9    273.5   0.027507495   0.24764  -0.15016   0.12666  -0.45722
  45   36618.7    273.1   0.012853169   0.11555   0.04915   0.02700   0.33527
  46   37099.8    269.5   0.005301592   0.04704   0.20126  -0.03384  -0.07345
  47   37313.2    268.0   0.021936905   0.19355   0.18344   0.07377  -0.39301
  48   37337.1    267.8   0.089781492   0.79163   0.66846  -0.20108  -0.55169
  49   37723.3    265.1   0.052468211   0.45789   0.31074  -0.44226   0.40711
  50   37942.0    263.6   0.016877599   0.14644   0.01740  -0.33959   0.17554
  51   38147.8    262.1   0.026773832   0.23106   0.00793  -0.37709   0.29799
  52   38425.2    260.2   0.029353214   0.25149   0.02121   0.36332  -0.34502
  53   38618.8    258.9   0.019842399   0.16915   0.26847  -0.30751   0.05008
  54   38665.1    258.6   0.013429607   0.11435  -0.22991   0.23633   0.07509
  55   38797.1    257.8   0.012271452   0.10413  -0.31691   0.04758  -0.03785
  56   38922.5    256.9   0.130943524   1.10754  -0.10535   0.84125   0.62349
  57   38987.2    256.5   0.019425823   0.16403   0.37436  -0.15352  -0.01794
  58   39020.3    256.3   0.203826445   1.71967   0.72254  -0.93672  -0.56583
  59   39162.2    255.3   0.058057633   0.48805   0.37677  -0.41108  -0.42085
  60   39370.1    254.0   0.002235939   0.01870  -0.13007   0.02664   0.03270
  61   39438.7    253.6   0.025305684   0.21124  -0.23940   0.34047   0.19495
  62   39486.2    253.3   0.092773374   0.77349  -0.63659   0.59342   0.12686
  63   39785.5    251.3   0.005078726   0.04202  -0.11792   0.16224  -0.04242
  64   40083.5    249.5   0.006583754   0.05407  -0.10691   0.18770  -0.08611
  65   40110.7    249.3   0.029307139   0.24054   0.00650   0.38003  -0.30996

FINAL SINGLE POINT ENERGY     -6728.338490829065

DIPOLE MOMENT
-------------
                                X             Y             Z
Electronic contribution:    -63.11806    -126.41059      48.04013
Nuclear contribution   :     63.81599     122.33421     -47.15194
                        -----------------------------------------
Total Dipole Moment    :      0.69793      -4.07638       0.88819
                        -----------------------------------------
Magnitude (a.u.)       :      4.23000
Magnitude (Debye)      :     10.75180

Rotational constants in cm-1:     0.000921     0.000612     0.000431
Rotational constants in MHz :    27.607162    18.337479    12.921369

                             ****ORCA TERMINATED NORMALLY****
TOTAL RUN TIME: 0 days 0 hours 12 minutes 7 seconds 414 msec
