                         Program Version 4.2.0 -  RELEASE  -
|  1> # ORCA input file
|  2> # SCF done       -168.012942969770          0.000861224015
|  3> ! CAM-B3LYP def2-SVP def2/J RIJCOSX Grid4 TightSCF
|  4> %maxcore 5000
|  5> %tddft
|  6>     Mode sTDDFT
|  7>     Ethresh 5.0
|  8>     maxcore 5000
|  9> end
| 10>
| 11> %pal
| 12>   nprocs 6
| 13>   end
| 14> * xyz 0 1
| 15>    C       -3.83097         6.05063         5.34603
| 16>    C       -4.42699         7.26078         5.06298
| 17>    C       -4.00808         8.49263         5.60365
| 18>    N       -3.71966         9.53099         6.00167
| 19>    C       -5.54742         7.46225         4.23532
| 20>    N       -6.46497         7.71499         3.58793
| 21>    C       -2.69894         5.87420         6.25140
| 22>    C       -2.42857         4.49056         6.36988
| 23>    C       -1.42822         3.99452         7.16744
| 24>    C       -0.64327         4.91167         7.87584
| 25>    C       -0.91448         6.29336         7.74552
| 26>    C       -1.93407         6.79386         6.94425
| 27>    S        0.17210         7.25117         8.70695
| 28>    C        0.96337         5.80053         9.26331
| 29>    C        0.44371         4.65752         8.75639
| 30>   Br        2.40075         5.93168        10.46173
| 31>    C       -3.39100         3.72703         5.54327
| 32>    O       -3.52081         2.52275         5.54823
| 33>    C       -4.19903         4.74959         4.83623
| 34>    C       -5.18758         4.55211         3.89605
| 35>    C       -5.53370         3.38004         3.20441
| 36>    C       -6.71241         3.29504         2.43377
| 37>    O       -7.07476         2.13275         1.81536
| 38>    C       -6.25533         1.05493         1.99439
| 39>    C       -5.04443         1.16497         2.73377
| 40>    C       -4.35724        -0.00362         2.79911
| 41>    S       -5.18906        -1.25391         1.95500
| 42>    C       -6.47169        -0.19433         1.51055
| 43>    O       -4.65946         2.34075         3.29384
| 44>    C       -7.61911         4.35192         2.24266
| 45>    C       -8.79121         4.19274         1.53225
| 46>    C       -9.70489         5.21240         1.30210
| 47>    C      -10.89408         5.00614         0.61871
| 48>    C      -11.90483         5.94020         0.31675
| 49>    C      -12.97105         5.40986        -0.36190
| 50>    C      -12.84051         4.03458        -0.61901
| 51>    S      -11.33216         3.42800         0.01061
| 52>    C      -13.70452         3.14892        -1.25813
| 53>    C      -14.96520         3.35260        -1.84505
| 54>    C      -15.51140         2.21165        -2.36746
| 55>    C      -14.70663         1.05852        -2.21516
| 56>    S      -13.22724         1.48060        -1.38774
| 57>    C      -15.02909        -0.21559        -2.64003
| 58>    C      -14.26770        -1.38006        -2.50262
| 59>    S      -14.90147        -2.91430        -3.09923
| 60>    C      -13.50598        -3.85017        -2.60772
| 61>    C      -12.58062        -2.99399        -2.00410
| 62>    C      -13.01333        -1.64228        -1.95360
| 63>    O      -12.07940        -0.87477        -1.36586
| 64>    C      -11.05989        -1.70751        -1.03917
| 65>    N       -9.94354        -1.13183        -0.40144
| 66>    O       -9.02155        -1.87898        -0.11855
| 67>    O       -9.96563         0.06106        -0.17497
| 68>    C      -11.29988        -3.01142        -1.39946
| 69>    C      -13.43143        -5.23634        -2.83004
| 70>    S      -12.03873        -6.15309        -2.33042
| 71>    C      -12.74019        -7.62643        -2.93859
| 72>    C      -12.08292        -8.93465        -2.86270
| 73>    O      -12.59767        -9.93093        -3.29748
| 74>    O      -10.86697        -8.97531        -2.28725
| 75>    C      -13.97993        -7.39075        -3.49148
| 76>    C      -14.37137        -6.05745        -3.43299
| 77>    H       -1.25432         2.93250         7.24205
| 78>    H       -2.10046         7.85609         6.88290
| 79>    H        0.80932         3.67496         8.99301
| 80>    H       -5.76403         5.42113         3.63205
| 81>    H       -3.42910        -0.18870         3.29698
| 82>    H       -7.29508        -0.55789         0.93087
| 83>    H       -7.40088         5.32373         2.65335
| 84>    H       -9.02012         3.21057         1.13797
| 85>    H       -9.49354         6.20757         1.66962
| 86>    H      -11.82348         6.97304         0.60594
| 87>    H      -13.83304         5.97241        -0.67328
| 88>    H      -15.43909         4.31740        -1.87076
| 89>    H      -16.46908         2.16676        -2.85517
| 90>    H      -15.98464        -0.33506        -3.13304
| 91>    H      -10.64106        -3.84022        -1.24348
| 92>    H      -10.56049        -8.11228        -1.97870
| 93>    H      -14.56496        -8.18463        -3.91851
| 94>    H      -15.30332        -5.67572        -3.80957
| 95> *
| 96>
| 97>                          ****END OF INPUT****

CARTESIAN COORDINATES (ANGSTROEM)
---------------------------------
  C     -3.830970    6.050630    5.346030
  C     -4.426990    7.260780    5.062980
  C     -4.008080    8.492630    5.603650
  N     -3.719660    9.530990    6.001670
  C     -5.547420    7.462250    4.235320
  N     -6.464970    7.714990    3.587930
  C     -2.698940    5.874200    6.251400
  C     -2.428570    4.490560    6.369880
  C     -1.428220    3.994520    7.167440
  C     -0.643270    4.911670    7.875840
  C     -0.914480    6.293360    7.745520
  C     -1.934070    6.793860    6.944250
  S      0.172100    7.251170    8.706950
  C      0.963370    5.800530    9.263310
  C      0.443710    4.657520    8.756390
  Br     2.400750    5.931680   10.461730
  C     -3.391000    3.727030    5.543270
  O     -3.520810    2.522750    5.548230
  C     -4.199030    4.749590    4.836230
  C     -5.187580    4.552110    3.896050
  C     -5.533700    3.380040    3.204410
  C     -6.712410    3.295040    2.433770
  O     -7.074760    2.132750    1.815360
  C     -6.255330    1.054930    1.994390
  C     -5.044430    1.164970    2.733770
  C     -4.357240   -0.003620    2.799110
  S     -5.189060   -1.253910    1.955000
  C     -6.471690   -0.194330    1.510550
  O     -4.659460    2.340750    3.293840
  C     -7.619110    4.351920    2.242660
  C     -8.791210    4.192740    1.532250
  C     -9.704890    5.212400    1.302100
  C    -10.894080    5.006140    0.618710
  C    -11.904830    5.940200    0.316750
  C    -12.971050    5.409860   -0.361900
  C    -12.840510    4.034580   -0.619010
  S    -11.332160    3.428000    0.010610
  C    -13.704520    3.148920   -1.258130
  C    -14.965200    3.352600   -1.845050
  C    -15.511400    2.211650   -2.367460
  C    -14.706630    1.058520   -2.215160
  S    -13.227240    1.480600   -1.387740
  C    -15.029090   -0.215590   -2.640030
  C    -14.267700   -1.380060   -2.502620
  S    -14.901470   -2.914300   -3.099230
  C    -13.505980   -3.850170   -2.607720
  C    -12.580620   -2.993990   -2.004100
  C    -13.013330   -1.642280   -1.953600
  O    -12.079400   -0.874770   -1.365860
  C    -11.059890   -1.707510   -1.039170
  N     -9.943540   -1.131830   -0.401440
  O     -9.021550   -1.878980   -0.118550
  O     -9.965630    0.061060   -0.174970
  C    -11.299880   -3.011420   -1.399460
  C    -13.431430   -5.236340   -2.830040
  S    -12.038730   -6.153090   -2.330420
  C    -12.740190   -7.626430   -2.938590
  C    -12.082920   -8.934650   -2.862700
  O    -12.597670   -9.930930   -3.297480
  O    -10.866970   -8.975310   -2.287250
  C    -13.979930   -7.390750   -3.491480
  C    -14.371370   -6.057450   -3.432990
  H     -1.254320    2.932500    7.242050
  H     -2.100460    7.856090    6.882900
  H      0.809320    3.674960    8.993010
  H     -5.764030    5.421130    3.632050
  H     -3.429100   -0.188700    3.296980
  H     -7.295080   -0.557890    0.930870
  H     -7.400880    5.323730    2.653350
  H     -9.020120    3.210570    1.137970
  H     -9.493540    6.207570    1.669620
  H    -11.823480    6.973040    0.605940
  H    -13.833040    5.972410   -0.673280
  H    -15.439090    4.317400   -1.870760
  H    -16.469080    2.166760   -2.855170
  H    -15.984640   -0.335060   -3.133040
  H    -10.641060   -3.840220   -1.243480
  H    -10.560490   -8.112280   -1.978700
  H    -14.564960   -8.184630   -3.918510
  H    -15.303320   -5.675720   -3.809570

 Total Charge           Charge          ....    0
 Multiplicity           Mult            ....    1
 Number of Electrons    NEL             ....  498
 Basis Dimension        Dim             .... 1000

ORBITAL ENERGIES
----------------

  NO   OCC          E(Eh)            E(eV)
   0   2.0000    -482.877841    -13139.7741
   1   2.0000     -88.992517     -2421.6095
   2   2.0000     -88.989047     -2421.5151
   3   2.0000     -88.965571     -2420.8763
   4   2.0000     -88.956725     -2420.6356
   5   2.0000     -88.955988     -2420.6155
   6   2.0000     -88.949848     -2420.4484
   7   2.0000     -62.555545     -1702.2229
   8   2.0000     -56.389481     -1534.4358
   9   2.0000     -56.386790     -1534.3626
  10   2.0000     -56.386753     -1534.3616
  11   2.0000     -19.331412      -526.0345
  12   2.0000     -19.284877      -524.7682
  13   2.0000     -19.269088      -524.3385
  14   2.0000     -19.267318      -524.2904
  15   2.0000     -19.265321      -524.2360
  16   2.0000     -19.264860      -524.2235
  17   2.0000     -19.198662      -522.4222
  18   2.0000     -19.194518      -522.3094
  19   2.0000     -14.679142      -399.4398
  20   2.0000     -14.410416      -392.1273
  21   2.0000     -14.401283      -391.8788
  22   2.0000     -10.410181      -283.2754
  23   2.0000     -10.410171      -283.2751
  24   2.0000     -10.370407      -282.1931
  25   2.0000     -10.369853      -282.1780
  26   2.0000     -10.351437      -281.6769
  27   2.0000     -10.349424      -281.6221
  28   2.0000     -10.348792      -281.6049
  29   2.0000     -10.343608      -281.4639
  30   2.0000     -10.342377      -281.4304
  31   2.0000     -10.341985      -281.4197
  32   2.0000     -10.335108      -281.2326
  33   2.0000     -10.334460      -281.2150
  34   2.0000     -10.332547      -281.1629
  35   2.0000     -10.328945      -281.0649
  36   2.0000     -10.328509      -281.0530
  37   2.0000     -10.325816      -280.9797
  38   2.0000     -10.325047      -280.9588
  39   2.0000     -10.322904      -280.9005
  40   2.0000     -10.321584      -280.8646
  41   2.0000     -10.321104      -280.8515
  42   2.0000     -10.319562      -280.8096
  43   2.0000     -10.315229      -280.6917
  44   2.0000     -10.313841      -280.6539
  45   2.0000     -10.309145      -280.5261
  46   2.0000     -10.305846      -280.4363
  47   2.0000     -10.304676      -280.4045
  48   2.0000     -10.303354      -280.3685
  49   2.0000     -10.302414      -280.3429
  50   2.0000     -10.301225      -280.3106
  51   2.0000     -10.300488      -280.2905
  52   2.0000     -10.299908      -280.2747
  53   2.0000     -10.297405      -280.2066
  54   2.0000     -10.296093      -280.1709
  55   2.0000     -10.294950      -280.1398
  56   2.0000     -10.293360      -280.0966
  57   2.0000     -10.291600      -280.0487
  58   2.0000     -10.288858      -279.9741
  59   2.0000     -10.287642      -279.9410
  60   2.0000     -10.287293      -279.9315
  61   2.0000     -10.286970      -279.9227
  62   2.0000     -10.285662      -279.8871
  63   2.0000     -10.284722      -279.8615
  64   2.0000     -10.284282      -279.8495
  65   2.0000     -10.277946      -279.6771
  66   2.0000      -8.784970      -239.0512
  67   2.0000      -8.087045      -220.0597
  68   2.0000      -8.084482      -219.9899
  69   2.0000      -8.061495      -219.3644
  70   2.0000      -8.053274      -219.1407
  71   2.0000      -8.052432      -219.1178
  72   2.0000      -8.045688      -218.9343
  73   2.0000      -6.621199      -180.1720
  74   2.0000      -6.606730      -179.7783
  75   2.0000      -6.606556      -179.7735
  76   2.0000      -6.056546      -164.8070
  77   2.0000      -6.053841      -164.7334
  78   2.0000      -6.052467      -164.6960
  79   2.0000      -6.049725      -164.6214
  80   2.0000      -6.048791      -164.5960
  81   2.0000      -6.046563      -164.5353
  82   2.0000      -6.031176      -164.1166
  83   2.0000      -6.026938      -164.0013
  84   2.0000      -6.022961      -163.8931
  85   2.0000      -6.022740      -163.8871
  86   2.0000      -6.022076      -163.8690
  87   2.0000      -6.018720      -163.7777
  88   2.0000      -6.017916      -163.7558
  89   2.0000      -6.015152      -163.6806
  90   2.0000      -6.014146      -163.6532
  91   2.0000      -6.013541      -163.6368
  92   2.0000      -6.010948      -163.5662
  93   2.0000      -6.007474      -163.4717
  94   2.0000      -2.737117       -74.4807
  95   2.0000      -2.733007       -74.3689
  96   2.0000      -2.732876       -74.3653
  97   2.0000      -2.721374       -74.0524
  98   2.0000      -2.721360       -74.0520
  99   2.0000      -1.349786       -36.7296
 100   2.0000      -1.255688       -34.1690
 101   2.0000      -1.207492       -32.8575
 102   2.0000      -1.186214       -32.2785
 103   2.0000      -1.168459       -31.7954
 104   2.0000      -1.164806       -31.6960
 105   2.0000      -1.109665       -30.1955
 106   2.0000      -1.098949       -29.9039
 107   2.0000      -1.025187       -27.8968
 108   2.0000      -1.011938       -27.5362
 109   2.0000      -1.011644       -27.5282
 110   2.0000      -1.004217       -27.3261
 111   2.0000      -1.000541       -27.2261
 112   2.0000      -0.988674       -26.9032
 113   2.0000      -0.984923       -26.8011
 114   2.0000      -0.981969       -26.7207
 115   2.0000      -0.976262       -26.5654
 116   2.0000      -0.959258       -26.1027
 117   2.0000      -0.935087       -25.4450
 118   2.0000      -0.928320       -25.2609
 119   2.0000      -0.922137       -25.0926
 120   2.0000      -0.909045       -24.7364
 121   2.0000      -0.903009       -24.5721
 122   2.0000      -0.897107       -24.4115
 123   2.0000      -0.885271       -24.0894
 124   2.0000      -0.874404       -23.7938
 125   2.0000      -0.873107       -23.7585
 126   2.0000      -0.862785       -23.4776
 127   2.0000      -0.858310       -23.3558
 128   2.0000      -0.857711       -23.3395
 129   2.0000      -0.835075       -22.7235
 130   2.0000      -0.834690       -22.7131
 131   2.0000      -0.822372       -22.3779
 132   2.0000      -0.820445       -22.3254
 133   2.0000      -0.817299       -22.2398
 134   2.0000      -0.811561       -22.0837
 135   2.0000      -0.805810       -21.9272
 136   2.0000      -0.786588       -21.4041
 137   2.0000      -0.767294       -20.8791
 138   2.0000      -0.752345       -20.4723
 139   2.0000      -0.747518       -20.3410
 140   2.0000      -0.744982       -20.2720
 141   2.0000      -0.725260       -19.7353
 142   2.0000      -0.721888       -19.6436
 143   2.0000      -0.711607       -19.3638
 144   2.0000      -0.696150       -18.9432
 145   2.0000      -0.695237       -18.9184
 146   2.0000      -0.691084       -18.8053
 147   2.0000      -0.689254       -18.7556
 148   2.0000      -0.680118       -18.5069
 149   2.0000      -0.672891       -18.3103
 150   2.0000      -0.670503       -18.2453
 151   2.0000      -0.669554       -18.2195
 152   2.0000      -0.663316       -18.0497
 153   2.0000      -0.662358       -18.0237
 154   2.0000      -0.653972       -17.7955
 155   2.0000      -0.646721       -17.5982
 156   2.0000      -0.643143       -17.5008
 157   2.0000      -0.637890       -17.3579
 158   2.0000      -0.635276       -17.2867
 159   2.0000      -0.628921       -17.1138
 160   2.0000      -0.623168       -16.9573
 161   2.0000      -0.616214       -16.7680
 162   2.0000      -0.611986       -16.6530
 163   2.0000      -0.603940       -16.4340
 164   2.0000      -0.599488       -16.3129
 165   2.0000      -0.590796       -16.0764
 166   2.0000      -0.590347       -16.0642
 167   2.0000      -0.585536       -15.9332
 168   2.0000      -0.576654       -15.6916
 169   2.0000      -0.574568       -15.6348
 170   2.0000      -0.574143       -15.6232
 171   2.0000      -0.567663       -15.4469
 172   2.0000      -0.556432       -15.1413
 173   2.0000      -0.549201       -14.9445
 174   2.0000      -0.546874       -14.8812
 175   2.0000      -0.543321       -14.7845
 176   2.0000      -0.540308       -14.7025
 177   2.0000      -0.537255       -14.6195
 178   2.0000      -0.534763       -14.5516
 179   2.0000      -0.533581       -14.5195
 180   2.0000      -0.531663       -14.4673
 181   2.0000      -0.527330       -14.3494
 182   2.0000      -0.524209       -14.2644
 183   2.0000      -0.518616       -14.1123
 184   2.0000      -0.513189       -13.9646
 185   2.0000      -0.512929       -13.9575
 186   2.0000      -0.511927       -13.9302
 187   2.0000      -0.509496       -13.8641
 188   2.0000      -0.508123       -13.8267
 189   2.0000      -0.505816       -13.7639
 190   2.0000      -0.504755       -13.7351
 191   2.0000      -0.499604       -13.5949
 192   2.0000      -0.497275       -13.5315
 193   2.0000      -0.490057       -13.3351
 194   2.0000      -0.489241       -13.3129
 195   2.0000      -0.487191       -13.2571
 196   2.0000      -0.485243       -13.2041
 197   2.0000      -0.481652       -13.1064
 198   2.0000      -0.480521       -13.0756
 199   2.0000      -0.479194       -13.0395
 200   2.0000      -0.473455       -12.8834
 201   2.0000      -0.469331       -12.7712
 202   2.0000      -0.468527       -12.7493
 203   2.0000      -0.463749       -12.6193
 204   2.0000      -0.463312       -12.6074
 205   2.0000      -0.461874       -12.5682
 206   2.0000      -0.460950       -12.5431
 207   2.0000      -0.455056       -12.3827
 208   2.0000      -0.447515       -12.1775
 209   2.0000      -0.447179       -12.1684
 210   2.0000      -0.443300       -12.0628
 211   2.0000      -0.442567       -12.0429
 212   2.0000      -0.435495       -11.8504
 213   2.0000      -0.433740       -11.8027
 214   2.0000      -0.433322       -11.7913
 215   2.0000      -0.430969       -11.7273
 216   2.0000      -0.428966       -11.6728
 217   2.0000      -0.424986       -11.5645
 218   2.0000      -0.418283       -11.3821
 219   2.0000      -0.417477       -11.3601
 220   2.0000      -0.414727       -11.2853
 221   2.0000      -0.414212       -11.2713
 222   2.0000      -0.409076       -11.1315
 223   2.0000      -0.403780       -10.9874
 224   2.0000      -0.403110       -10.9692
 225   2.0000      -0.400221       -10.8906
 226   2.0000      -0.397640       -10.8203
 227   2.0000      -0.397462       -10.8155
 228   2.0000      -0.394368       -10.7313
 229   2.0000      -0.388959       -10.5841
 230   2.0000      -0.379968       -10.3395
 231   2.0000      -0.373326       -10.1587
 232   2.0000      -0.367263        -9.9937
 233   2.0000      -0.364734        -9.9249
 234   2.0000      -0.355827        -9.6826
 235   2.0000      -0.352595        -9.5946
 236   2.0000      -0.350486        -9.5372
 237   2.0000      -0.348153        -9.4737
 238   2.0000      -0.341659        -9.2970
 239   2.0000      -0.335309        -9.1242
 240   2.0000      -0.325012        -8.8440
 241   2.0000      -0.316206        -8.6044
 242   2.0000      -0.304557        -8.2874
 243   2.0000      -0.303051        -8.2464
 244   2.0000      -0.294075        -8.0022
 245   2.0000      -0.283190        -7.7060
 246   2.0000      -0.280762        -7.6399
 247   2.0000      -0.251665        -6.8482
 248   2.0000      -0.212728        -5.7886
 249   0.0000      -0.119154        -3.2424
 250   0.0000      -0.092864        -2.5270
 251   0.0000      -0.070694        -1.9237
 252   0.0000      -0.049947        -1.3591
 253   0.0000      -0.037569        -1.0223

MULLIKEN ATOMIC CHARGES
-----------------------
   0 C :    0.308506
   1 C :   -0.372202
   2 C :   -0.188492
   3 N :    0.141858
   4 C :   -0.169538
   5 N :    0.122246
   6 C :    0.016962
   7 C :   -0.009081
   8 C :   -0.080033
   9 C :    0.119028
  10 C :   -0.094492
  11 C :   -0.023648
  12 S :    0.179415
  13 C :   -0.123693
  14 C :    0.038897
  15 Br:    0.016167
  16 C :    0.121951
  17 O :   -0.135634
  18 C :   -0.063741
  19 C :   -0.066830
  20 C :    0.162840
  21 C :    0.205102
  22 O :   -0.236240
  23 C :    0.211673
  24 C :    0.218130
  25 C :   -0.164764
  26 S :    0.110977
  27 C :   -0.163540
  28 O :   -0.210829
  29 C :   -0.085076
  30 C :    0.028448
  31 C :   -0.003154
  32 C :   -0.016298
  33 C :    0.038847
  34 C :    0.025759
  35 C :   -0.040391
  36 S :    0.099186
  37 C :   -0.027536
  38 C :    0.035547
  39 C :    0.032203
  40 C :   -0.032479
  41 S :    0.092738
  42 C :    0.051670
  43 C :   -0.201925
  44 S :    0.165058
  45 C :   -0.087420
  46 C :    0.086580
  47 C :    0.191131
  48 O :   -0.186401
  49 C :    0.257165
  50 N :    0.284184
  51 O :   -0.236567
  52 O :   -0.216276
  53 C :   -0.102571
  54 C :   -0.049346
  55 S :    0.082293
  56 C :   -0.169028
  57 C :    0.184602
  58 O :   -0.170661
  59 O :   -0.161061
  60 C :    0.057521
  61 C :   -0.010551
  62 H :   -0.014181
  63 H :   -0.008338
  64 H :   -0.006000
  65 H :   -0.011482
  66 H :    0.028814
  67 H :    0.000213
  68 H :    0.014888
  69 H :    0.034003
  70 H :    0.008053
  71 H :   -0.001475
  72 H :   -0.007607
  73 H :   -0.008286
  74 H :   -0.009369
  75 H :   -0.018445
  76 H :    0.018077
  77 H :    0.177671
  78 H :    0.016448
  79 H :   -0.000167
Sum of atomic charges:   -0.0000000

LOEWDIN ATOMIC CHARGES
----------------------
   0 C :    0.078969
   1 C :   -0.161491
   2 C :   -0.019563
   3 N :   -0.067018
   4 C :   -0.012594
   5 N :   -0.079022
   6 C :   -0.021795
   7 C :   -0.045988
   8 C :    0.016089
   9 C :   -0.033921
  10 C :   -0.146658
  11 C :   -0.012554
  12 S :    0.427033
  13 C :   -0.273899
  14 C :   -0.071158
  15 Br:    0.130970
  16 C :    0.071658
  17 O :   -0.139384
  18 C :   -0.100355
  19 C :    0.037855
  20 C :    0.006599
  21 C :    0.078894
  22 O :   -0.029651
  23 C :   -0.017085
  24 C :   -0.007264
  25 C :   -0.205068
  26 S :    0.440944
  27 C :   -0.197675
  28 O :   -0.024197
  29 C :   -0.046952
  30 C :    0.006684
  31 C :   -0.046699
  32 C :   -0.132523
  33 C :   -0.028382
  34 C :   -0.025646
  35 C :   -0.173056
  36 S :    0.408669
  37 C :   -0.179634
  38 C :   -0.027196
  39 C :   -0.033477
  40 C :   -0.141045
  41 S :    0.417854
  42 C :   -0.084773
  43 C :   -0.184567
  44 S :    0.467088
  45 C :   -0.191234
  46 C :   -0.075786
  47 C :    0.013043
  48 O :    0.008982
  49 C :    0.028784
  50 N :    0.277963
  51 O :   -0.204184
  52 O :   -0.184204
  53 C :   -0.011001
  54 C :   -0.166433
  55 S :    0.423214
  56 C :   -0.238276
  57 C :    0.062287
  58 O :   -0.159017
  59 O :   -0.034995
  60 C :   -0.001153
  61 C :   -0.060666
  62 H :    0.038803
  63 H :    0.039987
  64 H :    0.037646
  65 H :    0.042522
  66 H :    0.032195
  67 H :    0.017216
  68 H :    0.039878
  69 H :    0.029281
  70 H :    0.041388
  71 H :    0.038016
  72 H :    0.034576
  73 H :    0.034387
  74 H :    0.034271
  75 H :    0.036424
  76 H :    0.041722
  77 H :    0.078185
  78 H :    0.046177
  79 H :    0.030988

  Mayer bond orders larger than 0.100000
B(  0-C ,  1-C ) :   1.5725 B(  0-C ,  6-C ) :   0.9962 B(  0-C , 18-C ) :   1.1254
B(  1-C ,  2-C ) :   1.1509 B(  1-C ,  4-C ) :   1.1592 B(  2-C ,  3-N ) :   2.9640
B(  4-C ,  5-N ) :   2.9546 B(  6-C ,  7-C ) :   1.2781 B(  6-C , 11-C ) :   1.4113
B(  7-C ,  8-C ) :   1.4360 B(  7-C , 16-C ) :   0.9252 B(  8-C ,  9-C ) :   1.2388
B(  8-C , 62-H ) :   1.0159 B(  9-C , 10-C ) :   1.3136 B(  9-C , 14-C ) :   1.1637
B( 10-C , 11-C ) :   1.3290 B( 10-C , 12-S ) :   1.0812 B( 11-C , 63-H ) :   0.9789
B( 12-S , 13-C ) :   1.0866 B( 13-C , 14-C ) :   1.6164 B( 13-C , 15-Br) :   1.0151
B( 14-C , 64-H ) :   1.0005 B( 16-C , 17-O ) :   2.2711 B( 16-C , 18-C ) :   0.9284
B( 18-C , 19-C ) :   1.4810 B( 19-C , 20-C ) :   1.3029 B( 19-C , 65-H ) :   0.9142
B( 20-C , 21-C ) :   1.2748 B( 20-C , 28-O ) :   1.1121 B( 21-C , 22-O ) :   1.1201
B( 21-C , 29-C ) :   1.2364 B( 22-O , 23-C ) :   1.0174 B( 23-C , 24-C ) :   1.2054
B( 23-C , 27-C ) :   1.5635 B( 24-C , 25-C ) :   1.5735 B( 24-C , 28-O ) :   1.0504
B( 25-C , 26-S ) :   1.1389 B( 25-C , 66-H ) :   0.9698 B( 26-S , 27-C ) :   1.1554
B( 27-C , 67-H ) :   0.9571 B( 29-C , 30-C ) :   1.5284 B( 29-C , 68-H ) :   0.9565
B( 30-C , 31-C ) :   1.1974 B( 30-C , 69-H ) :   0.9735 B( 31-C , 32-C ) :   1.4739
B( 31-C , 70-H ) :   0.9931 B( 32-C , 33-C ) :   1.1796 B( 32-C , 36-S ) :   1.0573
B( 33-C , 34-C ) :   1.5420 B( 33-C , 71-H ) :   1.0011 B( 34-C , 35-C ) :   1.2249
B( 34-C , 72-H ) :   0.9965 B( 35-C , 36-S ) :   1.0666 B( 35-C , 37-C ) :   1.4367
B( 37-C , 38-C ) :   1.2180 B( 37-C , 41-S ) :   1.0532 B( 38-C , 39-C ) :   1.5543
B( 38-C , 73-H ) :   0.9951 B( 39-C , 40-C ) :   1.1732 B( 39-C , 74-H ) :   1.0000
B( 40-C , 41-S ) :   1.0607 B( 40-C , 42-C ) :   1.5347 B( 42-C , 43-C ) :   1.2059
B( 42-C , 75-H ) :   0.9429 B( 43-C , 44-S ) :   1.1061 B( 43-C , 45-C ) :   0.1035
B( 43-C , 47-C ) :   1.3815 B( 44-S , 45-C ) :   1.1281 B( 45-C , 46-C ) :   1.3544
B( 45-C , 54-C ) :   1.2147 B( 46-C , 47-C ) :   1.2575 B( 46-C , 53-C ) :   1.0997
B( 47-C , 48-O ) :   1.0989 B( 48-O , 49-C ) :   1.1222 B( 49-C , 50-N ) :   0.9211
B( 49-C , 53-C ) :   1.5533 B( 50-N , 51-O ) :   1.5023 B( 50-N , 52-O ) :   1.5102
B( 51-O , 52-O ) :   0.2715 B( 53-C , 76-H ) :   1.0162 B( 54-C , 55-S ) :   1.1452
B( 54-C , 61-C ) :   1.4484 B( 55-S , 56-C ) :   1.0788 B( 56-C , 57-C ) :   0.9437
B( 56-C , 60-C ) :   1.5332 B( 57-C , 58-O ) :   2.2000 B( 57-C , 59-O ) :   1.2315
B( 59-O , 77-H ) :   0.9519 B( 60-C , 61-C ) :   1.2766 B( 60-C , 78-H ) :   1.0009
B( 61-C , 79-H ) :   0.9956

-----------------------------------------------------------------------------
         ABSORPTION SPECTRUM VIA TRANSITION ELECTRIC DIPOLE MOMENTS
-----------------------------------------------------------------------------
State   Energy  Wavelength   fosc         T2         TX        TY        TZ
        (cm-1)    (nm)                  (au**2)     (au)      (au)      (au)
-----------------------------------------------------------------------------
   0    7739.0   1292.1   0.984108045  41.86307  -3.84788  -4.13828  -3.15143
   1   11395.1    877.6   0.320095220   9.24776   2.52815   0.42476   1.63579
   2   15326.2    652.5   0.088091180   1.89222   0.89488  -0.95423   0.42528
   3   17130.6    583.7   0.141621675   2.72165   0.90152  -1.28842   0.49889
   4   19947.6    501.3   0.064139006   1.05854   0.19023  -0.99813  -0.16152
   5   20553.0    486.5   0.027658354   0.44302  -0.54686   0.24892  -0.28638
   6   22266.1    449.1   0.560386699   8.28549   1.45816  -2.45419   0.36902
   7   23499.7    425.5   0.046608716   0.65295   0.68330   0.10107   0.41932
   8   24299.8    411.5   0.249909421   3.38576  -0.73450   1.68198   0.13119
   9   24945.3    400.9   0.013440112   0.17737  -0.21226  -0.02261  -0.36305
  10   25012.8    399.8   0.381083345   5.01571   1.74790  -1.14029   0.81260
  11   25864.0    386.6   0.153664147   1.95593  -0.00750  -1.32524  -0.44679
  12   26094.2    383.2   0.032896421   0.41503  -0.34076   0.53530  -0.11121
  13   27008.3    370.3   0.285544222   3.48059   0.82170   1.32118   1.02950
  14   28100.3    355.9   0.000383567   0.00449   0.03547   0.05443  -0.01653
  15   28484.9    351.1   0.047777062   0.55218   0.46287  -0.51864   0.26256
  16   28638.7    349.2   0.054854963   0.63058  -0.68497  -0.11020  -0.38632
  17   28806.7    347.1   0.010556463   0.12064  -0.30758   0.12979  -0.09587
  18   30092.2    332.3   0.008845282   0.09677  -0.18544  -0.18284  -0.17015
  19   30829.9    324.4   0.154584365   1.65071   1.06051  -0.24272   0.68346
  20   31054.8    322.0   0.070045959   0.74256  -0.72363   0.19889  -0.42351
  21   31701.7    315.4   0.130917627   1.35954  -0.75100   0.38938  -0.80245
  22   31875.4    313.7   0.060580649   0.62568   0.58875  -0.18021   0.49656
  23   32458.7    308.1   0.023426841   0.23761   0.45039  -0.11386   0.14762
  24   32635.2    306.4   0.266044077   2.68376   1.44455  -0.01963   0.77244
  25   33082.6    302.3   0.000094950   0.00094   0.02269   0.00564   0.01995
  26   33236.8    300.9   0.030881303   0.30588   0.36841   0.05651   0.40861
  27   33328.1    300.0   0.011347733   0.11209   0.30182   0.13687   0.04758
  28   33695.8    296.8   0.026331286   0.25726  -0.45271   0.21972  -0.06353
  29   34175.1    292.6   0.009475350   0.09128  -0.11542   0.26473   0.08872
  30   34620.6    288.8   0.036058498   0.34288  -0.28187  -0.44282  -0.25950
  31   34688.3    288.3   0.136227338   1.29288   0.77096   0.44625   0.70666
  32   34751.9    287.8   0.003256516   0.03085   0.14926   0.04201   0.08250
  33   35190.8    284.2   0.109833612   1.02750  -0.64354   0.64083  -0.45021
  34   35768.9    279.6   0.019443389   0.17895   0.22856  -0.31905   0.15787
  35   35905.6    278.5   0.005797631   0.05316   0.09780  -0.18642   0.09402
  36   36417.2    274.6   0.008064780   0.07291  -0.15957  -0.14719  -0.16056
  37   36635.7    273.0   0.040174735   0.36101  -0.07029   0.58535  -0.11591
  38   36826.5    271.5   0.137956463   1.23327   0.73817  -0.70694   0.43429
  39   37045.9    269.9   0.000275101   0.00244   0.04482  -0.01556  -0.01392
  40   37209.3    268.7   0.228589210   2.02246   1.01903   0.74355   0.65664
  41   37420.8    267.2   0.035861313   0.31549   0.34314   0.32191   0.30680
  42   38046.2    262.8   0.136774807   1.18351   0.90331   0.30211   0.52561
  43   38108.5    262.4   0.004100084   0.03542  -0.09326   0.10957   0.12131
  44   38570.6    259.3   0.070910162   0.60524   0.23731  -0.73892  -0.05411
  45   38638.7    258.8   0.094962232   0.80910   0.18307   0.84175   0.25892
  46   38869.6    257.3   0.077368862   0.65529   0.63210  -0.41214   0.29306
  47   39158.7    255.4   0.105021847   0.88293   0.21734  -0.91147  -0.07014
  48   39677.1    252.0   0.012616842   0.10469  -0.25061   0.12842  -0.15934
  49   39855.0    250.9   0.029561348   0.24418   0.26388  -0.39295   0.14192
  50   39924.0    250.5   0.037742419   0.31122   0.08106   0.54567   0.08306
  51   40239.8    248.5   0.071080752   0.58153  -0.40402   0.60569  -0.22679

FINAL SINGLE POINT ENERGY     -7412.687099118580

DIPOLE MOMENT
-------------
                                X             Y             Z
Electronic contribution:    119.87089      41.73932      94.84179
Nuclear contribution   :   -122.99678     -42.05274     -96.64033
                        -----------------------------------------
Total Dipole Moment    :     -3.12589      -0.31342      -1.79854
                        -----------------------------------------
Magnitude (a.u.)       :      3.61996
Magnitude (Debye)      :      9.20122

Rotational constants in cm-1:     0.001707     0.000277     0.000239
Rotational constants in MHz :    51.183436     8.296565     7.177738

                             ****ORCA TERMINATED NORMALLY****
TOTAL RUN TIME: 0 days 0 hours 8 minutes 38 seconds 385 msec
