                         Program Version 4.2.0 -  RELEASE  -
|  1> # ORCA input file
|  2> # SCF done       -170.509960654705          0.000559747165
|  3> ! CAM-B3LYP def2-SVP def2/J RIJCOSX Grid4 TightSCF
|  4> %maxcore 5000
|  5> %tddft
|  6>     Mode sTDDFT
|  7>     Ethresh 5.0
|  8>     maxcore 5000
|  9> end
| 10>
| 11> %pal
| 12>   nprocs 6
| 13>   end
| 14> * xyz 0 1
| 15>    C       -7.99391        -1.94241        -4.61545
| 16>    C       -7.42517        -2.84912        -3.75720
| 17>    C       -7.37116        -4.23820        -3.99481
| 18>    N       -7.29270        -5.37553        -4.13177
| 19>    C       -6.81254        -2.53621        -2.52630
| 20>    N       -6.30103        -2.36626        -1.51183
| 21>    C       -8.65591        -2.26559        -5.87276
| 22>    C       -9.11195        -1.06677        -6.47384
| 23>    C       -9.78328        -1.04651        -7.67175
| 24>    C      -10.03036        -2.26990        -8.30334
| 25>    C       -9.57081        -3.46308        -7.69644
| 26>    C       -8.88274        -3.48292        -6.49017
| 27>    S       -9.97912        -4.86063        -8.64550
| 28>    C      -10.75362        -3.83726        -9.82596
| 29>    C      -10.70865        -2.51700        -9.52813
| 30>   Br      -11.54933        -4.60820       -11.33916
| 31>    C       -8.73335         0.08263        -5.62919
| 32>    O       -8.81253         1.25214        -5.93303
| 33>    C       -8.09844        -0.50772        -4.41863
| 34>    C       -7.61015         0.21191        -3.37519
| 35>    C       -7.92826         1.58227        -3.10749
| 36>    C       -6.99648         2.45967        -2.54915
| 37>    C       -7.25938         3.82468        -2.28038
| 38>    N       -6.18971         4.49396        -1.76203
| 39>    C       -5.16767         3.74245        -1.63452
| 40>    S       -5.35217         2.08423        -2.14020
| 41>    C       -8.52649         4.38533        -2.54839
| 42>    C       -9.47200         3.48469        -3.05244
| 43>    C       -9.21100         2.12207        -3.31594
| 44>    N      -10.29689         1.40825        -3.72106
| 45>    C      -11.33405         2.14051        -3.82096
| 46>    S      -11.13981         3.82277        -3.41355
| 47>    C       -8.88456         5.75623        -2.32995
| 48>    C       -8.10484         6.70265        -1.76849
| 49>    C       -8.56599         8.04458        -1.58377
| 50>    C       -7.90838         9.04073        -0.96902
| 51>    C       -6.55401         8.92599        -0.34822
| 52>    C       -8.52815        10.42046        -0.84279
| 53>    N       -9.44794        10.76612        -1.89304
| 54>    C      -10.74979        10.39963        -1.88869
| 55>    C      -11.55512        10.43858        -2.98354
| 56>    C      -12.91841        10.09583        -2.96087
| 57>    C      -13.74350        10.13272        -4.05399
| 58>    C      -15.11290         9.77922        -4.11332
| 59>    C      -15.68037         9.92924        -5.34167
| 60>    C      -14.79358        10.41725        -6.32917
| 61>    S      -13.20442        10.66561        -5.64689
| 62>    C      -15.06831        10.69897        -7.65277
| 63>    C      -16.29218        10.55127        -8.34096
| 64>    C      -16.24459        10.94198        -9.64371
| 65>    C      -14.97862        11.42644       -10.06292
| 66>    S      -13.84193        11.34753        -8.73027
| 67>    C      -14.67290        11.90312       -11.31008
| 68>    C      -13.43663        12.40772       -11.74838
| 69>    S      -11.97738        12.50473       -10.77526
| 70>    C      -11.03406        13.21041       -12.02999
| 71>    C      -11.78971        13.37658       -13.16632
| 72>    C      -13.13294        12.92230       -12.99774
| 73>    O      -13.85071        13.10332       -14.12776
| 74>    C      -12.98367        13.66646       -15.01204
| 75>    N      -13.46824        13.97721       -16.30125
| 76>    O      -12.67185        14.48236       -17.07302
| 77>    O      -14.62871        13.72829       -16.55275
| 78>    C      -11.72673        13.85922       -14.50156
| 79>    H      -10.11333        -0.11548        -8.10516
| 80>    H       -8.54996        -4.41817        -6.07235
| 81>    H      -11.13546        -1.74784       -10.14558
| 82>    H       -6.92198        -0.24909        -2.67724
| 83>    H       -4.22925         4.08279        -1.24205
| 84>    H      -12.29272         1.77158        -4.12940
| 85>    H       -9.88816         6.01788        -2.64652
| 86>    H       -7.11018         6.43595        -1.44985
| 87>    H       -9.55319         8.24711        -1.98354
| 88>    H       -6.26111         7.89188        -0.20369
| 89>    H       -6.54098         9.43274         0.61590
| 90>    H       -5.81086         9.40830        -0.98455
| 91>    H       -7.73034        11.16959        -0.82659
| 92>    H       -9.06094        10.48391         0.11350
| 93>    H       -9.03648        10.92503        -2.80227
| 94>    H      -11.14623        10.11199        -0.92385
| 95>    H      -11.13579        10.73957        -3.93479
| 96>    H      -13.34925         9.77184        -2.02230
| 97>    H      -15.63543         9.42441        -3.24204
| 98>    H      -16.70891         9.70921        -5.56452
| 99>    H      -17.17158        10.16365        -7.85853
|100>    H      -17.07761        10.90517       -10.32306
|101>    H      -15.46051        11.90952       -12.05190
|102>    H      -10.00726        13.45326       -11.85512
|103>    H      -10.89555        14.28595       -15.02325
|104> *
|105>
|106>                          ****END OF INPUT****

CARTESIAN COORDINATES (ANGSTROEM)
---------------------------------
  C     -7.993910   -1.942410   -4.615450
  C     -7.425170   -2.849120   -3.757200
  C     -7.371160   -4.238200   -3.994810
  N     -7.292700   -5.375530   -4.131770
  C     -6.812540   -2.536210   -2.526300
  N     -6.301030   -2.366260   -1.511830
  C     -8.655910   -2.265590   -5.872760
  C     -9.111950   -1.066770   -6.473840
  C     -9.783280   -1.046510   -7.671750
  C    -10.030360   -2.269900   -8.303340
  C     -9.570810   -3.463080   -7.696440
  C     -8.882740   -3.482920   -6.490170
  S     -9.979120   -4.860630   -8.645500
  C    -10.753620   -3.837260   -9.825960
  C    -10.708650   -2.517000   -9.528130
  Br   -11.549330   -4.608200  -11.339160
  C     -8.733350    0.082630   -5.629190
  O     -8.812530    1.252140   -5.933030
  C     -8.098440   -0.507720   -4.418630
  C     -7.610150    0.211910   -3.375190
  C     -7.928260    1.582270   -3.107490
  C     -6.996480    2.459670   -2.549150
  C     -7.259380    3.824680   -2.280380
  N     -6.189710    4.493960   -1.762030
  C     -5.167670    3.742450   -1.634520
  S     -5.352170    2.084230   -2.140200
  C     -8.526490    4.385330   -2.548390
  C     -9.472000    3.484690   -3.052440
  C     -9.211000    2.122070   -3.315940
  N    -10.296890    1.408250   -3.721060
  C    -11.334050    2.140510   -3.820960
  S    -11.139810    3.822770   -3.413550
  C     -8.884560    5.756230   -2.329950
  C     -8.104840    6.702650   -1.768490
  C     -8.565990    8.044580   -1.583770
  C     -7.908380    9.040730   -0.969020
  C     -6.554010    8.925990   -0.348220
  C     -8.528150   10.420460   -0.842790
  N     -9.447940   10.766120   -1.893040
  C    -10.749790   10.399630   -1.888690
  C    -11.555120   10.438580   -2.983540
  C    -12.918410   10.095830   -2.960870
  C    -13.743500   10.132720   -4.053990
  C    -15.112900    9.779220   -4.113320
  C    -15.680370    9.929240   -5.341670
  C    -14.793580   10.417250   -6.329170
  S    -13.204420   10.665610   -5.646890
  C    -15.068310   10.698970   -7.652770
  C    -16.292180   10.551270   -8.340960
  C    -16.244590   10.941980   -9.643710
  C    -14.978620   11.426440  -10.062920
  S    -13.841930   11.347530   -8.730270
  C    -14.672900   11.903120  -11.310080
  C    -13.436630   12.407720  -11.748380
  S    -11.977380   12.504730  -10.775260
  C    -11.034060   13.210410  -12.029990
  C    -11.789710   13.376580  -13.166320
  C    -13.132940   12.922300  -12.997740
  O    -13.850710   13.103320  -14.127760
  C    -12.983670   13.666460  -15.012040
  N    -13.468240   13.977210  -16.301250
  O    -12.671850   14.482360  -17.073020
  O    -14.628710   13.728290  -16.552750
  C    -11.726730   13.859220  -14.501560
  H    -10.113330   -0.115480   -8.105160
  H     -8.549960   -4.418170   -6.072350
  H    -11.135460   -1.747840  -10.145580
  H     -6.921980   -0.249090   -2.677240
  H     -4.229250    4.082790   -1.242050
  H    -12.292720    1.771580   -4.129400
  H     -9.888160    6.017880   -2.646520
  H     -7.110180    6.435950   -1.449850
  H     -9.553190    8.247110   -1.983540
  H     -6.261110    7.891880   -0.203690
  H     -6.540980    9.432740    0.615900
  H     -5.810860    9.408300   -0.984550
  H     -7.730340   11.169590   -0.826590
  H     -9.060940   10.483910    0.113500
  H     -9.036480   10.925030   -2.802270
  H    -11.146230   10.111990   -0.923850
  H    -11.135790   10.739570   -3.934790
  H    -13.349250    9.771840   -2.022300
  H    -15.635430    9.424410   -3.242040
  H    -16.708910    9.709210   -5.564520
  H    -17.171580   10.163650   -7.858530
  H    -17.077610   10.905170  -10.323060
  H    -15.460510   11.909520  -12.051900
  H    -10.007260   13.453260  -11.855120
  H    -10.895550   14.285950  -15.023250

 Total Charge           Charge          ....    0
 Multiplicity           Mult            ....    1
 Number of Electrons    NEL             ....  512
 Basis Dimension        Dim             .... 1063

ORBITAL ENERGIES
----------------

  NO   OCC          E(Eh)            E(eV)
   0   2.0000    -482.885833    -13139.9915
   1   2.0000     -88.975295     -2421.1409
   2   2.0000     -88.972890     -2421.0754
   3   2.0000     -88.967081     -2420.9174
   4   2.0000     -88.961415     -2420.7632
   5   2.0000     -88.934299     -2420.0253
   6   2.0000     -88.934158     -2420.0215
   7   2.0000     -62.563551     -1702.4408
   8   2.0000     -56.397502     -1534.6541
   9   2.0000     -56.394782     -1534.5800
  10   2.0000     -56.394752     -1534.5792
  11   2.0000     -19.295808      -525.0656
  12   2.0000     -19.233671      -523.3748
  13   2.0000     -19.231157      -523.3064
  14   2.0000     -19.211556      -522.7730
  15   2.0000     -14.644915      -398.5084
  16   2.0000     -14.445816      -393.0906
  17   2.0000     -14.425225      -392.5303
  18   2.0000     -14.418078      -392.3358
  19   2.0000     -14.416651      -392.2970
  20   2.0000     -14.415361      -392.2619
  21   2.0000     -10.374881      -282.3149
  22   2.0000     -10.363809      -282.0136
  23   2.0000     -10.359324      -281.8915
  24   2.0000     -10.347696      -281.5751
  25   2.0000     -10.344373      -281.4847
  26   2.0000     -10.342644      -281.4376
  27   2.0000     -10.341395      -281.4037
  28   2.0000     -10.329826      -281.0889
  29   2.0000     -10.325954      -280.9835
  30   2.0000     -10.325874      -280.9813
  31   2.0000     -10.325439      -280.9695
  32   2.0000     -10.321754      -280.8692
  33   2.0000     -10.321552      -280.8637
  34   2.0000     -10.320081      -280.8237
  35   2.0000     -10.319352      -280.8039
  36   2.0000     -10.318227      -280.7732
  37   2.0000     -10.315849      -280.7085
  38   2.0000     -10.313825      -280.6534
  39   2.0000     -10.309245      -280.5288
  40   2.0000     -10.307842      -280.4906
  41   2.0000     -10.307780      -280.4890
  42   2.0000     -10.305452      -280.4256
  43   2.0000     -10.303809      -280.3809
  44   2.0000     -10.303519      -280.3730
  45   2.0000     -10.302612      -280.3483
  46   2.0000     -10.300598      -280.2935
  47   2.0000     -10.300148      -280.2813
  48   2.0000     -10.298839      -280.2457
  49   2.0000     -10.297346      -280.2050
  50   2.0000     -10.296748      -280.1888
  51   2.0000     -10.295317      -280.1498
  52   2.0000     -10.293255      -280.0937
  53   2.0000     -10.292390      -280.0702
  54   2.0000     -10.291224      -280.0384
  55   2.0000     -10.290519      -280.0192
  56   2.0000     -10.284291      -279.8498
  57   2.0000     -10.282226      -279.7936
  58   2.0000     -10.282095      -279.7900
  59   2.0000     -10.279273      -279.7132
  60   2.0000     -10.278978      -279.7052
  61   2.0000     -10.278765      -279.6994
  62   2.0000     -10.275838      -279.6198
  63   2.0000     -10.274622      -279.5867
  64   2.0000     -10.273684      -279.5611
  65   2.0000     -10.271887      -279.5123
  66   2.0000     -10.269455      -279.4461
  67   2.0000     -10.263162      -279.2748
  68   2.0000      -8.792983      -239.2692
  69   2.0000      -8.071347      -219.6325
  70   2.0000      -8.069174      -219.5734
  71   2.0000      -8.063356      -219.4151
  72   2.0000      -8.055900      -219.2122
  73   2.0000      -8.030422      -218.5189
  74   2.0000      -8.030372      -218.5175
  75   2.0000      -6.629292      -180.3922
  76   2.0000      -6.614715      -179.9955
  77   2.0000      -6.614508      -179.9899
  78   2.0000      -6.041042      -164.3851
  79   2.0000      -6.038431      -164.3141
  80   2.0000      -6.036771      -164.2689
  81   2.0000      -6.034386      -164.2040
  82   2.0000      -6.032679      -164.1576
  83   2.0000      -6.032534      -164.1536
  84   2.0000      -6.031027      -164.1126
  85   2.0000      -6.028609      -164.0468
  86   2.0000      -6.025235      -163.9550
  87   2.0000      -6.025119      -163.9518
  88   2.0000      -6.020832      -163.8352
  89   2.0000      -6.018329      -163.7671
  90   2.0000      -6.000176      -163.2731
  91   2.0000      -6.000109      -163.2713
  92   2.0000      -5.996221      -163.1655
  93   2.0000      -5.996108      -163.1624
  94   2.0000      -5.991283      -163.0311
  95   2.0000      -5.991269      -163.0307
  96   2.0000      -2.745167       -74.6998
  97   2.0000      -2.741091       -74.5889
  98   2.0000      -2.740898       -74.5836
  99   2.0000      -2.729339       -74.2691
 100   2.0000      -2.729316       -74.2685
 101   2.0000      -1.315682       -35.8015
 102   2.0000      -1.215361       -33.0717
 103   2.0000      -1.131715       -30.7955
 104   2.0000      -1.127474       -30.6801
 105   2.0000      -1.081856       -29.4388
 106   2.0000      -1.073678       -29.2163
 107   2.0000      -1.048561       -28.5328
 108   2.0000      -1.022695       -27.8289
 109   2.0000      -1.013664       -27.5832
 110   2.0000      -0.994483       -27.0612
 111   2.0000      -0.989269       -26.9194
 112   2.0000      -0.986045       -26.8316
 113   2.0000      -0.979355       -26.6496
 114   2.0000      -0.963310       -26.2130
 115   2.0000      -0.960390       -26.1335
 116   2.0000      -0.946953       -25.7679
 117   2.0000      -0.937312       -25.5056
 118   2.0000      -0.923506       -25.1299
 119   2.0000      -0.922814       -25.1110
 120   2.0000      -0.908246       -24.7146
 121   2.0000      -0.900250       -24.4971
 122   2.0000      -0.896559       -24.3966
 123   2.0000      -0.888406       -24.1748
 124   2.0000      -0.885644       -24.0996
 125   2.0000      -0.884812       -24.0770
 126   2.0000      -0.875918       -23.8349
 127   2.0000      -0.864369       -23.5207
 128   2.0000      -0.859001       -23.3746
 129   2.0000      -0.842572       -22.9276
 130   2.0000      -0.835376       -22.7317
 131   2.0000      -0.831396       -22.6234
 132   2.0000      -0.829128       -22.5617
 133   2.0000      -0.821549       -22.3555
 134   2.0000      -0.816471       -22.2173
 135   2.0000      -0.806575       -21.9480
 136   2.0000      -0.790697       -21.5160
 137   2.0000      -0.785931       -21.3863
 138   2.0000      -0.771227       -20.9862
 139   2.0000      -0.764804       -20.8114
 140   2.0000      -0.757885       -20.6231
 141   2.0000      -0.752157       -20.4672
 142   2.0000      -0.744785       -20.2666
 143   2.0000      -0.722782       -19.6679
 144   2.0000      -0.713684       -19.4203
 145   2.0000      -0.697293       -18.9743
 146   2.0000      -0.696894       -18.9634
 147   2.0000      -0.694474       -18.8976
 148   2.0000      -0.693490       -18.8708
 149   2.0000      -0.685916       -18.6647
 150   2.0000      -0.676776       -18.4160
 151   2.0000      -0.669245       -18.2111
 152   2.0000      -0.661419       -17.9981
 153   2.0000      -0.660503       -17.9732
 154   2.0000      -0.658098       -17.9078
 155   2.0000      -0.642196       -17.4750
 156   2.0000      -0.638133       -17.3645
 157   2.0000      -0.633083       -17.2271
 158   2.0000      -0.629714       -17.1354
 159   2.0000      -0.626026       -17.0350
 160   2.0000      -0.622473       -16.9384
 161   2.0000      -0.618460       -16.8291
 162   2.0000      -0.616087       -16.7646
 163   2.0000      -0.612797       -16.6750
 164   2.0000      -0.608609       -16.5611
 165   2.0000      -0.598307       -16.2807
 166   2.0000      -0.597034       -16.2461
 167   2.0000      -0.590317       -16.0634
 168   2.0000      -0.587794       -15.9947
 169   2.0000      -0.585564       -15.9340
 170   2.0000      -0.578222       -15.7342
 171   2.0000      -0.574482       -15.6324
 172   2.0000      -0.573983       -15.6189
 173   2.0000      -0.568708       -15.4753
 174   2.0000      -0.560683       -15.2569
 175   2.0000      -0.552681       -15.0392
 176   2.0000      -0.550574       -14.9819
 177   2.0000      -0.547642       -14.9021
 178   2.0000      -0.544941       -14.8286
 179   2.0000      -0.542418       -14.7599
 180   2.0000      -0.538816       -14.6619
 181   2.0000      -0.537455       -14.6249
 182   2.0000      -0.534536       -14.5455
 183   2.0000      -0.532350       -14.4860
 184   2.0000      -0.528391       -14.3782
 185   2.0000      -0.523696       -14.2505
 186   2.0000      -0.521576       -14.1928
 187   2.0000      -0.516030       -14.0419
 188   2.0000      -0.513669       -13.9777
 189   2.0000      -0.508945       -13.8491
 190   2.0000      -0.506608       -13.7855
 191   2.0000      -0.505166       -13.7463
 192   2.0000      -0.503126       -13.6908
 193   2.0000      -0.496618       -13.5137
 194   2.0000      -0.494238       -13.4489
 195   2.0000      -0.492934       -13.4134
 196   2.0000      -0.490580       -13.3494
 197   2.0000      -0.488692       -13.2980
 198   2.0000      -0.487260       -13.2590
 199   2.0000      -0.485909       -13.2223
 200   2.0000      -0.479973       -13.0607
 201   2.0000      -0.478612       -13.0237
 202   2.0000      -0.478145       -13.0110
 203   2.0000      -0.474642       -12.9157
 204   2.0000      -0.469326       -12.7710
 205   2.0000      -0.468420       -12.7464
 206   2.0000      -0.464758       -12.6467
 207   2.0000      -0.463631       -12.6161
 208   2.0000      -0.461159       -12.5488
 209   2.0000      -0.458163       -12.4673
 210   2.0000      -0.455259       -12.3882
 211   2.0000      -0.449536       -12.2325
 212   2.0000      -0.447433       -12.1753
 213   2.0000      -0.446707       -12.1555
 214   2.0000      -0.444463       -12.0945
 215   2.0000      -0.440019       -11.9735
 216   2.0000      -0.439866       -11.9694
 217   2.0000      -0.438798       -11.9403
 218   2.0000      -0.436495       -11.8776
 219   2.0000      -0.431423       -11.7396
 220   2.0000      -0.429011       -11.6740
 221   2.0000      -0.427605       -11.6357
 222   2.0000      -0.426027       -11.5928
 223   2.0000      -0.423901       -11.5349
 224   2.0000      -0.420099       -11.4315
 225   2.0000      -0.417453       -11.3595
 226   2.0000      -0.410649       -11.1743
 227   2.0000      -0.406147       -11.0518
 228   2.0000      -0.405865       -11.0442
 229   2.0000      -0.398223       -10.8362
 230   2.0000      -0.389197       -10.5906
 231   2.0000      -0.387515       -10.5448
 232   2.0000      -0.383221       -10.4280
 233   2.0000      -0.378600       -10.3022
 234   2.0000      -0.376009       -10.2317
 235   2.0000      -0.375140       -10.2081
 236   2.0000      -0.371778       -10.1166
 237   2.0000      -0.369368       -10.0510
 238   2.0000      -0.365197        -9.9375
 239   2.0000      -0.360969        -9.8225
 240   2.0000      -0.357297        -9.7225
 241   2.0000      -0.354553        -9.6479
 242   2.0000      -0.343830        -9.3561
 243   2.0000      -0.335893        -9.1401
 244   2.0000      -0.333044        -9.0626
 245   2.0000      -0.328192        -8.9306
 246   2.0000      -0.318882        -8.6772
 247   2.0000      -0.315112        -8.5746
 248   2.0000      -0.313579        -8.5329
 249   2.0000      -0.310205        -8.4411
 250   2.0000      -0.306830        -8.3493
 251   2.0000      -0.294031        -8.0010
 252   2.0000      -0.293319        -7.9816
 253   2.0000      -0.261764        -7.1230
 254   2.0000      -0.255304        -6.9472
 255   2.0000      -0.194803        -5.3009
 256   0.0000      -0.095220        -2.5911
 257   0.0000      -0.065492        -1.7821
 258   0.0000      -0.061275        -1.6674
 259   0.0000      -0.046732        -1.2716
 260   0.0000      -0.035951        -0.9783

MULLIKEN ATOMIC CHARGES
-----------------------
   0 C :    0.307986
   1 C :   -0.350158
   2 C :   -0.184393
   3 N :    0.146796
   4 C :   -0.183790
   5 N :    0.152069
   6 C :    0.017099
   7 C :   -0.011703
   8 C :   -0.074588
   9 C :    0.117845
  10 C :   -0.087843
  11 C :   -0.024263
  12 S :    0.185843
  13 C :   -0.123830
  14 C :    0.040304
  15 Br:    0.024543
  16 C :    0.154482
  17 O :   -0.143439
  18 C :   -0.047507
  19 C :   -0.103549
  20 C :    0.052142
  21 C :   -0.101802
  22 C :    0.012665
  23 N :   -0.064388
  24 C :    0.017931
  25 S :    0.118836
  26 C :    0.097057
  27 C :   -0.115632
  28 C :    0.049729
  29 N :   -0.065581
  30 C :    0.032218
  31 S :    0.095601
  32 C :   -0.099284
  33 C :    0.039292
  34 C :    0.001685
  35 C :   -0.208179
  36 C :    0.093863
  37 C :    0.200354
  38 N :   -0.147946
  39 C :    0.058130
  40 C :   -0.026011
  41 C :   -0.005341
  42 C :   -0.043477
  43 C :    0.046756
  44 C :    0.008011
  45 C :   -0.037530
  46 S :    0.056749
  47 C :   -0.048768
  48 C :    0.030548
  49 C :    0.025415
  50 C :   -0.020096
  51 S :    0.046856
  52 C :   -0.025795
  53 C :   -0.185319
  54 S :    0.131070
  55 C :   -0.143581
  56 C :    0.132685
  57 C :    0.183710
  58 O :   -0.185672
  59 C :    0.230818
  60 N :    0.274328
  61 O :   -0.256295
  62 O :   -0.234525
  63 C :   -0.074584
  64 H :   -0.012515
  65 H :   -0.006860
  66 H :   -0.003502
  67 H :    0.030497
  68 H :    0.043589
  69 H :    0.043028
  70 H :   -0.020878
  71 H :    0.005854
  72 H :   -0.016280
  73 H :    0.026258
  74 H :    0.019989
  75 H :    0.032758
  76 H :    0.016020
  77 H :    0.035431
  78 H :    0.121968
  79 H :    0.007578
  80 H :   -0.012067
  81 H :   -0.022500
  82 H :   -0.019875
  83 H :   -0.020021
  84 H :   -0.019527
  85 H :   -0.016359
  86 H :   -0.002415
  87 H :    0.023457
  88 H :    0.007824
Sum of atomic charges:   -0.0000000

LOEWDIN ATOMIC CHARGES
----------------------
   0 C :    0.077311
   1 C :   -0.138240
   2 C :   -0.017603
   3 N :   -0.053362
   4 C :   -0.020225
   5 N :   -0.051198
   6 C :   -0.021260
   7 C :   -0.045702
   8 C :    0.020784
   9 C :   -0.031520
  10 C :   -0.143927
  11 C :   -0.009423
  12 S :    0.431785
  13 C :   -0.270798
  14 C :   -0.070646
  15 Br:    0.137607
  16 C :    0.086122
  17 O :   -0.136219
  18 C :   -0.072222
  19 C :    0.065110
  20 C :   -0.058193
  21 C :   -0.149184
  22 C :   -0.034646
  23 N :   -0.082744
  24 C :   -0.101356
  25 S :    0.410098
  26 C :   -0.014264
  27 C :   -0.166348
  28 C :   -0.005629
  29 N :   -0.082395
  30 C :   -0.091971
  31 S :    0.397383
  32 C :   -0.042867
  33 C :    0.010752
  34 C :   -0.056042
  35 C :   -0.032701
  36 C :   -0.047195
  37 C :    0.039830
  38 N :    0.003890
  39 C :    0.048484
  40 C :   -0.124980
  41 C :   -0.030513
  42 C :   -0.178183
  43 C :   -0.024387
  44 C :   -0.053391
  45 C :   -0.163775
  46 S :    0.356116
  47 C :   -0.200790
  48 C :   -0.031590
  49 C :   -0.047478
  50 C :   -0.145556
  51 S :    0.352761
  52 C :   -0.092229
  53 C :   -0.197799
  54 S :    0.465078
  55 C :   -0.205821
  56 C :   -0.084570
  57 C :    0.011608
  58 O :   -0.001042
  59 C :    0.021725
  60 N :    0.272714
  61 O :   -0.216732
  62 O :   -0.196303
  63 C :   -0.011120
  64 H :    0.040392
  65 H :    0.040803
  66 H :    0.038900
  67 H :    0.039161
  68 H :    0.021481
  69 H :    0.021833
  70 H :    0.019579
  71 H :    0.025122
  72 H :    0.027374
  73 H :    0.034827
  74 H :    0.033675
  75 H :    0.040027
  76 H :    0.029804
  77 H :    0.038964
  78 H :    0.081981
  79 H :    0.028510
  80 H :    0.018786
  81 H :    0.030426
  82 H :    0.030871
  83 H :    0.028868
  84 H :    0.029939
  85 H :    0.031494
  86 H :    0.042763
  87 H :    0.024700
  88 H :    0.044699

  Mayer bond orders larger than 0.100000
B(  0-C ,  1-C ) :   1.6340 B(  0-C ,  6-C ) :   1.0072 B(  0-C , 18-C ) :   1.0683
B(  1-C ,  2-C ) :   1.1416 B(  1-C ,  4-C ) :   1.1437 B(  2-C ,  3-N ) :   2.9676
B(  4-C ,  5-N ) :   2.9642 B(  6-C ,  7-C ) :   1.2745 B(  6-C , 11-C ) :   1.4006
B(  7-C ,  8-C ) :   1.4221 B(  7-C , 16-C ) :   0.9399 B(  8-C ,  9-C ) :   1.2457
B(  8-C , 64-H ) :   1.0178 B(  9-C , 10-C ) :   1.3041 B(  9-C , 14-C ) :   1.1617
B( 10-C , 11-C ) :   1.3360 B( 10-C , 12-S ) :   1.0840 B( 11-C , 65-H ) :   0.9798
B( 12-S , 13-C ) :   1.0869 B( 13-C , 14-C ) :   1.6180 B( 13-C , 15-Br) :   1.0198
B( 14-C , 66-H ) :   1.0006 B( 16-C , 17-O ) :   2.2355 B( 16-C , 18-C ) :   0.9235
B( 18-C , 19-C ) :   1.6753 B( 19-C , 20-C ) :   1.0803 B( 19-C , 67-H ) :   0.9288
B( 20-C , 21-C ) :   1.3536 B( 20-C , 28-C ) :   1.3218 B( 21-C , 22-C ) :   1.3018
B( 21-C , 25-S ) :   1.0877 B( 22-C , 23-N ) :   1.3198 B( 22-C , 26-C ) :   1.2864
B( 23-N , 24-C ) :   1.7534 B( 23-N , 25-S ) :   0.1062 B( 24-C , 25-S ) :   1.1146
B( 24-C , 68-H ) :   0.9645 B( 26-C , 27-C ) :   1.3547 B( 26-C , 32-C ) :   1.0863
B( 27-C , 28-C ) :   1.2962 B( 27-C , 31-S ) :   1.0648 B( 28-C , 29-N ) :   1.3209
B( 29-N , 30-C ) :   1.7491 B( 29-N , 31-S ) :   0.1073 B( 30-C , 31-S ) :   1.1200
B( 30-C , 69-H ) :   0.9631 B( 32-C , 33-C ) :   1.6959 B( 32-C , 70-H ) :   0.9746
B( 33-C , 34-C ) :   1.0914 B( 33-C , 71-H ) :   0.9518 B( 34-C , 35-C ) :   1.7660
B( 34-C , 72-H ) :   0.9681 B( 35-C , 36-C ) :   1.0854 B( 35-C , 37-C ) :   0.9940
B( 36-C , 73-H ) :   0.9527 B( 36-C , 74-H ) :   0.9508 B( 36-C , 75-H ) :   0.9436
B( 37-C , 38-N ) :   1.0412 B( 37-C , 76-H ) :   0.9464 B( 37-C , 77-H ) :   0.9207
B( 38-N , 39-C ) :   1.2264 B( 38-N , 78-H ) :   0.9399 B( 39-C , 40-C ) :   1.5854
B( 39-C , 79-H ) :   0.9674 B( 40-C , 41-C ) :   1.1752 B( 40-C , 80-H ) :   0.9614
B( 41-C , 42-C ) :   1.5815 B( 41-C , 81-H ) :   0.9802 B( 42-C , 43-C ) :   1.1493
B( 42-C , 46-S ) :   1.0080 B( 43-C , 44-C ) :   1.5875 B( 43-C , 82-H ) :   0.9970
B( 44-C , 45-C ) :   1.1898 B( 44-C , 83-H ) :   0.9933 B( 45-C , 46-S ) :   1.0572
B( 45-C , 47-C ) :   1.5101 B( 47-C , 48-C ) :   1.1935 B( 47-C , 51-S ) :   1.0213
B( 48-C , 49-C ) :   1.5873 B( 48-C , 84-H ) :   0.9916 B( 49-C , 50-C ) :   1.1444
B( 49-C , 85-H ) :   1.0002 B( 50-C , 51-S ) :   1.0420 B( 50-C , 52-C ) :   1.5600
B( 52-C , 53-C ) :   1.1747 B( 52-C , 86-H ) :   0.9737 B( 53-C , 54-S ) :   1.1112
B( 53-C , 55-C ) :   0.1083 B( 53-C , 57-C ) :   1.4424 B( 54-S , 55-C ) :   1.1741
B( 55-C , 56-C ) :   1.4150 B( 55-C , 87-H ) :   0.9757 B( 56-C , 57-C ) :   1.2301
B( 56-C , 63-C ) :   1.0624 B( 57-C , 58-O ) :   1.1149 B( 58-O , 59-C ) :   1.1282
B( 59-C , 60-N ) :   0.9204 B( 59-C , 63-C ) :   1.5691 B( 60-N , 61-O ) :   1.5283
B( 60-N , 62-O ) :   1.5120 B( 61-O , 62-O ) :   0.2771 B( 63-C , 88-H ) :   1.0247

-----------------------------------------------------------------------------
         ABSORPTION SPECTRUM VIA TRANSITION ELECTRIC DIPOLE MOMENTS
-----------------------------------------------------------------------------
State   Energy  Wavelength   fosc         T2         TX        TY        TZ
        (cm-1)    (nm)                  (au**2)     (au)      (au)      (au)
-----------------------------------------------------------------------------
   0   12871.8    776.9   0.040526424   1.03652  -0.27375   0.73759  -0.64617
   1   14764.6    677.3   0.814517167  18.16158  -0.24574   1.47662  -3.99008
   2   18489.8    540.8   0.522625599   9.30536  -1.22516   1.29094  -2.47746
   3   20115.5    497.1   0.938861455  15.36549   0.00356  -3.33137  -2.06577
   4   20385.1    490.6   0.010119031   0.16342  -0.00790   0.06468  -0.39896
   5   24721.9    404.5   0.001481322   0.01973  -0.07918   0.05105   0.10416
   6   25292.5    395.4   0.040881737   0.53212  -0.72033  -0.11403  -0.01557
   7   26448.9    378.1   0.021715803   0.27030   0.37992   0.16899   0.31209
   8   26553.3    376.6   0.017703051   0.21949   0.37474  -0.03896   0.27845
   9   26832.7    372.7   0.045196517   0.55452  -0.26805   0.66317  -0.20706
  10   27603.5    362.3   0.373377071   4.45306   0.60900   0.81903   1.84699
  11   29382.9    340.3   0.042659325   0.47796  -0.21209   0.41077  -0.51405
  12   29565.6    338.2   0.059105663   0.65814   0.76283  -0.19387  -0.19658
  13   29790.9    335.7   0.145076369   1.60320  -1.20681  -0.32798  -0.19811
  14   30039.8    332.9   0.283699881   3.10913  -1.71575  -0.33630  -0.22852
  15   30253.0    330.5   0.056523535   0.61509  -0.75485  -0.18049  -0.11276
  16   30763.0    325.1   0.213426221   2.28399   1.23505   0.30036  -0.81757
  17   31650.4    316.0   0.147252963   1.53165   0.32474   1.17882   0.19129
  18   32077.6    311.7   0.050780044   0.52115  -0.66837  -0.26417   0.06823
  19   32186.5    310.7   0.083011818   0.84907   0.07543   0.58502  -0.70790
  20   32627.6    306.5   0.067449471   0.68056  -0.51661   0.62307   0.15959
  21   33344.1    299.9   0.261858404   2.58537  -0.74246   0.22692  -1.40806
  22   33355.3    299.8   0.002745580   0.02710   0.13836  -0.06166   0.06444
  23   33596.2    297.7   0.386494226   3.78729  -1.14227   0.33108  -1.54042
  24   33945.3    294.6   0.003033072   0.02942   0.03613  -0.03870   0.16313
  25   34196.2    292.4   0.047626877   0.45851   0.59039   0.09005   0.31913
  26   34745.8    287.8   0.007162065   0.06786  -0.06101  -0.19927   0.15630
  27   35491.3    281.8   0.006427984   0.05962   0.08729   0.01808   0.22733
  28   35821.9    279.2   0.169536861   1.55808   0.48013   0.76132   0.86484
  29   36831.2    271.5   0.368122916   3.29043   0.42171  -0.87025   1.53468
  30   36921.7    270.8   0.153090620   1.36503   0.36439   0.29784   1.06937
  31   37712.8    265.2   0.002364762   0.02064   0.10970   0.08735  -0.03129
  32   37816.9    264.4   0.024271029   0.21129  -0.36275  -0.24672   0.13722
  33   38002.8    263.1   0.002367625   0.02051   0.07569  -0.05310   0.10937
  34   38351.6    260.7   0.001785065   0.01532   0.10846   0.04553   0.03855
  35   38399.1    260.4   0.401953965   3.44613   0.63075   1.70562   0.37303
  36   38861.0    257.3   0.041940615   0.35530   0.16295   0.55124  -0.15773
  37   39016.8    256.3   0.079103490   0.66745   0.66694  -0.41523   0.22412
  38   39337.0    254.2   0.157703110   1.31982   0.35454   0.85697   0.67804
  39   39479.0    253.3   0.000438834   0.00366  -0.01727  -0.04975  -0.02976
  40   39505.7    253.1   0.024382074   0.20318   0.36068   0.04364   0.26680
  41   40055.3    249.7   0.031298845   0.25724   0.07808  -0.50078   0.01926
  42   40115.3    249.3   0.018174053   0.14915  -0.23169  -0.00856  -0.30886

FINAL SINGLE POINT ENERGY     -7394.565578630789

DIPOLE MOMENT
-------------
                                X             Y             Z
Electronic contribution:    -10.44526    -150.87666     -89.39470
Nuclear contribution   :     11.29337     151.78821      92.80711
                        -----------------------------------------
Total Dipole Moment    :      0.84811       0.91155       3.41241
                        -----------------------------------------
Magnitude (a.u.)       :      3.63246
Magnitude (Debye)      :      9.23299

Rotational constants in cm-1:     0.000751     0.000320     0.000245
Rotational constants in MHz :    22.500907     9.592404     7.343476

                             ****ORCA TERMINATED NORMALLY****
TOTAL RUN TIME: 0 days 0 hours 8 minutes 57 seconds 365 msec
