                         Program Version 4.2.0 -  RELEASE  -
|  1> # ORCA input file
|  2> # SCF done       -198.030277375399          0.000647891891
|  3> ! CAM-B3LYP def2-SVP def2/J RIJCOSX Grid4 TightSCF
|  4> %maxcore 5000
|  5> %tddft
|  6>     Mode sTDDFT
|  7>     Ethresh 5.0
|  8>     maxcore 5000
|  9> end
| 10>
| 11> %pal
| 12>   nprocs 6
| 13>   end
| 14> * xyz 0 1
| 15>    C       -7.73193         2.57023         3.17298
| 16>    C       -7.79501         3.70801         3.93563
| 17>    C       -7.46107         3.76360         5.30536
| 18>    N       -7.19358         3.87791         6.41563
| 19>    C       -8.20755         4.97391         3.47231
| 20>    N       -8.54687         6.02551         3.15796
| 21>    C       -7.37400         1.24383         3.66034
| 22>    C       -7.48363         0.31957         2.59205
| 23>    C       -7.22046        -1.02011         2.73844
| 24>    C       -6.83500        -1.47336         4.00472
| 25>    C       -6.72617        -0.54366         5.06670
| 26>    C       -6.98878         0.81232         4.91618
| 27>    S       -6.23373        -1.31508         6.54330
| 28>    C       -6.18513        -2.85478         5.72730
| 29>    C       -6.51792        -2.79634         4.41529
| 30>   Br       -5.69411        -4.39197         6.68171
| 31>    C       -7.90461         1.03151         1.37486
| 32>    O       -8.01237         0.56652         0.25463
| 33>    C       -8.07196         2.44048         1.76718
| 34>    C       -8.33424         3.48343         0.91938
| 35>    N       -8.81933         3.44998        -0.33705
| 36>    C       -9.61144         2.53985        -0.98289
| 37>    S      -10.49983         1.30299        -0.17240
| 38>    C      -11.34498         0.96454        -1.64059
| 39>    N      -12.28841        -0.06983        -1.61690
| 40>    O      -12.88573        -0.32012        -2.64572
| 41>    O      -12.44437        -0.63954        -0.55037
| 42>    C      -10.96128         1.75650        -2.69317
| 43>    C       -9.95548         2.66751        -2.33504
| 44>    C       -9.37925         3.62598        -3.25126
| 45>    C       -8.11017         4.06564        -3.21241
| 46>    C       -7.53160         5.05211        -4.10258
| 47>    C       -6.13828         5.07810        -4.26145
| 48>    C       -5.56277         6.00640        -5.09533
| 49>    C       -6.36271         6.97404        -5.73069
| 50>    C       -7.74204         6.96041        -5.57796
| 51>    C       -8.31630         5.99286        -4.77895
| 52>    C       -5.50020         7.89836        -6.43234
| 53>    C       -4.16737         7.49202        -6.24698
| 54>    C       -4.10655         6.20854        -5.44603
| 55>    C       -3.21553         6.34109        -4.20286
| 56>    C       -3.62859         7.51034        -3.31590
| 57>    C       -3.59622         5.10374        -6.40217
| 58>    C       -3.62694         3.68402        -5.85222
| 59>    C       -3.13751         8.21805        -6.78931
| 60>    C       -3.41320         9.39607        -7.50598
| 61>    C       -4.75056         9.78411        -7.68450
| 62>    C       -5.78991         9.04427        -7.16200
| 63>    C       -2.30339        10.15151        -8.02457
| 64>    C       -2.36394        11.40745        -8.52203
| 65>    C       -1.25515        12.14865        -9.02870
| 66>    C       -1.44489        13.49940        -9.41453
| 67>    C       -0.36578        14.32108        -9.90107
| 68>    N       -0.62092        15.56627       -10.34419
| 69>    C       -1.82415        16.05478       -10.21656
| 70>    C       -2.87693        15.27383        -9.62762
| 71>    N       -2.67270        14.02760        -9.28832
| 72>    C       -4.16306        15.83980        -9.45014
| 73>    N       -5.19200        16.32733        -9.32180
| 74>    C       -2.08140        17.36628       -10.68768
| 75>    N       -2.29888        18.43169       -11.04816
| 76>    C        0.95571        13.85000        -9.95695
| 77>    C        1.14722        12.50233        -9.62407
| 78>    C        0.06229        11.65916        -9.16507
| 79>    N        0.49361        10.42424        -8.89127
| 80>    S        2.06972        10.33749        -9.17117
| 81>    N        2.31081        11.84249        -9.65432
| 82>    C        2.04658        14.71728       -10.34709
| 83>    C        2.12937        16.05310        -9.99151
| 84>    C        1.31354        16.77449        -9.00594
| 85>    O        0.77856        16.20481        -8.07794
| 86>    C        1.22133        18.26114        -9.21897
| 87>    S        3.49034        16.80995       -10.74395
| 88>    C        3.94680        15.34001       -11.50161
| 89>    C        3.10357        14.32072       -11.20454
| 90>    H       -7.31647        -1.69853         1.90546
| 91>    H       -6.88943         1.47931         5.75596
| 92>    H       -6.54004        -3.65043         3.76344
| 93>    H       -8.10753         4.48750         1.25611
| 94>    H       -8.68475         4.29633        -0.88662
| 95>    H      -11.37853         1.66056        -3.67904
| 96>    H      -10.04044         3.95458        -4.04078
| 97>    H       -7.41444         3.61515        -2.51374
| 98>    H       -5.53554         4.36237        -3.72169
| 99>    H       -8.35656         7.70159        -6.06599
|100>    H       -9.38710         5.98633        -4.64285
|101>    H       -2.18061         6.47587        -4.52354
|102>    H       -3.26902         5.41838        -3.62360
|103>    H       -3.54661         8.45124        -3.85509
|104>    H       -2.98838         7.56025        -2.43821
|105>    H       -4.65871         7.39565        -2.98486
|106>    H       -2.57131         5.35660        -6.68243
|107>    H       -4.20435         5.14045        -7.30997
|108>    H       -3.03763         3.59652        -4.94328
|109>    H       -3.20753         3.00428        -6.59077
|110>    H       -4.64620         3.36866        -5.64634
|111>    H       -2.10972         7.91286        -6.65446
|112>    H       -4.97252        10.67402        -8.25201
|113>    H       -6.81245         9.35581        -7.31344
|114>    H       -1.33852         9.66464        -7.98117
|115>    H       -3.29685        11.95227        -8.53610
|116>    H        2.21716        18.69852        -9.25420
|117>    H        0.64765        18.71477        -8.41510
|118>    H        0.73005        18.45878       -10.17025
|119>    H        4.81866        15.31817       -12.12518
|120>    H        3.20692        13.31919       -11.57877
|121> *
|122>
|123>                          ****END OF INPUT****

CARTESIAN COORDINATES (ANGSTROEM)
---------------------------------
  C     -7.731930    2.570230    3.172980
  C     -7.795010    3.708010    3.935630
  C     -7.461070    3.763600    5.305360
  N     -7.193580    3.877910    6.415630
  C     -8.207550    4.973910    3.472310
  N     -8.546870    6.025510    3.157960
  C     -7.374000    1.243830    3.660340
  C     -7.483630    0.319570    2.592050
  C     -7.220460   -1.020110    2.738440
  C     -6.835000   -1.473360    4.004720
  C     -6.726170   -0.543660    5.066700
  C     -6.988780    0.812320    4.916180
  S     -6.233730   -1.315080    6.543300
  C     -6.185130   -2.854780    5.727300
  C     -6.517920   -2.796340    4.415290
  Br    -5.694110   -4.391970    6.681710
  C     -7.904610    1.031510    1.374860
  O     -8.012370    0.566520    0.254630
  C     -8.071960    2.440480    1.767180
  C     -8.334240    3.483430    0.919380
  N     -8.819330    3.449980   -0.337050
  C     -9.611440    2.539850   -0.982890
  S    -10.499830    1.302990   -0.172400
  C    -11.344980    0.964540   -1.640590
  N    -12.288410   -0.069830   -1.616900
  O    -12.885730   -0.320120   -2.645720
  O    -12.444370   -0.639540   -0.550370
  C    -10.961280    1.756500   -2.693170
  C     -9.955480    2.667510   -2.335040
  C     -9.379250    3.625980   -3.251260
  C     -8.110170    4.065640   -3.212410
  C     -7.531600    5.052110   -4.102580
  C     -6.138280    5.078100   -4.261450
  C     -5.562770    6.006400   -5.095330
  C     -6.362710    6.974040   -5.730690
  C     -7.742040    6.960410   -5.577960
  C     -8.316300    5.992860   -4.778950
  C     -5.500200    7.898360   -6.432340
  C     -4.167370    7.492020   -6.246980
  C     -4.106550    6.208540   -5.446030
  C     -3.215530    6.341090   -4.202860
  C     -3.628590    7.510340   -3.315900
  C     -3.596220    5.103740   -6.402170
  C     -3.626940    3.684020   -5.852220
  C     -3.137510    8.218050   -6.789310
  C     -3.413200    9.396070   -7.505980
  C     -4.750560    9.784110   -7.684500
  C     -5.789910    9.044270   -7.162000
  C     -2.303390   10.151510   -8.024570
  C     -2.363940   11.407450   -8.522030
  C     -1.255150   12.148650   -9.028700
  C     -1.444890   13.499400   -9.414530
  C     -0.365780   14.321080   -9.901070
  N     -0.620920   15.566270  -10.344190
  C     -1.824150   16.054780  -10.216560
  C     -2.876930   15.273830   -9.627620
  N     -2.672700   14.027600   -9.288320
  C     -4.163060   15.839800   -9.450140
  N     -5.192000   16.327330   -9.321800
  C     -2.081400   17.366280  -10.687680
  N     -2.298880   18.431690  -11.048160
  C      0.955710   13.850000   -9.956950
  C      1.147220   12.502330   -9.624070
  C      0.062290   11.659160   -9.165070
  N      0.493610   10.424240   -8.891270
  S      2.069720   10.337490   -9.171170
  N      2.310810   11.842490   -9.654320
  C      2.046580   14.717280  -10.347090
  C      2.129370   16.053100   -9.991510
  C      1.313540   16.774490   -9.005940
  O      0.778560   16.204810   -8.077940
  C      1.221330   18.261140   -9.218970
  S      3.490340   16.809950  -10.743950
  C      3.946800   15.340010  -11.501610
  C      3.103570   14.320720  -11.204540
  H     -7.316470   -1.698530    1.905460
  H     -6.889430    1.479310    5.755960
  H     -6.540040   -3.650430    3.763440
  H     -8.107530    4.487500    1.256110
  H     -8.684750    4.296330   -0.886620
  H    -11.378530    1.660560   -3.679040
  H    -10.040440    3.954580   -4.040780
  H     -7.414440    3.615150   -2.513740
  H     -5.535540    4.362370   -3.721690
  H     -8.356560    7.701590   -6.065990
  H     -9.387100    5.986330   -4.642850
  H     -2.180610    6.475870   -4.523540
  H     -3.269020    5.418380   -3.623600
  H     -3.546610    8.451240   -3.855090
  H     -2.988380    7.560250   -2.438210
  H     -4.658710    7.395650   -2.984860
  H     -2.571310    5.356600   -6.682430
  H     -4.204350    5.140450   -7.309970
  H     -3.037630    3.596520   -4.943280
  H     -3.207530    3.004280   -6.590770
  H     -4.646200    3.368660   -5.646340
  H     -2.109720    7.912860   -6.654460
  H     -4.972520   10.674020   -8.252010
  H     -6.812450    9.355810   -7.313440
  H     -1.338520    9.664640   -7.981170
  H     -3.296850   11.952270   -8.536100
  H      2.217160   18.698520   -9.254200
  H      0.647650   18.714770   -8.415100
  H      0.730050   18.458780  -10.170250
  H      4.818660   15.318170  -12.125180
  H      3.206920   13.319190  -11.578770

 Total Charge           Charge          ....    0
 Multiplicity           Mult            ....    1
 Number of Electrons    NEL             ....  568
 Basis Dimension        Dim             .... 1239

ORBITAL ENERGIES
----------------

  NO   OCC          E(Eh)            E(eV)
   0   2.0000    -482.887312    -13140.0318
   1   2.0000     -89.048535     -2423.1338
   2   2.0000     -88.987487     -2421.4726
   3   2.0000     -88.977798     -2421.2090
   4   2.0000     -88.968477     -2420.9553
   5   2.0000     -62.565023     -1702.4808
   6   2.0000     -56.398979     -1534.6942
   7   2.0000     -56.396252     -1534.6200
   8   2.0000     -56.396225     -1534.6193
   9   2.0000     -19.237057      -523.4669
  10   2.0000     -19.236837      -523.4610
  11   2.0000     -19.221623      -523.0470
  12   2.0000     -19.203240      -522.5467
  13   2.0000     -14.648802      -398.6142
  14   2.0000     -14.510195      -394.8425
  15   2.0000     -14.459526      -393.4637
  16   2.0000     -14.458366      -393.4321
  17   2.0000     -14.456642      -393.3852
  18   2.0000     -14.454741      -393.3335
  19   2.0000     -14.430230      -392.6665
  20   2.0000     -14.426195      -392.5567
  21   2.0000     -14.422722      -392.4622
  22   2.0000     -14.417648      -392.3241
  23   2.0000     -10.378610      -282.4163
  24   2.0000     -10.376744      -282.3656
  25   2.0000     -10.372146      -282.2404
  26   2.0000     -10.371854      -282.2325
  27   2.0000     -10.370193      -282.1873
  28   2.0000     -10.364078      -282.0209
  29   2.0000     -10.361108      -281.9401
  30   2.0000     -10.348808      -281.6054
  31   2.0000     -10.345401      -281.5127
  32   2.0000     -10.343132      -281.4509
  33   2.0000     -10.342959      -281.4462
  34   2.0000     -10.342805      -281.4420
  35   2.0000     -10.342760      -281.4408
  36   2.0000     -10.342715      -281.4396
  37   2.0000     -10.327750      -281.0324
  38   2.0000     -10.325735      -280.9775
  39   2.0000     -10.323641      -280.9206
  40   2.0000     -10.320905      -280.8461
  41   2.0000     -10.319832      -280.8169
  42   2.0000     -10.316588      -280.7286
  43   2.0000     -10.311617      -280.5934
  44   2.0000     -10.311089      -280.5790
  45   2.0000     -10.310149      -280.5534
  46   2.0000     -10.308968      -280.5213
  47   2.0000     -10.307133      -280.4713
  48   2.0000     -10.305099      -280.4160
  49   2.0000     -10.303882      -280.3829
  50   2.0000     -10.303816      -280.3811
  51   2.0000     -10.303772      -280.3799
  52   2.0000     -10.302503      -280.3454
  53   2.0000     -10.300193      -280.2825
  54   2.0000     -10.298694      -280.2417
  55   2.0000     -10.297065      -280.1974
  56   2.0000     -10.296972      -280.1949
  57   2.0000     -10.295805      -280.1631
  58   2.0000     -10.291083      -280.0346
  59   2.0000     -10.287776      -279.9446
  60   2.0000     -10.284898      -279.8663
  61   2.0000     -10.283973      -279.8411
  62   2.0000     -10.282614      -279.8041
  63   2.0000     -10.282285      -279.7952
  64   2.0000     -10.281993      -279.7873
  65   2.0000     -10.281888      -279.7844
  66   2.0000     -10.281792      -279.7818
  67   2.0000     -10.280480      -279.7461
  68   2.0000     -10.279952      -279.7317
  69   2.0000     -10.279517      -279.7199
  70   2.0000     -10.279312      -279.7143
  71   2.0000     -10.278381      -279.6890
  72   2.0000     -10.277617      -279.6682
  73   2.0000     -10.276144      -279.6281
  74   2.0000     -10.272048      -279.5166
  75   2.0000     -10.271538      -279.5027
  76   2.0000     -10.266553      -279.3671
  77   2.0000     -10.259416      -279.1729
  78   2.0000     -10.254313      -279.0340
  79   2.0000      -8.794448      -239.3091
  80   2.0000      -8.139891      -221.4977
  81   2.0000      -8.082297      -219.9305
  82   2.0000      -8.073824      -219.6999
  83   2.0000      -8.064232      -219.4389
  84   2.0000      -6.630779      -180.4327
  85   2.0000      -6.616182      -180.0355
  86   2.0000      -6.615950      -180.0291
  87   2.0000      -6.110917      -166.2865
  88   2.0000      -6.103029      -166.0719
  89   2.0000      -6.102894      -166.0682
  90   2.0000      -6.051792      -164.6776
  91   2.0000      -6.047287      -164.5550
  92   2.0000      -6.044151      -164.4697
  93   2.0000      -6.043482      -164.4515
  94   2.0000      -6.039240      -164.3361
  95   2.0000      -6.035062      -164.2224
  96   2.0000      -6.033377      -164.1765
  97   2.0000      -6.029052      -164.0588
  98   2.0000      -6.026818      -163.9980
  99   2.0000      -2.746635       -74.7397
 100   2.0000      -2.742554       -74.6287
 101   2.0000      -2.742394       -74.6243
 102   2.0000      -2.730794       -74.3087
 103   2.0000      -2.730771       -74.3081
 104   2.0000      -1.318698       -35.8836
 105   2.0000      -1.144120       -31.1331
 106   2.0000      -1.139106       -30.9966
 107   2.0000      -1.137649       -30.9570
 108   2.0000      -1.124437       -30.5975
 109   2.0000      -1.115041       -30.3418
 110   2.0000      -1.106333       -30.1049
 111   2.0000      -1.044596       -28.4249
 112   2.0000      -1.026952       -27.9448
 113   2.0000      -1.017573       -27.6896
 114   2.0000      -1.012875       -27.5617
 115   2.0000      -1.009495       -27.4698
 116   2.0000      -1.003107       -27.2959
 117   2.0000      -0.999392       -27.1948
 118   2.0000      -0.999335       -27.1933
 119   2.0000      -0.997101       -27.1325
 120   2.0000      -0.992853       -27.0169
 121   2.0000      -0.991755       -26.9870
 122   2.0000      -0.973153       -26.4808
 123   2.0000      -0.957915       -26.0662
 124   2.0000      -0.945852       -25.7380
 125   2.0000      -0.934787       -25.4369
 126   2.0000      -0.920095       -25.0371
 127   2.0000      -0.912123       -24.8201
 128   2.0000      -0.908567       -24.7234
 129   2.0000      -0.905149       -24.6303
 130   2.0000      -0.900315       -24.4988
 131   2.0000      -0.890556       -24.2333
 132   2.0000      -0.888848       -24.1868
 133   2.0000      -0.882552       -24.0155
 134   2.0000      -0.867369       -23.6023
 135   2.0000      -0.860146       -23.4058
 136   2.0000      -0.854836       -23.2613
 137   2.0000      -0.849795       -23.1241
 138   2.0000      -0.845057       -22.9952
 139   2.0000      -0.842900       -22.9365
 140   2.0000      -0.841473       -22.8976
 141   2.0000      -0.832484       -22.6530
 142   2.0000      -0.831306       -22.6210
 143   2.0000      -0.826126       -22.4800
 144   2.0000      -0.809549       -22.0289
 145   2.0000      -0.806111       -21.9354
 146   2.0000      -0.798599       -21.7310
 147   2.0000      -0.784870       -21.3574
 148   2.0000      -0.773223       -21.0405
 149   2.0000      -0.767043       -20.8723
 150   2.0000      -0.758057       -20.6278
 151   2.0000      -0.748003       -20.3542
 152   2.0000      -0.736150       -20.0317
 153   2.0000      -0.725594       -19.7444
 154   2.0000      -0.722944       -19.6723
 155   2.0000      -0.713805       -19.4236
 156   2.0000      -0.706292       -19.2192
 157   2.0000      -0.705242       -19.1906
 158   2.0000      -0.700964       -19.0742
 159   2.0000      -0.698958       -19.0196
 160   2.0000      -0.693966       -18.8838
 161   2.0000      -0.692172       -18.8350
 162   2.0000      -0.683318       -18.5940
 163   2.0000      -0.678633       -18.4665
 164   2.0000      -0.674661       -18.3585
 165   2.0000      -0.668998       -18.2044
 166   2.0000      -0.661935       -18.0122
 167   2.0000      -0.659624       -17.9493
 168   2.0000      -0.652232       -17.7481
 169   2.0000      -0.645861       -17.5748
 170   2.0000      -0.641330       -17.4515
 171   2.0000      -0.633741       -17.2450
 172   2.0000      -0.632135       -17.2013
 173   2.0000      -0.630265       -17.1504
 174   2.0000      -0.625082       -17.0093
 175   2.0000      -0.624773       -17.0009
 176   2.0000      -0.616581       -16.7780
 177   2.0000      -0.609747       -16.5921
 178   2.0000      -0.603103       -16.4113
 179   2.0000      -0.600945       -16.3525
 180   2.0000      -0.598342       -16.2817
 181   2.0000      -0.596885       -16.2421
 182   2.0000      -0.587307       -15.9814
 183   2.0000      -0.582286       -15.8448
 184   2.0000      -0.579555       -15.7705
 185   2.0000      -0.578501       -15.7418
 186   2.0000      -0.571317       -15.5463
 187   2.0000      -0.565254       -15.3813
 188   2.0000      -0.560263       -15.2455
 189   2.0000      -0.558928       -15.2092
 190   2.0000      -0.557848       -15.1798
 191   2.0000      -0.551996       -15.0206
 192   2.0000      -0.551669       -15.0117
 193   2.0000      -0.546352       -14.8670
 194   2.0000      -0.541452       -14.7336
 195   2.0000      -0.540884       -14.7182
 196   2.0000      -0.537815       -14.6347
 197   2.0000      -0.534900       -14.5554
 198   2.0000      -0.530735       -14.4420
 199   2.0000      -0.529509       -14.4087
 200   2.0000      -0.528268       -14.3749
 201   2.0000      -0.526766       -14.3340
 202   2.0000      -0.525241       -14.2925
 203   2.0000      -0.524678       -14.2772
 204   2.0000      -0.522639       -14.2217
 205   2.0000      -0.521026       -14.1778
 206   2.0000      -0.516671       -14.0593
 207   2.0000      -0.515175       -14.0186
 208   2.0000      -0.510792       -13.8994
 209   2.0000      -0.508171       -13.8280
 210   2.0000      -0.505665       -13.7598
 211   2.0000      -0.504349       -13.7240
 212   2.0000      -0.501186       -13.6380
 213   2.0000      -0.499490       -13.5918
 214   2.0000      -0.497533       -13.5386
 215   2.0000      -0.490265       -13.3408
 216   2.0000      -0.486648       -13.2424
 217   2.0000      -0.484905       -13.1949
 218   2.0000      -0.483261       -13.1502
 219   2.0000      -0.479899       -13.0587
 220   2.0000      -0.479103       -13.0371
 221   2.0000      -0.475313       -12.9339
 222   2.0000      -0.473575       -12.8866
 223   2.0000      -0.469598       -12.7784
 224   2.0000      -0.467910       -12.7325
 225   2.0000      -0.465102       -12.6561
 226   2.0000      -0.462276       -12.5792
 227   2.0000      -0.461787       -12.5659
 228   2.0000      -0.460418       -12.5286
 229   2.0000      -0.458870       -12.4865
 230   2.0000      -0.455808       -12.4032
 231   2.0000      -0.454743       -12.3742
 232   2.0000      -0.454586       -12.3699
 233   2.0000      -0.452960       -12.3257
 234   2.0000      -0.451622       -12.2893
 235   2.0000      -0.447807       -12.1854
 236   2.0000      -0.447675       -12.1819
 237   2.0000      -0.446656       -12.1541
 238   2.0000      -0.442556       -12.0426
 239   2.0000      -0.442248       -12.0342
 240   2.0000      -0.441523       -12.0145
 241   2.0000      -0.437517       -11.9054
 242   2.0000      -0.436022       -11.8648
 243   2.0000      -0.433193       -11.7878
 244   2.0000      -0.432146       -11.7593
 245   2.0000      -0.431555       -11.7432
 246   2.0000      -0.430499       -11.7145
 247   2.0000      -0.429136       -11.6774
 248   2.0000      -0.426749       -11.6124
 249   2.0000      -0.422137       -11.4869
 250   2.0000      -0.417778       -11.3683
 251   2.0000      -0.416382       -11.3303
 252   2.0000      -0.414463       -11.2781
 253   2.0000      -0.413060       -11.2399
 254   2.0000      -0.411519       -11.1980
 255   2.0000      -0.409277       -11.1370
 256   2.0000      -0.401534       -10.9263
 257   2.0000      -0.400306       -10.8929
 258   2.0000      -0.393892       -10.7183
 259   2.0000      -0.390680       -10.6310
 260   2.0000      -0.388704       -10.5772
 261   2.0000      -0.385290       -10.4843
 262   2.0000      -0.383203       -10.4275
 263   2.0000      -0.381741       -10.3877
 264   2.0000      -0.376883       -10.2555
 265   2.0000      -0.376670       -10.2497
 266   2.0000      -0.373773       -10.1709
 267   2.0000      -0.365634        -9.9494
 268   2.0000      -0.359253        -9.7758
 269   2.0000      -0.357654        -9.7323
 270   2.0000      -0.352083        -9.5807
 271   2.0000      -0.346520        -9.4293
 272   2.0000      -0.340455        -9.2643
 273   2.0000      -0.330890        -9.0040
 274   2.0000      -0.329361        -8.9624
 275   2.0000      -0.328244        -8.9320
 276   2.0000      -0.325514        -8.8577
 277   2.0000      -0.322978        -8.7887
 278   2.0000      -0.316260        -8.6059
 279   2.0000      -0.313599        -8.5335
 280   2.0000      -0.298433        -8.1208
 281   2.0000      -0.295131        -8.0309
 282   2.0000      -0.274237        -7.4624
 283   2.0000      -0.250763        -6.8236
 284   0.0000      -0.118277        -3.2185
 285   0.0000      -0.089703        -2.4409
 286   0.0000      -0.062295        -1.6951
 287   0.0000      -0.050971        -1.3870
 288   0.0000      -0.045930        -1.2498

MULLIKEN ATOMIC CHARGES
-----------------------
   0 C :    0.309517
   1 C :   -0.347858
   2 C :   -0.185783
   3 N :    0.151908
   4 C :   -0.208337
   5 N :    0.152349
   6 C :    0.010662
   7 C :   -0.003188
   8 C :   -0.070938
   9 C :    0.117310
  10 C :   -0.091732
  11 C :   -0.021070
  12 S :    0.188193
  13 C :   -0.123145
  14 C :    0.038762
  15 Br:    0.026140
  16 C :    0.133277
  17 O :   -0.163252
  18 C :   -0.135750
  19 C :    0.010588
  20 N :    0.012020
  21 C :   -0.072696
  22 S :    0.219355
  23 C :   -0.016034
  24 N :    0.279629
  25 O :   -0.249005
  26 O :   -0.264131
  27 C :    0.013569
  28 C :    0.095961
  29 C :   -0.017881
  30 C :   -0.048086
  31 C :    0.109462
  32 C :   -0.107546
  33 C :    0.019679
  34 C :    0.107928
  35 C :   -0.045979
  36 C :   -0.014400
  37 C :    0.102209
  38 C :    0.023522
  39 C :   -0.129379
  40 C :    0.048832
  41 C :    0.026978
  42 C :    0.082174
  43 C :    0.029269
  44 C :   -0.107517
  45 C :    0.122696
  46 C :   -0.004272
  47 C :   -0.042426
  48 C :    0.017810
  49 C :   -0.067829
  50 C :    0.105885
  51 C :   -0.050559
  52 C :   -0.050496
  53 N :    0.041477
  54 C :   -0.122509
  55 C :   -0.133026
  56 N :    0.054056
  57 C :   -0.211595
  58 N :    0.231382
  59 C :   -0.215676
  60 N :    0.238546
  61 C :    0.110959
  62 C :   -0.000056
  63 C :    0.005331
  64 N :   -0.290353
  65 S :    0.545489
  66 N :   -0.271740
  67 C :    0.006990
  68 C :   -0.156117
  69 C :    0.035831
  70 O :   -0.200474
  71 C :    0.017263
  72 S :    0.130432
  73 C :   -0.063704
  74 C :    0.058893
  75 H :   -0.008047
  76 H :   -0.005666
  77 H :   -0.001409
  78 H :    0.045713
  79 H :    0.159267
  80 H :    0.007124
  81 H :    0.005899
  82 H :   -0.000300
  83 H :   -0.036370
  84 H :   -0.029754
  85 H :   -0.024607
  86 H :   -0.000757
  87 H :    0.005632
  88 H :    0.023532
  89 H :    0.011881
  90 H :    0.015696
  91 H :   -0.003809
  92 H :    0.005720
  93 H :    0.003797
  94 H :    0.015054
  95 H :    0.020346
  96 H :   -0.037004
  97 H :   -0.018928
  98 H :   -0.032110
  99 H :   -0.000750
 100 H :   -0.005145
 101 H :    0.040580
 102 H :    0.036214
 103 H :    0.055780
 104 H :    0.034003
 105 H :   -0.009376
Sum of atomic charges:   -0.0000000

LOEWDIN ATOMIC CHARGES
----------------------
   0 C :    0.082428
   1 C :   -0.149187
   2 C :   -0.019343
   3 N :   -0.052997
   4 C :   -0.024265
   5 N :   -0.056463
   6 C :   -0.023746
   7 C :   -0.049247
   8 C :    0.022501
   9 C :   -0.031536
  10 C :   -0.145305
  11 C :   -0.007416
  12 S :    0.434715
  13 C :   -0.270935
  14 C :   -0.069875
  15 Br:    0.138875
  16 C :    0.063148
  17 O :   -0.167413
  18 C :   -0.149529
  19 C :    0.095930
  20 N :    0.082391
  21 C :   -0.108951
  22 S :    0.527095
  23 C :   -0.207621
  24 N :    0.274383
  25 O :   -0.213925
  26 O :   -0.229933
  27 C :   -0.008813
  28 C :   -0.088706
  29 C :   -0.023927
  30 C :   -0.027489
  31 C :   -0.031942
  32 C :   -0.020964
  33 C :    0.005910
  34 C :   -0.012655
  35 C :   -0.014141
  36 C :   -0.015590
  37 C :   -0.012343
  38 C :    0.004099
  39 C :   -0.034696
  40 C :   -0.015816
  41 C :   -0.056080
  42 C :   -0.008524
  43 C :   -0.059115
  44 C :   -0.013013
  45 C :   -0.027380
  46 C :   -0.004295
  47 C :   -0.015552
  48 C :    0.020351
  49 C :   -0.030560
  50 C :   -0.004063
  51 C :   -0.007441
  52 C :    0.005021
  53 N :    0.011086
  54 C :   -0.025758
  55 C :   -0.031244
  56 N :    0.007079
  57 C :   -0.036601
  58 N :   -0.010213
  59 C :   -0.034332
  60 N :   -0.010354
  61 C :   -0.014223
  62 C :   -0.036648
  63 C :   -0.038518
  64 N :   -0.279799
  65 S :    0.679124
  66 N :   -0.282953
  67 C :   -0.030626
  68 C :   -0.205879
  69 C :    0.065523
  70 O :   -0.161665
  71 C :   -0.080629
  72 S :    0.464366
  73 C :   -0.174168
  74 C :   -0.040863
  75 H :    0.041944
  76 H :    0.041374
  77 H :    0.039528
  78 H :    0.045897
  79 H :    0.105532
  80 H :    0.045442
  81 H :    0.033835
  82 H :    0.027879
  83 H :    0.024375
  84 H :    0.029238
  85 H :    0.026226
  86 H :    0.020927
  87 H :    0.019274
  88 H :    0.026288
  89 H :    0.024935
  90 H :    0.024010
  91 H :    0.020204
  92 H :    0.027090
  93 H :    0.019961
  94 H :    0.028838
  95 H :    0.024140
  96 H :    0.025342
  97 H :    0.030209
  98 H :    0.028614
  99 H :    0.027201
 100 H :    0.029404
 101 H :    0.036125
 102 H :    0.040165
 103 H :    0.048271
 104 H :    0.027158
 105 H :    0.031812

  Mayer bond orders larger than 0.100000
B(  0-C ,  1-C ) :   1.6270 B(  0-C ,  6-C ) :   1.0127 B(  0-C , 18-C ) :   1.1051
B(  1-C ,  2-C ) :   1.1449 B(  1-C ,  4-C ) :   1.1413 B(  2-C ,  3-N ) :   2.9700
B(  4-C ,  5-N ) :   2.9787 B(  6-C ,  7-C ) :   1.2749 B(  6-C , 11-C ) :   1.4114
B(  7-C ,  8-C ) :   1.4251 B(  7-C , 16-C ) :   0.9453 B(  8-C ,  9-C ) :   1.2416
B(  8-C , 75-H ) :   1.0187 B(  9-C , 10-C ) :   1.3071 B(  9-C , 14-C ) :   1.1659
B( 10-C , 11-C ) :   1.3284 B( 10-C , 12-S ) :   1.0867 B( 11-C , 76-H ) :   0.9805
B( 12-S , 13-C ) :   1.0889 B( 13-C , 14-C ) :   1.6134 B( 13-C , 15-Br) :   1.0199
B( 14-C , 77-H ) :   1.0008 B( 16-C , 17-O ) :   2.1910 B( 16-C , 18-C ) :   0.9592
B( 18-C , 19-C ) :   1.5107 B( 19-C , 20-N ) :   1.3181 B( 19-C , 78-H ) :   0.9303
B( 20-N , 21-C ) :   1.1392 B( 20-N , 79-H ) :   0.8871 B( 21-C , 22-S ) :   1.1576
B( 21-C , 28-C ) :   1.4086 B( 22-S , 23-C ) :   1.1310 B( 23-C , 24-N ) :   0.9678
B( 23-C , 27-C ) :   1.4619 B( 24-N , 25-O ) :   1.5379 B( 24-N , 26-O ) :   1.5143
B( 25-O , 26-O ) :   0.2598 B( 27-C , 28-C ) :   1.2491 B( 27-C , 80-H ) :   1.0067
B( 28-C , 29-C ) :   1.0580 B( 29-C , 30-C ) :   1.7149 B( 29-C , 81-H ) :   0.9658
B( 30-C , 31-C ) :   1.0564 B( 30-C , 82-H ) :   0.9793 B( 31-C , 32-C ) :   1.2890
B( 31-C , 36-C ) :   1.3575 B( 32-C , 33-C ) :   1.3903 B( 32-C , 83-H ) :   1.0055
B( 33-C , 34-C ) :   1.3808 B( 33-C , 39-C ) :   0.9182 B( 34-C , 35-C ) :   1.3325
B( 34-C , 37-C ) :   1.0024 B( 35-C , 36-C ) :   1.3905 B( 35-C , 84-H ) :   0.9907
B( 36-C , 85-H ) :   0.9852 B( 37-C , 38-C ) :   1.3777 B( 37-C , 47-C ) :   1.3246
B( 38-C , 39-C ) :   0.9240 B( 38-C , 44-C ) :   1.3727 B( 39-C , 40-C ) :   1.0327
B( 39-C , 42-C ) :   1.0126 B( 40-C , 41-C ) :   1.1041 B( 40-C , 86-H ) :   0.9390
B( 40-C , 87-H ) :   0.9382 B( 41-C , 88-H ) :   0.9631 B( 41-C , 89-H ) :   0.9647
B( 41-C , 90-H ) :   0.9652 B( 42-C , 43-C ) :   1.1140 B( 42-C , 91-H ) :   0.9367
B( 42-C , 92-H ) :   0.9385 B( 43-C , 93-H ) :   0.9632 B( 43-C , 94-H ) :   0.9595
B( 43-C , 95-H ) :   0.9610 B( 44-C , 45-C ) :   1.2798 B( 44-C , 96-H ) :   1.0143
B( 45-C , 46-C ) :   1.3375 B( 45-C , 48-C ) :   1.0622 B( 46-C , 47-C ) :   1.4028
B( 46-C , 97-H ) :   0.9861 B( 47-C , 98-H ) :   0.9914 B( 48-C , 49-C ) :   1.5897
B( 48-C , 99-H ) :   0.9696 B( 49-C , 50-C ) :   1.2039 B( 49-C ,100-H ) :   0.9543
B( 50-C , 51-C ) :   1.2333 B( 50-C , 61-C ) :   0.1394 B( 50-C , 63-C ) :   1.1771
B( 51-C , 52-C ) :   1.0949 B( 51-C , 56-N ) :   1.4298 B( 52-C , 53-N ) :   1.4150
B( 52-C , 61-C ) :   1.3396 B( 53-N , 54-C ) :   1.7267 B( 54-C , 55-C ) :   1.1836
B( 54-C , 59-C ) :   1.1667 B( 55-C , 56-N ) :   1.7559 B( 55-C , 57-C ) :   1.1497
B( 57-C , 58-N ) :   3.0471 B( 59-C , 60-N ) :   3.0288 B( 61-C , 62-C ) :   1.2687
B( 61-C , 67-C ) :   1.0132 B( 62-C , 63-C ) :   1.1040 B( 62-C , 66-N ) :   1.5036
B( 63-C , 64-N ) :   1.4856 B( 64-N , 65-S ) :   1.2864 B( 64-N , 66-N ) :   0.1569
B( 65-S , 66-N ) :   1.2937 B( 67-C , 68-C ) :   1.5208 B( 67-C , 74-C ) :   1.2838
B( 68-C , 69-C ) :   0.9429 B( 68-C , 72-S ) :   1.1376 B( 69-C , 70-O ) :   2.1612
B( 69-C , 71-C ) :   1.0462 B( 71-C ,101-H ) :   0.9437 B( 71-C ,102-H ) :   0.9500
B( 71-C ,103-H ) :   0.9484 B( 72-S , 73-C ) :   1.1748 B( 73-C , 74-C ) :   1.5514
B( 73-C ,104-H ) :   0.9691 B( 74-C ,105-H ) :   0.9948

-----------------------------------------------------------------------------
         ABSORPTION SPECTRUM VIA TRANSITION ELECTRIC DIPOLE MOMENTS
-----------------------------------------------------------------------------
State   Energy  Wavelength   fosc         T2         TX        TY        TZ
        (cm-1)    (nm)                  (au**2)     (au)      (au)      (au)
-----------------------------------------------------------------------------
   0   13107.7    762.9   0.532392253  13.37152  -2.25183  -2.49561   1.43970
   1   21713.2    460.5   0.257638807   3.90628  -0.19765  -0.97136   1.70987
   2   22558.5    443.3   0.452040873   6.59696  -0.72272   0.23819  -2.45314
   3   23629.8    423.2   0.015951281   0.22223  -0.14797  -0.44059  -0.07886
   4   25212.0    396.6   0.007279992   0.09506   0.24709   0.16419   0.08394
   5   26661.0    375.1   0.141566294   1.74807  -0.74625  -0.91224   0.59916
   6   26937.4    371.2   0.255479464   3.12231   1.00216   1.35275  -0.53670
   7   27244.7    367.0   0.195403259   2.36116   1.15361   0.97139   0.29453
   8   27432.6    364.5   0.061999496   0.74404   0.55291   0.20569  -0.62930
   9   27694.6    361.1   0.025976081   0.30878   0.53939  -0.00479   0.13350
  10   27789.0    359.9   0.121289680   1.43690   0.91298   0.35916   0.68875
  11   28937.3    345.6   0.476500727   5.42101   0.81664  -1.96256   0.94998
  12   29740.0    336.2   1.059662033  11.73009  -1.65092  -2.75123   1.19803
  13   29810.1    335.5   0.094265362   1.04103   0.00715   0.93634  -0.40529
  14   30295.2    330.1   0.212781315   2.31225   1.08570   0.52643  -0.92541
  15   30860.0    324.0   0.086285493   0.92049   0.81239   0.43259  -0.27086
  16   31282.1    319.7   0.018615790   0.19591   0.14012   0.05168   0.41666
  17   31647.7    316.0   0.129470344   1.34680  -0.09350   1.05524  -0.47384
  18   32093.5    311.6   0.030599447   0.31389   0.16267  -0.49926  -0.19535
  19   32428.8    308.4   0.195588223   1.98558  -0.82479   0.95148  -0.63244
  20   32571.6    307.0   0.006141812   0.06208  -0.20905  -0.13139   0.03335
  21   32754.3    305.3   0.038607921   0.38805  -0.56312   0.15536  -0.21636
  22   33270.8    300.6   0.021563278   0.21337  -0.44435  -0.04990  -0.11590
  23   33533.8    298.2   0.509436998   5.00131   1.43719  -1.66952   0.38536
  24   33953.7    294.5   0.412957586   4.00400   1.55998  -1.11251  -0.57686
  25   34294.7    291.6   0.382413342   3.67097   0.24070   1.84195   0.46931
  26   34503.6    289.8   0.023813285   0.22721  -0.24864  -0.38513   0.13063
  27   35114.6    284.8   0.006148264   0.05764   0.11078  -0.02864   0.21107
  28   35402.8    282.5   0.022966969   0.21357   0.34474  -0.04565  -0.30437
  29   35837.2    279.0   0.035268285   0.32399   0.11491   0.55481   0.05449
  30   37241.6    268.5   0.021730409   0.19209  -0.21197   0.19747  -0.32889
  31   37419.8    267.2   0.075809045   0.66695  -0.47842   0.62259  -0.22462
  32   37969.8    263.4   0.121378722   1.05240   0.83776  -0.58834   0.06642
  33   38036.8    262.9   0.069856577   0.60462  -0.65909  -0.35408  -0.21175
  34   38091.5    262.5   0.055861377   0.48279  -0.60309   0.18632  -0.29045
  35   38405.9    260.4   0.027552668   0.23618  -0.32860  -0.29685   0.20019
  36   38559.0    259.3   0.038439584   0.32819  -0.09816   0.56400   0.02156
  37   39047.3    256.1   0.003609982   0.03044  -0.07745  -0.13083   0.08555
  38   39131.7    255.5   0.055032951   0.46299   0.23099  -0.63500   0.08002
  39   39417.3    253.7   0.042512341   0.35506  -0.27576   0.44780  -0.28016
  40   39572.5    252.7   0.011944989   0.09937  -0.30833   0.00496  -0.06544
  41   39826.6    251.1   0.048342625   0.39961   0.09571  -0.54594   0.30396
  42   40079.4    249.5   0.109941494   0.90306   0.02576  -0.08563  -0.94608
  43   40163.5    249.0   0.011911417   0.09764   0.24119   0.19713   0.02459

FINAL SINGLE POINT ENERGY     -7163.319872168951

DIPOLE MOMENT
-------------
                                X             Y             Z
Electronic contribution:    -18.44787    -121.87825     136.35004
Nuclear contribution   :     22.12350     119.76509    -138.19208
                        -----------------------------------------
Total Dipole Moment    :      3.67563      -2.11316      -1.84204
                        -----------------------------------------
Magnitude (a.u.)       :      4.62264
Magnitude (Debye)      :     11.74981

Rotational constants in cm-1:     0.001359     0.000165     0.000157
Rotational constants in MHz :    40.742605     4.934738     4.712535

                             ****ORCA TERMINATED NORMALLY****
TOTAL RUN TIME: 0 days 0 hours 10 minutes 40 seconds 782 msec
