                         Program Version 4.2.0 -  RELEASE  -
|  1> # ORCA input file
|  2> # SCF done       -168.902295724776          0.000855843136
|  3> ! CAM-B3LYP def2-SVP def2/J RIJCOSX Grid4 TightSCF
|  4> %maxcore 5000
|  5> %tddft
|  6>     Mode sTDDFT
|  7>     Ethresh 5.0
|  8>     maxcore 5000
|  9> end
| 10>
| 11> %pal
| 12>   nprocs 6
| 13>   end
| 14> * xyz 0 1
| 15>    C      -14.50659         6.62658         2.91958
| 16>    C      -14.86536         5.97210         4.07014
| 17>    C      -15.94593         6.34815         4.89273
| 18>    N      -16.81265         6.60894         5.59898
| 19>    C      -14.19495         4.83962         4.57467
| 20>    N      -13.67852         3.91677         5.02179
| 21>    C      -15.17188         7.80360         2.36328
| 22>    C      -14.50617         8.18942         1.17132
| 23>    C      -14.89818         9.26852         0.41744
| 24>    C      -16.00238        10.00513         0.85925
| 25>    C      -16.66184         9.61271         2.04791
| 26>    C      -16.26446         8.52029         2.81083
| 27>    S      -18.00039        10.65896         2.41101
| 28>    C      -17.66045        11.59627         0.98143
| 29>    C      -16.59970        11.15114         0.26674
| 30>   Br      -18.73710        13.07493         0.56551
| 31>    C      -13.39230         7.26259         0.92960
| 32>    O      -12.60232         7.27290        -0.00723
| 33>    C      -13.41435         6.30006         2.03499
| 34>    C      -12.49683         5.27879         2.11124
| 35>    N      -11.54264         5.16185         1.18421
| 36>    C      -10.60120         4.18686         1.09497
| 37>    S      -10.57097         2.83766         2.18779
| 38>    C       -9.21923         2.19499         1.31494
| 39>    N       -8.66642         0.98705         1.76126
| 40>    O       -7.71602         0.53972         1.14780
| 41>    O       -9.18530         0.47292         2.73645
| 42>    C       -8.82492         2.97072         0.25678
| 43>    C       -9.60722         4.13198         0.11264
| 44>    C       -9.41512         5.15977        -0.88175
| 45>    C       -8.72546         4.95949        -2.01224
| 46>    N       -8.48837         5.91185        -2.97923
| 47>    C       -7.92834         5.55441        -4.24347
| 48>    O       -7.62963         4.41832        -4.52737
| 49>    C       -7.83136         6.77707        -4.99925
| 50>    C       -8.28024         7.82669        -4.24013
| 51>    C       -8.70516         7.27800        -2.91399
| 52>    O       -9.13859         7.89004        -1.96887
| 53>    C       -8.38860         9.20187        -4.47733
| 54>    C       -8.10895         9.86866        -5.64992
| 55>    C       -8.20955        11.26543        -5.85589
| 56>    C       -7.89949        11.67234        -7.12111
| 57>    C       -7.54590        10.61722        -7.98453
| 58>    S       -7.59902         9.09023        -7.12752
| 59>    C       -7.21421        10.67352        -9.32804
| 60>    C       -7.10914        11.80955       -10.15959
| 61>    C       -6.78308        11.51609       -11.44944
| 62>    C       -6.61754        10.13403       -11.71814
| 63>    S       -6.87994         9.22436       -10.23661
| 64>    C       -6.31615         9.59683       -12.94432
| 65>    C       -6.16486         8.24459       -13.31037
| 66>    C       -5.88081         7.81241       -14.61378
| 67>    C       -5.81874         6.40093       -14.62548
| 68>    C       -5.58383         5.49617       -15.64168
| 69>    C       -5.59977         4.13430       -15.31587
| 70>    C       -5.41018         2.99691       -16.09496
| 71>    C       -5.53341         1.84008       -15.26941
| 72>    C       -5.79854         2.26288       -13.97595
| 73>    C       -5.85099         3.68932       -13.95609
| 74>    C       -6.08323         4.58125       -12.94277
| 75>    C       -6.07178         5.95449       -13.26712
| 76>    C       -6.27707         7.07454       -12.48432
| 77>    C       -5.41084         0.46201       -15.68146
| 78>    C       -5.17124         0.04512       -16.92170
| 79>    H      -14.36922         9.53637        -0.48372
| 80>    H      -16.80074         8.26306         3.70891
| 81>    H      -16.25204        11.61074        -0.64037
| 82>    H      -12.51082         4.54362         2.90598
| 83>    H      -11.57344         5.89175         0.44853
| 84>    H       -7.99060         2.70746        -0.36666
| 85>    H       -9.84172         6.13247        -0.68898
| 86>    H       -8.31451         3.99606        -2.28719
| 87>    H       -7.44274         6.79608        -5.99822
| 88>    H       -8.73963         9.79354        -3.64151
| 89>    H       -8.50884        11.92475        -5.06073
| 90>    H       -7.92555        12.69549        -7.45084
| 91>    H       -7.27456        12.80441        -9.78745
| 92>    H       -6.66103        12.25200       -12.22486
| 93>    H       -6.18765        10.31346       -13.74737
| 94>    H       -5.73815         8.45103       -15.46622
| 95>    H       -5.39602         5.82081       -16.65540
| 96>    H       -5.20398         2.99058       -17.14949
| 97>    H       -5.94422         1.62835       -13.12090
| 98>    H       -6.27175         4.25985       -11.92848
| 99>    H       -6.48742         7.06866       -11.43166
|100>    H       -5.53169        -0.26283       -14.88626
|101>    H       -5.04448         0.72818       -17.74405
|102>    H       -5.09171        -1.00162       -17.15754
|103> *
|104>
|105>                          ****END OF INPUT****

CARTESIAN COORDINATES (ANGSTROEM)
---------------------------------
  C    -14.506590    6.626580    2.919580
  C    -14.865360    5.972100    4.070140
  C    -15.945930    6.348150    4.892730
  N    -16.812650    6.608940    5.598980
  C    -14.194950    4.839620    4.574670
  N    -13.678520    3.916770    5.021790
  C    -15.171880    7.803600    2.363280
  C    -14.506170    8.189420    1.171320
  C    -14.898180    9.268520    0.417440
  C    -16.002380   10.005130    0.859250
  C    -16.661840    9.612710    2.047910
  C    -16.264460    8.520290    2.810830
  S    -18.000390   10.658960    2.411010
  C    -17.660450   11.596270    0.981430
  C    -16.599700   11.151140    0.266740
  Br   -18.737100   13.074930    0.565510
  C    -13.392300    7.262590    0.929600
  O    -12.602320    7.272900   -0.007230
  C    -13.414350    6.300060    2.034990
  C    -12.496830    5.278790    2.111240
  N    -11.542640    5.161850    1.184210
  C    -10.601200    4.186860    1.094970
  S    -10.570970    2.837660    2.187790
  C     -9.219230    2.194990    1.314940
  N     -8.666420    0.987050    1.761260
  O     -7.716020    0.539720    1.147800
  O     -9.185300    0.472920    2.736450
  C     -8.824920    2.970720    0.256780
  C     -9.607220    4.131980    0.112640
  C     -9.415120    5.159770   -0.881750
  C     -8.725460    4.959490   -2.012240
  N     -8.488370    5.911850   -2.979230
  C     -7.928340    5.554410   -4.243470
  O     -7.629630    4.418320   -4.527370
  C     -7.831360    6.777070   -4.999250
  C     -8.280240    7.826690   -4.240130
  C     -8.705160    7.278000   -2.913990
  O     -9.138590    7.890040   -1.968870
  C     -8.388600    9.201870   -4.477330
  C     -8.108950    9.868660   -5.649920
  C     -8.209550   11.265430   -5.855890
  C     -7.899490   11.672340   -7.121110
  C     -7.545900   10.617220   -7.984530
  S     -7.599020    9.090230   -7.127520
  C     -7.214210   10.673520   -9.328040
  C     -7.109140   11.809550  -10.159590
  C     -6.783080   11.516090  -11.449440
  C     -6.617540   10.134030  -11.718140
  S     -6.879940    9.224360  -10.236610
  C     -6.316150    9.596830  -12.944320
  C     -6.164860    8.244590  -13.310370
  C     -5.880810    7.812410  -14.613780
  C     -5.818740    6.400930  -14.625480
  C     -5.583830    5.496170  -15.641680
  C     -5.599770    4.134300  -15.315870
  C     -5.410180    2.996910  -16.094960
  C     -5.533410    1.840080  -15.269410
  C     -5.798540    2.262880  -13.975950
  C     -5.850990    3.689320  -13.956090
  C     -6.083230    4.581250  -12.942770
  C     -6.071780    5.954490  -13.267120
  C     -6.277070    7.074540  -12.484320
  C     -5.410840    0.462010  -15.681460
  C     -5.171240    0.045120  -16.921700
  H    -14.369220    9.536370   -0.483720
  H    -16.800740    8.263060    3.708910
  H    -16.252040   11.610740   -0.640370
  H    -12.510820    4.543620    2.905980
  H    -11.573440    5.891750    0.448530
  H     -7.990600    2.707460   -0.366660
  H     -9.841720    6.132470   -0.688980
  H     -8.314510    3.996060   -2.287190
  H     -7.442740    6.796080   -5.998220
  H     -8.739630    9.793540   -3.641510
  H     -8.508840   11.924750   -5.060730
  H     -7.925550   12.695490   -7.450840
  H     -7.274560   12.804410   -9.787450
  H     -6.661030   12.252000  -12.224860
  H     -6.187650   10.313460  -13.747370
  H     -5.738150    8.451030  -15.466220
  H     -5.396020    5.820810  -16.655400
  H     -5.203980    2.990580  -17.149490
  H     -5.944220    1.628350  -13.120900
  H     -6.271750    4.259850  -11.928480
  H     -6.487420    7.068660  -11.431660
  H     -5.531690   -0.262830  -14.886260
  H     -5.044480    0.728180  -17.744050
  H     -5.091710   -1.001620  -17.157540

 Total Charge           Charge          ....    0
 Multiplicity           Mult            ....    1
 Number of Electrons    NEL             ....  492
 Basis Dimension        Dim             .... 1050

ORBITAL ENERGIES
----------------

  NO   OCC          E(Eh)            E(eV)
   0   2.0000    -482.884846    -13139.9647
   1   2.0000     -88.978542     -2421.2292
   2   2.0000     -88.974767     -2421.1265
   3   2.0000     -88.962188     -2420.7842
   4   2.0000     -88.958593     -2420.6864
   5   2.0000     -62.562542     -1702.4133
   6   2.0000     -56.396495     -1534.6266
   7   2.0000     -56.393777     -1534.5527
   8   2.0000     -56.393744     -1534.5518
   9   2.0000     -19.229067      -523.2495
  10   2.0000     -19.228481      -523.2336
  11   2.0000     -19.224414      -523.1229
  12   2.0000     -19.213665      -522.8304
  13   2.0000     -19.203601      -522.5565
  14   2.0000     -14.640655      -398.3925
  15   2.0000     -14.487265      -394.2185
  16   2.0000     -14.456695      -393.3867
  17   2.0000     -14.413163      -392.2021
  18   2.0000     -14.409497      -392.1024
  19   2.0000     -10.388851      -282.6950
  20   2.0000     -10.380927      -282.4794
  21   2.0000     -10.371339      -282.2185
  22   2.0000     -10.361943      -281.9628
  23   2.0000     -10.357735      -281.8483
  24   2.0000     -10.357444      -281.8404
  25   2.0000     -10.340497      -281.3792
  26   2.0000     -10.336782      -281.2781
  27   2.0000     -10.335596      -281.2459
  28   2.0000     -10.332876      -281.1718
  29   2.0000     -10.324197      -280.9357
  30   2.0000     -10.322745      -280.8962
  31   2.0000     -10.319129      -280.7978
  32   2.0000     -10.317850      -280.7630
  33   2.0000     -10.315711      -280.7048
  34   2.0000     -10.315473      -280.6983
  35   2.0000     -10.313592      -280.6471
  36   2.0000     -10.313343      -280.6403
  37   2.0000     -10.313031      -280.6318
  38   2.0000     -10.306889      -280.4647
  39   2.0000     -10.306134      -280.4442
  40   2.0000     -10.305220      -280.4193
  41   2.0000     -10.304473      -280.3990
  42   2.0000     -10.303998      -280.3860
  43   2.0000     -10.302058      -280.3333
  44   2.0000     -10.301069      -280.3063
  45   2.0000     -10.299718      -280.2696
  46   2.0000     -10.299695      -280.2689
  47   2.0000     -10.299668      -280.2682
  48   2.0000     -10.297782      -280.2169
  49   2.0000     -10.296563      -280.1837
  50   2.0000     -10.296151      -280.1725
  51   2.0000     -10.295930      -280.1665
  52   2.0000     -10.294729      -280.1338
  53   2.0000     -10.292582      -280.0754
  54   2.0000     -10.290759      -280.0258
  55   2.0000     -10.289578      -279.9937
  56   2.0000     -10.288047      -279.9520
  57   2.0000     -10.287563      -279.9388
  58   2.0000     -10.281847      -279.7833
  59   2.0000     -10.280422      -279.7445
  60   2.0000     -10.279855      -279.7291
  61   2.0000     -10.278911      -279.7034
  62   2.0000     -10.278864      -279.7021
  63   2.0000     -10.278758      -279.6992
  64   2.0000     -10.276563      -279.6395
  65   2.0000     -10.274354      -279.5794
  66   2.0000     -10.271237      -279.4946
  67   2.0000     -10.267821      -279.4016
  68   2.0000      -8.791956      -239.2413
  69   2.0000      -8.073766      -219.6983
  70   2.0000      -8.070708      -219.6151
  71   2.0000      -8.058191      -219.2745
  72   2.0000      -8.054447      -219.1726
  73   2.0000      -6.628268      -180.3643
  74   2.0000      -6.613687      -179.9676
  75   2.0000      -6.613483      -179.9620
  76   2.0000      -6.043374      -164.4486
  77   2.0000      -6.040398      -164.3676
  78   2.0000      -6.039091      -164.3320
  79   2.0000      -6.036105      -164.2508
  80   2.0000      -6.035247      -164.2274
  81   2.0000      -6.031959      -164.1380
  82   2.0000      -6.027901      -164.0275
  83   2.0000      -6.024101      -163.9241
  84   2.0000      -6.023825      -163.9166
  85   2.0000      -6.019939      -163.8109
  86   2.0000      -6.019208      -163.7910
  87   2.0000      -6.015712      -163.6959
  88   2.0000      -2.744118       -74.6712
  89   2.0000      -2.740014       -74.5596
  90   2.0000      -2.739941       -74.5576
  91   2.0000      -2.728319       -74.2413
  92   2.0000      -2.728300       -74.2408
  93   2.0000      -1.310452       -35.6592
  94   2.0000      -1.154364       -31.4118
  95   2.0000      -1.139947       -31.0195
  96   2.0000      -1.129373       -30.7318
  97   2.0000      -1.128486       -30.7077
  98   2.0000      -1.093898       -29.7665
  99   2.0000      -1.047234       -28.4967
 100   2.0000      -1.021222       -27.7889
 101   2.0000      -1.010548       -27.4984
 102   2.0000      -1.009481       -27.4694
 103   2.0000      -1.001737       -27.2586
 104   2.0000      -0.999792       -27.2057
 105   2.0000      -0.990841       -26.9622
 106   2.0000      -0.986783       -26.8517
 107   2.0000      -0.986440       -26.8424
 108   2.0000      -0.975195       -26.5364
 109   2.0000      -0.940066       -25.5805
 110   2.0000      -0.935824       -25.4651
 111   2.0000      -0.916647       -24.9432
 112   2.0000      -0.908115       -24.7111
 113   2.0000      -0.907023       -24.6814
 114   2.0000      -0.895228       -24.3604
 115   2.0000      -0.887033       -24.1374
 116   2.0000      -0.884487       -24.0681
 117   2.0000      -0.878844       -23.9146
 118   2.0000      -0.874193       -23.7880
 119   2.0000      -0.867202       -23.5978
 120   2.0000      -0.857327       -23.3291
 121   2.0000      -0.853812       -23.2334
 122   2.0000      -0.844482       -22.9795
 123   2.0000      -0.834563       -22.7096
 124   2.0000      -0.828266       -22.5383
 125   2.0000      -0.825461       -22.4619
 126   2.0000      -0.813169       -22.1275
 127   2.0000      -0.808786       -22.0082
 128   2.0000      -0.789870       -21.4934
 129   2.0000      -0.783727       -21.3263
 130   2.0000      -0.762974       -20.7616
 131   2.0000      -0.760340       -20.6899
 132   2.0000      -0.757763       -20.6198
 133   2.0000      -0.753709       -20.5095
 134   2.0000      -0.739130       -20.1128
 135   2.0000      -0.725698       -19.7473
 136   2.0000      -0.720090       -19.5946
 137   2.0000      -0.707608       -19.2550
 138   2.0000      -0.695941       -18.9375
 139   2.0000      -0.689535       -18.7632
 140   2.0000      -0.686580       -18.6828
 141   2.0000      -0.685432       -18.6515
 142   2.0000      -0.681995       -18.5580
 143   2.0000      -0.669975       -18.2309
 144   2.0000      -0.658229       -17.9113
 145   2.0000      -0.657054       -17.8794
 146   2.0000      -0.655170       -17.8281
 147   2.0000      -0.641786       -17.4639
 148   2.0000      -0.640070       -17.4172
 149   2.0000      -0.635666       -17.2974
 150   2.0000      -0.630201       -17.1486
 151   2.0000      -0.627681       -17.0801
 152   2.0000      -0.621980       -16.9249
 153   2.0000      -0.621478       -16.9113
 154   2.0000      -0.616437       -16.7741
 155   2.0000      -0.612154       -16.6576
 156   2.0000      -0.607365       -16.5272
 157   2.0000      -0.605639       -16.4803
 158   2.0000      -0.598700       -16.2914
 159   2.0000      -0.593684       -16.1550
 160   2.0000      -0.590576       -16.0704
 161   2.0000      -0.588415       -16.0116
 162   2.0000      -0.575875       -15.6703
 163   2.0000      -0.571003       -15.5378
 164   2.0000      -0.563796       -15.3417
 165   2.0000      -0.562790       -15.3143
 166   2.0000      -0.559224       -15.2173
 167   2.0000      -0.555048       -15.1036
 168   2.0000      -0.551470       -15.0063
 169   2.0000      -0.549529       -14.9534
 170   2.0000      -0.544737       -14.8230
 171   2.0000      -0.543400       -14.7867
 172   2.0000      -0.539788       -14.6884
 173   2.0000      -0.538833       -14.6624
 174   2.0000      -0.532901       -14.5010
 175   2.0000      -0.532465       -14.4891
 176   2.0000      -0.527509       -14.3542
 177   2.0000      -0.523155       -14.2358
 178   2.0000      -0.521169       -14.1817
 179   2.0000      -0.515501       -14.0275
 180   2.0000      -0.514507       -14.0004
 181   2.0000      -0.512921       -13.9573
 182   2.0000      -0.512485       -13.9454
 183   2.0000      -0.506748       -13.7893
 184   2.0000      -0.506277       -13.7765
 185   2.0000      -0.505222       -13.7478
 186   2.0000      -0.503618       -13.7041
 187   2.0000      -0.502575       -13.6758
 188   2.0000      -0.495446       -13.4818
 189   2.0000      -0.493216       -13.4211
 190   2.0000      -0.489505       -13.3201
 191   2.0000      -0.488370       -13.2892
 192   2.0000      -0.484791       -13.1918
 193   2.0000      -0.483045       -13.1443
 194   2.0000      -0.481396       -13.0995
 195   2.0000      -0.476114       -12.9557
 196   2.0000      -0.475145       -12.9293
 197   2.0000      -0.473686       -12.8896
 198   2.0000      -0.467470       -12.7205
 199   2.0000      -0.466605       -12.6970
 200   2.0000      -0.465040       -12.6544
 201   2.0000      -0.461021       -12.5450
 202   2.0000      -0.458559       -12.4780
 203   2.0000      -0.457958       -12.4617
 204   2.0000      -0.452062       -12.3012
 205   2.0000      -0.446647       -12.1539
 206   2.0000      -0.446076       -12.1383
 207   2.0000      -0.442784       -12.0488
 208   2.0000      -0.441189       -12.0054
 209   2.0000      -0.439922       -11.9709
 210   2.0000      -0.437650       -11.9091
 211   2.0000      -0.435990       -11.8639
 212   2.0000      -0.431787       -11.7495
 213   2.0000      -0.426678       -11.6105
 214   2.0000      -0.423705       -11.5296
 215   2.0000      -0.423067       -11.5122
 216   2.0000      -0.419796       -11.4232
 217   2.0000      -0.413066       -11.2401
 218   2.0000      -0.409327       -11.1384
 219   2.0000      -0.409132       -11.1330
 220   2.0000      -0.406525       -11.0621
 221   2.0000      -0.396210       -10.7814
 222   2.0000      -0.386941       -10.5292
 223   2.0000      -0.381091       -10.3700
 224   2.0000      -0.376831       -10.2541
 225   2.0000      -0.374408       -10.1882
 226   2.0000      -0.373770       -10.1708
 227   2.0000      -0.370341       -10.0775
 228   2.0000      -0.368759       -10.0344
 229   2.0000      -0.361076        -9.8254
 230   2.0000      -0.359311        -9.7774
 231   2.0000      -0.357234        -9.7208
 232   2.0000      -0.351997        -9.5783
 233   2.0000      -0.347392        -9.4530
 234   2.0000      -0.339312        -9.2332
 235   2.0000      -0.338322        -9.2062
 236   2.0000      -0.335810        -9.1379
 237   2.0000      -0.333503        -9.0751
 238   2.0000      -0.315982        -8.5983
 239   2.0000      -0.308633        -8.3983
 240   2.0000      -0.298740        -8.1291
 241   2.0000      -0.291385        -7.9290
 242   2.0000      -0.282636        -7.6909
 243   2.0000      -0.267171        -7.2701
 244   2.0000      -0.256032        -6.9670
 245   2.0000      -0.221942        -6.0394
 246   0.0000      -0.112647        -3.0653
 247   0.0000      -0.096116        -2.6155
 248   0.0000      -0.081183        -2.2091
 249   0.0000      -0.061656        -1.6778
 250   0.0000      -0.043790        -1.1916

MULLIKEN ATOMIC CHARGES
-----------------------
   0 C :    0.330253
   1 C :   -0.348566
   2 C :   -0.187104
   3 N :    0.145791
   4 C :   -0.195814
   5 N :    0.145731
   6 C :    0.006868
   7 C :   -0.007314
   8 C :   -0.066594
   9 C :    0.116938
  10 C :   -0.093176
  11 C :   -0.019121
  12 S :    0.188263
  13 C :   -0.125132
  14 C :    0.040106
  15 Br:    0.021250
  16 C :    0.161142
  17 O :   -0.207879
  18 C :   -0.133657
  19 C :    0.026036
  20 N :    0.001534
  21 C :   -0.130077
  22 S :    0.169847
  23 C :    0.004994
  24 N :    0.274902
  25 O :   -0.248704
  26 O :   -0.260377
  27 C :    0.000342
  28 C :    0.135350
  29 C :   -0.067889
  30 C :    0.083060
  31 N :   -0.234275
  32 C :    0.219464
  33 O :   -0.174259
  34 C :   -0.145061
  35 C :    0.003249
  36 C :    0.197989
  37 O :   -0.163570
  38 C :   -0.036898
  39 C :    0.009853
  40 C :    0.023863
  41 C :    0.039407
  42 C :   -0.055299
  43 S :    0.075047
  44 C :   -0.009077
  45 C :    0.015315
  46 C :    0.050807
  47 C :   -0.037378
  48 S :    0.063016
  49 C :    0.009934
  50 C :    0.044509
  51 C :   -0.025520
  52 C :    0.058361
  53 C :    0.013413
  54 C :    0.036582
  55 C :   -0.006386
  56 C :    0.056225
  57 C :   -0.015862
  58 C :    0.056404
  59 C :    0.010713
  60 C :    0.034497
  61 C :   -0.021358
  62 C :    0.012303
  63 C :   -0.023255
  64 H :   -0.009769
  65 H :   -0.006765
  66 H :   -0.004999
  67 H :    0.046368
  68 H :    0.180610
  69 H :    0.013502
  70 H :    0.030163
  71 H :    0.024228
  72 H :    0.004778
  73 H :   -0.000233
  74 H :   -0.007877
  75 H :   -0.009380
  76 H :   -0.010191
  77 H :   -0.004859
  78 H :   -0.014127
  79 H :   -0.022171
  80 H :   -0.019541
  81 H :   -0.017383
  82 H :   -0.017467
  83 H :   -0.015247
  84 H :   -0.003863
  85 H :   -0.013791
  86 H :    0.008746
  87 H :    0.025511
Sum of atomic charges:   -0.0000000

LOEWDIN ATOMIC CHARGES
----------------------
   0 C :    0.079496
   1 C :   -0.152233
   2 C :   -0.019605
   3 N :   -0.058318
   4 C :   -0.021102
   5 N :   -0.054877
   6 C :   -0.017644
   7 C :   -0.049944
   8 C :    0.023394
   9 C :   -0.034745
  10 C :   -0.144440
  11 C :   -0.008513
  12 S :    0.434574
  13 C :   -0.272841
  14 C :   -0.069993
  15 Br:    0.135052
  16 C :    0.092806
  17 O :   -0.167846
  18 C :   -0.150581
  19 C :    0.111306
  20 N :    0.084990
  21 C :   -0.123267
  22 S :    0.466769
  23 C :   -0.201477
  24 N :    0.273210
  25 O :   -0.215112
  26 O :   -0.226381
  27 C :    0.000050
  28 C :   -0.073084
  29 C :   -0.074140
  30 C :    0.047897
  31 N :   -0.027735
  32 C :    0.091760
  33 O :   -0.161406
  34 C :   -0.095171
  35 C :   -0.027294
  36 C :    0.102933
  37 O :   -0.146130
  38 C :   -0.086974
  39 C :   -0.110385
  40 C :   -0.047587
  41 C :   -0.016447
  42 C :   -0.204378
  43 S :    0.402810
  44 C :   -0.145751
  45 C :   -0.050840
  46 C :   -0.006854
  47 C :   -0.169344
  48 S :    0.392153
  49 C :   -0.011145
  50 C :   -0.074456
  51 C :    0.030884
  52 C :   -0.066343
  53 C :    0.086435
  54 C :   -0.066583
  55 C :    0.060686
  56 C :   -0.058502
  57 C :    0.029354
  58 C :   -0.059079
  59 C :    0.078890
  60 C :   -0.061407
  61 C :    0.029413
  62 C :   -0.021822
  63 C :   -0.048351
  64 H :    0.041616
  65 H :    0.041515
  66 H :    0.038298
  67 H :    0.035924
  68 H :    0.089346
  69 H :    0.045937
  70 H :    0.032189
  71 H :    0.031934
  72 H :    0.021305
  73 H :    0.039536
  74 H :    0.035442
  75 H :    0.033921
  76 H :    0.033244
  77 H :    0.036558
  78 H :    0.039223
  79 H :    0.025999
  80 H :    0.037152
  81 H :    0.027702
  82 H :    0.028205
  83 H :    0.038966
  84 H :    0.015224
  85 H :    0.031236
  86 H :    0.018136
  87 H :    0.026665

  Mayer bond orders larger than 0.100000
B(  0-C ,  1-C ) :   1.6192 B(  0-C ,  6-C ) :   1.0003 B(  0-C , 18-C ) :   1.1118
B(  1-C ,  2-C ) :   1.1451 B(  1-C ,  4-C ) :   1.1482 B(  2-C ,  3-N ) :   2.9668
B(  4-C ,  5-N ) :   2.9557 B(  6-C ,  7-C ) :   1.2767 B(  6-C , 11-C ) :   1.4254
B(  7-C ,  8-C ) :   1.4296 B(  7-C , 16-C ) :   0.9755 B(  8-C ,  9-C ) :   1.2389
B(  8-C , 64-H ) :   1.0180 B(  9-C , 10-C ) :   1.3131 B(  9-C , 14-C ) :   1.1610
B( 10-C , 11-C ) :   1.3209 B( 10-C , 12-S ) :   1.0875 B( 11-C , 65-H ) :   0.9795
B( 12-S , 13-C ) :   1.0880 B( 13-C , 14-C ) :   1.6185 B( 13-C , 15-Br) :   1.0170
B( 14-C , 66-H ) :   1.0002 B( 16-C , 17-O ) :   2.0530 B( 16-C , 18-C ) :   1.0017
B( 17-O , 68-H ) :   0.1410 B( 18-C , 19-C ) :   1.4346 B( 19-C , 20-N ) :   1.3605
B( 19-C , 67-H ) :   0.9312 B( 20-N , 21-C ) :   1.1779 B( 20-N , 68-H ) :   0.8228
B( 21-C , 22-S ) :   1.1270 B( 21-C , 28-C ) :   1.4014 B( 22-S , 23-C ) :   1.0882
B( 23-C , 24-N ) :   0.9657 B( 23-C , 27-C ) :   1.4890 B( 24-N , 25-O ) :   1.5360
B( 24-N , 26-O ) :   1.5141 B( 25-O , 26-O ) :   0.2605 B( 27-C , 28-C ) :   1.2291
B( 27-C , 69-H ) :   1.0016 B( 28-C , 29-C ) :   1.0529 B( 29-C , 30-C ) :   1.7551
B( 29-C , 70-H ) :   0.9446 B( 30-C , 31-N ) :   1.0484 B( 30-C , 71-H ) :   0.9687
B( 31-N , 32-C ) :   0.9492 B( 31-N , 36-C ) :   1.0606 B( 32-C , 33-O ) :   2.1422
B( 32-C , 34-C ) :   1.0343 B( 34-C , 35-C ) :   1.5101 B( 34-C , 72-H ) :   1.0108
B( 35-C , 36-C ) :   0.9043 B( 35-C , 38-C ) :   1.2431 B( 36-C , 37-O ) :   2.1451
B( 38-C , 39-C ) :   1.4749 B( 38-C , 73-H ) :   0.9662 B( 39-C , 40-C ) :   1.1751
B( 39-C , 43-S ) :   1.0823 B( 40-C , 41-C ) :   1.5523 B( 40-C , 74-H ) :   1.0003
B( 41-C , 42-C ) :   1.2146 B( 41-C , 75-H ) :   0.9941 B( 42-C , 43-S ) :   1.0289
B( 42-C , 44-C ) :   1.4692 B( 44-C , 45-C ) :   1.1978 B( 44-C , 48-S ) :   1.0767
B( 45-C , 46-C ) :   1.5733 B( 45-C , 76-H ) :   0.9949 B( 46-C , 47-C ) :   1.1529
B( 46-C , 77-H ) :   0.9996 B( 47-C , 48-S ) :   1.0139 B( 47-C , 49-C ) :   1.5572
B( 49-C , 50-C ) :   1.1519 B( 49-C , 78-H ) :   0.9700 B( 50-C , 51-C ) :   1.3925
B( 50-C , 61-C ) :   1.1454 B( 51-C , 52-C ) :   1.1514 B( 51-C , 79-H ) :   1.0186
B( 52-C , 53-C ) :   1.3779 B( 52-C , 60-C ) :   1.1365 B( 53-C , 54-C ) :   1.1813
B( 53-C , 80-H ) :   1.0046 B( 54-C , 55-C ) :   1.3855 B( 54-C , 58-C ) :   1.1249
B( 55-C , 56-C ) :   1.1794 B( 55-C , 81-H ) :   1.0077 B( 56-C , 57-C ) :   1.4737
B( 56-C , 62-C ) :   1.0813 B( 57-C , 58-C ) :   1.1016 B( 57-C , 82-H ) :   1.0171
B( 58-C , 59-C ) :   1.4497 B( 59-C , 60-C ) :   1.1346 B( 59-C , 83-H ) :   1.0050
B( 60-C , 61-C ) :   1.4515 B( 61-C , 84-H ) :   0.9900 B( 62-C , 63-C ) :   1.9376
B( 62-C , 85-H ) :   0.9670 B( 63-C , 86-H ) :   0.9532 B( 63-C , 87-H ) :   0.9497

-----------------------------------------------------------------------------
         ABSORPTION SPECTRUM VIA TRANSITION ELECTRIC DIPOLE MOMENTS
-----------------------------------------------------------------------------
State   Energy  Wavelength   fosc         T2         TX        TY        TZ
        (cm-1)    (nm)                  (au**2)     (au)      (au)      (au)
-----------------------------------------------------------------------------
   0    6725.1   1487.0   0.013642081   0.66782   0.19025  -0.31705  -0.72877
   1   13405.3    746.0   1.209732516  29.70893  -1.39452   0.72537   5.21901
   2   15860.9    630.5   0.055150259   1.14471   0.24877   0.28410  -1.00105
   3   20909.1    478.3   0.385743633   6.07349   2.10441  -0.89213  -0.92143
   4   21207.8    471.5   0.078378124   1.21667   0.48637  -0.90449  -0.40250
   5   22055.1    453.4   0.100493762   1.50005  -0.14964   0.94848   0.76029
   6   22930.5    436.1   0.201616917   2.89460   1.49062  -0.68900  -0.44489
   7   23705.3    421.8   0.179298355   2.49004  -0.41801   1.18528   0.95416
   8   24173.3    413.7   0.195770820   2.66617   0.01935   1.62989   0.09615
   9   24239.9    412.5   0.138860743   1.88592  -0.72873   1.14754  -0.19503
  10   25155.8    397.5   0.675864442   8.84499   0.36085  -2.92157  -0.42335
  11   25895.6    386.2   0.330894371   4.20667  -0.18242   2.02461   0.27267
  12   26395.3    378.9   0.102667487   1.28050   0.50329  -1.00489   0.13192
  13   27847.4    359.1   0.175715852   2.07731  -0.33939   0.75186   1.18187
  14   29517.3    338.8   0.292491781   3.26222  -0.33399   1.46505  -1.00215
  15   30300.1    330.0   0.116202359   1.26254   1.10095  -0.22453  -0.00553
  16   30723.0    325.5   0.316133128   3.38752  -0.55321   1.74165  -0.21935
  17   30856.4    324.1   0.160788715   1.71548  -0.48941   1.11403  -0.48466
  18   31143.4    321.1   0.001110289   0.01174  -0.09036   0.05818  -0.01363
  19   31330.1    319.2   0.257767543   2.70858  -0.61166   1.47493  -0.39878
  20   31404.8    318.4   0.089231898   0.93540  -0.02922   0.94584   0.19985
  21   32083.8    311.7   0.316131921   3.24383   0.09782  -1.79582  -0.09645
  22   32467.8    308.0   0.024425155   0.24766   0.00564  -0.48865   0.09410
  23   32831.1    304.6   0.243586980   2.44255  -0.23587   1.42993   0.58500
  24   33112.6    302.0   0.013026906   0.12952  -0.19927   0.26403   0.14174
  25   33283.8    300.4   0.022633264   0.22387   0.27959  -0.37631  -0.06396
  26   33611.4    297.5   0.008073931   0.07908  -0.11904   0.25020  -0.04804
  27   33678.1    296.9   0.018238988   0.17829  -0.09640   0.20662  -0.35540
  28   33719.4    296.6   0.030003955   0.29294   0.07333  -0.41487  -0.33976
  29   34254.2    291.9   0.105895599   1.01775  -0.43496   0.87033  -0.26660
  30   34262.5    291.9   0.101415807   0.97445  -0.22900   0.69973  -0.65757
  31   34465.8    290.1   0.433291294   4.13873  -0.06845   1.44487  -1.43052
  32   34667.5    288.5   0.001775990   0.01687   0.01137   0.12444   0.03536
  33   34994.9    285.8   0.021599601   0.20320   0.02130   0.26382  -0.36489
  34   35184.5    284.2   0.000100386   0.00094   0.02163  -0.01271   0.01761
  35   35529.4    281.5   0.000894024   0.00828  -0.07112   0.05575  -0.01086
  36   35602.0    280.9   0.043772935   0.40477  -0.05230  -0.63399  -0.00951
  37   35657.4    280.4   0.001179488   0.01089   0.07522  -0.07158   0.01039
  38   35876.9    278.7   0.066443602   0.60970  -0.05289   0.72691   0.28019
  39   36128.9    276.8   0.030154324   0.27477   0.10107  -0.39437  -0.33020
  40   36757.1    272.1   0.112490424   1.00751   0.25490  -0.24369  -0.93976
  41   37483.7    266.8   0.013656568   0.11994   0.13076  -0.28311   0.15065
  42   38044.9    262.8   0.000011063   0.00010  -0.00204   0.00891  -0.00349
  43   38202.1    261.8   0.000842443   0.00726   0.05869  -0.05447  -0.02912
  44   38463.0    260.0   0.181124931   1.55028  -0.18384  -1.13078   0.48767
  45   38755.8    258.0   0.025993454   0.22080   0.12359  -0.31146  -0.32943
  46   38838.3    257.5   0.143080375   1.21282   0.82989  -0.66259  -0.29166
  47   39462.6    253.4   0.003014647   0.02515  -0.00424   0.15718   0.02063
  48   39686.8    252.0   0.000391589   0.00325  -0.01966   0.01663   0.05085
  49   39824.8    251.1   0.071734509   0.59299  -0.16579   0.56928   0.49136
  50   40122.1    249.2   0.000151383   0.00124   0.02491  -0.00784  -0.02367
  51   40288.5    248.2   0.315667552   2.57944  -0.93895  -0.16693   1.29227

FINAL SINGLE POINT ENERGY     -6694.403071501974

DIPOLE MOMENT
-------------
                                X             Y             Z
Electronic contribution:   -124.56292      71.16197     125.23277
Nuclear contribution   :    125.77302     -66.98150    -132.85044
                        -----------------------------------------
Total Dipole Moment    :      1.21010       4.18047      -7.61767
                        -----------------------------------------
Magnitude (a.u.)       :      8.77323
Magnitude (Debye)      :     22.29978

Rotational constants in cm-1:     0.000972     0.000281     0.000234
Rotational constants in MHz :    29.137853     8.435121     7.029013

                             ****ORCA TERMINATED NORMALLY****
TOTAL RUN TIME: 0 days 0 hours 8 minutes 23 seconds 669 msec
