                         Program Version 4.2.0 -  RELEASE  -
|  1> # ORCA input file
|  2> # SCF done       -172.628716383516          0.000884646844
|  3> ! CAM-B3LYP def2-SVP def2/J RIJCOSX Grid4 TightSCF
|  4> %maxcore 5000
|  5> %tddft
|  6>     Mode sTDDFT
|  7>     Ethresh 5.0
|  8>     maxcore 5000
|  9> end
| 10>
| 11> %pal
| 12>   nprocs 6
| 13>   end
| 14> * xyz 0 1
| 15>    C      -10.59902         0.75764        -4.49334
| 16>    C      -10.19794        -0.53098        -4.70511
| 17>    C      -10.68879        -1.35990        -5.73360
| 18>    N      -11.02752        -2.08264        -6.55922
| 19>    C       -9.18925        -1.19143        -3.96879
| 20>    N       -8.37526        -1.79370        -3.42955
| 21>    C      -11.56655         1.49825        -5.28550
| 22>    C      -11.53983         2.86051        -4.89700
| 23>    C      -12.31588         3.81778        -5.50500
| 24>    C      -13.16121         3.41229        -6.54151
| 25>    C      -13.19828         2.04446        -6.90915
| 26>    C      -12.41597         1.07734        -6.29382
| 27>    S      -14.32431         1.76546        -8.20389
| 28>    C      -14.71817         3.46420        -8.23668
| 29>    C      -14.04503         4.20439        -7.32442
| 30>   Br      -15.97517         4.09444        -9.47596
| 31>    C      -10.59728         3.04137        -3.77821
| 32>    O      -10.37608         4.05941        -3.16888
| 33>    C      -10.03953         1.67788        -3.50644
| 34>    C       -9.24168         1.40720        -2.46228
| 35>    C       -8.70012         2.47685        -1.60805
| 36>    N       -9.11001         2.52238        -0.34486
| 37>    C       -8.64255         3.52207         0.38778
| 38>    C       -7.76903         4.46841        -0.11508
| 39>    C       -7.35500         4.30141        -1.44364
| 40>    N       -7.82789         3.28895        -2.17470
| 41>    C       -6.42381         5.20434        -2.07840
| 42>    C       -5.98560         4.99764        -3.33533
| 43>    C       -5.09133         5.83377        -4.05072
| 44>    S       -4.48772         7.36580        -3.41668
| 45>    C       -3.56210         7.67409        -4.84508
| 46>    C       -3.69901         6.67492        -5.74706
| 47>    C       -4.56470         5.62425        -5.30437
| 48>    C       -4.61018         4.61780        -6.32002
| 49>    C       -3.82065         4.98599        -7.37548
| 50>    C       -3.19603         6.32391        -7.09693
| 51>    O       -2.45892         6.96847        -7.80233
| 52>    C       -3.60923         4.19003        -8.53966
| 53>    C       -2.82710         4.51526        -9.58736
| 54>    C       -2.63185         3.59568       -10.68577
| 55>    N       -1.70628         3.91356       -11.59917
| 56>    C       -1.47409         3.03876       -12.55636
| 57>    C       -2.13728         1.82138       -12.63398
| 58>    C       -3.11963         1.58988       -11.66269
| 59>    N       -3.36263         2.48403       -10.70986
| 60>    C       -3.89610         0.36552       -11.63597
| 61>    C       -5.00714         0.22666       -10.88234
| 62>    C       -5.73617        -0.99115       -10.84768
| 63>    C       -6.92181        -1.28308       -10.25318
| 64>    C       -7.85060        -0.53683        -9.42506
| 65>    C       -7.57442         0.44761        -8.51365
| 66>    C       -8.54955         1.04586        -7.69002
| 67>    N       -9.27974         1.58518        -6.98612
| 68>    C       -6.30232         0.94048        -8.15614
| 69>    N       -5.32567         1.38685        -7.75016
| 70>    C       -9.15823        -1.16940        -9.57500
| 71>    C       -8.99403        -2.41688       -10.22893
| 72>    C       -7.58536        -2.57043       -10.62679
| 73>    O       -7.06458        -3.50450       -11.18893
| 74>    C      -10.03991        -3.27872       -10.45351
| 75>    C      -11.31228        -2.88270       -10.03150
| 76>    C      -11.47436        -1.61520        -9.42211
| 77>    C      -10.41559        -0.74874        -9.18406
| 78>    S      -13.13212        -1.32094        -9.00702
| 79>    C      -13.57825        -2.88453        -9.63047
| 80>    C      -12.53994        -3.59126       -10.13593
| 81>   Br      -15.37071        -3.42280        -9.56182
| 82>    H      -12.26888         4.84897        -5.19163
| 83>    H      -12.48367         0.04597        -6.59833
| 84>    H      -14.16451         5.26592        -7.20690
| 85>    H       -8.96689         0.39707        -2.19180
| 86>    H       -8.99316         3.55342         1.41161
| 87>    H       -7.41323         5.29005         0.48486
| 88>    H       -6.09463         6.06066        -1.50574
| 89>    H       -6.33865         4.11889        -3.85896
| 90>    H       -2.98121         8.57314        -4.91100
| 91>    H       -5.16903         3.70042        -6.25951
| 92>    H       -4.11094         3.22923        -8.54811
| 93>    H       -2.28124         5.44439        -9.63621
| 94>    H       -0.72141         3.32075       -13.28237
| 95>    H       -1.92280         1.10164       -13.40700
| 96>    H       -3.54036        -0.44958       -12.25268
| 97>    H       -5.34125         1.07996       -10.31343
| 98>    H       -5.32687        -1.80738       -11.43724
| 99>    H       -9.88009        -4.22936       -10.93744
|100>    H      -10.58949         0.20900        -8.72137
|101>    H      -12.63307        -4.57383       -10.56119
|102> *
|103>
|104>                          ****END OF INPUT****

CARTESIAN COORDINATES (ANGSTROEM)
---------------------------------
  C    -10.599020    0.757640   -4.493340
  C    -10.197940   -0.530980   -4.705110
  C    -10.688790   -1.359900   -5.733600
  N    -11.027520   -2.082640   -6.559220
  C     -9.189250   -1.191430   -3.968790
  N     -8.375260   -1.793700   -3.429550
  C    -11.566550    1.498250   -5.285500
  C    -11.539830    2.860510   -4.897000
  C    -12.315880    3.817780   -5.505000
  C    -13.161210    3.412290   -6.541510
  C    -13.198280    2.044460   -6.909150
  C    -12.415970    1.077340   -6.293820
  S    -14.324310    1.765460   -8.203890
  C    -14.718170    3.464200   -8.236680
  C    -14.045030    4.204390   -7.324420
  Br   -15.975170    4.094440   -9.475960
  C    -10.597280    3.041370   -3.778210
  O    -10.376080    4.059410   -3.168880
  C    -10.039530    1.677880   -3.506440
  C     -9.241680    1.407200   -2.462280
  C     -8.700120    2.476850   -1.608050
  N     -9.110010    2.522380   -0.344860
  C     -8.642550    3.522070    0.387780
  C     -7.769030    4.468410   -0.115080
  C     -7.355000    4.301410   -1.443640
  N     -7.827890    3.288950   -2.174700
  C     -6.423810    5.204340   -2.078400
  C     -5.985600    4.997640   -3.335330
  C     -5.091330    5.833770   -4.050720
  S     -4.487720    7.365800   -3.416680
  C     -3.562100    7.674090   -4.845080
  C     -3.699010    6.674920   -5.747060
  C     -4.564700    5.624250   -5.304370
  C     -4.610180    4.617800   -6.320020
  C     -3.820650    4.985990   -7.375480
  C     -3.196030    6.323910   -7.096930
  O     -2.458920    6.968470   -7.802330
  C     -3.609230    4.190030   -8.539660
  C     -2.827100    4.515260   -9.587360
  C     -2.631850    3.595680  -10.685770
  N     -1.706280    3.913560  -11.599170
  C     -1.474090    3.038760  -12.556360
  C     -2.137280    1.821380  -12.633980
  C     -3.119630    1.589880  -11.662690
  N     -3.362630    2.484030  -10.709860
  C     -3.896100    0.365520  -11.635970
  C     -5.007140    0.226660  -10.882340
  C     -5.736170   -0.991150  -10.847680
  C     -6.921810   -1.283080  -10.253180
  C     -7.850600   -0.536830   -9.425060
  C     -7.574420    0.447610   -8.513650
  C     -8.549550    1.045860   -7.690020
  N     -9.279740    1.585180   -6.986120
  C     -6.302320    0.940480   -8.156140
  N     -5.325670    1.386850   -7.750160
  C     -9.158230   -1.169400   -9.575000
  C     -8.994030   -2.416880  -10.228930
  C     -7.585360   -2.570430  -10.626790
  O     -7.064580   -3.504500  -11.188930
  C    -10.039910   -3.278720  -10.453510
  C    -11.312280   -2.882700  -10.031500
  C    -11.474360   -1.615200   -9.422110
  C    -10.415590   -0.748740   -9.184060
  S    -13.132120   -1.320940   -9.007020
  C    -13.578250   -2.884530   -9.630470
  C    -12.539940   -3.591260  -10.135930
  Br   -15.370710   -3.422800   -9.561820
  H    -12.268880    4.848970   -5.191630
  H    -12.483670    0.045970   -6.598330
  H    -14.164510    5.265920   -7.206900
  H     -8.966890    0.397070   -2.191800
  H     -8.993160    3.553420    1.411610
  H     -7.413230    5.290050    0.484860
  H     -6.094630    6.060660   -1.505740
  H     -6.338650    4.118890   -3.858960
  H     -2.981210    8.573140   -4.911000
  H     -5.169030    3.700420   -6.259510
  H     -4.110940    3.229230   -8.548110
  H     -2.281240    5.444390   -9.636210
  H     -0.721410    3.320750  -13.282370
  H     -1.922800    1.101640  -13.407000
  H     -3.540360   -0.449580  -12.252680
  H     -5.341250    1.079960  -10.313430
  H     -5.326870   -1.807380  -11.437240
  H     -9.880090   -4.229360  -10.937440
  H    -10.589490    0.209000   -8.721370
  H    -12.633070   -4.573830  -10.561190

 Total Charge           Charge          ....    0
 Multiplicity           Mult            ....    1
 Number of Electrons    NEL             ....  524
 Basis Dimension        Dim             .... 1086

ORBITAL ENERGIES
----------------

  NO   OCC          E(Eh)            E(eV)
   0   2.0000    -482.886939    -13140.0216
   1   2.0000    -482.886830    -13140.0187
   2   2.0000     -88.978374     -2421.2247
   3   2.0000     -88.976898     -2421.1845
   4   2.0000     -88.958823     -2420.6926
   5   2.0000     -62.564647     -1702.4706
   6   2.0000     -62.564521     -1702.4672
   7   2.0000     -56.398587     -1534.6836
   8   2.0000     -56.398456     -1534.6800
   9   2.0000     -56.395876     -1534.6098
  10   2.0000     -56.395854     -1534.6092
  11   2.0000     -56.395747     -1534.6063
  12   2.0000     -56.395733     -1534.6059
  13   2.0000     -19.218800      -522.9701
  14   2.0000     -19.215322      -522.8755
  15   2.0000     -19.208982      -522.7030
  16   2.0000     -14.428956      -392.6319
  17   2.0000     -14.425996      -392.5513
  18   2.0000     -14.422011      -392.4429
  19   2.0000     -14.416052      -392.2807
  20   2.0000     -14.406129      -392.0107
  21   2.0000     -14.404966      -391.9791
  22   2.0000     -14.404584      -391.9687
  23   2.0000     -14.403740      -391.9457
  24   2.0000     -10.368814      -282.1498
  25   2.0000     -10.365465      -282.0586
  26   2.0000     -10.360137      -281.9137
  27   2.0000     -10.359404      -281.8937
  28   2.0000     -10.357462      -281.8409
  29   2.0000     -10.352913      -281.7171
  30   2.0000     -10.352331      -281.7013
  31   2.0000     -10.344236      -281.4810
  32   2.0000     -10.344118      -281.4778
  33   2.0000     -10.341630      -281.4100
  34   2.0000     -10.336308      -281.2652
  35   2.0000     -10.333605      -281.1917
  36   2.0000     -10.330446      -281.1057
  37   2.0000     -10.329636      -281.0837
  38   2.0000     -10.327263      -281.0191
  39   2.0000     -10.326704      -281.0039
  40   2.0000     -10.325035      -280.9585
  41   2.0000     -10.324932      -280.9557
  42   2.0000     -10.319339      -280.8035
  43   2.0000     -10.318292      -280.7750
  44   2.0000     -10.318042      -280.7682
  45   2.0000     -10.317417      -280.7512
  46   2.0000     -10.312111      -280.6068
  47   2.0000     -10.311982      -280.6033
  48   2.0000     -10.309752      -280.5426
  49   2.0000     -10.309095      -280.5247
  50   2.0000     -10.308791      -280.5165
  51   2.0000     -10.308153      -280.4991
  52   2.0000     -10.307899      -280.4922
  53   2.0000     -10.307268      -280.4750
  54   2.0000     -10.304983      -280.4128
  55   2.0000     -10.304102      -280.3889
  56   2.0000     -10.304057      -280.3877
  57   2.0000     -10.302498      -280.3452
  58   2.0000     -10.299963      -280.2763
  59   2.0000     -10.299789      -280.2715
  60   2.0000     -10.297534      -280.2102
  61   2.0000     -10.297504      -280.2093
  62   2.0000     -10.295085      -280.1435
  63   2.0000     -10.294472      -280.1268
  64   2.0000     -10.290619      -280.0220
  65   2.0000     -10.290223      -280.0112
  66   2.0000     -10.288313      -279.9592
  67   2.0000     -10.286978      -279.9229
  68   2.0000     -10.283504      -279.8284
  69   2.0000     -10.281849      -279.7833
  70   2.0000     -10.277508      -279.6652
  71   2.0000     -10.276937      -279.6497
  72   2.0000     -10.271920      -279.5132
  73   2.0000     -10.264904      -279.3222
  74   2.0000     -10.254931      -279.0509
  75   2.0000      -8.794098      -239.2996
  76   2.0000      -8.793978      -239.2963
  77   2.0000      -8.073612      -219.6942
  78   2.0000      -8.072592      -219.6664
  79   2.0000      -8.054494      -219.1739
  80   2.0000      -6.630412      -180.4227
  81   2.0000      -6.630302      -180.4197
  82   2.0000      -6.615848      -180.0264
  83   2.0000      -6.615697      -180.0223
  84   2.0000      -6.615612      -180.0200
  85   2.0000      -6.615502      -180.0170
  86   2.0000      -6.043328      -164.4473
  87   2.0000      -6.042333      -164.4202
  88   2.0000      -6.039100      -164.3323
  89   2.0000      -6.037960      -164.3013
  90   2.0000      -6.034924      -164.2186
  91   2.0000      -6.033838      -164.1891
  92   2.0000      -6.023980      -163.9208
  93   2.0000      -6.019589      -163.8013
  94   2.0000      -6.016421      -163.7151
  95   2.0000      -2.746249       -74.7292
  96   2.0000      -2.746155       -74.7267
  97   2.0000      -2.742176       -74.6184
  98   2.0000      -2.742103       -74.6164
  99   2.0000      -2.742077       -74.6157
 100   2.0000      -2.741914       -74.6113
 101   2.0000      -2.730474       -74.3000
 102   2.0000      -2.730444       -74.2992
 103   2.0000      -2.730332       -74.2961
 104   2.0000      -2.730314       -74.2956
 105   2.0000      -1.134516       -30.8718
 106   2.0000      -1.131714       -30.7955
 107   2.0000      -1.121977       -30.5305
 108   2.0000      -1.080494       -29.4017
 109   2.0000      -1.079603       -29.3775
 110   2.0000      -1.030786       -28.0491
 111   2.0000      -1.023541       -27.8520
 112   2.0000      -1.019728       -27.7482
 113   2.0000      -1.015746       -27.6399
 114   2.0000      -1.006272       -27.3821
 115   2.0000      -0.997791       -27.1513
 116   2.0000      -0.997435       -27.1416
 117   2.0000      -0.995541       -27.0900
 118   2.0000      -0.988963       -26.9111
 119   2.0000      -0.980670       -26.6854
 120   2.0000      -0.978297       -26.6208
 121   2.0000      -0.947098       -25.7718
 122   2.0000      -0.943454       -25.6727
 123   2.0000      -0.934404       -25.4264
 124   2.0000      -0.925451       -25.1828
 125   2.0000      -0.916086       -24.9280
 126   2.0000      -0.913647       -24.8616
 127   2.0000      -0.909456       -24.7476
 128   2.0000      -0.903713       -24.5913
 129   2.0000      -0.891204       -24.2509
 130   2.0000      -0.889267       -24.1982
 131   2.0000      -0.885808       -24.1041
 132   2.0000      -0.880418       -23.9574
 133   2.0000      -0.875584       -23.8259
 134   2.0000      -0.855186       -23.2708
 135   2.0000      -0.844458       -22.9789
 136   2.0000      -0.838192       -22.8084
 137   2.0000      -0.831616       -22.6294
 138   2.0000      -0.829259       -22.5653
 139   2.0000      -0.819450       -22.2984
 140   2.0000      -0.800259       -21.7762
 141   2.0000      -0.783633       -21.3237
 142   2.0000      -0.780504       -21.2386
 143   2.0000      -0.768127       -20.9018
 144   2.0000      -0.759150       -20.6575
 145   2.0000      -0.756864       -20.5953
 146   2.0000      -0.747494       -20.3403
 147   2.0000      -0.737381       -20.0652
 148   2.0000      -0.734309       -19.9816
 149   2.0000      -0.726586       -19.7714
 150   2.0000      -0.708775       -19.2867
 151   2.0000      -0.701748       -19.0955
 152   2.0000      -0.698695       -19.0125
 153   2.0000      -0.691448       -18.8152
 154   2.0000      -0.689729       -18.7685
 155   2.0000      -0.682265       -18.5654
 156   2.0000      -0.672761       -18.3068
 157   2.0000      -0.668724       -18.1969
 158   2.0000      -0.667823       -18.1724
 159   2.0000      -0.657094       -17.8804
 160   2.0000      -0.649399       -17.6710
 161   2.0000      -0.632943       -17.2233
 162   2.0000      -0.628166       -17.0933
 163   2.0000      -0.628053       -17.0902
 164   2.0000      -0.624074       -16.9819
 165   2.0000      -0.621828       -16.9208
 166   2.0000      -0.614715       -16.7272
 167   2.0000      -0.608245       -16.5512
 168   2.0000      -0.604668       -16.4538
 169   2.0000      -0.601869       -16.3777
 170   2.0000      -0.593114       -16.1395
 171   2.0000      -0.589856       -16.0508
 172   2.0000      -0.583640       -15.8816
 173   2.0000      -0.579823       -15.7778
 174   2.0000      -0.575775       -15.6676
 175   2.0000      -0.569034       -15.4842
 176   2.0000      -0.561562       -15.2809
 177   2.0000      -0.554803       -15.0970
 178   2.0000      -0.550249       -14.9730
 179   2.0000      -0.549420       -14.9505
 180   2.0000      -0.545947       -14.8560
 181   2.0000      -0.542563       -14.7639
 182   2.0000      -0.541724       -14.7411
 183   2.0000      -0.540406       -14.7052
 184   2.0000      -0.536043       -14.5865
 185   2.0000      -0.530164       -14.4265
 186   2.0000      -0.527192       -14.3456
 187   2.0000      -0.526186       -14.3183
 188   2.0000      -0.524410       -14.2699
 189   2.0000      -0.520799       -14.1716
 190   2.0000      -0.515409       -14.0250
 191   2.0000      -0.514783       -14.0080
 192   2.0000      -0.513548       -13.9744
 193   2.0000      -0.511489       -13.9183
 194   2.0000      -0.510432       -13.8896
 195   2.0000      -0.508128       -13.8269
 196   2.0000      -0.505334       -13.7508
 197   2.0000      -0.503112       -13.6904
 198   2.0000      -0.502147       -13.6641
 199   2.0000      -0.498347       -13.5607
 200   2.0000      -0.495546       -13.4845
 201   2.0000      -0.495115       -13.4728
 202   2.0000      -0.493416       -13.4265
 203   2.0000      -0.489527       -13.3207
 204   2.0000      -0.489095       -13.3090
 205   2.0000      -0.485333       -13.2066
 206   2.0000      -0.478580       -13.0228
 207   2.0000      -0.476204       -12.9582
 208   2.0000      -0.472912       -12.8686
 209   2.0000      -0.469927       -12.7874
 210   2.0000      -0.466512       -12.6944
 211   2.0000      -0.464858       -12.6494
 212   2.0000      -0.463222       -12.6049
 213   2.0000      -0.460336       -12.5264
 214   2.0000      -0.458459       -12.4753
 215   2.0000      -0.456762       -12.4291
 216   2.0000      -0.455644       -12.3987
 217   2.0000      -0.452909       -12.3243
 218   2.0000      -0.450644       -12.2626
 219   2.0000      -0.448264       -12.1979
 220   2.0000      -0.445381       -12.1194
 221   2.0000      -0.442514       -12.0414
 222   2.0000      -0.439767       -11.9667
 223   2.0000      -0.438156       -11.9228
 224   2.0000      -0.435842       -11.8599
 225   2.0000      -0.431356       -11.7378
 226   2.0000      -0.430454       -11.7132
 227   2.0000      -0.427544       -11.6341
 228   2.0000      -0.423083       -11.5127
 229   2.0000      -0.418955       -11.4004
 230   2.0000      -0.415900       -11.3172
 231   2.0000      -0.414945       -11.2912
 232   2.0000      -0.414440       -11.2775
 233   2.0000      -0.413345       -11.2477
 234   2.0000      -0.409404       -11.1404
 235   2.0000      -0.405576       -11.0363
 236   2.0000      -0.389196       -10.5906
 237   2.0000      -0.388084       -10.5603
 238   2.0000      -0.381743       -10.3877
 239   2.0000      -0.378700       -10.3049
 240   2.0000      -0.376745       -10.2517
 241   2.0000      -0.376071       -10.2334
 242   2.0000      -0.374928       -10.2023
 243   2.0000      -0.374808       -10.1990
 244   2.0000      -0.373412       -10.1611
 245   2.0000      -0.369205       -10.0466
 246   2.0000      -0.357997        -9.7416
 247   2.0000      -0.353283        -9.6133
 248   2.0000      -0.341449        -9.2913
 249   2.0000      -0.337066        -9.1720
 250   2.0000      -0.331244        -9.0136
 251   2.0000      -0.323156        -8.7935
 252   2.0000      -0.322545        -8.7769
 253   2.0000      -0.320297        -8.7157
 254   2.0000      -0.318437        -8.6651
 255   2.0000      -0.316577        -8.6145
 256   2.0000      -0.312572        -8.5055
 257   2.0000      -0.302116        -8.2210
 258   2.0000      -0.296600        -8.0709
 259   2.0000      -0.293062        -7.9746
 260   2.0000      -0.288009        -7.8371
 261   2.0000      -0.255706        -6.9581
 262   0.0000      -0.099729        -2.7138
 263   0.0000      -0.084322        -2.2945
 264   0.0000      -0.068888        -1.8745
 265   0.0000      -0.063337        -1.7235
 266   0.0000      -0.051146        -1.3918

MULLIKEN ATOMIC CHARGES
-----------------------
   0 C :    0.331262
   1 C :   -0.350857
   2 C :   -0.183412
   3 N :    0.148023
   4 C :   -0.203468
   5 N :    0.172490
   6 C :    0.061500
   7 C :   -0.013495
   8 C :   -0.066916
   9 C :    0.118844
  10 C :   -0.077342
  11 C :   -0.040762
  12 S :    0.166863
  13 C :   -0.119557
  14 C :    0.038993
  15 Br:    0.023054
  16 C :    0.159206
  17 O :   -0.131527
  18 C :   -0.070253
  19 C :    0.018297
  20 C :   -0.039213
  21 N :   -0.085275
  22 C :    0.084369
  23 C :   -0.037958
  24 C :    0.060530
  25 N :   -0.058200
  26 C :   -0.019938
  27 C :    0.027923
  28 C :   -0.100926
  29 S :    0.109750
  30 C :   -0.111730
  31 C :    0.014894
  32 C :    0.109295
  33 C :   -0.000772
  34 C :   -0.003481
  35 C :    0.161120
  36 O :   -0.129631
  37 C :   -0.004579
  38 C :    0.037966
  39 C :   -0.054987
  40 N :   -0.059101
  41 C :    0.079557
  42 C :   -0.043742
  43 C :    0.043602
  44 N :   -0.056598
  45 C :    0.011331
  46 C :    0.045744
  47 C :    0.021360
  48 C :   -0.095328
  49 C :    0.297874
  50 C :   -0.336397
  51 C :   -0.184056
  52 N :    0.142211
  53 C :   -0.170335
  54 N :    0.173303
  55 C :   -0.001726
  56 C :    0.007194
  57 C :    0.135187
  58 O :   -0.140514
  59 C :   -0.067514
  60 C :    0.113275
  61 C :   -0.039772
  62 C :   -0.016730
  63 S :    0.157182
  64 C :   -0.109350
  65 C :    0.046036
  66 Br:    0.025344
  67 H :   -0.010163
  68 H :   -0.022710
  69 H :   -0.001110
  70 H :    0.051747
  71 H :    0.006398
  72 H :   -0.006869
  73 H :   -0.016056
  74 H :    0.016675
  75 H :    0.034609
  76 H :   -0.002626
  77 H :    0.000599
  78 H :    0.005230
  79 H :    0.008752
  80 H :   -0.006235
  81 H :    0.000096
  82 H :    0.029085
  83 H :    0.017862
  84 H :   -0.009290
  85 H :   -0.010530
  86 H :   -0.003597
Sum of atomic charges:   -0.0000000

LOEWDIN ATOMIC CHARGES
----------------------
   0 C :    0.085308
   1 C :   -0.132812
   2 C :   -0.009978
   3 N :   -0.058412
   4 C :   -0.021407
   5 N :   -0.044389
   6 C :   -0.009327
   7 C :   -0.043734
   8 C :    0.026406
   9 C :   -0.030776
  10 C :   -0.142061
  11 C :   -0.019920
  12 S :    0.421239
  13 C :   -0.273176
  14 C :   -0.068431
  15 Br:    0.136767
  16 C :    0.091007
  17 O :   -0.126004
  18 C :   -0.062084
  19 C :    0.081282
  20 C :    0.023281
  21 N :   -0.092733
  22 C :    0.054544
  23 C :   -0.059015
  24 C :    0.043977
  25 N :   -0.074760
  26 C :   -0.048562
  27 C :    0.010159
  28 C :   -0.161687
  29 S :    0.421208
  30 C :   -0.121466
  31 C :   -0.097949
  32 C :   -0.046452
  33 C :    0.041889
  34 C :   -0.054298
  35 C :    0.091040
  36 O :   -0.119580
  37 C :    0.012554
  38 C :   -0.033171
  39 C :    0.036237
  40 N :   -0.082457
  41 C :    0.051690
  42 C :   -0.065468
  43 C :    0.021822
  44 N :   -0.076574
  45 C :    0.020820
  46 C :   -0.004410
  47 C :    0.067299
  48 C :   -0.083616
  49 C :    0.081049
  50 C :   -0.141234
  51 C :   -0.002472
  52 N :   -0.058841
  53 C :   -0.009497
  54 N :   -0.039952
  55 C :   -0.018461
  56 C :   -0.051003
  57 C :    0.084715
  58 O :   -0.137843
  59 C :    0.027188
  60 C :   -0.024728
  61 C :   -0.130151
  62 C :   -0.008192
  63 S :    0.435278
  64 C :   -0.267991
  65 C :   -0.064576
  66 Br:    0.139456
  67 H :    0.041494
  68 H :    0.025588
  69 H :    0.039586
  70 H :    0.051301
  71 H :    0.026885
  72 H :    0.033730
  73 H :    0.023127
  74 H :    0.042567
  75 H :    0.033874
  76 H :    0.035011
  77 H :    0.032148
  78 H :    0.034841
  79 H :    0.027098
  80 H :    0.032687
  81 H :    0.034275
  82 H :    0.036657
  83 H :    0.044713
  84 H :    0.042140
  85 H :    0.036033
  86 H :    0.039683

  Mayer bond orders larger than 0.100000
B(  0-C ,  1-C ) :   1.6694 B(  0-C ,  6-C ) :   1.0126 B(  0-C , 18-C ) :   1.0154
B(  1-C ,  2-C ) :   1.1500 B(  1-C ,  4-C ) :   1.1399 B(  2-C ,  3-N ) :   2.9543
B(  4-C ,  5-N ) :   2.9974 B(  6-C ,  7-C ) :   1.2815 B(  6-C , 11-C ) :   1.4045
B(  7-C ,  8-C ) :   1.4175 B(  7-C , 16-C ) :   0.9458 B(  8-C ,  9-C ) :   1.2545
B(  8-C , 67-H ) :   1.0145 B(  9-C , 10-C ) :   1.2995 B(  9-C , 14-C ) :   1.1603
B( 10-C , 11-C ) :   1.3415 B( 10-C , 12-S ) :   1.0785 B( 11-C , 68-H ) :   0.9766
B( 12-S , 13-C ) :   1.0799 B( 13-C , 14-C ) :   1.6214 B( 13-C , 15-Br) :   1.0180
B( 14-C , 69-H ) :   0.9999 B( 16-C , 17-O ) :   2.2392 B( 16-C , 18-C ) :   0.9132
B( 18-C , 19-C ) :   1.8543 B( 19-C , 20-C ) :   0.9317 B( 19-C , 70-H ) :   0.9344
B( 20-C , 21-N ) :   1.5089 B( 20-C , 25-N ) :   1.5240 B( 21-N , 22-C ) :   1.5250
B( 22-C , 23-C ) :   1.3902 B( 22-C , 71-H ) :   0.9790 B( 23-C , 24-C ) :   1.3277
B( 23-C , 72-H ) :   0.9750 B( 24-C , 25-N ) :   1.5036 B( 24-C , 26-C ) :   1.0825
B( 26-C , 27-C ) :   1.6932 B( 26-C , 73-H ) :   0.9769 B( 27-C , 28-C ) :   1.1288
B( 27-C , 74-H ) :   0.9662 B( 28-C , 29-S ) :   1.0748 B( 28-C , 32-C ) :   1.4710
B( 29-S , 30-C ) :   1.1486 B( 30-C , 31-C ) :   1.6070 B( 30-C , 75-H ) :   0.9675
B( 31-C , 32-C ) :   1.2013 B( 31-C , 35-C ) :   0.9134 B( 32-C , 33-C ) :   1.0314
B( 33-C , 34-C ) :   1.6052 B( 33-C , 76-H ) :   1.0145 B( 34-C , 35-C ) :   0.9360
B( 34-C , 37-C ) :   1.0967 B( 35-C , 36-O ) :   2.2328 B( 37-C , 38-C ) :   1.6775
B( 37-C , 77-H ) :   0.9685 B( 38-C , 39-C ) :   1.0205 B( 38-C , 78-H ) :   0.9734
B( 39-C , 40-N ) :   1.5075 B( 39-C , 44-N ) :   1.5240 B( 40-N , 41-C ) :   1.5639
B( 41-C , 42-C ) :   1.3583 B( 41-C , 79-H ) :   0.9800 B( 42-C , 43-C ) :   1.3296
B( 42-C , 80-H ) :   0.9767 B( 43-C , 44-N ) :   1.5390 B( 43-C , 45-C ) :   1.0325
B( 45-C , 46-C ) :   1.7135 B( 45-C , 81-H ) :   0.9837 B( 46-C , 47-C ) :   1.0878
B( 46-C , 82-H ) :   0.9609 B( 47-C , 48-C ) :   1.6530 B( 47-C , 83-H ) :   0.9485
B( 48-C , 49-C ) :   1.0129 B( 48-C , 57-C ) :   0.9335 B( 49-C , 50-C ) :   1.6353
B( 49-C , 55-C ) :   1.0198 B( 50-C , 51-C ) :   1.1373 B( 50-C , 53-C ) :   1.1691
B( 51-C , 52-N ) :   2.9538 B( 53-C , 54-N ) :   2.9036 B( 55-C , 56-C ) :   1.2731
B( 55-C , 62-C ) :   1.4101 B( 56-C , 57-C ) :   0.9269 B( 56-C , 59-C ) :   1.4255
B( 57-C , 58-O ) :   2.2568 B( 59-C , 60-C ) :   1.2490 B( 59-C , 84-H ) :   1.0138
B( 60-C , 61-C ) :   1.3166 B( 60-C , 65-C ) :   1.1651 B( 61-C , 62-C ) :   1.3322
B( 61-C , 63-S ) :   1.0802 B( 62-C , 85-H ) :   0.9790 B( 63-S , 64-C ) :   1.0951
B( 64-C , 65-C ) :   1.6226 B( 64-C , 66-Br) :   1.0185 B( 65-C , 86-H ) :   0.9980

-----------------------------------------------------------------------------
         ABSORPTION SPECTRUM VIA TRANSITION ELECTRIC DIPOLE MOMENTS
-----------------------------------------------------------------------------
State   Energy  Wavelength   fosc         T2         TX        TY        TZ
        (cm-1)    (nm)                  (au**2)     (au)      (au)      (au)
-----------------------------------------------------------------------------
   0   19724.9    507.0   0.024833894   0.41448   0.52773   0.20094  -0.30920
   1   23416.2    427.1   0.453391474   6.37431   0.62102  -0.60487  -2.37124
   2   24520.9    407.8   0.005227888   0.07019  -0.02740  -0.06240  -0.25602
   3   26208.5    381.6   0.781233734   9.81327  -2.83072  -0.90404   0.99148
   4   26506.1    377.3   0.069760191   0.86644   0.14708  -0.34661  -0.85127
   5   27459.3    364.2   0.078270260   0.93839   0.74459   0.15088  -0.60101
   6   27765.8    360.2   0.019196655   0.22761   0.23010   0.35138   0.22627
   7   28300.0    353.4   0.000086524   0.00101   0.01959   0.02481   0.00273
   8   28493.1    351.0   0.289912241   3.34967   1.25277  -1.04071   0.83496
   9   28528.4    350.5   0.123878247   1.42953  -0.85837   0.60041  -0.57641
  10   28946.8    345.5   0.008942937   0.10171   0.02893  -0.22335  -0.22580
  11   29119.0    343.4   0.146813442   1.65983   0.73543   0.94614  -0.47306
  12   29173.9    342.8   0.057874281   0.65308   0.15645  -0.40594  -0.68104
  13   29504.6    338.9   0.097831884   1.09161   0.83750   0.26309  -0.56655
  14   29600.4    337.8   0.454155370   5.05106  -1.48497  -0.29225   1.66148
  15   29765.9    336.0   0.110589174   1.22312   0.57679  -0.05105  -0.94225
  16   30261.2    330.5   0.032492063   0.35348  -0.31360   0.33977  -0.37375
  17   30389.2    329.1   0.149289232   1.61728  -0.12343   0.00490   1.26571
  18   30532.2    327.5   0.054029141   0.58257  -0.00383  -0.40456   0.64721
  19   30987.2    322.7   0.160843876   1.70882   0.32206  -0.52439  -1.15331
  20   31647.7    316.0   0.012050054   0.12535   0.15982  -0.29181  -0.12105
  21   31782.7    314.6   0.000384018   0.00398   0.04537  -0.04344   0.00574
  22   32588.4    306.9   0.145158597   1.46641   0.91021   0.75852   0.25016
  23   32869.3    304.2   0.090072094   0.90214  -0.73538  -0.50331  -0.32868
  24   33244.6    300.8   0.085966067   0.85130   0.76134   0.49545   0.16180
  25   33594.8    297.7   0.637098175   6.24325  -2.29354  -0.91168   0.38958
  26   33788.8    296.0   0.052104490   0.50767  -0.07555  -0.46058  -0.53835
  27   33846.1    295.5   0.015506042   0.15082  -0.00852   0.36211   0.14011
  28   33934.3    294.7   0.522231740   5.06640   1.13139   1.93434  -0.21142
  29   34376.4    290.9   0.058713954   0.56228   0.46352  -0.58694   0.05417
  30   34560.0    289.4   0.041980820   0.39990  -0.58344  -0.22986  -0.08160
  31   34792.9    287.4   0.333583845   3.15638  -0.98624   1.06084  -1.02875
  32   35053.7    285.3   0.005497159   0.05163   0.05873   0.16825  -0.14097
  33   35648.0    280.5   0.190777012   1.76184   0.60985  -0.80796  -0.85856
  34   35704.0    280.1   0.155185225   1.43090   0.00450   1.02376   0.61870
  35   35861.0    278.9   0.030446150   0.27950  -0.12205   0.50968  -0.06954
  36   36440.7    274.4   0.009236146   0.08344  -0.01490  -0.00826   0.28836
  37   36634.3    273.0   0.002013135   0.01809   0.04061  -0.08523  -0.09580
  38   36752.3    272.1   0.018870801   0.16904   0.12427   0.31101   0.23847
  39   37250.6    268.5   0.001036400   0.00916  -0.04350   0.08512  -0.00457
  40   37575.3    266.1   0.079337065   0.69510   0.26860   0.28639   0.73548
  41   37771.6    264.7   0.016465538   0.14351  -0.02309   0.16302   0.34118
  42   38230.4    261.6   0.062736967   0.54024  -0.43947  -0.24078  -0.53771
  43   38268.3    261.3   0.003056154   0.02629  -0.12840   0.09235  -0.03571
  44   38346.4    260.8   0.117823419   1.01154   0.62042  -0.50982  -0.60556
  45   38588.0    259.1   0.005486549   0.04681  -0.17684  -0.08022   0.09540
  46   38783.3    257.8   0.076581403   0.65006  -0.31386   0.57959   0.46436
  47   38922.9    256.9   0.008052450   0.06811   0.10764  -0.22303   0.08234
  48   39054.0    256.1   0.093292257   0.78642   0.02304   0.46753   0.75320
  49   39161.5    255.4   0.013665522   0.11488   0.14180  -0.27343  -0.14144
  50   39296.9    254.5   0.035043080   0.29358   0.08633   0.32614   0.42397
  51   39740.9    251.6   0.204282170   1.69227  -0.44299  -1.01363  -0.68452

FINAL SINGLE POINT ENERGY     -8957.867839052793

DIPOLE MOMENT
-------------
                                X             Y             Z
Electronic contribution:   -162.33291     -35.34991     -43.38539
Nuclear contribution   :    160.68148      35.77789      42.23240
                        -----------------------------------------
Total Dipole Moment    :     -1.65143       0.42799      -1.15299
                        -----------------------------------------
Magnitude (a.u.)       :      2.05907
Magnitude (Debye)      :      5.23374

Rotational constants in cm-1:     0.000949     0.000586     0.000464
Rotational constants in MHz :    28.452912    17.568615    13.907319

                             ****ORCA TERMINATED NORMALLY****
TOTAL RUN TIME: 0 days 0 hours 9 minutes 20 seconds 18 msec
