                         Program Version 4.2.0 -  RELEASE  -
|  1> # ORCA input file
|  2> # SCF done       -170.781807697286          0.000507981650
|  3> ! CAM-B3LYP def2-SVP def2/J RIJCOSX Grid4 TightSCF
|  4> %maxcore 5000
|  5> %tddft
|  6>     Mode sTDDFT
|  7>     Ethresh 5.0
|  8>     maxcore 5000
|  9> end
| 10>
| 11> %pal
| 12>   nprocs 6
| 13>   end
| 14> * xyz 0 1
| 15>    C       -2.05077        12.88871        -3.44063
| 16>    C       -1.01187        13.09045        -2.56302
| 17>    C       -0.20382        14.24584        -2.55131
| 18>    N        0.48538        15.16174        -2.48231
| 19>    C       -0.55602        12.17157        -1.59720
| 20>    N       -0.09970        11.46892        -0.80912
| 21>    C       -2.42613        13.79712        -4.51929
| 22>    C       -3.41032        13.16787        -5.32109
| 23>    C       -3.95249        13.76177        -6.43385
| 24>    C       -3.51336        15.04850        -6.76502
| 25>    C       -2.53700        15.67363        -5.95385
| 26>    C       -1.98059        15.06720        -4.83400
| 27>    S       -2.14161        17.26137        -6.53856
| 28>    C       -3.27791        17.06651        -7.84669
| 29>    C       -3.92077        15.87455        -7.84791
| 30>   Br       -3.50768        18.45451        -9.08685
| 31>    C       -3.71919        11.84065        -4.75612
| 32>    O       -4.43025        10.99053        -5.25261
| 33>    C       -2.92538        11.73609        -3.51747
| 34>    C       -2.94318        10.70935        -2.61103
| 35>    C       -3.81271         9.59763        -2.49810
| 36>    S       -5.40352         9.71599        -3.29233
| 37>    C       -6.42010         9.00892        -2.03491
| 38>    C       -7.68960         9.41998        -1.77521
| 39>    S       -8.43860         8.47420        -0.54712
| 40>    C       -7.01826         7.52318        -0.36174
| 41>    C       -6.03876         7.91641        -1.21807
| 42>    S       -4.46772         7.14205        -1.34856
| 43>    C       -3.41607         8.50954        -1.73337
| 44>    C       -2.08021         8.35106        -1.27501
| 45>    C       -1.67724         7.45347        -0.33222
| 46>    C       -0.32771         7.34167         0.07181
| 47>    O        0.60946         8.08262        -0.59534
| 48>    C        1.79483         7.87079        -0.06941
| 49>    C        1.70639         6.97482         0.97209
| 50>    N        2.76907         6.50877         1.76192
| 51>    O        3.88540         6.91082         1.51180
| 52>    O        2.49822         5.71626         2.65898
| 53>    C        0.31681         6.61180         1.08662
| 54>    N       -0.12339         5.75245         2.03360
| 55>    C       -1.37150         5.31302         2.30424
| 56>    C       -1.64330         4.45645         3.33456
| 57>    C       -2.91559         3.94626         3.69824
| 58>    C       -2.89231         3.11941         4.77819
| 59>    C       -1.60502         2.92669         5.33070
| 60>    S       -0.41005         3.83154         4.42725
| 61>    C       -1.25267         2.15938         6.42280
| 62>    C       -2.09451         1.38014         7.25000
| 63>    C       -1.43821         0.73995         8.25392
| 64>    C       -0.03781         0.97482         8.28019
| 65>    S        0.40990         2.04859         6.96758
| 66>    C        0.84650         0.45220         9.18450
| 67>    C        2.23556         0.66393         9.23856
| 68>    S        3.15663         1.67060         8.13204
| 69>    C        4.65901         1.35966         8.90082
| 70>    C        4.49172         0.51502         9.97394
| 71>    C        3.12877         0.13156        10.15395
| 72>    O        2.99470        -0.69529        11.21090
| 73>    C        4.25342        -0.84450        11.70725
| 74>    N        4.41710        -1.67652        12.84086
| 75>    O        5.55100        -1.79418        13.26585
| 76>    O        3.43111        -2.20791        13.30342
| 77>    C        5.20366        -0.14530        11.01288
| 78>    H       -4.69545        13.25284        -7.02762
| 79>    H       -1.23964        15.58616        -4.24944
| 80>    H       -4.65239        15.58806        -8.58113
| 81>    H       -2.19672        10.76789        -1.83223
| 82>    H       -8.23107        10.21026        -2.25309
| 83>    H       -6.99052         6.72053         0.34650
| 84>    H       -1.31904         8.98493        -1.70244
| 85>    H       -2.40170         6.81185         0.14023
| 86>    H        2.64550         8.38349        -0.47514
| 87>    H        0.63269         5.40675         2.63679
| 88>    H       -2.18048         5.65870         1.68280
| 89>    H       -3.80243         4.20922         3.14988
| 90>    H       -3.76204         2.64418         5.19409
| 91>    H       -3.15429         1.31486         7.08161
| 92>    H       -1.90821         0.10355         8.98243
| 93>    H        0.45211        -0.20026         9.95255
| 94>    H        5.55504         1.80757         8.52474
| 95>    H        6.25131        -0.12049        11.22977
| 96> *
| 97>
| 98>                          ****END OF INPUT****

CARTESIAN COORDINATES (ANGSTROEM)
---------------------------------
  C     -2.050770   12.888710   -3.440630
  C     -1.011870   13.090450   -2.563020
  C     -0.203820   14.245840   -2.551310
  N      0.485380   15.161740   -2.482310
  C     -0.556020   12.171570   -1.597200
  N     -0.099700   11.468920   -0.809120
  C     -2.426130   13.797120   -4.519290
  C     -3.410320   13.167870   -5.321090
  C     -3.952490   13.761770   -6.433850
  C     -3.513360   15.048500   -6.765020
  C     -2.537000   15.673630   -5.953850
  C     -1.980590   15.067200   -4.834000
  S     -2.141610   17.261370   -6.538560
  C     -3.277910   17.066510   -7.846690
  C     -3.920770   15.874550   -7.847910
  Br    -3.507680   18.454510   -9.086850
  C     -3.719190   11.840650   -4.756120
  O     -4.430250   10.990530   -5.252610
  C     -2.925380   11.736090   -3.517470
  C     -2.943180   10.709350   -2.611030
  C     -3.812710    9.597630   -2.498100
  S     -5.403520    9.715990   -3.292330
  C     -6.420100    9.008920   -2.034910
  C     -7.689600    9.419980   -1.775210
  S     -8.438600    8.474200   -0.547120
  C     -7.018260    7.523180   -0.361740
  C     -6.038760    7.916410   -1.218070
  S     -4.467720    7.142050   -1.348560
  C     -3.416070    8.509540   -1.733370
  C     -2.080210    8.351060   -1.275010
  C     -1.677240    7.453470   -0.332220
  C     -0.327710    7.341670    0.071810
  O      0.609460    8.082620   -0.595340
  C      1.794830    7.870790   -0.069410
  C      1.706390    6.974820    0.972090
  N      2.769070    6.508770    1.761920
  O      3.885400    6.910820    1.511800
  O      2.498220    5.716260    2.658980
  C      0.316810    6.611800    1.086620
  N     -0.123390    5.752450    2.033600
  C     -1.371500    5.313020    2.304240
  C     -1.643300    4.456450    3.334560
  C     -2.915590    3.946260    3.698240
  C     -2.892310    3.119410    4.778190
  C     -1.605020    2.926690    5.330700
  S     -0.410050    3.831540    4.427250
  C     -1.252670    2.159380    6.422800
  C     -2.094510    1.380140    7.250000
  C     -1.438210    0.739950    8.253920
  C     -0.037810    0.974820    8.280190
  S      0.409900    2.048590    6.967580
  C      0.846500    0.452200    9.184500
  C      2.235560    0.663930    9.238560
  S      3.156630    1.670600    8.132040
  C      4.659010    1.359660    8.900820
  C      4.491720    0.515020    9.973940
  C      3.128770    0.131560   10.153950
  O      2.994700   -0.695290   11.210900
  C      4.253420   -0.844500   11.707250
  N      4.417100   -1.676520   12.840860
  O      5.551000   -1.794180   13.265850
  O      3.431110   -2.207910   13.303420
  C      5.203660   -0.145300   11.012880
  H     -4.695450   13.252840   -7.027620
  H     -1.239640   15.586160   -4.249440
  H     -4.652390   15.588060   -8.581130
  H     -2.196720   10.767890   -1.832230
  H     -8.231070   10.210260   -2.253090
  H     -6.990520    6.720530    0.346500
  H     -1.319040    8.984930   -1.702440
  H     -2.401700    6.811850    0.140230
  H      2.645500    8.383490   -0.475140
  H      0.632690    5.406750    2.636790
  H     -2.180480    5.658700    1.682800
  H     -3.802430    4.209220    3.149880
  H     -3.762040    2.644180    5.194090
  H     -3.154290    1.314860    7.081610
  H     -1.908210    0.103550    8.982430
  H      0.452110   -0.200260    9.952550
  H      5.555040    1.807570    8.524740
  H      6.251310   -0.120490   11.229770

 Total Charge           Charge          ....    0
 Multiplicity           Mult            ....    1
 Number of Electrons    NEL             ....  514
 Basis Dimension        Dim             .... 1018

ORBITAL ENERGIES
----------------

  NO   OCC          E(Eh)            E(eV)
   0   2.0000    -482.886030    -13139.9969
   1   2.0000     -88.975784     -2421.1542
   2   2.0000     -88.972496     -2421.0647
   3   2.0000     -88.965084     -2420.8630
   4   2.0000     -88.960213     -2420.7305
   5   2.0000     -88.952656     -2420.5248
   6   2.0000     -88.947632     -2420.3881
   7   2.0000     -88.934720     -2420.0368
   8   2.0000     -62.563739     -1702.4459
   9   2.0000     -56.397687     -1534.6591
  10   2.0000     -56.394973     -1534.5852
  11   2.0000     -56.394941     -1534.5844
  12   2.0000     -19.331069      -526.0251
  13   2.0000     -19.305719      -525.3353
  14   2.0000     -19.263593      -524.1890
  15   2.0000     -19.261769      -524.1394
  16   2.0000     -19.240652      -523.5648
  17   2.0000     -19.238443      -523.5046
  18   2.0000     -19.215469      -522.8795
  19   2.0000     -14.673052      -399.2740
  20   2.0000     -14.652302      -398.7094
  21   2.0000     -14.482418      -394.0866
  22   2.0000     -14.421058      -392.4169
  23   2.0000     -14.413946      -392.2234
  24   2.0000     -10.383322      -282.5445
  25   2.0000     -10.383218      -282.5417
  26   2.0000     -10.366379      -282.0835
  27   2.0000     -10.365206      -282.0516
  28   2.0000     -10.359301      -281.8909
  29   2.0000     -10.357196      -281.8336
  30   2.0000     -10.346661      -281.5470
  31   2.0000     -10.342238      -281.4266
  32   2.0000     -10.341935      -281.4184
  33   2.0000     -10.340470      -281.3785
  34   2.0000     -10.339226      -281.3446
  35   2.0000     -10.337927      -281.3093
  36   2.0000     -10.325441      -280.9695
  37   2.0000     -10.325031      -280.9584
  38   2.0000     -10.318625      -280.7841
  39   2.0000     -10.317649      -280.7575
  40   2.0000     -10.317145      -280.7438
  41   2.0000     -10.317127      -280.7433
  42   2.0000     -10.314874      -280.6820
  43   2.0000     -10.314186      -280.6633
  44   2.0000     -10.313651      -280.6487
  45   2.0000     -10.310748      -280.5697
  46   2.0000     -10.310489      -280.5627
  47   2.0000     -10.309448      -280.5344
  48   2.0000     -10.309035      -280.5231
  49   2.0000     -10.307799      -280.4895
  50   2.0000     -10.307647      -280.4853
  51   2.0000     -10.307626      -280.4848
  52   2.0000     -10.306545      -280.4554
  53   2.0000     -10.305519      -280.4274
  54   2.0000     -10.301544      -280.3193
  55   2.0000     -10.300627      -280.2943
  56   2.0000     -10.300117      -280.2804
  57   2.0000     -10.296912      -280.1932
  58   2.0000     -10.295662      -280.1592
  59   2.0000     -10.295146      -280.1452
  60   2.0000     -10.294937      -280.1395
  61   2.0000     -10.294077      -280.1161
  62   2.0000     -10.291832      -280.0550
  63   2.0000     -10.291589      -280.0484
  64   2.0000     -10.288568      -279.9662
  65   2.0000     -10.288329      -279.9597
  66   2.0000     -10.285329      -279.8780
  67   2.0000      -8.793168      -239.2743
  68   2.0000      -8.071718      -219.6426
  69   2.0000      -8.067003      -219.5143
  70   2.0000      -8.061186      -219.3560
  71   2.0000      -8.055334      -219.1968
  72   2.0000      -8.048934      -219.0226
  73   2.0000      -8.043854      -218.8844
  74   2.0000      -8.029102      -218.4830
  75   2.0000      -6.629455      -180.3966
  76   2.0000      -6.614908      -180.0008
  77   2.0000      -6.614714      -179.9955
  78   2.0000      -6.041410      -164.3951
  79   2.0000      -6.037127      -164.2786
  80   2.0000      -6.036346      -164.2573
  81   2.0000      -6.032974      -164.1656
  82   2.0000      -6.031888      -164.1360
  83   2.0000      -6.030540      -164.0993
  84   2.0000      -6.029466      -164.0701
  85   2.0000      -6.026182      -163.9807
  86   2.0000      -6.025524      -163.9628
  87   2.0000      -6.023312      -163.9026
  88   2.0000      -6.021399      -163.8506
  89   2.0000      -6.018815      -163.7803
  90   2.0000      -6.015556      -163.6916
  91   2.0000      -6.014748      -163.6696
  92   2.0000      -6.013663      -163.6401
  93   2.0000      -6.009599      -163.5295
  94   2.0000      -6.009554      -163.5283
  95   2.0000      -6.004662      -163.3952
  96   2.0000      -5.999734      -163.2611
  97   2.0000      -5.995584      -163.1481
  98   2.0000      -5.988194      -162.9470
  99   2.0000      -2.745363       -74.7051
 100   2.0000      -2.741238       -74.5929
 101   2.0000      -2.741076       -74.5885
 102   2.0000      -2.729528       -74.2742
 103   2.0000      -2.729518       -74.2740
 104   2.0000      -1.341147       -36.4945
 105   2.0000      -1.323788       -36.0221
 106   2.0000      -1.254328       -34.1320
 107   2.0000      -1.225680       -33.3524
 108   2.0000      -1.160839       -31.5880
 109   2.0000      -1.140195       -31.0263
 110   2.0000      -1.131279       -30.7837
 111   2.0000      -1.087339       -29.5880
 112   2.0000      -1.023530       -27.8517
 113   2.0000      -1.015126       -27.6230
 114   2.0000      -1.004683       -27.3388
 115   2.0000      -1.000289       -27.2193
 116   2.0000      -0.996368       -27.1126
 117   2.0000      -0.992491       -27.0071
 118   2.0000      -0.989991       -26.9390
 119   2.0000      -0.976363       -26.5682
 120   2.0000      -0.970733       -26.4150
 121   2.0000      -0.962391       -26.1880
 122   2.0000      -0.942981       -25.6598
 123   2.0000      -0.931981       -25.3605
 124   2.0000      -0.928998       -25.2793
 125   2.0000      -0.908723       -24.7276
 126   2.0000      -0.906840       -24.6764
 127   2.0000      -0.899534       -24.4776
 128   2.0000      -0.888114       -24.1668
 129   2.0000      -0.885960       -24.1082
 130   2.0000      -0.882579       -24.0162
 131   2.0000      -0.876865       -23.8607
 132   2.0000      -0.867430       -23.6040
 133   2.0000      -0.855946       -23.2915
 134   2.0000      -0.848794       -23.0969
 135   2.0000      -0.838830       -22.8257
 136   2.0000      -0.830198       -22.5908
 137   2.0000      -0.829470       -22.5710
 138   2.0000      -0.822936       -22.3932
 139   2.0000      -0.819849       -22.3092
 140   2.0000      -0.802959       -21.8496
 141   2.0000      -0.791898       -21.5486
 142   2.0000      -0.780830       -21.2475
 143   2.0000      -0.777584       -21.1591
 144   2.0000      -0.766027       -20.8447
 145   2.0000      -0.758174       -20.6310
 146   2.0000      -0.746537       -20.3143
 147   2.0000      -0.733622       -19.9629
 148   2.0000      -0.722538       -19.6613
 149   2.0000      -0.705181       -19.1890
 150   2.0000      -0.703469       -19.1424
 151   2.0000      -0.697405       -18.9774
 152   2.0000      -0.691783       -18.8244
 153   2.0000      -0.677625       -18.4391
 154   2.0000      -0.675193       -18.3729
 155   2.0000      -0.668961       -18.2033
 156   2.0000      -0.667272       -18.1574
 157   2.0000      -0.660067       -17.9613
 158   2.0000      -0.658525       -17.9194
 159   2.0000      -0.653258       -17.7760
 160   2.0000      -0.650625       -17.7044
 161   2.0000      -0.648804       -17.6549
 162   2.0000      -0.639893       -17.4124
 163   2.0000      -0.637356       -17.3433
 164   2.0000      -0.633132       -17.2284
 165   2.0000      -0.630284       -17.1509
 166   2.0000      -0.624860       -17.0033
 167   2.0000      -0.623691       -16.9715
 168   2.0000      -0.619068       -16.8457
 169   2.0000      -0.614873       -16.7316
 170   2.0000      -0.609100       -16.5744
 171   2.0000      -0.600410       -16.3380
 172   2.0000      -0.598241       -16.2790
 173   2.0000      -0.597024       -16.2458
 174   2.0000      -0.591239       -16.0884
 175   2.0000      -0.589362       -16.0374
 176   2.0000      -0.583351       -15.8738
 177   2.0000      -0.581757       -15.8304
 178   2.0000      -0.575312       -15.6550
 179   2.0000      -0.572020       -15.5655
 180   2.0000      -0.562678       -15.3113
 181   2.0000      -0.560878       -15.2623
 182   2.0000      -0.556488       -15.1428
 183   2.0000      -0.550823       -14.9887
 184   2.0000      -0.549118       -14.9423
 185   2.0000      -0.540658       -14.7121
 186   2.0000      -0.540187       -14.6992
 187   2.0000      -0.536538       -14.5999
 188   2.0000      -0.533385       -14.5141
 189   2.0000      -0.528005       -14.3677
 190   2.0000      -0.521728       -14.1969
 191   2.0000      -0.520952       -14.1758
 192   2.0000      -0.514614       -14.0034
 193   2.0000      -0.512874       -13.9560
 194   2.0000      -0.510179       -13.8827
 195   2.0000      -0.507906       -13.8208
 196   2.0000      -0.506543       -13.7837
 197   2.0000      -0.501683       -13.6515
 198   2.0000      -0.498418       -13.5627
 199   2.0000      -0.496888       -13.5210
 200   2.0000      -0.495332       -13.4787
 201   2.0000      -0.494488       -13.4557
 202   2.0000      -0.493590       -13.4313
 203   2.0000      -0.491751       -13.3812
 204   2.0000      -0.491071       -13.3627
 205   2.0000      -0.480747       -13.0818
 206   2.0000      -0.475630       -12.9426
 207   2.0000      -0.473100       -12.8737
 208   2.0000      -0.472799       -12.8655
 209   2.0000      -0.462959       -12.5978
 210   2.0000      -0.459216       -12.4959
 211   2.0000      -0.455550       -12.3961
 212   2.0000      -0.454832       -12.3766
 213   2.0000      -0.451511       -12.2862
 214   2.0000      -0.450384       -12.2556
 215   2.0000      -0.449336       -12.2270
 216   2.0000      -0.447216       -12.1694
 217   2.0000      -0.444892       -12.1061
 218   2.0000      -0.440788       -11.9944
 219   2.0000      -0.436498       -11.8777
 220   2.0000      -0.432010       -11.7556
 221   2.0000      -0.430754       -11.7214
 222   2.0000      -0.428566       -11.6619
 223   2.0000      -0.424592       -11.5537
 224   2.0000      -0.422573       -11.4988
 225   2.0000      -0.417630       -11.3643
 226   2.0000      -0.411201       -11.1893
 227   2.0000      -0.409518       -11.1435
 228   2.0000      -0.408079       -11.1044
 229   2.0000      -0.407141       -11.0789
 230   2.0000      -0.401383       -10.9222
 231   2.0000      -0.397324       -10.8117
 232   2.0000      -0.393312       -10.7026
 233   2.0000      -0.392610       -10.6835
 234   2.0000      -0.392285       -10.6746
 235   2.0000      -0.386316       -10.5122
 236   2.0000      -0.385938       -10.5019
 237   2.0000      -0.378410       -10.2971
 238   2.0000      -0.377363       -10.2686
 239   2.0000      -0.375320       -10.2130
 240   2.0000      -0.368494       -10.0272
 241   2.0000      -0.368349       -10.0233
 242   2.0000      -0.363178        -9.8826
 243   2.0000      -0.353436        -9.6175
 244   2.0000      -0.343229        -9.3397
 245   2.0000      -0.338655        -9.2153
 246   2.0000      -0.331940        -9.0326
 247   2.0000      -0.331054        -9.0084
 248   2.0000      -0.325057        -8.8453
 249   2.0000      -0.314662        -8.5624
 250   2.0000      -0.311823        -8.4851
 251   2.0000      -0.296670        -8.0728
 252   2.0000      -0.296199        -8.0600
 253   2.0000      -0.291707        -7.9377
 254   2.0000      -0.276337        -7.5195
 255   2.0000      -0.253145        -6.8884
 256   2.0000      -0.210437        -5.7263
 257   0.0000      -0.103400        -2.8137
 258   0.0000      -0.076273        -2.0755
 259   0.0000      -0.065187        -1.7738
 260   0.0000      -0.060978        -1.6593
 261   0.0000      -0.052467        -1.4277

MULLIKEN ATOMIC CHARGES
-----------------------
   0 C :    0.305732
   1 C :   -0.353884
   2 C :   -0.188627
   3 N :    0.147858
   4 C :   -0.180780
   5 N :    0.124560
   6 C :    0.014086
   7 C :   -0.004031
   8 C :   -0.075832
   9 C :    0.118152
  10 C :   -0.091258
  11 C :   -0.022018
  12 S :    0.185793
  13 C :   -0.122301
  14 C :    0.037596
  15 Br:    0.023599
  16 C :    0.135817
  17 O :   -0.155027
  18 C :   -0.065741
  19 C :   -0.061426
  20 C :   -0.051808
  21 S :    0.121439
  22 C :    0.008361
  23 C :   -0.122204
  24 S :    0.123865
  25 C :   -0.123771
  26 C :   -0.007537
  27 S :    0.096200
  28 C :    0.002646
  29 C :   -0.034832
  30 C :   -0.049920
  31 C :    0.020914
  32 O :   -0.153077
  33 C :    0.120763
  34 C :    0.095942
  35 N :    0.289964
  36 O :   -0.228286
  37 O :   -0.268411
  38 C :    0.074833
  39 N :    0.017039
  40 C :    0.036325
  41 C :   -0.045639
  42 C :    0.034123
  43 C :    0.029991
  44 C :   -0.048032
  45 S :    0.064366
  46 C :   -0.039959
  47 C :    0.026077
  48 C :    0.035693
  49 C :   -0.023981
  50 S :    0.057981
  51 C :   -0.014438
  52 C :   -0.193417
  53 S :    0.142742
  54 C :   -0.130236
  55 C :    0.122750
  56 C :    0.193876
  57 O :   -0.184780
  58 C :    0.234178
  59 N :    0.272892
  60 O :   -0.250661
  61 O :   -0.231368
  62 C :   -0.071490
  63 H :   -0.009023
  64 H :   -0.005446
  65 H :   -0.003008
  66 H :    0.024156
  67 H :    0.028155
  68 H :    0.021572
  69 H :    0.021205
  70 H :    0.019988
  71 H :    0.041390
  72 H :    0.155280
  73 H :   -0.013704
  74 H :   -0.012808
  75 H :   -0.013864
  76 H :   -0.013515
  77 H :   -0.009531
  78 H :    0.003080
  79 H :    0.032103
  80 H :    0.012592
Sum of atomic charges:   -0.0000000

LOEWDIN ATOMIC CHARGES
----------------------
   0 C :    0.080869
   1 C :   -0.151487
   2 C :   -0.019661
   3 N :   -0.058328
   4 C :   -0.016396
   5 N :   -0.068917
   6 C :   -0.021228
   7 C :   -0.047984
   8 C :    0.020912
   9 C :   -0.032288
  10 C :   -0.144681
  11 C :   -0.009905
  12 S :    0.432265
  13 C :   -0.271511
  14 C :   -0.070495
  15 Br:    0.136738
  16 C :    0.075830
  17 O :   -0.149245
  18 C :   -0.104218
  19 C :    0.047918
  20 C :   -0.198076
  21 S :    0.380527
  22 C :   -0.219737
  23 C :   -0.201590
  24 S :    0.447046
  25 C :   -0.203995
  26 C :   -0.221303
  27 S :    0.380582
  28 C :   -0.121025
  29 C :   -0.060832
  30 C :   -0.014491
  31 C :   -0.017467
  32 O :    0.059793
  33 C :    0.117999
  34 C :   -0.105329
  35 N :    0.295545
  36 O :   -0.190719
  37 O :   -0.215726
  38 C :    0.015232
  39 N :    0.061309
  40 C :   -0.007142
  41 C :   -0.184012
  42 C :   -0.029268
  43 C :   -0.040221
  44 C :   -0.171196
  45 S :    0.359372
  46 C :   -0.185230
  47 C :   -0.035183
  48 C :   -0.032661
  49 C :   -0.150947
  50 S :    0.360473
  51 C :   -0.073256
  52 C :   -0.203798
  53 S :    0.475411
  54 C :   -0.192435
  55 C :   -0.084845
  56 C :    0.018152
  57 O :    0.000785
  58 C :    0.024246
  59 N :    0.271849
  60 O :   -0.211697
  61 O :   -0.193249
  62 C :   -0.009062
  63 H :    0.041221
  64 H :    0.041001
  65 H :    0.038913
  66 H :    0.044258
  67 H :    0.026491
  68 H :    0.023658
  69 H :    0.035917
  70 H :    0.023544
  71 H :    0.046000
  72 H :    0.073635
  73 H :    0.030674
  74 H :    0.032550
  75 H :    0.032510
  76 H :    0.031798
  77 H :    0.034641
  78 H :    0.045648
  79 H :    0.028722
  80 H :    0.046803

  Mayer bond orders larger than 0.100000
B(  0-C ,  1-C ) :   1.5994 B(  0-C ,  6-C ) :   1.0041 B(  0-C , 18-C ) :   1.0901
B(  1-C ,  2-C ) :   1.1444 B(  1-C ,  4-C ) :   1.1555 B(  2-C ,  3-N ) :   2.9703
B(  4-C ,  5-N ) :   2.9406 B(  6-C ,  7-C ) :   1.2725 B(  6-C , 11-C ) :   1.4084
B(  7-C ,  8-C ) :   1.4275 B(  7-C , 16-C ) :   0.9376 B(  8-C ,  9-C ) :   1.2418
B(  8-C , 63-H ) :   1.0177 B(  9-C , 10-C ) :   1.3076 B(  9-C , 14-C ) :   1.1633
B( 10-C , 11-C ) :   1.3286 B( 10-C , 12-S ) :   1.0852 B( 11-C , 64-H ) :   0.9806
B( 12-S , 13-C ) :   1.0867 B( 13-C , 14-C ) :   1.6181 B( 13-C , 15-Br) :   1.0189
B( 14-C , 65-H ) :   1.0007 B( 16-C , 17-O ) :   2.1927 B( 16-C , 18-C ) :   0.9465
B( 18-C , 19-C ) :   1.5650 B( 19-C , 20-C ) :   1.2421 B( 19-C , 66-H ) :   0.9277
B( 20-C , 21-S ) :   1.0096 B( 20-C , 28-C ) :   1.4723 B( 21-S , 22-C ) :   0.9518
B( 22-C , 23-C ) :   1.6000 B( 22-C , 26-C ) :   1.2613 B( 23-C , 24-S ) :   1.1705
B( 23-C , 67-H ) :   0.9689 B( 24-S , 25-C ) :   1.1798 B( 25-C , 26-C ) :   1.5894
B( 25-C , 68-H ) :   0.9726 B( 26-C , 27-S ) :   0.9670 B( 27-S , 28-C ) :   1.0604
B( 28-C , 29-C ) :   1.2030 B( 29-C , 30-C ) :   1.5950 B( 29-C , 69-H ) :   0.9687
B( 30-C , 31-C ) :   1.2193 B( 30-C , 70-H ) :   0.9529 B( 31-C , 32-O ) :   1.0811
B( 31-C , 38-C ) :   1.3037 B( 32-O , 33-C ) :   1.2439 B( 33-C , 34-C ) :   1.4202
B( 33-C , 71-H ) :   1.0144 B( 34-C , 35-N ) :   0.9563 B( 34-C , 38-C ) :   1.2275
B( 35-N , 36-O ) :   1.5596 B( 35-N , 37-O ) :   1.4561 B( 36-O , 37-O ) :   0.2561
B( 37-O , 72-H ) :   0.1156 B( 38-C , 39-N ) :   1.2808 B( 39-N , 40-C ) :   1.1570
B( 39-N , 72-H ) :   0.8439 B( 40-C , 41-C ) :   1.6031 B( 40-C , 73-H ) :   0.9640
B( 41-C , 42-C ) :   1.1532 B( 41-C , 45-S ) :   1.0140 B( 42-C , 43-C ) :   1.6115
B( 42-C , 74-H ) :   0.9930 B( 43-C , 44-C ) :   1.1819 B( 43-C , 75-H ) :   0.9929
B( 44-C , 45-S ) :   1.0451 B( 44-C , 46-C ) :   1.5269 B( 46-C , 47-C ) :   1.1802
B( 46-C , 50-S ) :   1.0345 B( 47-C , 48-C ) :   1.5998 B( 47-C , 76-H ) :   0.9924
B( 48-C , 49-C ) :   1.1363 B( 48-C , 77-H ) :   1.0005 B( 49-C , 50-S ) :   1.0340
B( 49-C , 51-C ) :   1.5737 B( 51-C , 52-C ) :   1.1726 B( 51-C , 78-H ) :   0.9737
B( 52-C , 53-S ) :   1.1079 B( 52-C , 54-C ) :   0.1087 B( 52-C , 56-C ) :   1.4426
B( 53-S , 54-C ) :   1.1882 B( 54-C , 55-C ) :   1.4148 B( 54-C , 79-H ) :   0.9761
B( 55-C , 56-C ) :   1.2310 B( 55-C , 62-C ) :   1.0617 B( 56-C , 57-O ) :   1.1223
B( 57-O , 58-C ) :   1.1214 B( 58-C , 59-N ) :   0.9169 B( 58-C , 62-C ) :   1.5754
B( 59-N , 60-O ) :   1.5325 B( 59-N , 61-O ) :   1.5152 B( 60-O , 61-O ) :   0.2791
B( 62-C , 80-H ) :   1.0259

-----------------------------------------------------------------------------
         ABSORPTION SPECTRUM VIA TRANSITION ELECTRIC DIPOLE MOMENTS
-----------------------------------------------------------------------------
State   Energy  Wavelength   fosc         T2         TX        TY        TZ
        (cm-1)    (nm)                  (au**2)     (au)      (au)      (au)
-----------------------------------------------------------------------------
   0   11220.6    891.2   1.339478941  39.30013   1.64520  -4.15878   4.39295
   1   15643.5    639.2   0.199036789   4.18865  -0.55561   0.91574  -1.74395
   2   17036.2    587.0   0.105125369   2.03147   0.19522   1.37103  -0.33710
   3   17709.7    564.7   0.265016279   4.92648   1.76198  -0.53462   1.23939
   4   20175.2    495.7   0.309359376   5.04801  -0.67995   1.11440  -1.82860
   5   21788.5    459.0   0.099718440   1.50669   0.06389  -0.89683   0.83564
   6   23092.8    433.0   0.091069458   1.29829   0.26000   1.00168  -0.47678
   7   24497.6    408.2   0.131220964   1.76342   0.94061   0.93523  -0.06341
   8   24974.1    400.4   0.053154387   0.70069   0.50721   0.53778  -0.39271
   9   25818.8    387.3   0.088303691   1.12595   0.98652   0.36664  -0.13527
  10   26731.7    374.1   0.217356058   2.67683   0.14120  -1.07406   1.22609
  11   27287.1    366.5   0.062395452   0.75279   0.76310  -0.31492   0.26701
  12   27551.8    363.0   0.098643795   1.17868   0.79365  -0.48802   0.55735
  13   27741.6    360.5   0.023867338   0.28324  -0.05558   0.34143  -0.40444
  14   28898.3    346.0   0.056361046   0.64207   0.79134  -0.11811   0.04357
  15   29418.3    339.9   0.010660832   0.11930   0.09517   0.31806  -0.09531
  16   30162.6    331.5   0.000325875   0.00356  -0.00414  -0.05791   0.01366
  17   30555.8    327.3   0.116869790   1.25917   0.50775   0.83254  -0.55519
  18   31697.0    315.5   0.056589197   0.58775   0.20527   0.32133  -0.66510
  19   31876.6    313.7   0.001518112   0.01568   0.09655   0.03882   0.06964
  20   32004.0    312.5   0.034628248   0.35621   0.48854   0.22675  -0.25714
  21   32485.0    307.8   0.480290412   4.86739  -1.69566   0.71801  -1.21515
  22   32733.5    305.5   0.462974181   4.65629   1.63212  -0.58744   1.28351
  23   32947.7    303.5   0.072481021   0.72423   0.40506   0.52557  -0.53285
  24   33022.6    302.8   0.330243935   3.29230   0.64903   1.09297  -1.29479
  25   33522.7    298.3   0.034175064   0.33562   0.34118   0.46563  -0.04900
  26   34071.2    293.5   0.087259271   0.84314   0.60293  -0.41425   0.55500
  27   34614.5    288.9   0.009301227   0.08846   0.15410   0.11079  -0.22900
  28   35510.9    281.6   0.056319367   0.52212  -0.72072  -0.04310  -0.02865
  29   36289.6    275.6   0.116472649   1.05662  -0.64526   0.49141  -0.63148
  30   36369.8    275.0   0.035822715   0.32426   0.35148   0.20430  -0.39873
  31   36542.7    273.7   0.105665629   0.95194   0.89341   0.13624   0.36769
  32   36710.8    272.4   0.026989726   0.24204   0.27548   0.11648   0.39061
  33   36910.0    270.9   0.130889961   1.16745  -0.13774  -0.70067   0.81089
  34   37224.3    268.6   0.034427546   0.30448  -0.38302  -0.38952  -0.07779
  35   37565.7    266.2   0.238567737   2.09072   1.31889   0.29858   0.51197
  36   37703.5    265.2   0.054863504   0.47905  -0.10484  -0.64072   0.23986
  37   37890.3    263.9   0.052389961   0.45519   0.09296  -0.53564   0.39955
  38   38077.5    262.6   0.142673706   1.23353  -0.71033  -0.65190   0.55135
  39   38445.6    260.1   0.082880848   0.70971   0.04803   0.21843  -0.81222
  40   38673.4    258.6   0.011831640   0.10072  -0.04646  -0.31308  -0.02322
  41   39191.3    255.2   0.009774896   0.08211  -0.27982  -0.05188  -0.03342
  42   39767.1    251.5   0.084151283   0.69665  -0.39070   0.13503  -0.72510
  43   39829.4    251.1   0.237560909   1.96357  -0.53054  -1.07097   0.73152

FINAL SINGLE POINT ENERGY     -7806.817248249217

DIPOLE MOMENT
-------------
                                X             Y             Z
Electronic contribution:    -16.31114     122.79369    -111.82180
Nuclear contribution   :     13.77445    -122.16872     109.60071
                        -----------------------------------------
Total Dipole Moment    :     -2.53669       0.62497      -2.22109
                        -----------------------------------------
Magnitude (a.u.)       :      3.42908
Magnitude (Debye)      :      8.71604

Rotational constants in cm-1:     0.002233     0.000205     0.000191
Rotational constants in MHz :    66.951948     6.148267     5.716726

                             ****ORCA TERMINATED NORMALLY****
TOTAL RUN TIME: 0 days 0 hours 7 minutes 51 seconds 182 msec
