                         Program Version 4.2.0 -  RELEASE  -
|  1> # ORCA input file
|  2> # SCF done       -176.250453696854          0.000495613491
|  3> ! CAM-B3LYP def2-SVP def2/J RIJCOSX Grid4 TightSCF
|  4> %maxcore 5000
|  5> %tddft
|  6>     Mode sTDDFT
|  7>     Ethresh 5.0
|  8>     maxcore 5000
|  9> end
| 10>
| 11> %pal
| 12>   nprocs 6
| 13>   end
| 14> * xyz 0 1
| 15>    C      -11.08638         6.41667         0.73015
| 16>    C      -10.50288         5.95469        -0.41728
| 17>    C      -10.97358         4.83890        -1.14221
| 18>    N      -11.31716         3.94549        -1.77504
| 19>    C       -9.39625         6.55981        -1.04902
| 20>    N       -8.50217         7.01289        -1.60859
| 21>    C      -12.24411         5.84198         1.39906
| 22>    C      -12.69000         6.73586         2.40659
| 23>    C      -13.74301         6.44593         3.24028
| 24>    C      -14.35707         5.19810         3.10348
| 25>    C      -13.89388         4.30361         2.10644
| 26>    C      -12.85501         4.61148         1.23826
| 27>    S      -14.75726         2.80267         2.14821
| 28>    C      -15.70723         3.38005         3.48500
| 29>    C      -15.40714         4.64019         3.87890
| 30>   Br      -17.00275         2.26294         4.24828
| 31>    C      -11.79429         7.90339         2.45129
| 32>    O      -11.94675         8.93862         3.05717
| 33>    C      -10.67109         7.56799         1.52083
| 34>    C       -9.47694         8.20268         1.49920
| 35>    C       -9.03545         9.12229         2.51876
| 36>    C       -9.15974         8.89276         3.86616
| 37>    C       -8.74397         9.84018         4.92977
| 38>    C       -8.12514        11.06781         4.62214
| 39>    C       -7.84882        11.43922         3.35236
| 40>    S       -8.21355        10.53340         1.93275
| 41>    N       -9.02223         9.40124         6.13757
| 42>    C       -9.60031         8.17454         5.97314
| 43>    C       -9.68223         7.81785         4.60609
| 44>    S      -10.38418         6.26913         4.38701
| 45>    C      -10.65615         6.12967         6.12107
| 46>    C      -10.15796         7.21423         6.82175
| 47>    C      -11.38110         4.99635         6.56056
| 48>    C      -11.67348         4.69490         7.85105
| 49>    C      -12.46411         3.57404         8.19954
| 50>    O      -12.64971         3.28087         9.51620
| 51>    C      -13.14805         2.63369         7.44541
| 52>    C      -13.50937         2.22742         6.08839
| 53>    O      -13.24716         2.72169         5.01345
| 54>    N      -14.28847         1.09737         6.27249
| 55>    C      -14.49390         0.72674         7.60896
| 56>    O      -15.14174        -0.22396         7.96418
| 57>    C      -13.75689         1.73663         8.35720
| 58>    C      -13.43035         2.16597         9.63621
| 59>    C      -13.77653         1.65643        10.90022
| 60>    C      -13.38019         2.24926        12.06850
| 61>    C      -13.70530         1.79252        13.34758
| 62>    C      -13.31144         2.43530        14.50085
| 63>    C      -13.59311         2.06647        15.83642
| 64>    C      -13.07861         2.91379        16.77413
| 65>    C      -12.36108         3.99822        16.22904
| 66>    S      -12.35528         3.90414        14.48091
| 67>    C      -11.73145         5.03955        16.88459
| 68>    C      -11.65798         5.30334        18.26961
| 69>    C      -10.97813         6.44222        18.57357
| 70>    C      -10.46537         7.15129        17.45258
| 71>    S      -10.89994         6.28765        15.98768
| 72>    C       -9.70809         8.28756        17.55936
| 73>    C       -9.06424         9.12325        16.62127
| 74>    O       -8.17279         9.98958        17.19210
| 75>    C       -7.58899        10.68609        16.21089
| 76>    C       -8.06993        10.31792        14.99600
| 77>    C       -9.04727         9.30951        15.22791
| 78>    C       -9.87626         8.69961        14.23384
| 79>    C       -9.63399         8.73478        12.91020
| 80>    C      -10.46405         8.12134        11.89968
| 81>    C      -11.36615         7.16290        12.10612
| 82>    H      -14.05574         7.14415         4.00086
| 83>    H      -12.53224         3.89687         0.49913
| 84>    H      -15.89049         5.14816         4.69351
| 85>    H       -8.77440         8.01433         0.69702
| 86>    H       -7.86310        11.71907         5.44232
| 87>    H       -7.36925        12.37560         3.11798
| 88>    H      -10.22470         7.31293         7.88876
| 89>    H      -11.74974         4.34151         5.78111
| 90>    H      -11.30720         5.29547         8.67022
| 91>    H      -14.69694         0.58015         5.50692
| 92>    H      -14.38705         0.76615        10.90048
| 93>    H      -12.77330         3.14418        12.00170
| 94>    H      -14.30063         0.89529        13.44767
| 95>    H      -14.17004         1.18735        16.06321
| 96>    H      -13.19719         2.78681        17.83541
| 97>    H      -12.10574         4.65136        18.99780
| 98>    H      -10.82135         6.80307        19.57490
| 99>    H       -9.49661         8.59195        18.57916
|100>    H       -6.85366        11.41226        16.49793
|101>    H       -7.78972        10.72997        14.04934
|102>    H      -10.76711         8.20965        14.58991
|103>    H       -8.76003         9.25528        12.54212
|104>    H      -10.29342         8.47817        10.89089
|105>    H      -11.54474         6.73889        13.07945
|106>    H      -11.94837         6.75497        11.29764
|107> *
|108>
|109>                          ****END OF INPUT****

CARTESIAN COORDINATES (ANGSTROEM)
---------------------------------
  C    -11.086380    6.416670    0.730150
  C    -10.502880    5.954690   -0.417280
  C    -10.973580    4.838900   -1.142210
  N    -11.317160    3.945490   -1.775040
  C     -9.396250    6.559810   -1.049020
  N     -8.502170    7.012890   -1.608590
  C    -12.244110    5.841980    1.399060
  C    -12.690000    6.735860    2.406590
  C    -13.743010    6.445930    3.240280
  C    -14.357070    5.198100    3.103480
  C    -13.893880    4.303610    2.106440
  C    -12.855010    4.611480    1.238260
  S    -14.757260    2.802670    2.148210
  C    -15.707230    3.380050    3.485000
  C    -15.407140    4.640190    3.878900
  Br   -17.002750    2.262940    4.248280
  C    -11.794290    7.903390    2.451290
  O    -11.946750    8.938620    3.057170
  C    -10.671090    7.567990    1.520830
  C     -9.476940    8.202680    1.499200
  C     -9.035450    9.122290    2.518760
  C     -9.159740    8.892760    3.866160
  C     -8.743970    9.840180    4.929770
  C     -8.125140   11.067810    4.622140
  C     -7.848820   11.439220    3.352360
  S     -8.213550   10.533400    1.932750
  N     -9.022230    9.401240    6.137570
  C     -9.600310    8.174540    5.973140
  C     -9.682230    7.817850    4.606090
  S    -10.384180    6.269130    4.387010
  C    -10.656150    6.129670    6.121070
  C    -10.157960    7.214230    6.821750
  C    -11.381100    4.996350    6.560560
  C    -11.673480    4.694900    7.851050
  C    -12.464110    3.574040    8.199540
  O    -12.649710    3.280870    9.516200
  C    -13.148050    2.633690    7.445410
  C    -13.509370    2.227420    6.088390
  O    -13.247160    2.721690    5.013450
  N    -14.288470    1.097370    6.272490
  C    -14.493900    0.726740    7.608960
  O    -15.141740   -0.223960    7.964180
  C    -13.756890    1.736630    8.357200
  C    -13.430350    2.165970    9.636210
  C    -13.776530    1.656430   10.900220
  C    -13.380190    2.249260   12.068500
  C    -13.705300    1.792520   13.347580
  C    -13.311440    2.435300   14.500850
  C    -13.593110    2.066470   15.836420
  C    -13.078610    2.913790   16.774130
  C    -12.361080    3.998220   16.229040
  S    -12.355280    3.904140   14.480910
  C    -11.731450    5.039550   16.884590
  C    -11.657980    5.303340   18.269610
  C    -10.978130    6.442220   18.573570
  C    -10.465370    7.151290   17.452580
  S    -10.899940    6.287650   15.987680
  C     -9.708090    8.287560   17.559360
  C     -9.064240    9.123250   16.621270
  O     -8.172790    9.989580   17.192100
  C     -7.588990   10.686090   16.210890
  C     -8.069930   10.317920   14.996000
  C     -9.047270    9.309510   15.227910
  C     -9.876260    8.699610   14.233840
  C     -9.633990    8.734780   12.910200
  C    -10.464050    8.121340   11.899680
  C    -11.366150    7.162900   12.106120
  H    -14.055740    7.144150    4.000860
  H    -12.532240    3.896870    0.499130
  H    -15.890490    5.148160    4.693510
  H     -8.774400    8.014330    0.697020
  H     -7.863100   11.719070    5.442320
  H     -7.369250   12.375600    3.117980
  H    -10.224700    7.312930    7.888760
  H    -11.749740    4.341510    5.781110
  H    -11.307200    5.295470    8.670220
  H    -14.696940    0.580150    5.506920
  H    -14.387050    0.766150   10.900480
  H    -12.773300    3.144180   12.001700
  H    -14.300630    0.895290   13.447670
  H    -14.170040    1.187350   16.063210
  H    -13.197190    2.786810   17.835410
  H    -12.105740    4.651360   18.997800
  H    -10.821350    6.803070   19.574900
  H     -9.496610    8.591950   18.579160
  H     -6.853660   11.412260   16.497930
  H     -7.789720   10.729970   14.049340
  H    -10.767110    8.209650   14.589910
  H     -8.760030    9.255280   12.542120
  H    -10.293420    8.478170   10.890890
  H    -11.544740    6.738890   13.079450
  H    -11.948370    6.754970   11.297640

 Total Charge           Charge          ....    0
 Multiplicity           Mult            ....    1
 Number of Electrons    NEL             ....  520
 Basis Dimension        Dim             .... 1101

ORBITAL ENERGIES
----------------

  NO   OCC          E(Eh)            E(eV)
   0   2.0000    -482.886688    -13140.0148
   1   2.0000     -88.982854     -2421.3466
   2   2.0000     -88.970166     -2421.0013
   3   2.0000     -88.959645     -2420.7150
   4   2.0000     -88.952381     -2420.5173
   5   2.0000     -88.948053     -2420.3996
   6   2.0000     -62.564221     -1702.4590
   7   2.0000     -56.398145     -1534.6715
   8   2.0000     -56.395535     -1534.6005
   9   2.0000     -56.395400     -1534.5968
  10   2.0000     -19.300665      -525.1978
  11   2.0000     -19.286750      -524.8191
  12   2.0000     -19.219913      -523.0004
  13   2.0000     -19.208335      -522.6854
  14   2.0000     -19.201477      -522.4988
  15   2.0000     -14.447217      -393.1288
  16   2.0000     -14.421698      -392.4344
  17   2.0000     -14.419145      -392.3649
  18   2.0000     -14.383878      -391.4052
  19   2.0000     -10.395460      -282.8748
  20   2.0000     -10.390151      -282.7304
  21   2.0000     -10.372097      -282.2391
  22   2.0000     -10.355277      -281.7814
  23   2.0000     -10.355167      -281.7784
  24   2.0000     -10.351366      -281.6750
  25   2.0000     -10.349240      -281.6171
  26   2.0000     -10.348184      -281.5884
  27   2.0000     -10.342281      -281.4278
  28   2.0000     -10.332254      -281.1549
  29   2.0000     -10.328683      -281.0577
  30   2.0000     -10.327124      -281.0153
  31   2.0000     -10.323670      -280.9213
  32   2.0000     -10.322997      -280.9030
  33   2.0000     -10.322307      -280.8842
  34   2.0000     -10.321217      -280.8546
  35   2.0000     -10.317163      -280.7443
  36   2.0000     -10.315874      -280.7092
  37   2.0000     -10.314471      -280.6710
  38   2.0000     -10.312896      -280.6282
  39   2.0000     -10.312349      -280.6133
  40   2.0000     -10.311897      -280.6010
  41   2.0000     -10.309096      -280.5248
  42   2.0000     -10.308024      -280.4956
  43   2.0000     -10.305491      -280.4267
  44   2.0000     -10.305265      -280.4205
  45   2.0000     -10.300597      -280.2935
  46   2.0000     -10.298070      -280.2247
  47   2.0000     -10.295143      -280.1451
  48   2.0000     -10.293957      -280.1128
  49   2.0000     -10.293886      -280.1109
  50   2.0000     -10.293794      -280.1084
  51   2.0000     -10.293639      -280.1042
  52   2.0000     -10.291851      -280.0555
  53   2.0000     -10.291633      -280.0496
  54   2.0000     -10.291417      -280.0437
  55   2.0000     -10.290421      -280.0166
  56   2.0000     -10.288368      -279.9607
  57   2.0000     -10.286255      -279.9032
  58   2.0000     -10.284858      -279.8652
  59   2.0000     -10.284397      -279.8527
  60   2.0000     -10.283924      -279.8398
  61   2.0000     -10.281073      -279.7622
  62   2.0000     -10.280132      -279.7366
  63   2.0000     -10.278765      -279.6994
  64   2.0000     -10.277695      -279.6703
  65   2.0000     -10.276602      -279.6406
  66   2.0000     -10.271366      -279.4981
  67   2.0000     -10.269525      -279.4480
  68   2.0000     -10.269098      -279.4364
  69   2.0000     -10.267647      -279.3969
  70   2.0000     -10.259047      -279.1629
  71   2.0000      -8.793591      -239.2858
  72   2.0000      -8.078352      -219.8231
  73   2.0000      -8.066310      -219.4955
  74   2.0000      -8.053647      -219.1509
  75   2.0000      -8.048127      -219.0007
  76   2.0000      -8.044225      -218.8945
  77   2.0000      -6.629696      -180.4032
  78   2.0000      -6.615476      -180.0163
  79   2.0000      -6.615186      -180.0084
  80   2.0000      -6.047835      -164.5700
  81   2.0000      -6.043149      -164.4424
  82   2.0000      -6.040500      -164.3704
  83   2.0000      -6.036023      -164.2485
  84   2.0000      -6.031746      -164.1322
  85   2.0000      -6.027440      -164.0150
  86   2.0000      -6.023061      -163.8958
  87   2.0000      -6.019107      -163.7882
  88   2.0000      -6.017874      -163.7547
  89   2.0000      -6.015604      -163.6929
  90   2.0000      -6.013927      -163.6473
  91   2.0000      -6.013742      -163.6423
  92   2.0000      -6.009952      -163.5391
  93   2.0000      -6.009124      -163.5166
  94   2.0000      -6.005173      -163.4091
  95   2.0000      -2.745607       -74.7118
  96   2.0000      -2.741642       -74.6039
  97   2.0000      -2.741432       -74.5982
  98   2.0000      -2.730125       -74.2905
  99   2.0000      -2.730108       -74.2900
 100   2.0000      -1.215578       -33.0776
 101   2.0000      -1.205943       -32.8154
 102   2.0000      -1.148186       -31.2437
 103   2.0000      -1.135897       -30.9093
 104   2.0000      -1.126979       -30.6667
 105   2.0000      -1.051837       -28.6219
 106   2.0000      -1.035273       -28.1712
 107   2.0000      -1.025345       -27.9011
 108   2.0000      -1.014064       -27.5941
 109   2.0000      -1.000209       -27.2171
 110   2.0000      -0.998712       -27.1763
 111   2.0000      -0.994488       -27.0614
 112   2.0000      -0.980548       -26.6821
 113   2.0000      -0.978012       -26.6131
 114   2.0000      -0.966547       -26.3011
 115   2.0000      -0.943848       -25.6834
 116   2.0000      -0.927151       -25.2291
 117   2.0000      -0.921750       -25.0821
 118   2.0000      -0.917661       -24.9708
 119   2.0000      -0.914683       -24.8898
 120   2.0000      -0.910677       -24.7808
 121   2.0000      -0.904674       -24.6174
 122   2.0000      -0.894996       -24.3541
 123   2.0000      -0.884568       -24.0703
 124   2.0000      -0.882831       -24.0231
 125   2.0000      -0.879550       -23.9338
 126   2.0000      -0.871867       -23.7247
 127   2.0000      -0.862468       -23.4690
 128   2.0000      -0.855210       -23.2714
 129   2.0000      -0.846465       -23.0335
 130   2.0000      -0.839834       -22.8530
 131   2.0000      -0.828758       -22.5517
 132   2.0000      -0.827690       -22.5226
 133   2.0000      -0.821967       -22.3669
 134   2.0000      -0.813565       -22.1382
 135   2.0000      -0.809636       -22.0313
 136   2.0000      -0.798394       -21.7254
 137   2.0000      -0.782205       -21.2849
 138   2.0000      -0.772116       -21.0104
 139   2.0000      -0.763092       -20.7648
 140   2.0000      -0.758828       -20.6488
 141   2.0000      -0.758255       -20.6332
 142   2.0000      -0.743947       -20.2438
 143   2.0000      -0.727645       -19.8002
 144   2.0000      -0.722154       -19.6508
 145   2.0000      -0.716458       -19.4958
 146   2.0000      -0.701876       -19.0990
 147   2.0000      -0.697583       -18.9822
 148   2.0000      -0.693801       -18.8793
 149   2.0000      -0.691849       -18.8262
 150   2.0000      -0.682275       -18.5656
 151   2.0000      -0.680244       -18.5104
 152   2.0000      -0.670048       -18.2329
 153   2.0000      -0.665659       -18.1135
 154   2.0000      -0.658434       -17.9169
 155   2.0000      -0.657782       -17.8991
 156   2.0000      -0.641900       -17.4670
 157   2.0000      -0.630853       -17.1664
 158   2.0000      -0.630205       -17.1488
 159   2.0000      -0.625310       -17.0156
 160   2.0000      -0.624204       -16.9854
 161   2.0000      -0.620574       -16.8867
 162   2.0000      -0.615726       -16.7548
 163   2.0000      -0.609663       -16.5898
 164   2.0000      -0.605889       -16.4871
 165   2.0000      -0.602942       -16.4069
 166   2.0000      -0.595895       -16.2151
 167   2.0000      -0.592887       -16.1333
 168   2.0000      -0.589441       -16.0395
 169   2.0000      -0.588298       -16.0084
 170   2.0000      -0.582457       -15.8495
 171   2.0000      -0.578811       -15.7503
 172   2.0000      -0.575502       -15.6602
 173   2.0000      -0.565085       -15.3767
 174   2.0000      -0.563623       -15.3370
 175   2.0000      -0.557791       -15.1783
 176   2.0000      -0.552155       -15.0249
 177   2.0000      -0.551574       -15.0091
 178   2.0000      -0.549923       -14.9642
 179   2.0000      -0.549822       -14.9614
 180   2.0000      -0.544839       -14.8258
 181   2.0000      -0.540083       -14.6964
 182   2.0000      -0.538342       -14.6490
 183   2.0000      -0.537931       -14.6378
 184   2.0000      -0.536504       -14.5990
 185   2.0000      -0.531622       -14.4662
 186   2.0000      -0.528779       -14.3888
 187   2.0000      -0.526324       -14.3220
 188   2.0000      -0.521217       -14.1830
 189   2.0000      -0.518211       -14.1012
 190   2.0000      -0.517643       -14.0858
 191   2.0000      -0.512118       -13.9354
 192   2.0000      -0.508623       -13.8403
 193   2.0000      -0.507599       -13.8125
 194   2.0000      -0.501643       -13.6504
 195   2.0000      -0.501256       -13.6399
 196   2.0000      -0.498858       -13.5746
 197   2.0000      -0.495255       -13.4766
 198   2.0000      -0.493515       -13.4292
 199   2.0000      -0.492549       -13.4029
 200   2.0000      -0.491794       -13.3824
 201   2.0000      -0.488493       -13.2926
 202   2.0000      -0.485338       -13.2067
 203   2.0000      -0.483509       -13.1569
 204   2.0000      -0.477682       -12.9984
 205   2.0000      -0.476214       -12.9584
 206   2.0000      -0.474507       -12.9120
 207   2.0000      -0.470210       -12.7951
 208   2.0000      -0.469160       -12.7665
 209   2.0000      -0.466009       -12.6807
 210   2.0000      -0.461189       -12.5496
 211   2.0000      -0.459123       -12.4934
 212   2.0000      -0.457137       -12.4393
 213   2.0000      -0.455749       -12.4016
 214   2.0000      -0.453017       -12.3272
 215   2.0000      -0.449216       -12.2238
 216   2.0000      -0.447901       -12.1880
 217   2.0000      -0.447103       -12.1663
 218   2.0000      -0.444374       -12.0920
 219   2.0000      -0.441385       -12.0107
 220   2.0000      -0.438100       -11.9213
 221   2.0000      -0.436024       -11.8648
 222   2.0000      -0.435313       -11.8455
 223   2.0000      -0.432660       -11.7733
 224   2.0000      -0.431909       -11.7528
 225   2.0000      -0.427720       -11.6389
 226   2.0000      -0.426473       -11.6049
 227   2.0000      -0.423670       -11.5287
 228   2.0000      -0.420126       -11.4322
 229   2.0000      -0.417354       -11.3568
 230   2.0000      -0.416417       -11.3313
 231   2.0000      -0.413737       -11.2584
 232   2.0000      -0.412395       -11.2218
 233   2.0000      -0.401876       -10.9356
 234   2.0000      -0.395759       -10.7691
 235   2.0000      -0.393666       -10.7122
 236   2.0000      -0.385434       -10.4882
 237   2.0000      -0.379702       -10.3322
 238   2.0000      -0.375887       -10.2284
 239   2.0000      -0.370523       -10.0824
 240   2.0000      -0.367261        -9.9937
 241   2.0000      -0.362705        -9.8697
 242   2.0000      -0.362350        -9.8600
 243   2.0000      -0.354612        -9.6495
 244   2.0000      -0.345480        -9.4010
 245   2.0000      -0.342600        -9.3226
 246   2.0000      -0.340991        -9.2788
 247   2.0000      -0.340527        -9.2662
 248   2.0000      -0.336073        -9.1450
 249   2.0000      -0.332683        -9.0528
 250   2.0000      -0.328120        -8.9286
 251   2.0000      -0.327525        -8.9124
 252   2.0000      -0.311289        -8.4706
 253   2.0000      -0.309097        -8.4110
 254   2.0000      -0.291826        -7.9410
 255   2.0000      -0.291295        -7.9266
 256   2.0000      -0.273796        -7.4504
 257   2.0000      -0.267240        -7.2720
 258   2.0000      -0.245759        -6.6874
 259   2.0000      -0.207434        -5.6446
 260   0.0000      -0.103154        -2.8070
 261   0.0000      -0.089101        -2.4246
 262   0.0000      -0.071249        -1.9388
 263   0.0000      -0.047500        -1.2925
 264   0.0000      -0.036446        -0.9917

MULLIKEN ATOMIC CHARGES
-----------------------
   0 C :    0.303183
   1 C :   -0.336302
   2 C :   -0.187770
   3 N :    0.162361
   4 C :   -0.188696
   5 N :    0.160077
   6 C :    0.020926
   7 C :    0.024726
   8 C :   -0.074549
   9 C :    0.128989
  10 C :   -0.070542
  11 C :   -0.022938
  12 S :    0.192726
  13 C :   -0.112725
  14 C :    0.046015
  15 Br:    0.014522
  16 C :    0.092786
  17 O :   -0.121957
  18 C :   -0.082863
  19 C :   -0.008719
  20 C :   -0.180497
  21 C :    0.126897
  22 C :   -0.012641
  23 C :    0.057039
  24 C :   -0.087776
  25 S :    0.176316
  26 N :   -0.067957
  27 C :    0.117555
  28 C :   -0.134295
  29 S :    0.125400
  30 C :   -0.056607
  31 C :   -0.079229
  32 C :    0.047430
  33 C :   -0.011016
  34 C :    0.133398
  35 O :   -0.217262
  36 C :   -0.079699
  37 C :    0.189374
  38 O :   -0.183538
  39 N :   -0.158371
  40 C :    0.151712
  41 O :   -0.147042
  42 C :   -0.026613
  43 C :    0.098992
  44 C :   -0.051243
  45 C :    0.030284
  46 C :   -0.014816
  47 C :   -0.007825
  48 C :    0.031839
  49 C :    0.030941
  50 C :   -0.053409
  51 S :    0.066914
  52 C :   -0.035192
  53 C :    0.030362
  54 C :    0.033175
  55 C :   -0.011026
  56 S :    0.065494
  57 C :   -0.055946
  58 C :    0.125726
  59 O :   -0.200380
  60 C :    0.154806
  61 C :   -0.045087
  62 C :    0.038714
  63 C :   -0.008858
  64 C :    0.002373
  65 C :   -0.008324
  66 C :   -0.021622
  67 H :   -0.008487
  68 H :   -0.003524
  69 H :   -0.005489
  70 H :    0.044805
  71 H :    0.000306
  72 H :    0.056258
  73 H :   -0.023287
  74 H :    0.004915
  75 H :   -0.011747
  76 H :    0.132067
  77 H :    0.005766
  78 H :    0.013855
  79 H :   -0.013556
  80 H :   -0.011021
  81 H :   -0.010775
  82 H :   -0.012531
  83 H :   -0.008564
  84 H :    0.004356
  85 H :    0.013068
  86 H :   -0.009765
  87 H :    0.000407
  88 H :   -0.013816
  89 H :   -0.001785
  90 H :    0.018294
  91 H :    0.022530
Sum of atomic charges:   -0.0000000

LOEWDIN ATOMIC CHARGES
----------------------
   0 C :    0.075237
   1 C :   -0.132137
   2 C :   -0.019212
   3 N :   -0.044312
   4 C :   -0.020290
   5 N :   -0.045459
   6 C :   -0.025577
   7 C :   -0.056968
   8 C :    0.020738
   9 C :   -0.021120
  10 C :   -0.134996
  11 C :   -0.005989
  12 S :    0.443271
  13 C :   -0.265969
  14 C :   -0.067267
  15 Br:    0.140183
  16 C :    0.063324
  17 O :   -0.122164
  18 C :   -0.062566
  19 C :    0.032620
  20 C :   -0.145524
  21 C :   -0.050141
  22 C :    0.016955
  23 C :   -0.030114
  24 C :   -0.169239
  25 S :    0.483188
  26 N :   -0.124351
  27 C :   -0.016168
  28 C :   -0.225267
  29 S :    0.460641
  30 C :   -0.152163
  31 C :   -0.048983
  32 C :   -0.012004
  33 C :   -0.044631
  34 C :    0.069748
  35 O :    0.007344
  36 C :   -0.106914
  37 C :    0.088528
  38 O :   -0.181517
  39 N :   -0.003606
  40 C :    0.084284
  41 O :   -0.164944
  42 C :   -0.106424
  43 C :    0.072785
  44 C :   -0.055488
  45 C :   -0.004116
  46 C :   -0.069277
  47 C :   -0.130139
  48 C :   -0.041513
  49 C :   -0.022856
  50 C :   -0.188004
  51 S :    0.376501
  52 C :   -0.169255
  53 C :   -0.041842
  54 C :   -0.021752
  55 C :   -0.155968
  56 S :    0.404187
  57 C :   -0.055307
  58 C :    0.018272
  59 O :    0.010336
  60 C :    0.050564
  61 C :   -0.065884
  62 C :   -0.047654
  63 C :   -0.026208
  64 C :   -0.023701
  65 C :   -0.033244
  66 C :   -0.037781
  67 H :    0.041649
  68 H :    0.041401
  69 H :    0.037961
  70 H :    0.047298
  71 H :    0.047843
  72 H :    0.036450
  73 H :    0.033705
  74 H :    0.032801
  75 H :    0.036472
  76 H :    0.083690
  77 H :    0.043409
  78 H :    0.025071
  79 H :    0.033511
  80 H :    0.034149
  81 H :    0.033087
  82 H :    0.032551
  83 H :    0.034558
  84 H :    0.046454
  85 H :    0.024855
  86 H :    0.030624
  87 H :    0.011287
  88 H :    0.025313
  89 H :    0.028351
  90 H :    0.012593
  91 H :    0.022221

  Mayer bond orders larger than 0.100000
B(  0-C ,  1-C ) :   1.6622 B(  0-C ,  6-C ) :   1.0206 B(  0-C , 18-C ) :   1.0249
B(  1-C ,  2-C ) :   1.1340 B(  1-C ,  4-C ) :   1.1422 B(  2-C ,  3-N ) :   2.9871
B(  4-C ,  5-N ) :   2.9789 B(  6-C ,  7-C ) :   1.2620 B(  6-C , 11-C ) :   1.3959
B(  7-C ,  8-C ) :   1.4115 B(  7-C , 16-C ) :   0.9215 B(  8-C ,  9-C ) :   1.2587
B(  8-C , 67-H ) :   1.0184 B(  9-C , 10-C ) :   1.2924 B(  9-C , 14-C ) :   1.1688
B( 10-C , 11-C ) :   1.3437 B( 10-C , 12-S ) :   1.0898 B( 11-C , 68-H ) :   0.9820
B( 12-S , 13-C ) :   1.0905 B( 13-C , 14-C ) :   1.6142 B( 13-C , 15-Br) :   1.0132
B( 14-C , 69-H ) :   1.0006 B( 16-C , 17-O ) :   2.2660 B( 16-C , 18-C ) :   0.9013
B( 18-C , 19-C ) :   1.7652 B( 19-C , 20-C ) :   1.0451 B( 19-C , 70-H ) :   0.9239
B( 20-C , 21-C ) :   1.5009 B( 20-C , 25-S ) :   1.1229 B( 21-C , 22-C ) :   1.0151
B( 21-C , 28-C ) :   1.2396 B( 22-C , 23-C ) :   1.2035 B( 22-C , 26-N ) :   1.6679
B( 23-C , 24-C ) :   1.6122 B( 23-C , 71-H ) :   0.9770 B( 24-C , 25-S ) :   1.1259
B( 24-C , 72-H ) :   0.9404 B( 26-N , 27-C ) :   1.3004 B( 27-C , 28-C ) :   1.3603
B( 27-C , 31-C ) :   1.2231 B( 28-C , 29-S ) :   1.0464 B( 29-S , 30-C ) :   1.1007
B( 30-C , 31-C ) :   1.4499 B( 30-C , 32-C ) :   1.1360 B( 31-C , 73-H ) :   1.0162
B( 32-C , 33-C ) :   1.6341 B( 32-C , 74-H ) :   0.9421 B( 33-C , 34-C ) :   1.1777
B( 33-C , 75-H ) :   0.9665 B( 34-C , 35-O ) :   1.1354 B( 34-C , 36-C ) :   1.4064
B( 35-O , 43-C ) :   1.1322 B( 36-C , 37-C ) :   0.8978 B( 36-C , 42-C ) :   1.2700
B( 37-C , 38-O ) :   2.1040 B( 37-C , 39-N ) :   1.1204 B( 39-N , 40-C ) :   1.0581
B( 39-N , 76-H ) :   0.9114 B( 40-C , 41-O ) :   2.2639 B( 40-C , 42-C ) :   0.8979
B( 42-C , 43-C ) :   1.3597 B( 43-C , 44-C ) :   1.2071 B( 44-C , 45-C ) :   1.5555
B( 44-C , 77-H ) :   0.9702 B( 45-C , 46-C ) :   1.1715 B( 45-C , 78-H ) :   0.9766
B( 46-C , 47-C ) :   1.5209 B( 46-C , 79-H ) :   0.9870 B( 47-C , 48-C ) :   1.1597
B( 47-C , 51-S ) :   1.0485 B( 48-C , 49-C ) :   1.5685 B( 48-C , 80-H ) :   0.9997
B( 49-C , 50-C ) :   1.2053 B( 49-C , 81-H ) :   0.9942 B( 50-C , 51-S ) :   1.0389
B( 50-C , 52-C ) :   1.4925 B( 52-C , 53-C ) :   1.1868 B( 52-C , 56-S ) :   1.0525
B( 53-C , 54-C ) :   1.5881 B( 53-C , 82-H ) :   0.9931 B( 54-C , 55-C ) :   1.1428
B( 54-C , 83-H ) :   0.9996 B( 55-C , 56-S ) :   1.0206 B( 55-C , 57-C ) :   1.5946
B( 57-C , 58-C ) :   1.1609 B( 57-C , 84-H ) :   0.9471 B( 58-C , 59-O ) :   1.1107
B( 58-C , 62-C ) :   1.3916 B( 59-O , 60-C ) :   1.1557 B( 60-C , 61-C ) :   1.5449
B( 60-C , 85-H ) :   1.0015 B( 61-C , 62-C ) :   1.2234 B( 61-C , 86-H ) :   0.9998
B( 62-C , 63-C ) :   1.1142 B( 63-C , 64-C ) :   1.7655 B( 63-C , 87-H ) :   0.9399
B( 64-C , 65-C ) :   1.0908 B( 64-C , 88-H ) :   0.9704 B( 65-C , 66-C ) :   1.9404
B( 65-C , 89-H ) :   0.9621 B( 66-C , 90-H ) :   0.9503 B( 66-C , 91-H ) :   0.9537

-----------------------------------------------------------------------------
         ABSORPTION SPECTRUM VIA TRANSITION ELECTRIC DIPOLE MOMENTS
-----------------------------------------------------------------------------
State   Energy  Wavelength   fosc         T2         TX        TY        TZ
        (cm-1)    (nm)                  (au**2)     (au)      (au)      (au)
-----------------------------------------------------------------------------
   0   11285.7    886.1   0.618188341  18.03301  -0.89571  -1.35129  -3.92489
   1   13049.8    766.3   0.317847366   8.01843   1.22009   2.33221   1.04432
   2   16239.0    615.8   0.063648738   1.29035   0.58170   0.66890   0.71031
   3   18417.2    543.0   0.027867231   0.49813  -0.22981  -0.34305  -0.57240
   4   18706.0    534.6   0.385802085   6.78984  -1.05769  -1.95389   1.36140
   5   20225.6    494.4   0.097497338   1.58696  -0.52003  -0.78776   0.83424
   6   22203.1    450.4   0.219134489   3.24917  -0.96574  -1.34798   0.70674
   7   22917.5    436.3   0.938584620  13.48284  -1.02883  -1.69274   3.09176
   8   24043.6    415.9   0.118574478   1.62356   0.24641   0.03650  -1.24960
   9   24186.6    413.5   0.115912533   1.57772   0.82668   0.64116  -0.69515
  10   24536.0    407.6   0.050355000   0.67564   0.63369   0.29991   0.42910
  11   25327.3    394.8   0.204607509   2.65955   0.27978   0.54236   1.51232
  12   25934.4    385.6   0.151123357   1.91836  -0.46401  -1.11735  -0.67423
  13   26613.0    375.8   0.024134615   0.29855   0.16743   0.48921  -0.17663
  14   27160.4    368.2   0.014652750   0.17761   0.41715   0.01278   0.05853
  15   27735.8    360.5   0.142500250   1.69142   0.74267   1.03994  -0.24160
  16   28072.9    356.2   0.047307326   0.55478  -0.29515  -0.63584  -0.25173
  17   28475.3    351.2   0.142311739   1.64531  -0.02614  -0.02109   1.28226
  18   28813.2    347.1   0.061881273   0.70704  -0.53601  -0.62608  -0.16661
  19   29415.4    340.0   0.318343033   3.56284   1.10374   1.51367   0.23113
  20   29782.6    335.8   0.025329457   0.27999   0.31261   0.20974  -0.37185
  21   30319.7    329.8   0.120373159   1.30701   0.63856   0.58652  -0.74515
  22   30798.9    324.7   0.507198409   5.42149  -1.72991  -0.90995   1.26527
  23   31183.2    320.7   0.140776532   1.48623  -1.02788  -0.56548   0.33154
  24   31822.1    314.2   0.013152162   0.13606  -0.13496   0.28891  -0.18542
  25   32011.4    312.4   0.005432175   0.05587  -0.12302   0.19277  -0.05976
  26   32291.6    309.7   0.077717518   0.79233   0.19158   0.24768   0.83324
  27   32411.2    308.5   0.066020774   0.67060  -0.70258  -0.41363   0.07672
  28   32531.2    307.4   0.143595134   1.45317   0.80721   0.89409   0.04680
  29   32959.8    303.4   0.051696796   0.51636  -0.03410  -0.14037   0.70392
  30   33214.0    301.1   0.025111703   0.24890  -0.09081   0.02529   0.48991
  31   33524.1    298.3   0.107681103   1.05744  -0.67961  -0.77169   0.00871
  32   33772.7    296.1   0.131597768   1.28280  -0.71934  -0.72475  -0.48998
  33   34099.5    293.3   0.090182531   0.87066   0.21827   0.71824   0.55421
  34   34184.2    292.5   0.047431133   0.45679   0.28490   0.41338   0.45248
  35   34491.4    289.9   0.065249474   0.62279   0.34412   0.40895   0.58063
  36   34640.7    288.7   0.175725916   1.67003   0.03732  -0.59391  -1.14713
  37   34786.9    287.5   0.122372002   1.15809   0.46609   0.63894  -0.72980
  38   35371.9    282.7   0.032248873   0.30015   0.08299  -0.21064  -0.49889
  39   35457.8    282.0   0.006424260   0.05965  -0.00839  -0.01787  -0.24343
  40   35937.8    278.3   0.020046070   0.18363   0.35212  -0.04713  -0.23964
  41   36365.4    275.0   0.074116843   0.67097   0.05975   0.68518   0.44489
  42   36507.8    273.9   0.088614052   0.79909   0.23783   0.86169  -0.00334
  43   36668.5    272.7   0.155834582   1.39909  -0.60745  -0.91772  -0.43346
  44   36802.9    271.7   0.015971730   0.14287   0.18642  -0.21636   0.24760
  45   37733.5    265.0   0.024160926   0.21080   0.23985   0.29888   0.25287
  46   37888.4    263.9   0.013777122   0.11971  -0.06503  -0.33879  -0.02648
  47   37909.0    263.8   0.116699915   1.01345   0.17408  -0.04273  -0.99062
  48   38476.9    259.9   0.029112812   0.24909  -0.28558  -0.05050  -0.40619
  49   38762.2    258.0   0.069158746   0.58737  -0.53278  -0.54022  -0.10813
  50   38994.2    256.4   0.002410061   0.02035  -0.11045  -0.07412   0.05150
  51   39297.5    254.5   0.005924689   0.04963  -0.06137   0.15995  -0.14242
  52   39416.7    253.7   0.041523855   0.34681  -0.12708   0.16504   0.55084
  53   39767.4    251.5   0.124688388   1.03223   0.64263   0.57731  -0.53476
  54   40152.1    249.1   0.023181436   0.19007   0.24174   0.33422  -0.14116
  55   40240.1    248.5   0.007295929   0.05969  -0.24237   0.01936  -0.02386

FINAL SINGLE POINT ENERGY     -7152.613287946616

DIPOLE MOMENT
-------------
                                X             Y             Z
Electronic contribution:    -59.98779     -44.87847     -98.55607
Nuclear contribution   :     59.90268      46.13832     102.21903
                        -----------------------------------------
Total Dipole Moment    :     -0.08511       1.25985       3.66296
                        -----------------------------------------
Magnitude (a.u.)       :      3.87450
Magnitude (Debye)      :      9.84820

Rotational constants in cm-1:     0.001084     0.000463     0.000337
Rotational constants in MHz :    32.500252    13.884409    10.091957

                             ****ORCA TERMINATED NORMALLY****
TOTAL RUN TIME: 0 days 0 hours 14 minutes 25 seconds 79 msec
