                         Program Version 4.2.0 -  RELEASE  -
|  1> # ORCA input file
|  2> # SCF done       -195.690796583839          0.000819321874
|  3> ! CAM-B3LYP def2-SVP def2/J RIJCOSX Grid4 TightSCF
|  4> %maxcore 5000
|  5> %tddft
|  6>     Mode sTDDFT
|  7>     Ethresh 5.0
|  8>     maxcore 5000
|  9> end
| 10>
| 11> %pal
| 12>   nprocs 6
| 13>   end
| 14> * xyz 0 1
| 15>    C       -0.23052         5.46077        -6.77123
| 16>    C        0.14107         4.80374        -5.62127
| 17>    C        1.23251         3.91762        -5.53307
| 18>    N        2.10500         3.18313        -5.39144
| 19>    C       -0.49058         4.91382        -4.36700
| 20>    N       -0.93530         4.94213        -3.30729
| 21>    C        0.45654         5.34573        -8.05636
| 22>    C       -0.19112         6.18615        -8.99258
| 23>    C        0.21642         6.29538       -10.29871
| 24>    C        1.31985         5.53628       -10.70418
| 25>    C        1.96264         4.70143        -9.76182
| 26>    C        1.54995         4.59191        -8.43911
| 27>    S        3.30315         3.85033       -10.47141
| 28>    C        2.98296         4.61893       -12.00331
| 29>    C        1.92929         5.46827       -11.98764
| 30>   Br        4.06935         4.22440       -13.48193
| 31>    C       -1.32398         6.87277        -8.33171
| 32>    O       -2.07442         7.66997        -8.85777
| 33>    C       -1.33057         6.38009        -6.93953
| 34>    C       -2.25858         6.73146        -5.98538
| 35>    C       -3.31443         7.63249        -6.17546
| 36>    C       -4.20928         7.89802        -5.17285
| 37>    C       -5.28198         8.79326        -5.28851
| 38>    O       -6.12787         8.98104        -4.23732
| 39>    C       -7.06181         9.90350        -4.58178
| 40>    C       -6.82964        10.30523        -5.89982
| 41>    C       -5.70054         9.60652        -6.35157
| 42>    O       -5.13167         9.69812        -7.56318
| 43>    O       -7.52462        11.16866        -6.69275
| 44>    C       -8.05222        10.25134        -3.63401
| 45>    C       -8.90587        11.31162        -3.71874
| 46>    C       -9.91023        11.59411        -2.77126
| 47>    C      -10.71956        12.69048        -2.86838
| 48>    C      -11.76940        13.05731        -1.99989
| 49>    C      -12.21336        12.36104        -0.91193
| 50>    C      -13.29226        12.79317        -0.11906
| 51>    O      -13.94363        13.95707        -0.38946
| 52>    C      -14.95150        14.11099         0.50849
| 53>    C      -14.94596        13.01987         1.38218
| 54>    C      -13.89256        12.18405         0.98775
| 55>    O      -13.51725        11.01504         1.54888
| 56>    O      -15.77101        12.75654         2.43489
| 57>    C      -15.79528        15.23763         0.44591
| 58>    C      -15.61368        16.24136        -0.46750
| 59>    C      -16.42274        17.37450        -0.60383
| 60>    C      -16.14573        18.35707        -1.52542
| 61>    C      -16.90432        19.50300        -1.74416
| 62>    C      -16.55734        20.47915        -2.66009
| 63>    C      -17.26012        21.65880        -2.97682
| 64>    C      -16.65162        22.44033        -3.92069
| 65>    C      -15.43273        21.91889        -4.39025
| 66>    S      -15.08608        20.39278        -3.61056
| 67>    C      -14.55305        22.46519        -5.31319
| 68>    C      -14.66735        23.67073        -6.03058
| 69>    C      -13.60303        23.92556        -6.84706
| 70>    C      -12.58638        22.94193        -6.81939
| 71>    S      -13.05288        21.66270        -5.71555
| 72>    C      -11.41014        23.00757        -7.53809
| 73>    C      -10.32635        22.11970        -7.57023
| 74>    C      -10.20383        20.92865        -6.90575
| 75>    C       -9.06064        20.11107        -6.97495
| 76>    O       -7.96132        20.45425        -7.69892
| 77>    C       -7.02979        19.47516        -7.55798
| 78>    C       -7.53783        18.47966        -6.73027
| 79>    C       -8.83097        18.88058        -6.35445
| 80>    O       -9.69187        18.21860        -5.55374
| 81>    O       -6.96070        17.31656        -6.31608
| 82>    C       -5.76362        19.57070        -8.19681
| 83>    C       -5.37486        20.61119        -8.96550
| 84>    C       -4.09140        20.69450        -9.59583
| 85>    C       -3.70273        21.72663       -10.34643
| 86>    H       -0.30052         6.94523       -10.98752
| 87>    H        2.07460         3.93920        -7.76187
| 88>    H        1.59274         6.02378       -12.84398
| 89>    H       -2.18152         6.27615        -5.00595
| 90>    H       -3.42047         8.12090        -7.13161
| 91>    H       -4.11208         7.40201        -4.21533
| 92>    H       -5.64131        10.32229        -8.09786
| 93>    H       -8.38082        11.35601        -6.29220
| 94>    H       -8.09094         9.61255        -2.76269
| 95>    H       -8.81252        12.01840        -4.53435
| 96>    H      -10.02838        10.90305        -1.94989
| 97>    H      -10.54783        13.36056        -3.70304
| 98>    H      -12.28468        13.97987        -2.23102
| 99>    H      -11.76686        11.42696        -0.60928
|100>    H      -14.10615        10.83730         2.29380
|101>    H      -16.41470        13.46708         2.52274
|102>    H      -16.60988        15.29028         1.15598
|103>    H      -14.77174        16.14944        -1.14017
|104>    H      -17.28877        17.47669         0.03737
|105>    H      -15.25925        18.23657        -2.13726
|106>    H      -17.81384        19.65165        -1.17708
|107>    H      -18.19488        21.90050        -2.50189
|108>    H      -17.04832        23.37342        -4.27921
|109>    H      -15.52056        24.31723        -5.92911
|110>    H      -13.51541        24.80016        -7.46796
|111>    H      -11.31453        23.89214        -8.15650
|112>    H       -9.49143        22.41632        -8.19142
|113>    H      -10.98995        20.53854        -6.27963
|114>    H       -9.25730        17.41020        -5.25219
|115>    H       -6.07098        17.25046        -6.67819
|116>    H       -5.08572        18.74117        -8.03521
|117>    H       -6.06054        21.43225        -9.11787
|118>    H       -3.41943        19.86028        -9.43577
|119>    H       -4.35130        22.56896       -10.52105
|120>    H       -2.73062        21.76330       -10.80583
|121> *
|122>
|123>                          ****END OF INPUT****

CARTESIAN COORDINATES (ANGSTROEM)
---------------------------------
  C     -0.230520    5.460770   -6.771230
  C      0.141070    4.803740   -5.621270
  C      1.232510    3.917620   -5.533070
  N      2.105000    3.183130   -5.391440
  C     -0.490580    4.913820   -4.367000
  N     -0.935300    4.942130   -3.307290
  C      0.456540    5.345730   -8.056360
  C     -0.191120    6.186150   -8.992580
  C      0.216420    6.295380  -10.298710
  C      1.319850    5.536280  -10.704180
  C      1.962640    4.701430   -9.761820
  C      1.549950    4.591910   -8.439110
  S      3.303150    3.850330  -10.471410
  C      2.982960    4.618930  -12.003310
  C      1.929290    5.468270  -11.987640
  Br     4.069350    4.224400  -13.481930
  C     -1.323980    6.872770   -8.331710
  O     -2.074420    7.669970   -8.857770
  C     -1.330570    6.380090   -6.939530
  C     -2.258580    6.731460   -5.985380
  C     -3.314430    7.632490   -6.175460
  C     -4.209280    7.898020   -5.172850
  C     -5.281980    8.793260   -5.288510
  O     -6.127870    8.981040   -4.237320
  C     -7.061810    9.903500   -4.581780
  C     -6.829640   10.305230   -5.899820
  C     -5.700540    9.606520   -6.351570
  O     -5.131670    9.698120   -7.563180
  O     -7.524620   11.168660   -6.692750
  C     -8.052220   10.251340   -3.634010
  C     -8.905870   11.311620   -3.718740
  C     -9.910230   11.594110   -2.771260
  C    -10.719560   12.690480   -2.868380
  C    -11.769400   13.057310   -1.999890
  C    -12.213360   12.361040   -0.911930
  C    -13.292260   12.793170   -0.119060
  O    -13.943630   13.957070   -0.389460
  C    -14.951500   14.110990    0.508490
  C    -14.945960   13.019870    1.382180
  C    -13.892560   12.184050    0.987750
  O    -13.517250   11.015040    1.548880
  O    -15.771010   12.756540    2.434890
  C    -15.795280   15.237630    0.445910
  C    -15.613680   16.241360   -0.467500
  C    -16.422740   17.374500   -0.603830
  C    -16.145730   18.357070   -1.525420
  C    -16.904320   19.503000   -1.744160
  C    -16.557340   20.479150   -2.660090
  C    -17.260120   21.658800   -2.976820
  C    -16.651620   22.440330   -3.920690
  C    -15.432730   21.918890   -4.390250
  S    -15.086080   20.392780   -3.610560
  C    -14.553050   22.465190   -5.313190
  C    -14.667350   23.670730   -6.030580
  C    -13.603030   23.925560   -6.847060
  C    -12.586380   22.941930   -6.819390
  S    -13.052880   21.662700   -5.715550
  C    -11.410140   23.007570   -7.538090
  C    -10.326350   22.119700   -7.570230
  C    -10.203830   20.928650   -6.905750
  C     -9.060640   20.111070   -6.974950
  O     -7.961320   20.454250   -7.698920
  C     -7.029790   19.475160   -7.557980
  C     -7.537830   18.479660   -6.730270
  C     -8.830970   18.880580   -6.354450
  O     -9.691870   18.218600   -5.553740
  O     -6.960700   17.316560   -6.316080
  C     -5.763620   19.570700   -8.196810
  C     -5.374860   20.611190   -8.965500
  C     -4.091400   20.694500   -9.595830
  C     -3.702730   21.726630  -10.346430
  H     -0.300520    6.945230  -10.987520
  H      2.074600    3.939200   -7.761870
  H      1.592740    6.023780  -12.843980
  H     -2.181520    6.276150   -5.005950
  H     -3.420470    8.120900   -7.131610
  H     -4.112080    7.402010   -4.215330
  H     -5.641310   10.322290   -8.097860
  H     -8.380820   11.356010   -6.292200
  H     -8.090940    9.612550   -2.762690
  H     -8.812520   12.018400   -4.534350
  H    -10.028380   10.903050   -1.949890
  H    -10.547830   13.360560   -3.703040
  H    -12.284680   13.979870   -2.231020
  H    -11.766860   11.426960   -0.609280
  H    -14.106150   10.837300    2.293800
  H    -16.414700   13.467080    2.522740
  H    -16.609880   15.290280    1.155980
  H    -14.771740   16.149440   -1.140170
  H    -17.288770   17.476690    0.037370
  H    -15.259250   18.236570   -2.137260
  H    -17.813840   19.651650   -1.177080
  H    -18.194880   21.900500   -2.501890
  H    -17.048320   23.373420   -4.279210
  H    -15.520560   24.317230   -5.929110
  H    -13.515410   24.800160   -7.467960
  H    -11.314530   23.892140   -8.156500
  H     -9.491430   22.416320   -8.191420
  H    -10.989950   20.538540   -6.279630
  H     -9.257300   17.410200   -5.252190
  H     -6.070980   17.250460   -6.678190
  H     -5.085720   18.741170   -8.035210
  H     -6.060540   21.432250   -9.117870
  H     -3.419430   19.860280   -9.435770
  H     -4.351300   22.568960  -10.521050
  H     -2.730620   21.763300  -10.805830

 Total Charge           Charge          ....    0
 Multiplicity           Mult            ....    1
 Number of Electrons    NEL             ....  542
 Basis Dimension        Dim             .... 1199

ORBITAL ENERGIES
----------------

  NO   OCC          E(Eh)            E(eV)
   0   2.0000    -482.875991    -13139.7237
   1   2.0000     -88.963243     -2420.8129
   2   2.0000     -88.943532     -2420.2765
   3   2.0000     -88.940602     -2420.1968
   4   2.0000     -62.553718     -1702.1732
   5   2.0000     -56.387656     -1534.3861
   6   2.0000     -56.384964     -1534.3129
   7   2.0000     -56.384923     -1534.3118
   8   2.0000     -19.291107      -524.9377
   9   2.0000     -19.284150      -524.7484
  10   2.0000     -19.283394      -524.7278
  11   2.0000     -19.271996      -524.4177
  12   2.0000     -19.268597      -524.3252
  13   2.0000     -19.267850      -524.3048
  14   2.0000     -19.267486      -524.2950
  15   2.0000     -19.260061      -524.0929
  16   2.0000     -19.257536      -524.0242
  17   2.0000     -19.196580      -522.3655
  18   2.0000     -14.398579      -391.8052
  19   2.0000     -14.396873      -391.7588
  20   2.0000     -10.349246      -281.6173
  21   2.0000     -10.347300      -281.5643
  22   2.0000     -10.347179      -281.5611
  23   2.0000     -10.344795      -281.4962
  24   2.0000     -10.342099      -281.4228
  25   2.0000     -10.338716      -281.3308
  26   2.0000     -10.337004      -281.2842
  27   2.0000     -10.336707      -281.2761
  28   2.0000     -10.334452      -281.2147
  29   2.0000     -10.333870      -281.1989
  30   2.0000     -10.331439      -281.1327
  31   2.0000     -10.330372      -281.1037
  32   2.0000     -10.325958      -280.9836
  33   2.0000     -10.324228      -280.9365
  34   2.0000     -10.322549      -280.8908
  35   2.0000     -10.320399      -280.8323
  36   2.0000     -10.311597      -280.5928
  37   2.0000     -10.307784      -280.4891
  38   2.0000     -10.305114      -280.4164
  39   2.0000     -10.304102      -280.3889
  40   2.0000     -10.302450      -280.3439
  41   2.0000     -10.301086      -280.3068
  42   2.0000     -10.299419      -280.2614
  43   2.0000     -10.297111      -280.1986
  44   2.0000     -10.294313      -280.1225
  45   2.0000     -10.293775      -280.1078
  46   2.0000     -10.292413      -280.0708
  47   2.0000     -10.291943      -280.0580
  48   2.0000     -10.290292      -280.0131
  49   2.0000     -10.287758      -279.9441
  50   2.0000     -10.287126      -279.9269
  51   2.0000     -10.286044      -279.8975
  52   2.0000     -10.285508      -279.8829
  53   2.0000     -10.285249      -279.8758
  54   2.0000     -10.283185      -279.8197
  55   2.0000     -10.283004      -279.8148
  56   2.0000     -10.281162      -279.7646
  57   2.0000     -10.280358      -279.7428
  58   2.0000     -10.279974      -279.7323
  59   2.0000     -10.279862      -279.7293
  60   2.0000     -10.276365      -279.6341
  61   2.0000     -10.276250      -279.6310
  62   2.0000     -10.275616      -279.6137
  63   2.0000     -10.275094      -279.5995
  64   2.0000     -10.274276      -279.5773
  65   2.0000     -10.274146      -279.5737
  66   2.0000     -10.273990      -279.5695
  67   2.0000     -10.272871      -279.5390
  68   2.0000     -10.272660      -279.5333
  69   2.0000     -10.272645      -279.5329
  70   2.0000     -10.270688      -279.4796
  71   2.0000     -10.268398      -279.4173
  72   2.0000     -10.267381      -279.3896
  73   2.0000     -10.263646      -279.2880
  74   2.0000     -10.263549      -279.2854
  75   2.0000      -8.783146      -239.0015
  76   2.0000      -8.059263      -219.3037
  77   2.0000      -8.039311      -218.7608
  78   2.0000      -8.036973      -218.6972
  79   2.0000      -6.619402      -180.1231
  80   2.0000      -6.604879      -179.7279
  81   2.0000      -6.604737      -179.7240
  82   2.0000      -6.028969      -164.0566
  83   2.0000      -6.024700      -163.9404
  84   2.0000      -6.020444      -163.8246
  85   2.0000      -6.008982      -163.5127
  86   2.0000      -6.006628      -163.4487
  87   2.0000      -6.004905      -163.4018
  88   2.0000      -6.002674      -163.3411
  89   2.0000      -6.000477      -163.2813
  90   2.0000      -5.997960      -163.2128
  91   2.0000      -2.735262       -74.4303
  92   2.0000      -2.731237       -74.3207
  93   2.0000      -2.731060       -74.3159
  94   2.0000      -2.719558       -74.0029
  95   2.0000      -2.719539       -74.0024
  96   2.0000      -1.211932       -32.9783
  97   2.0000      -1.205114       -32.7928
  98   2.0000      -1.203305       -32.7436
  99   2.0000      -1.168954       -31.8089
 100   2.0000      -1.160918       -31.5902
 101   2.0000      -1.160395       -31.5760
 102   2.0000      -1.151830       -31.3429
 103   2.0000      -1.144960       -31.1560
 104   2.0000      -1.143725       -31.1223
 105   2.0000      -1.110559       -30.2199
 106   2.0000      -1.007820       -27.4242
 107   2.0000      -0.997229       -27.1360
 108   2.0000      -0.991519       -26.9806
 109   2.0000      -0.976672       -26.5766
 110   2.0000      -0.972504       -26.4632
 111   2.0000      -0.969444       -26.3799
 112   2.0000      -0.931013       -25.3342
 113   2.0000      -0.928022       -25.2528
 114   2.0000      -0.921018       -25.0622
 115   2.0000      -0.917803       -24.9747
 116   2.0000      -0.914061       -24.8729
 117   2.0000      -0.904989       -24.6260
 118   2.0000      -0.900349       -24.4998
 119   2.0000      -0.893767       -24.3206
 120   2.0000      -0.892690       -24.2913
 121   2.0000      -0.889742       -24.2111
 122   2.0000      -0.887409       -24.1476
 123   2.0000      -0.886185       -24.1143
 124   2.0000      -0.876345       -23.8466
 125   2.0000      -0.871495       -23.7146
 126   2.0000      -0.869411       -23.6579
 127   2.0000      -0.860257       -23.4088
 128   2.0000      -0.851401       -23.1678
 129   2.0000      -0.842763       -22.9328
 130   2.0000      -0.835179       -22.7264
 131   2.0000      -0.828834       -22.5537
 132   2.0000      -0.817591       -22.2478
 133   2.0000      -0.815401       -22.1882
 134   2.0000      -0.810673       -22.0595
 135   2.0000      -0.799300       -21.7501
 136   2.0000      -0.784399       -21.3446
 137   2.0000      -0.771712       -20.9994
 138   2.0000      -0.757688       -20.6177
 139   2.0000      -0.748398       -20.3650
 140   2.0000      -0.741386       -20.1741
 141   2.0000      -0.734956       -19.9992
 142   2.0000      -0.729725       -19.8568
 143   2.0000      -0.721864       -19.6429
 144   2.0000      -0.717049       -19.5119
 145   2.0000      -0.705259       -19.1911
 146   2.0000      -0.701842       -19.0981
 147   2.0000      -0.699586       -19.0367
 148   2.0000      -0.694953       -18.9106
 149   2.0000      -0.690097       -18.7785
 150   2.0000      -0.682778       -18.5793
 151   2.0000      -0.677892       -18.4464
 152   2.0000      -0.673788       -18.3347
 153   2.0000      -0.670241       -18.2382
 154   2.0000      -0.664945       -18.0941
 155   2.0000      -0.656688       -17.8694
 156   2.0000      -0.650403       -17.6984
 157   2.0000      -0.646000       -17.5786
 158   2.0000      -0.643685       -17.5155
 159   2.0000      -0.642540       -17.4844
 160   2.0000      -0.638368       -17.3709
 161   2.0000      -0.633696       -17.2437
 162   2.0000      -0.629944       -17.1417
 163   2.0000      -0.622702       -16.9446
 164   2.0000      -0.621618       -16.9151
 165   2.0000      -0.615085       -16.7373
 166   2.0000      -0.614691       -16.7266
 167   2.0000      -0.608093       -16.5471
 168   2.0000      -0.606708       -16.5094
 169   2.0000      -0.600114       -16.3299
 170   2.0000      -0.591966       -16.1082
 171   2.0000      -0.586817       -15.9681
 172   2.0000      -0.581545       -15.8246
 173   2.0000      -0.578343       -15.7375
 174   2.0000      -0.574037       -15.6203
 175   2.0000      -0.572812       -15.5870
 176   2.0000      -0.571296       -15.5458
 177   2.0000      -0.566022       -15.4022
 178   2.0000      -0.564226       -15.3534
 179   2.0000      -0.562248       -15.2996
 180   2.0000      -0.560986       -15.2652
 181   2.0000      -0.552748       -15.0410
 182   2.0000      -0.552700       -15.0397
 183   2.0000      -0.547095       -14.8872
 184   2.0000      -0.542133       -14.7522
 185   2.0000      -0.540080       -14.6963
 186   2.0000      -0.533298       -14.5118
 187   2.0000      -0.529717       -14.4143
 188   2.0000      -0.527465       -14.3530
 189   2.0000      -0.522861       -14.2278
 190   2.0000      -0.522525       -14.2186
 191   2.0000      -0.516466       -14.0537
 192   2.0000      -0.513810       -13.9815
 193   2.0000      -0.509210       -13.8563
 194   2.0000      -0.507048       -13.7975
 195   2.0000      -0.506293       -13.7769
 196   2.0000      -0.502432       -13.6719
 197   2.0000      -0.501223       -13.6390
 198   2.0000      -0.495520       -13.4838
 199   2.0000      -0.494680       -13.4609
 200   2.0000      -0.493710       -13.4345
 201   2.0000      -0.493366       -13.4252
 202   2.0000      -0.492317       -13.3966
 203   2.0000      -0.490429       -13.3453
 204   2.0000      -0.488722       -13.2988
 205   2.0000      -0.488704       -13.2983
 206   2.0000      -0.487396       -13.2627
 207   2.0000      -0.486264       -13.2319
 208   2.0000      -0.483657       -13.1610
 209   2.0000      -0.482156       -13.1201
 210   2.0000      -0.478813       -13.0292
 211   2.0000      -0.478546       -13.0219
 212   2.0000      -0.476812       -12.9747
 213   2.0000      -0.475710       -12.9447
 214   2.0000      -0.474622       -12.9151
 215   2.0000      -0.470205       -12.7949
 216   2.0000      -0.469110       -12.7651
 217   2.0000      -0.468780       -12.7562
 218   2.0000      -0.467891       -12.7320
 219   2.0000      -0.464198       -12.6315
 220   2.0000      -0.462461       -12.5842
 221   2.0000      -0.457451       -12.4479
 222   2.0000      -0.454498       -12.3675
 223   2.0000      -0.453799       -12.3485
 224   2.0000      -0.446642       -12.1537
 225   2.0000      -0.442734       -12.0474
 226   2.0000      -0.441047       -12.0015
 227   2.0000      -0.438783       -11.9399
 228   2.0000      -0.436697       -11.8831
 229   2.0000      -0.435438       -11.8489
 230   2.0000      -0.434009       -11.8100
 231   2.0000      -0.432755       -11.7759
 232   2.0000      -0.429535       -11.6882
 233   2.0000      -0.427559       -11.6345
 234   2.0000      -0.426612       -11.6087
 235   2.0000      -0.426316       -11.6007
 236   2.0000      -0.425424       -11.5764
 237   2.0000      -0.422664       -11.5013
 238   2.0000      -0.421288       -11.4638
 239   2.0000      -0.419619       -11.4184
 240   2.0000      -0.417972       -11.3736
 241   2.0000      -0.416276       -11.3274
 242   2.0000      -0.415013       -11.2931
 243   2.0000      -0.409861       -11.1529
 244   2.0000      -0.406315       -11.0564
 245   2.0000      -0.405114       -11.0237
 246   2.0000      -0.396710       -10.7950
 247   2.0000      -0.390815       -10.6346
 248   2.0000      -0.390200       -10.6179
 249   2.0000      -0.389359       -10.5950
 250   2.0000      -0.377533       -10.2732
 251   2.0000      -0.373515       -10.1639
 252   2.0000      -0.365628        -9.9492
 253   2.0000      -0.357240        -9.7210
 254   2.0000      -0.351672        -9.5695
 255   2.0000      -0.338114        -9.2005
 256   2.0000      -0.334219        -9.0946
 257   2.0000      -0.328521        -8.9395
 258   2.0000      -0.320988        -8.7345
 259   2.0000      -0.319605        -8.6969
 260   2.0000      -0.316627        -8.6159
 261   2.0000      -0.312780        -8.5112
 262   2.0000      -0.304738        -8.2923
 263   2.0000      -0.301644        -8.2081
 264   2.0000      -0.294437        -8.0120
 265   2.0000      -0.282068        -7.6755
 266   2.0000      -0.278055        -7.5663
 267   2.0000      -0.258137        -7.0243
 268   2.0000      -0.240797        -6.5524
 269   2.0000      -0.219353        -5.9689
 270   2.0000      -0.189917        -5.1679
 271   0.0000      -0.093413        -2.5419
 272   0.0000      -0.081730        -2.2240
 273   0.0000      -0.054569        -1.4849
 274   0.0000      -0.041975        -1.1422
 275   0.0000      -0.028795        -0.7835

MULLIKEN ATOMIC CHARGES
-----------------------
   0 C :    0.336632
   1 C :   -0.366218
   2 C :   -0.185748
   3 N :    0.137015
   4 C :   -0.193071
   5 N :    0.134690
   6 C :    0.010958
   7 C :   -0.010749
   8 C :   -0.079951
   9 C :    0.118564
  10 C :   -0.091314
  11 C :   -0.025606
  12 S :    0.178770
  13 C :   -0.122679
  14 C :    0.036699
  15 Br:    0.013504
  16 C :    0.139084
  17 O :   -0.157106
  18 C :   -0.082751
  19 C :   -0.028234
  20 C :   -0.038658
  21 C :    0.016607
  22 C :    0.114999
  23 O :   -0.208619
  24 C :    0.126246
  25 C :    0.054290
  26 C :    0.080282
  27 O :   -0.142944
  28 O :   -0.204429
  29 C :   -0.023416
  30 C :   -0.017853
  31 C :    0.017767
  32 C :    0.019051
  33 C :    0.009558
  34 C :   -0.011362
  35 C :    0.073564
  36 O :   -0.229001
  37 C :    0.118603
  38 C :    0.074577
  39 C :    0.093903
  40 O :   -0.173694
  41 O :   -0.201007
  42 C :   -0.082227
  43 C :    0.027781
  44 C :    0.014993
  45 C :    0.008305
  46 C :   -0.010423
  47 C :   -0.018312
  48 C :    0.028865
  49 C :    0.027670
  50 C :   -0.047900
  51 S :    0.070137
  52 C :   -0.028074
  53 C :    0.016753
  54 C :    0.038150
  55 C :   -0.031291
  56 S :    0.058335
  57 C :    0.009464
  58 C :    0.007374
  59 C :   -0.035498
  60 C :    0.075393
  61 O :   -0.225282
  62 C :    0.098477
  63 C :    0.083462
  64 C :    0.087671
  65 O :   -0.172547
  66 O :   -0.202588
  67 C :   -0.057273
  68 C :    0.015494
  69 C :    0.001834
  70 C :   -0.013768
  71 H :   -0.016264
  72 H :   -0.009417
  73 H :   -0.007239
  74 H :    0.003120
  75 H :    0.036642
  76 H :    0.008913
  77 H :    0.196814
  78 H :    0.191812
  79 H :    0.001852
  80 H :   -0.031514
  81 H :   -0.009241
  82 H :   -0.022304
  83 H :   -0.008229
  84 H :   -0.000266
  85 H :    0.194826
  86 H :    0.191996
  87 H :   -0.033300
  88 H :    0.001671
  89 H :   -0.021832
  90 H :   -0.000684
  91 H :   -0.021812
  92 H :   -0.016795
  93 H :   -0.015160
  94 H :   -0.017187
  95 H :   -0.014171
  96 H :   -0.016523
  97 H :   -0.009458
  98 H :    0.014181
  99 H :    0.191972
 100 H :    0.192300
 101 H :   -0.034374
 102 H :   -0.000722
 103 H :   -0.012312
 104 H :    0.014898
 105 H :    0.021875
Sum of atomic charges:   -0.0000000

LOEWDIN ATOMIC CHARGES
----------------------
   0 C :    0.076569
   1 C :   -0.155222
   2 C :   -0.018194
   3 N :   -0.068151
   4 C :   -0.020349
   5 N :   -0.065834
   6 C :   -0.019207
   7 C :   -0.048131
   8 C :    0.016222
   9 C :   -0.035619
  10 C :   -0.145707
  11 C :   -0.013024
  12 S :    0.426360
  13 C :   -0.274645
  14 C :   -0.071271
  15 Br:    0.128810
  16 C :    0.081316
  17 O :   -0.153400
  18 C :   -0.114138
  19 C :    0.066581
  20 C :   -0.045895
  21 C :    0.026277
  22 C :   -0.014724
  23 O :    0.004949
  24 C :    0.013370
  25 C :   -0.027609
  26 C :    0.023744
  27 O :   -0.017332
  28 O :   -0.061392
  29 C :   -0.055482
  30 C :   -0.023838
  31 C :   -0.036376
  32 C :   -0.016602
  33 C :   -0.052899
  34 C :   -0.010968
  35 C :   -0.001874
  36 O :    0.000042
  37 C :    0.002926
  38 C :   -0.026512
  39 C :    0.002153
  40 O :   -0.044959
  41 O :   -0.064258
  42 C :   -0.071650
  43 C :   -0.011580
  44 C :   -0.035520
  45 C :   -0.024103
  46 C :   -0.068143
  47 C :   -0.139161
  48 C :   -0.043387
  49 C :   -0.029624
  50 C :   -0.185268
  51 S :    0.374868
  52 C :   -0.172403
  53 C :   -0.048798
  54 C :   -0.027135
  55 C :   -0.155470
  56 S :    0.392732
  57 C :   -0.049932
  58 C :   -0.046861
  59 C :   -0.033626
  60 C :    0.003253
  61 O :    0.000515
  62 C :   -0.008643
  63 C :   -0.021445
  64 C :   -0.002418
  65 O :   -0.044028
  66 O :   -0.064844
  67 C :   -0.054510
  68 C :   -0.016303
  69 C :   -0.029608
  70 C :   -0.043630
  71 H :    0.038321
  72 H :    0.040022
  73 H :    0.037225
  74 H :    0.039738
  75 H :    0.033265
  76 H :    0.044572
  77 H :    0.108103
  78 H :    0.090970
  79 H :    0.040951
  80 H :    0.017033
  81 H :    0.027315
  82 H :    0.025329
  83 H :    0.028856
  84 H :    0.038066
  85 H :    0.104809
  86 H :    0.098995
  87 H :    0.023348
  88 H :    0.032180
  89 H :    0.024047
  90 H :    0.022109
  91 H :    0.030427
  92 H :    0.031821
  93 H :    0.031334
  94 H :    0.030245
  95 H :    0.032626
  96 H :    0.034583
  97 H :    0.030646
  98 H :    0.023502
  99 H :    0.103189
 100 H :    0.098571
 101 H :    0.024168
 102 H :    0.031582
 103 H :    0.026202
 104 H :    0.022357
 105 H :    0.024507

  Mayer bond orders larger than 0.100000
B(  0-C ,  1-C ) :   1.5931 B(  0-C ,  6-C ) :   0.9908 B(  0-C , 18-C ) :   1.1015
B(  1-C ,  2-C ) :   1.1467 B(  1-C ,  4-C ) :   1.1536 B(  2-C ,  3-N ) :   2.9623
B(  4-C ,  5-N ) :   2.9583 B(  6-C ,  7-C ) :   1.2800 B(  6-C , 11-C ) :   1.4134
B(  7-C ,  8-C ) :   1.4290 B(  7-C , 16-C ) :   0.9357 B(  8-C ,  9-C ) :   1.2385
B(  8-C , 71-H ) :   1.0166 B(  9-C , 10-C ) :   1.3148 B(  9-C , 14-C ) :   1.1613
B( 10-C , 11-C ) :   1.3246 B( 10-C , 12-S ) :   1.0822 B( 11-C , 72-H ) :   0.9796
B( 12-S , 13-C ) :   1.0854 B( 13-C , 14-C ) :   1.6201 B( 13-C , 15-Br) :   1.0124
B( 14-C , 73-H ) :   1.0002 B( 16-C , 17-O ) :   2.1973 B( 16-C , 18-C ) :   0.9634
B( 18-C , 19-C ) :   1.4526 B( 19-C , 20-C ) :   1.2271 B( 19-C , 74-H ) :   0.9620
B( 20-C , 21-C ) :   1.4622 B( 20-C , 75-H ) :   0.9759 B( 21-C , 22-C ) :   1.1971
B( 21-C , 76-H ) :   0.9726 B( 22-C , 23-O ) :   1.0906 B( 22-C , 24-C ) :   0.1020
B( 22-C , 26-C ) :   1.3400 B( 23-O , 24-C ) :   1.1271 B( 24-C , 25-C ) :   1.3117
B( 24-C , 29-C ) :   1.1596 B( 25-C , 26-C ) :   1.2787 B( 25-C , 28-O ) :   1.2202
B( 26-C , 27-O ) :   1.2790 B( 27-O , 77-H ) :   0.9440 B( 28-O , 78-H ) :   0.9511
B( 29-C , 30-C ) :   1.5636 B( 29-C , 79-H ) :   0.9641 B( 30-C , 31-C ) :   1.1967
B( 30-C , 80-H ) :   0.9702 B( 31-C , 32-C ) :   1.5940 B( 31-C , 81-H ) :   0.9807
B( 32-C , 33-C ) :   1.1624 B( 32-C , 82-H ) :   0.9763 B( 33-C , 34-C ) :   1.5827
B( 33-C , 83-H ) :   0.9773 B( 34-C , 35-C ) :   1.2372 B( 34-C , 84-H ) :   0.9581
B( 35-C , 36-O ) :   1.1066 B( 35-C , 37-C ) :   0.1028 B( 35-C , 39-C ) :   1.3391
B( 36-O , 37-C ) :   1.1226 B( 37-C , 38-C ) :   1.2736 B( 37-C , 42-C ) :   1.1732
B( 38-C , 39-C ) :   1.2638 B( 38-C , 41-O ) :   1.2313 B( 39-C , 40-O ) :   1.2735
B( 40-O , 85-H ) :   0.9530 B( 41-O , 86-H ) :   0.9582 B( 42-C , 43-C ) :   1.5656
B( 42-C , 87-H ) :   0.9649 B( 43-C , 44-C ) :   1.1829 B( 43-C , 88-H ) :   0.9909
B( 44-C , 45-C ) :   1.5448 B( 44-C , 89-H ) :   0.9901 B( 45-C , 46-C ) :   1.1980
B( 45-C , 90-H ) :   0.9743 B( 46-C , 47-C ) :   1.5021 B( 46-C , 91-H ) :   0.9836
B( 47-C , 48-C ) :   1.1772 B( 47-C , 51-S ) :   1.0469 B( 48-C , 49-C ) :   1.5472
B( 48-C , 92-H ) :   0.9994 B( 49-C , 50-C ) :   1.2234 B( 49-C , 93-H ) :   0.9942
B( 50-C , 51-S ) :   1.0474 B( 50-C , 52-C ) :   1.4597 B( 52-C , 53-C ) :   1.2138
B( 52-C , 56-S ) :   1.0541 B( 53-C , 54-C ) :   1.5582 B( 53-C , 94-H ) :   0.9934
B( 54-C , 55-C ) :   1.1748 B( 54-C , 95-H ) :   0.9982 B( 55-C , 56-S ) :   1.0388
B( 55-C , 57-C ) :   1.5269 B( 57-C , 58-C ) :   1.2251 B( 57-C , 96-H ) :   0.9629
B( 58-C , 59-C ) :   1.5348 B( 58-C , 97-H ) :   0.9734 B( 59-C , 60-C ) :   1.2575
B( 59-C , 98-H ) :   0.9391 B( 60-C , 61-O ) :   1.1112 B( 60-C , 62-C ) :   0.1086
B( 60-C , 64-C ) :   1.3535 B( 61-O , 62-C ) :   1.1258 B( 62-C , 63-C ) :   1.3101
B( 62-C , 67-C ) :   1.1310 B( 63-C , 64-C ) :   1.2505 B( 63-C , 66-O ) :   1.2288
B( 64-C , 65-O ) :   1.2621 B( 65-O , 99-H ) :   0.9538 B( 66-O ,100-H ) :   0.9578
B( 67-C , 68-C ) :   1.6862 B( 67-C ,101-H ) :   0.9604 B( 68-C , 69-C ) :   1.1023
B( 68-C ,102-H ) :   0.9860 B( 69-C , 70-C ) :   1.8964 B( 69-C ,103-H ) :   0.9734
B( 70-C ,104-H ) :   0.9582 B( 70-C ,105-H ) :   0.9510

-----------------------------------------------------------------------------
         ABSORPTION SPECTRUM VIA TRANSITION ELECTRIC DIPOLE MOMENTS
-----------------------------------------------------------------------------
State   Energy  Wavelength   fosc         T2         TX        TY        TZ
        (cm-1)    (nm)                  (au**2)     (au)      (au)      (au)
-----------------------------------------------------------------------------
   0    8963.3   1115.7   0.660516952  24.26001  -0.08682  -4.49976   2.00116
   1   13853.3    721.9   1.873274437  44.51694   5.60769  -1.77744  -3.14824
   2   15309.2    653.2   1.351874348  29.07092   4.39441  -2.52568  -1.83877
   3   18506.6    540.3   0.287254488   5.10994   1.84445  -0.82912  -1.01019
   4   19573.4    510.9   0.479575275   8.06615  -2.26363   1.64268   0.49371
   5   20669.2    483.8   0.011722387   0.18671  -0.01338  -0.37034   0.22222
   6   22710.3    440.3   0.018733149   0.27156  -0.26765  -0.07061   0.44151
   7   23228.4    430.5   0.470545984   6.66898  -0.70651   1.84631  -1.66161
   8   24694.8    404.9   0.200766598   2.67646  -0.79370   1.31867  -0.55462
   9   24931.4    401.1   0.113180700   1.49452   0.34939  -0.83026   0.82651
  10   25722.6    388.8   0.064247632   0.82228  -0.66698   0.20355   0.57964
  11   26684.3    374.8   0.024467896   0.30187  -0.01921  -0.13073   0.53330
  12   27184.1    367.9   0.032393181   0.39230   0.05127   0.24313  -0.57494
  13   28110.9    355.7   0.280163893   3.28106  -0.93623   0.18482   1.53960
  14   28326.7    353.0   0.007485612   0.08700  -0.13054   0.01624   0.26400
  15   28669.8    348.8   0.056469915   0.64844   0.46621  -0.55429  -0.35193
  16   29685.8    336.9   0.052193796   0.57882  -0.22949   0.60580  -0.39895
  17   29901.5    334.4   0.149866438   1.65001   0.37960   0.95158  -0.77486
  18   30099.6    332.2   0.018207170   0.19914  -0.35708   0.09519   0.25014
  19   30448.8    328.4   0.017093578   0.18482   0.03582   0.28638  -0.31862
  20   30865.3    324.0   0.043810365   0.46729   0.25922   0.43444  -0.45973
  21   31323.0    319.3   0.004868681   0.05117  -0.11223  -0.06252   0.18619
  22   31769.8    314.8   0.000265104   0.00275  -0.00718  -0.04378  -0.02790
  23   31869.6    313.8   0.024612616   0.25425  -0.03059  -0.42645   0.26731
  24   32423.9    308.4   0.033157310   0.33666  -0.25952  -0.44634   0.26475
  25   32674.3    306.1   0.061789559   0.62256   0.20924   0.66055  -0.37743
  26   32817.9    304.7   0.022685642   0.22757   0.07697   0.11184   0.45732
  27   33583.3    297.8   0.063947093   0.62686   0.19192  -0.36091  -0.67807
  28   33909.8    294.9   0.308901357   2.99896   0.62533   0.28321  -1.58988
  29   34104.3    293.2   0.297503203   2.87183   0.71235   0.57285  -1.42697
  30   34809.3    287.3   0.007483994   0.07078   0.12159  -0.07780  -0.22348
  31   34909.7    286.5   0.170472623   1.60762   0.03864   0.61369  -1.10883
  32   35096.5    284.9   0.006065001   0.05689   0.21496  -0.05123   0.08977
  33   35228.5    283.9   0.013882618   0.12973   0.08584  -0.18183  -0.29884
  34   35657.7    280.4   0.007082159   0.06539  -0.11797   0.11929  -0.19298
  35   35956.7    278.1   0.152497128   1.39623   0.30181   0.63244  -0.95140
  36   36476.1    274.2   0.020724102   0.18704  -0.02906   0.05781   0.42762
  37   36962.4    270.5   0.076197931   0.67867   0.22672   0.60480  -0.51136
  38   37212.0    268.7   0.008231418   0.07282   0.18170   0.07900   0.18321
  39   37246.6    268.5   0.000207125   0.00183   0.00120   0.03683  -0.02175
  40   37504.3    266.6   0.050472174   0.44304  -0.30212   0.32348  -0.49712
  41   37854.3    264.2   0.056827976   0.49422  -0.10068   0.34223  -0.60578
  42   37897.5    263.9   0.004601365   0.03997  -0.09526  -0.06721  -0.16242
  43   38483.3    259.9   0.023020354   0.19693   0.22827  -0.33372   0.18291
  44   38939.7    256.8   0.128266933   1.08442  -0.89306   0.49406  -0.20682
  45   39240.7    254.8   0.086017730   0.72165  -0.25927   0.76687  -0.25757
  46   39542.4    252.9   0.017866111   0.14875   0.00053  -0.36440   0.12634
  47   40164.2    249.0   0.063681510   0.52198  -0.13822  -0.40063   0.58512
  48   40253.3    248.4   0.003088020   0.02526  -0.02140   0.00579  -0.15737

FINAL SINGLE POINT ENERGY     -6742.901254897038

DIPOLE MOMENT
-------------
                                X             Y             Z
Electronic contribution:    176.42479    -163.86299     -97.80185
Nuclear contribution   :   -180.97458     167.99290      97.56940
                        -----------------------------------------
Total Dipole Moment    :     -4.54979       4.12991      -0.23245
                        -----------------------------------------
Magnitude (a.u.)       :      6.14904
Magnitude (Debye)      :     15.62963

Rotational constants in cm-1:     0.000851     0.000176     0.000149
Rotational constants in MHz :    25.521359     5.272988     4.457310

                             ****ORCA TERMINATED NORMALLY****
TOTAL RUN TIME: 0 days 0 hours 9 minutes 58 seconds 367 msec
