                         Program Version 4.2.0 -  RELEASE  -
|  1> # ORCA input file
|  2> # SCF done       -153.737534141553          0.000684478068
|  3> ! CAM-B3LYP def2-SVP def2/J RIJCOSX Grid4 TightSCF
|  4> %maxcore 5000
|  5> %tddft
|  6>     Mode sTDDFT
|  7>     Ethresh 5.0
|  8>     maxcore 5000
|  9> end
| 10>
| 11> %pal
| 12>   nprocs 6
| 13>   end
| 14> * xyz 0 1
| 15>    C       -3.52695        -2.64895        -2.71482
| 16>    C       -3.50089        -3.59870        -1.72327
| 17>    C       -3.01479        -4.90950        -1.89324
| 18>    N       -2.63175        -5.98914        -1.97495
| 19>    C       -3.95694        -3.37655        -0.40923
| 20>    N       -4.31518        -3.23756         0.67303
| 21>    C       -3.05966        -2.83479        -4.08732
| 22>    C       -3.24239        -1.62343        -4.80349
| 23>    C       -2.89811        -1.48323        -6.12559
| 24>    C       -2.34800        -2.59294        -6.77681
| 25>    C       -2.17047        -3.79701        -6.05630
| 26>    C       -2.51744        -3.93784        -4.71668
| 27>    S       -1.47920        -5.04112        -7.05200
| 28>    C       -1.43964        -3.94200        -8.40516
| 29>    C       -1.91785        -2.70597        -8.12716
| 30>   Br       -0.77008        -4.52894       -10.05612
| 31>    C       -3.83948        -0.62944        -3.90328
| 32>    O       -4.14271         0.53127        -4.16965
| 33>    C       -4.01095        -1.29513        -2.61130
| 34>    C       -4.57212        -0.63965        -1.53724
| 35>    N       -4.96998         0.62961        -1.67081
| 36>    C       -5.56023         1.41819        -0.74316
| 37>    S       -5.89264         0.85507         0.86738
| 38>    C       -6.60162         2.39660         1.23006
| 39>    N       -7.09374         2.61654         2.52130
| 40>    O       -7.56167         3.71579         2.76460
| 41>    O       -7.01746         1.69185         3.31098
| 42>    C       -6.58738         3.27324         0.17877
| 43>    C       -5.98517         2.73717        -0.97682
| 44>    C       -5.78934         3.42694        -2.21545
| 45>    C       -6.35016         4.61977        -2.52696
| 46>    C       -6.13963         5.30100        -3.74979
| 47>    S       -5.29416         4.50985        -5.05834
| 48>    C       -5.61598         5.83046        -6.10896
| 49>    C       -6.32412         6.82626        -5.52232
| 50>    C       -6.71637         8.08248        -6.22712
| 51>    C       -6.61884         6.55428        -4.14472
| 52>    C       -7.31396         7.50450        -3.34051
| 53>    C       -7.27121         7.65478        -1.98702
| 54>    C       -8.03229         8.62596        -1.30775
| 55>    C       -7.98043         8.80107         0.05110
| 56>    C       -8.68217         9.72467         0.83548
| 57>    C       -9.73492        10.60117         0.51599
| 58>    C      -10.52856        10.73909        -0.64012
| 59>    C      -11.53004        11.66697        -0.67151
| 60>    C      -11.81424        12.47644         0.44941
| 61>    C      -11.09127        12.35790         1.59952
| 62>    C      -10.02631        11.43411         1.66072
| 63>    C       -9.17628        11.08971         2.71703
| 64>    C       -8.35415         9.96607         2.25580
| 65>    C       -7.46456         9.28654         2.98872
| 66>    C       -9.08553        11.72130         3.98271
| 67>    O       -8.52677        11.04123         5.04765
| 68>    C       -8.58092        11.90422         6.06395
| 69>    C       -8.32288        12.27572         7.49483
| 70>    C       -8.94017        13.66378         7.11298
| 71>    C       -9.12382        13.10646         5.71394
| 72>    C       -9.46437        13.01932         4.36196
| 73>    H       -3.04956        -0.54873        -6.64271
| 74>    H       -2.36238        -4.87702        -4.21263
| 75>    H       -1.96640        -1.90617        -8.84337
| 76>    H       -4.71513        -1.11180        -0.57415
| 77>    H       -4.80708         1.01465        -2.62125
| 78>    H       -6.98875         4.26602         0.26397
| 79>    H       -5.13707         2.96495        -2.94448
| 80>    H       -7.03546         5.08564        -1.83573
| 81>    H       -5.25223         5.79309        -7.11747
| 82>    H       -6.33356         8.07772        -7.24440
| 83>    H       -6.31775         8.95234        -5.70667
| 84>    H       -7.80152         8.17590        -6.26661
| 85>    H       -7.91099         8.21904        -3.89356
| 86>    H       -6.60675         7.04311        -1.39249
| 87>    H       -8.66060         9.25851        -1.91448
| 88>    H       -7.28146         8.16605         0.58267
| 89>    H      -10.37583        10.09521        -1.49040
| 90>    H      -12.14106        11.77164        -1.55625
| 91>    H      -12.63563        13.17556         0.39271
| 92>    H      -11.35443        12.93533         2.47080
| 93>    H       -7.28843         9.52082         4.02293
| 94>    H       -6.90241         8.46085         2.58676
| 95>    H       -7.27404        12.30156         7.78608
| 96>    H       -8.88950        11.70653         8.22991
| 97>    H       -8.24822        14.49981         7.18215
| 98>    H       -9.86465        13.90564         7.63194
| 99>    H       -9.86436        13.76902         3.71225
|100> *
|101>
|102>                          ****END OF INPUT****

CARTESIAN COORDINATES (ANGSTROEM)
---------------------------------
  C     -3.526950   -2.648950   -2.714820
  C     -3.500890   -3.598700   -1.723270
  C     -3.014790   -4.909500   -1.893240
  N     -2.631750   -5.989140   -1.974950
  C     -3.956940   -3.376550   -0.409230
  N     -4.315180   -3.237560    0.673030
  C     -3.059660   -2.834790   -4.087320
  C     -3.242390   -1.623430   -4.803490
  C     -2.898110   -1.483230   -6.125590
  C     -2.348000   -2.592940   -6.776810
  C     -2.170470   -3.797010   -6.056300
  C     -2.517440   -3.937840   -4.716680
  S     -1.479200   -5.041120   -7.052000
  C     -1.439640   -3.942000   -8.405160
  C     -1.917850   -2.705970   -8.127160
  Br    -0.770080   -4.528940  -10.056120
  C     -3.839480   -0.629440   -3.903280
  O     -4.142710    0.531270   -4.169650
  C     -4.010950   -1.295130   -2.611300
  C     -4.572120   -0.639650   -1.537240
  N     -4.969980    0.629610   -1.670810
  C     -5.560230    1.418190   -0.743160
  S     -5.892640    0.855070    0.867380
  C     -6.601620    2.396600    1.230060
  N     -7.093740    2.616540    2.521300
  O     -7.561670    3.715790    2.764600
  O     -7.017460    1.691850    3.310980
  C     -6.587380    3.273240    0.178770
  C     -5.985170    2.737170   -0.976820
  C     -5.789340    3.426940   -2.215450
  C     -6.350160    4.619770   -2.526960
  C     -6.139630    5.301000   -3.749790
  S     -5.294160    4.509850   -5.058340
  C     -5.615980    5.830460   -6.108960
  C     -6.324120    6.826260   -5.522320
  C     -6.716370    8.082480   -6.227120
  C     -6.618840    6.554280   -4.144720
  C     -7.313960    7.504500   -3.340510
  C     -7.271210    7.654780   -1.987020
  C     -8.032290    8.625960   -1.307750
  C     -7.980430    8.801070    0.051100
  C     -8.682170    9.724670    0.835480
  C     -9.734920   10.601170    0.515990
  C    -10.528560   10.739090   -0.640120
  C    -11.530040   11.666970   -0.671510
  C    -11.814240   12.476440    0.449410
  C    -11.091270   12.357900    1.599520
  C    -10.026310   11.434110    1.660720
  C     -9.176280   11.089710    2.717030
  C     -8.354150    9.966070    2.255800
  C     -7.464560    9.286540    2.988720
  C     -9.085530   11.721300    3.982710
  O     -8.526770   11.041230    5.047650
  C     -8.580920   11.904220    6.063950
  C     -8.322880   12.275720    7.494830
  C     -8.940170   13.663780    7.112980
  C     -9.123820   13.106460    5.713940
  C     -9.464370   13.019320    4.361960
  H     -3.049560   -0.548730   -6.642710
  H     -2.362380   -4.877020   -4.212630
  H     -1.966400   -1.906170   -8.843370
  H     -4.715130   -1.111800   -0.574150
  H     -4.807080    1.014650   -2.621250
  H     -6.988750    4.266020    0.263970
  H     -5.137070    2.964950   -2.944480
  H     -7.035460    5.085640   -1.835730
  H     -5.252230    5.793090   -7.117470
  H     -6.333560    8.077720   -7.244400
  H     -6.317750    8.952340   -5.706670
  H     -7.801520    8.175900   -6.266610
  H     -7.910990    8.219040   -3.893560
  H     -6.606750    7.043110   -1.392490
  H     -8.660600    9.258510   -1.914480
  H     -7.281460    8.166050    0.582670
  H    -10.375830   10.095210   -1.490400
  H    -12.141060   11.771640   -1.556250
  H    -12.635630   13.175560    0.392710
  H    -11.354430   12.935330    2.470800
  H     -7.288430    9.520820    4.022930
  H     -6.902410    8.460850    2.586760
  H     -7.274040   12.301560    7.786080
  H     -8.889500   11.706530    8.229910
  H     -8.248220   14.499810    7.182150
  H     -9.864650   13.905640    7.631940
  H     -9.864360   13.769020    3.712250

 Total Charge           Charge          ....    0
 Multiplicity           Mult            ....    1
 Number of Electrons    NEL             ....  446
 Basis Dimension        Dim             ....  977

ORBITAL ENERGIES
----------------

  NO   OCC          E(Eh)            E(eV)
   0   2.0000    -482.887894    -13140.0476
   1   2.0000     -88.986447     -2421.4443
   2   2.0000     -88.978705     -2421.2337
   3   2.0000     -88.944148     -2420.2933
   4   2.0000     -62.565582     -1702.4960
   5   2.0000     -56.399537     -1534.7094
   6   2.0000     -56.396814     -1534.6353
   7   2.0000     -56.396781     -1534.6344
   8   2.0000     -19.290087      -524.9099
   9   2.0000     -19.237241      -523.4719
  10   2.0000     -19.235574      -523.4266
  11   2.0000     -19.232301      -523.3375
  12   2.0000     -14.648131      -398.5959
  13   2.0000     -14.494358      -394.4115
  14   2.0000     -14.418458      -392.3462
  15   2.0000     -14.414395      -392.2356
  16   2.0000     -10.378712      -282.4191
  17   2.0000     -10.368828      -282.1502
  18   2.0000     -10.366171      -282.0779
  19   2.0000     -10.361539      -281.9518
  20   2.0000     -10.345886      -281.5259
  21   2.0000     -10.345077      -281.5038
  22   2.0000     -10.341042      -281.3941
  23   2.0000     -10.328573      -281.0548
  24   2.0000     -10.326041      -280.9858
  25   2.0000     -10.320871      -280.8452
  26   2.0000     -10.317723      -280.7595
  27   2.0000     -10.311859      -280.6000
  28   2.0000     -10.310568      -280.5648
  29   2.0000     -10.308790      -280.5164
  30   2.0000     -10.308271      -280.5023
  31   2.0000     -10.307969      -280.4941
  32   2.0000     -10.306333      -280.4496
  33   2.0000     -10.303824      -280.3813
  34   2.0000     -10.299606      -280.2665
  35   2.0000     -10.298024      -280.2235
  36   2.0000     -10.297807      -280.2176
  37   2.0000     -10.292812      -280.0817
  38   2.0000     -10.290268      -280.0124
  39   2.0000     -10.289841      -280.0008
  40   2.0000     -10.286430      -279.9080
  41   2.0000     -10.284926      -279.8671
  42   2.0000     -10.284517      -279.8559
  43   2.0000     -10.282863      -279.8109
  44   2.0000     -10.282147      -279.7914
  45   2.0000     -10.277687      -279.6701
  46   2.0000     -10.275765      -279.6178
  47   2.0000     -10.271899      -279.5126
  48   2.0000     -10.271245      -279.4948
  49   2.0000     -10.269903      -279.4583
  50   2.0000     -10.269840      -279.4566
  51   2.0000     -10.269656      -279.4515
  52   2.0000     -10.269586      -279.4496
  53   2.0000     -10.269501      -279.4473
  54   2.0000     -10.268473      -279.4194
  55   2.0000     -10.267694      -279.3981
  56   2.0000     -10.266864      -279.3756
  57   2.0000     -10.265643      -279.3423
  58   2.0000     -10.265421      -279.3363
  59   2.0000     -10.263605      -279.2869
  60   2.0000     -10.259748      -279.1819
  61   2.0000     -10.253917      -279.0233
  62   2.0000      -8.795005      -239.3243
  63   2.0000      -8.081570      -219.9107
  64   2.0000      -8.074641      -219.7222
  65   2.0000      -8.040001      -218.7796
  66   2.0000      -6.631301      -180.4469
  67   2.0000      -6.616736      -180.0505
  68   2.0000      -6.616541      -180.0452
  69   2.0000      -6.051225      -164.6622
  70   2.0000      -6.046905      -164.5447
  71   2.0000      -6.044297      -164.4737
  72   2.0000      -6.043023      -164.4390
  73   2.0000      -6.040047      -164.3580
  74   2.0000      -6.035912      -164.2455
  75   2.0000      -6.009327      -163.5221
  76   2.0000      -6.005095      -163.4069
  77   2.0000      -6.002139      -163.3265
  78   2.0000      -2.747209       -74.7553
  79   2.0000      -2.743057       -74.6424
  80   2.0000      -2.742927       -74.6388
  81   2.0000      -2.731349       -74.3238
  82   2.0000      -2.731331       -74.3233
  83   2.0000      -1.317134       -35.8410
  84   2.0000      -1.199704       -32.6456
  85   2.0000      -1.146907       -31.2089
  86   2.0000      -1.135820       -30.9072
  87   2.0000      -1.101512       -29.9737
  88   2.0000      -1.025985       -27.9185
  89   2.0000      -1.015306       -27.6279
  90   2.0000      -1.007069       -27.4037
  91   2.0000      -0.995704       -27.0945
  92   2.0000      -0.992003       -26.9938
  93   2.0000      -0.977828       -26.6081
  94   2.0000      -0.976712       -26.5777
  95   2.0000      -0.955525       -26.0012
  96   2.0000      -0.944770       -25.7085
  97   2.0000      -0.920556       -25.0496
  98   2.0000      -0.917796       -24.9745
  99   2.0000      -0.911548       -24.8045
 100   2.0000      -0.902317       -24.5533
 101   2.0000      -0.900962       -24.5164
 102   2.0000      -0.889142       -24.1948
 103   2.0000      -0.882733       -24.0204
 104   2.0000      -0.880249       -23.9528
 105   2.0000      -0.864751       -23.5311
 106   2.0000      -0.857906       -23.3448
 107   2.0000      -0.850980       -23.1564
 108   2.0000      -0.842081       -22.9142
 109   2.0000      -0.839798       -22.8521
 110   2.0000      -0.832889       -22.6641
 111   2.0000      -0.826571       -22.4921
 112   2.0000      -0.809778       -22.0352
 113   2.0000      -0.797328       -21.6964
 114   2.0000      -0.789098       -21.4724
 115   2.0000      -0.767114       -20.8742
 116   2.0000      -0.763312       -20.7708
 117   2.0000      -0.750448       -20.4207
 118   2.0000      -0.744495       -20.2587
 119   2.0000      -0.743958       -20.2441
 120   2.0000      -0.731750       -19.9119
 121   2.0000      -0.726721       -19.7751
 122   2.0000      -0.716918       -19.5083
 123   2.0000      -0.701997       -19.1023
 124   2.0000      -0.692889       -18.8545
 125   2.0000      -0.691245       -18.8097
 126   2.0000      -0.679974       -18.5030
 127   2.0000      -0.675731       -18.3876
 128   2.0000      -0.662724       -18.0336
 129   2.0000      -0.661063       -17.9884
 130   2.0000      -0.653642       -17.7865
 131   2.0000      -0.650731       -17.7073
 132   2.0000      -0.641147       -17.4465
 133   2.0000      -0.635074       -17.2813
 134   2.0000      -0.633140       -17.2286
 135   2.0000      -0.629191       -17.1211
 136   2.0000      -0.624383       -16.9903
 137   2.0000      -0.621457       -16.9107
 138   2.0000      -0.614493       -16.7212
 139   2.0000      -0.608816       -16.5667
 140   2.0000      -0.604287       -16.4435
 141   2.0000      -0.602257       -16.3882
 142   2.0000      -0.595090       -16.1932
 143   2.0000      -0.588944       -16.0260
 144   2.0000      -0.581548       -15.8247
 145   2.0000      -0.575259       -15.6536
 146   2.0000      -0.571686       -15.5564
 147   2.0000      -0.565233       -15.3808
 148   2.0000      -0.562641       -15.3102
 149   2.0000      -0.557738       -15.1768
 150   2.0000      -0.557553       -15.1718
 151   2.0000      -0.550062       -14.9680
 152   2.0000      -0.549585       -14.9550
 153   2.0000      -0.543790       -14.7973
 154   2.0000      -0.540069       -14.6960
 155   2.0000      -0.538317       -14.6484
 156   2.0000      -0.534438       -14.5428
 157   2.0000      -0.534019       -14.5314
 158   2.0000      -0.527093       -14.3429
 159   2.0000      -0.523624       -14.2485
 160   2.0000      -0.520852       -14.1731
 161   2.0000      -0.512559       -13.9474
 162   2.0000      -0.511116       -13.9082
 163   2.0000      -0.507592       -13.8123
 164   2.0000      -0.505397       -13.7525
 165   2.0000      -0.501647       -13.6505
 166   2.0000      -0.499142       -13.5823
 167   2.0000      -0.498883       -13.5753
 168   2.0000      -0.496479       -13.5099
 169   2.0000      -0.489716       -13.3259
 170   2.0000      -0.487197       -13.2573
 171   2.0000      -0.484960       -13.1964
 172   2.0000      -0.480214       -13.0673
 173   2.0000      -0.479257       -13.0413
 174   2.0000      -0.473402       -12.8819
 175   2.0000      -0.468696       -12.7539
 176   2.0000      -0.467483       -12.7209
 177   2.0000      -0.462306       -12.5800
 178   2.0000      -0.459613       -12.5067
 179   2.0000      -0.455713       -12.4006
 180   2.0000      -0.451656       -12.2902
 181   2.0000      -0.451286       -12.2801
 182   2.0000      -0.450980       -12.2718
 183   2.0000      -0.450404       -12.2561
 184   2.0000      -0.449526       -12.2322
 185   2.0000      -0.446741       -12.1564
 186   2.0000      -0.444596       -12.0981
 187   2.0000      -0.441986       -12.0270
 188   2.0000      -0.441451       -12.0125
 189   2.0000      -0.436242       -11.8708
 190   2.0000      -0.433446       -11.7947
 191   2.0000      -0.428463       -11.6591
 192   2.0000      -0.428080       -11.6486
 193   2.0000      -0.424447       -11.5498
 194   2.0000      -0.418236       -11.3808
 195   2.0000      -0.414431       -11.2772
 196   2.0000      -0.411269       -11.1912
 197   2.0000      -0.410839       -11.1795
 198   2.0000      -0.403531       -10.9806
 199   2.0000      -0.401180       -10.9167
 200   2.0000      -0.398258       -10.8372
 201   2.0000      -0.393241       -10.7006
 202   2.0000      -0.391329       -10.6486
 203   2.0000      -0.387991       -10.5578
 204   2.0000      -0.384347       -10.4586
 205   2.0000      -0.377243       -10.2653
 206   2.0000      -0.375977       -10.2309
 207   2.0000      -0.373225       -10.1560
 208   2.0000      -0.367601       -10.0029
 209   2.0000      -0.365057        -9.9337
 210   2.0000      -0.355309        -9.6684
 211   2.0000      -0.347048        -9.4436
 212   2.0000      -0.342940        -9.3319
 213   2.0000      -0.338036        -9.1984
 214   2.0000      -0.326880        -8.8949
 215   2.0000      -0.320676        -8.7260
 216   2.0000      -0.317349        -8.6355
 217   2.0000      -0.298575        -8.1246
 218   2.0000      -0.297729        -8.1016
 219   2.0000      -0.291408        -7.9296
 220   2.0000      -0.275926        -7.5083
 221   2.0000      -0.248964        -6.7747
 222   2.0000      -0.199996        -5.4422
 223   0.0000      -0.089352        -2.4314
 224   0.0000      -0.082573        -2.2469
 225   0.0000      -0.068992        -1.8774
 226   0.0000      -0.044001        -1.1973
 227   0.0000      -0.029681        -0.8077

MULLIKEN ATOMIC CHARGES
-----------------------
   0 C :    0.330816
   1 C :   -0.347192
   2 C :   -0.184560
   3 N :    0.149425
   4 C :   -0.195774
   5 N :    0.143574
   6 C :    0.009677
   7 C :   -0.002624
   8 C :   -0.072437
   9 C :    0.118349
  10 C :   -0.091170
  11 C :   -0.022399
  12 S :    0.190483
  13 C :   -0.124143
  14 C :    0.037765
  15 Br:    0.025828
  16 C :    0.166307
  17 O :   -0.222513
  18 C :   -0.135775
  19 C :    0.028401
  20 N :   -0.002752
  21 C :   -0.135167
  22 S :    0.174184
  23 C :    0.002849
  24 N :    0.273780
  25 O :   -0.253426
  26 O :   -0.255434
  27 C :    0.001332
  28 C :    0.156495
  29 C :   -0.083793
  30 C :    0.015026
  31 C :   -0.145346
  32 S :    0.091294
  33 C :   -0.113034
  34 C :   -0.081838
  35 C :    0.119930
  36 C :    0.159808
  37 C :   -0.075873
  38 C :    0.020799
  39 C :   -0.022297
  40 C :   -0.021648
  41 C :    0.093393
  42 C :    0.036315
  43 C :   -0.026500
  44 C :    0.030013
  45 C :    0.022747
  46 C :   -0.019103
  47 C :    0.016198
  48 C :    0.120492
  49 C :   -0.006928
  50 C :   -0.006270
  51 C :    0.067258
  52 O :   -0.202309
  53 C :   -0.031763
  54 C :    0.143618
  55 C :    0.137001
  56 C :   -0.078655
  57 C :   -0.151944
  58 H :   -0.010744
  59 H :   -0.005241
  60 H :   -0.002764
  61 H :    0.045974
  62 H :    0.187137
  63 H :    0.008825
  64 H :    0.005472
  65 H :   -0.006091
  66 H :    0.011612
  67 H :    0.005473
  68 H :    0.029737
  69 H :    0.030224
  70 H :   -0.024775
  71 H :   -0.014427
  72 H :   -0.024762
  73 H :   -0.042304
  74 H :   -0.032450
  75 H :   -0.015785
  76 H :   -0.015508
  77 H :   -0.033648
  78 H :    0.041938
  79 H :    0.027379
  80 H :    0.021080
  81 H :    0.022381
  82 H :    0.017063
  83 H :    0.016791
  84 H :   -0.013079
Sum of atomic charges:   -0.0000000

LOEWDIN ATOMIC CHARGES
----------------------
   0 C :    0.078981
   1 C :   -0.150946
   2 C :   -0.019854
   3 N :   -0.055935
   4 C :   -0.020657
   5 N :   -0.054636
   6 C :   -0.017785
   7 C :   -0.050709
   8 C :    0.023713
   9 C :   -0.034375
  10 C :   -0.144046
  11 C :   -0.007808
  12 S :    0.436647
  13 C :   -0.271712
  14 C :   -0.070225
  15 Br:    0.137955
  16 C :    0.095889
  17 O :   -0.175921
  18 C :   -0.148923
  19 C :    0.111432
  20 N :    0.084618
  21 C :   -0.122088
  22 S :    0.465520
  23 C :   -0.200206
  24 N :    0.273967
  25 O :   -0.219694
  26 O :   -0.222700
  27 C :    0.001511
  28 C :   -0.076165
  29 C :   -0.058492
  30 C :   -0.019114
  31 C :   -0.176277
  32 S :    0.422981
  33 C :   -0.185840
  34 C :   -0.059654
  35 C :   -0.045236
  36 C :   -0.048337
  37 C :   -0.046220
  38 C :   -0.015747
  39 C :   -0.045374
  40 C :   -0.014878
  41 C :   -0.049038
  42 C :   -0.004778
  43 C :   -0.019695
  44 C :   -0.017383
  45 C :   -0.026859
  46 C :   -0.014224
  47 C :   -0.016810
  48 C :   -0.034680
  49 C :   -0.004840
  50 C :    0.056713
  51 C :    0.041227
  52 O :    0.010299
  53 C :   -0.002736
  54 C :   -0.003926
  55 C :    0.005177
  56 C :   -0.082133
  57 C :   -0.062693
  58 H :    0.041377
  59 H :    0.041955
  60 H :    0.038902
  61 H :    0.036354
  62 H :    0.086471
  63 H :    0.043713
  64 H :    0.020768
  65 H :    0.033088
  66 H :    0.020619
  67 H :    0.032002
  68 H :    0.036000
  69 H :    0.034453
  70 H :    0.025620
  71 H :    0.023795
  72 H :    0.022140
  73 H :    0.023882
  74 H :    0.026068
  75 H :    0.028231
  76 H :    0.027923
  77 H :    0.026611
  78 H :    0.030883
  79 H :    0.029318
  80 H :    0.029711
  81 H :    0.030692
  82 H :    0.027706
  83 H :    0.027687
  84 H :    0.026752

  Mayer bond orders larger than 0.100000
B(  0-C ,  1-C ) :   1.6202 B(  0-C ,  6-C ) :   0.9997 B(  0-C , 18-C ) :   1.1052
B(  1-C ,  2-C ) :   1.1454 B(  1-C ,  4-C ) :   1.1497 B(  2-C ,  3-N ) :   2.9667
B(  4-C ,  5-N ) :   2.9542 B(  6-C ,  7-C ) :   1.2738 B(  6-C , 11-C ) :   1.4285
B(  7-C ,  8-C ) :   1.4241 B(  7-C , 16-C ) :   0.9808 B(  8-C ,  9-C ) :   1.2400
B(  8-C , 58-H ) :   1.0184 B(  9-C , 10-C ) :   1.3128 B(  9-C , 14-C ) :   1.1619
B( 10-C , 11-C ) :   1.3161 B( 10-C , 12-S ) :   1.0898 B( 11-C , 59-H ) :   0.9798
B( 12-S , 13-C ) :   1.0885 B( 13-C , 14-C ) :   1.6171 B( 13-C , 15-Br) :   1.0206
B( 14-C , 60-H ) :   1.0008 B( 16-C , 17-O ) :   2.0288 B( 16-C , 18-C ) :   1.0096
B( 17-O , 62-H ) :   0.1428 B( 18-C , 19-C ) :   1.4344 B( 19-C , 20-N ) :   1.3537
B( 19-C , 61-H ) :   0.9315 B( 20-N , 21-C ) :   1.1951 B( 20-N , 62-H ) :   0.8193
B( 21-C , 22-S ) :   1.1256 B( 21-C , 28-C ) :   1.3661 B( 22-S , 23-C ) :   1.0834
B( 23-C , 24-N ) :   0.9680 B( 23-C , 27-C ) :   1.4964 B( 24-N , 25-O ) :   1.5288
B( 24-N , 26-O ) :   1.5172 B( 25-O , 26-O ) :   0.2610 B( 27-C , 28-C ) :   1.2178
B( 27-C , 63-H ) :   0.9984 B( 28-C , 29-C ) :   1.0828 B( 29-C , 30-C ) :   1.6864
B( 29-C , 64-H ) :   0.9644 B( 30-C , 31-C ) :   1.1692 B( 30-C , 65-H ) :   0.9650
B( 31-C , 32-S ) :   1.1151 B( 31-C , 36-C ) :   1.4190 B( 32-S , 33-C ) :   1.1338
B( 33-C , 34-C ) :   1.6118 B( 33-C , 66-H ) :   0.9648 B( 34-C , 35-C ) :   1.0976
B( 34-C , 36-C ) :   1.2117 B( 35-C , 67-H ) :   0.9502 B( 35-C , 68-H ) :   0.9439
B( 35-C , 69-H ) :   0.9400 B( 36-C , 37-C ) :   1.1040 B( 37-C , 38-C ) :   1.6148
B( 37-C , 70-H ) :   0.9587 B( 38-C , 39-C ) :   1.1660 B( 38-C , 71-H ) :   0.9840
B( 39-C , 40-C ) :   1.5471 B( 39-C , 72-H ) :   0.9928 B( 40-C , 41-C ) :   1.2030
B( 40-C , 73-H ) :   0.9606 B( 41-C , 42-C ) :   1.3615 B( 41-C , 49-C ) :   1.0026
B( 42-C , 43-C ) :   1.1754 B( 42-C , 47-C ) :   1.1533 B( 43-C , 44-C ) :   1.5716
B( 43-C , 74-H ) :   0.9930 B( 44-C , 45-C ) :   1.1779 B( 44-C , 75-H ) :   0.9826
B( 45-C , 46-C ) :   1.5734 B( 45-C , 76-H ) :   0.9845 B( 46-C , 47-C ) :   1.1691
B( 46-C , 77-H ) :   0.9896 B( 47-C , 48-C ) :   1.4277 B( 48-C , 49-C ) :   1.0321
B( 48-C , 51-C ) :   1.0824 B( 49-C , 50-C ) :   1.8990 B( 50-C , 78-H ) :   0.9182
B( 50-C , 79-H ) :   0.9284 B( 51-C , 52-O ) :   1.1035 B( 51-C , 57-C ) :   1.4689
B( 52-O , 53-C ) :   1.1593 B( 53-C , 54-C ) :   1.1339 B( 53-C , 56-C ) :   1.5694
B( 54-C , 55-C ) :   1.2012 B( 54-C , 80-H ) :   0.8861 B( 54-C , 81-H ) :   0.8839
B( 55-C , 56-C ) :   1.0827 B( 55-C , 82-H ) :   0.8962 B( 55-C , 83-H ) :   0.8941
B( 56-C , 57-C ) :   1.2429 B( 57-C , 84-H ) :   1.0116

-----------------------------------------------------------------------------
         ABSORPTION SPECTRUM VIA TRANSITION ELECTRIC DIPOLE MOMENTS
-----------------------------------------------------------------------------
State   Energy  Wavelength   fosc         T2         TX        TY        TZ
        (cm-1)    (nm)                  (au**2)     (au)      (au)      (au)
-----------------------------------------------------------------------------
   0    8808.3   1135.3   0.314822076  11.76652   0.88045  -2.26877  -2.41744
   1   13775.1    725.9   0.204429623   4.88567  -0.89578   1.95790   0.49988
   2   18674.1    535.5   0.019734366   0.34790   0.15413  -0.56285   0.08571
   3   19339.4    517.1   0.410541551   6.98861  -1.01665   2.25577   0.93087
   4   20233.0    494.2   0.558007503   9.07938   1.31429  -2.66789  -0.48415
   5   21930.4    456.0   0.044409317   0.66666  -0.24078   0.27423  -0.73040
   6   24067.9    415.5   0.021015153   0.28746  -0.11329   0.48659  -0.19456
   7   24985.0    400.2   0.183679275   2.42022   0.52046  -0.99346  -1.07814
   8   25981.3    384.9   0.037258326   0.47211  -0.58442  -0.09588   0.34837
   9   27470.6    364.0   0.211628700   2.53619   0.84493  -1.24307  -0.52636
  10   28489.7    351.0   0.152436035   1.76147   0.30122  -0.30224  -1.25674
  11   28929.2    345.7   0.151956498   1.72925   0.20351   0.65200  -1.12372
  12   29495.0    339.0   0.353421838   3.94476  -0.70029   0.44170   1.80534
  13   30058.8    332.7   0.051472945   0.56375  -0.28795   0.29378   0.62811
  14   30292.7    330.1   0.040356354   0.43858   0.14011   0.22885  -0.60546
  15   31096.7    321.6   0.488676505   5.17347  -0.73507   0.57573   2.07405
  16   31736.9    315.1   0.604519998   6.27077  -0.81449   0.23909   2.35589
  17   32829.6    304.6   0.255433304   2.56146  -0.12582   0.70986   1.42889
  18   33175.9    301.4   0.103600151   1.02805  -0.02093   0.67813  -0.75349
  19   33632.8    297.3   0.000348181   0.00341  -0.01141   0.00999   0.05638
  20   33955.1    294.5   0.038176632   0.37014   0.37884  -0.46302   0.11061
  21   34037.6    293.8   0.049781460   0.48149  -0.34232   0.24985   0.54944
  22   34213.6    292.3   0.431644731   4.15339   0.35444   0.73693  -1.86673
  23   34243.0    292.0   0.074516496   0.71640   0.10859   0.33559  -0.76941
  24   34534.5    289.6   0.080567675   0.76804   0.22636   0.10173  -0.84051
  25   35005.9    285.7   0.025962408   0.24416   0.06947  -0.40752  -0.27067
  26   35542.0    281.4   0.069321594   0.64210   0.11872  -0.55794  -0.56277
  27   35920.5    278.4   0.000041903   0.00038  -0.00099  -0.01891  -0.00506
  28   36683.7    272.6   0.116555440   1.04601   0.66707  -0.10993   0.76743
  29   36844.0    271.4   0.011841185   0.10580  -0.32427   0.02002   0.01581
  30   37333.8    267.9   0.581146522   5.12459  -1.42956   0.48813  -1.68602
  31   37975.4    263.3   0.071089508   0.61628  -0.38609   0.44401   0.51968
  32   38259.6    261.4   0.125747273   1.08202   0.36438  -0.90554  -0.35950
  33   39211.6    255.0   0.008691213   0.07297   0.01173   0.03820  -0.26716
  34   39490.3    253.2   0.054421201   0.45368   0.30892  -0.27453   0.53187
  35   39639.3    252.3   0.048510524   0.40289   0.44019  -0.43254   0.14843
  36   40217.6    248.6   0.047052392   0.38516  -0.18182   0.57241   0.15635

FINAL SINGLE POINT ENERGY     -6054.061434733391

DIPOLE MOMENT
-------------
                                X             Y             Z
Electronic contribution:     87.66900    -176.67034    -109.57877
Nuclear contribution   :    -87.51738     179.68763     107.41776
                        -----------------------------------------
Total Dipole Moment    :      0.15162       3.01729      -2.16102
                        -----------------------------------------
Magnitude (a.u.)       :      3.71443
Magnitude (Debye)      :      9.44133

Rotational constants in cm-1:     0.002213     0.000321     0.000286
Rotational constants in MHz :    66.339784     9.621095     8.563923

                             ****ORCA TERMINATED NORMALLY****
TOTAL RUN TIME: 0 days 0 hours 10 minutes 41 seconds 549 msec
