                         Program Version 4.2.0 -  RELEASE  -
|  1> # ORCA input file
|  2> # SCF done       -210.594931485099          0.000872625447
|  3> ! CAM-B3LYP def2-SVP def2/J RIJCOSX Grid4 TightSCF
|  4> %maxcore 5000
|  5> %tddft
|  6>     Mode sTDDFT
|  7>     Ethresh 5.0
|  8>     maxcore 5000
|  9> end
| 10>
| 11> %pal
| 12>   nprocs 6
| 13>   end
| 14> * xyz 0 1
| 15>    C      -14.77771         5.68171        -1.70456
| 16>    C      -15.61414         4.90883        -0.94344
| 17>    C      -16.96953         5.21095        -0.69640
| 18>    N      -18.07523         5.40779        -0.46157
| 19>    C      -15.21683         3.71408        -0.30857
| 20>    N      -14.92625         2.73976         0.22395
| 21>    C      -15.13369         6.92406        -2.38305
| 22>    C      -13.99254         7.41978        -3.06950
| 23>    C      -14.02390         8.56578        -3.82838
| 24>    C      -15.23176         9.26460        -3.90128
| 25>    C      -16.35880         8.78004        -3.19206
| 26>    C      -16.33088         7.61247        -2.43755
| 27>    S      -17.73459         9.81682        -3.40202
| 28>    C      -16.79305        10.86479        -4.43473
| 29>    C      -15.51332        10.46115        -4.61176
| 30>   Br      -17.57828        12.39917        -5.16944
| 31>    C      -12.86472         6.52213        -2.82382
| 32>    O      -11.70840         6.64224        -3.22169
| 33>    C      -13.37973         5.42961        -1.98575
| 34>    C      -12.57722         4.38700        -1.59998
| 35>    N      -11.28747         4.37786        -1.97136
| 36>    C      -10.35007         3.44047        -1.71282
| 37>    S      -10.71204         1.97085        -0.87025
| 38>    C       -9.05337         1.48808        -1.04892
| 39>    N       -8.67257         0.24804        -0.50654
| 40>    O       -7.51104        -0.08438        -0.63029
| 41>    O       -9.54442        -0.39385         0.04693
| 42>    C       -8.27790         2.39631        -1.71166
| 43>    C       -9.00131         3.54220        -2.10608
| 44>    C       -8.47877         4.68318        -2.78430
| 45>    C       -7.21576         4.83977        -3.25523
| 46>    C       -6.80658         6.03281        -3.89353
| 47>    S       -7.86471         7.40666        -4.02432
| 48>    C       -6.67645         8.36437        -4.88282
| 49>    C       -5.50547         7.61898        -5.04322
| 50>    C       -5.56782         6.31703        -4.47608
| 51>    C       -4.35450         5.60707        -4.62259
| 52>    C       -3.41511         6.35549        -5.26541
| 53>    C       -2.02662         5.99981        -5.58097
| 54>    O       -1.22879         6.76300        -6.06140
| 55>    O       -1.75380         4.72580        -5.26113
| 56>    C       -0.42408         4.29963        -5.52994
| 57>    S       -3.96934         7.94734        -5.74664
| 58>    C       -7.01963         9.67386        -5.26657
| 59>    C       -6.21247        10.52200        -6.07414
| 60>    C       -6.66282        11.83234        -6.47125
| 61>    N       -5.86137        12.60816        -7.21871
| 62>    C       -4.70537        12.14467        -7.61880
| 63>    C       -4.28223        10.82208        -7.27618
| 64>    N       -5.03057        10.07045        -6.49963
| 65>    C       -3.05161        10.32911        -7.77566
| 66>    N       -2.05779         9.98764        -8.23110
| 67>    C       -3.85844        12.98112        -8.39334
| 68>    N       -3.15494        13.63064        -9.02039
| 69>    C       -7.94689        12.33522        -6.14822
| 70>    C       -8.72506        11.51759        -5.29941
| 71>    C       -8.26475        10.22290        -4.87331
| 72>    N       -9.14491         9.61749        -4.08260
| 73>    S      -10.41909        10.57058        -3.87424
| 74>    N       -9.92118        11.80314        -4.78035
| 75>    C       -8.34672        13.60738        -6.64056
| 76>    C       -9.60114        14.11216        -6.80409
| 77>    C      -10.90158        13.49007        -6.79338
| 78>    C      -11.18069        12.18791        -7.13057
| 79>    C      -12.45455        11.60801        -7.03062
| 80>    N      -13.45703        11.06176        -6.89413
| 81>    C      -10.21910        11.27786        -7.60922
| 82>    N       -9.47799        10.49959        -8.01418
| 83>    C      -11.88795        14.53652        -6.56383
| 84>    C      -11.24262        15.79641        -6.65575
| 85>    C       -9.79805        15.58736        -6.89551
| 86>    O       -8.94814        16.42595        -7.07487
| 87>    C      -11.92150        16.98215        -6.51827
| 88>    C      -13.29727        16.92299        -6.26571
| 89>    C      -13.92988        15.66016        -6.16442
| 90>    C      -13.24509        14.46103        -6.31617
| 91>    S      -15.62838        15.81650        -5.83669
| 92>    C      -15.47139        17.55268        -5.84522
| 93>    C      -14.21210        17.99450        -6.07958
| 94>   Br      -16.98401        18.61679        -5.53963
| 95>    H      -13.14934         8.91202        -4.35667
| 96>    H      -17.21711         7.27556        -1.92622
| 97>    H      -14.79971        10.95681        -5.24594
| 98>    H      -12.93387         3.55774        -1.00296
| 99>    H      -11.02849         5.20853        -2.54169
|100>    H       -7.23122         2.23393        -1.89038
|101>    H       -9.15540         5.51419        -2.93548
|102>    H       -6.47986         4.05424        -3.16767
|103>    H       -4.17808         4.60825        -4.26852
|104>    H       -0.38755         3.24374        -5.27563
|105>    H        0.28459         4.86659        -4.92299
|106>    H       -0.18347         4.45255        -6.58370
|107>    H       -7.53294        14.28563        -6.87710
|108>    H      -11.40937        17.92773        -6.60265
|109>    H      -13.76899        13.52381        -6.23139
|110>    H      -13.93869        19.03303        -6.11883
|111> *
|112>
|113>                          ****END OF INPUT****

CARTESIAN COORDINATES (ANGSTROEM)
---------------------------------
  C    -14.777710    5.681710   -1.704560
  C    -15.614140    4.908830   -0.943440
  C    -16.969530    5.210950   -0.696400
  N    -18.075230    5.407790   -0.461570
  C    -15.216830    3.714080   -0.308570
  N    -14.926250    2.739760    0.223950
  C    -15.133690    6.924060   -2.383050
  C    -13.992540    7.419780   -3.069500
  C    -14.023900    8.565780   -3.828380
  C    -15.231760    9.264600   -3.901280
  C    -16.358800    8.780040   -3.192060
  C    -16.330880    7.612470   -2.437550
  S    -17.734590    9.816820   -3.402020
  C    -16.793050   10.864790   -4.434730
  C    -15.513320   10.461150   -4.611760
  Br   -17.578280   12.399170   -5.169440
  C    -12.864720    6.522130   -2.823820
  O    -11.708400    6.642240   -3.221690
  C    -13.379730    5.429610   -1.985750
  C    -12.577220    4.387000   -1.599980
  N    -11.287470    4.377860   -1.971360
  C    -10.350070    3.440470   -1.712820
  S    -10.712040    1.970850   -0.870250
  C     -9.053370    1.488080   -1.048920
  N     -8.672570    0.248040   -0.506540
  O     -7.511040   -0.084380   -0.630290
  O     -9.544420   -0.393850    0.046930
  C     -8.277900    2.396310   -1.711660
  C     -9.001310    3.542200   -2.106080
  C     -8.478770    4.683180   -2.784300
  C     -7.215760    4.839770   -3.255230
  C     -6.806580    6.032810   -3.893530
  S     -7.864710    7.406660   -4.024320
  C     -6.676450    8.364370   -4.882820
  C     -5.505470    7.618980   -5.043220
  C     -5.567820    6.317030   -4.476080
  C     -4.354500    5.607070   -4.622590
  C     -3.415110    6.355490   -5.265410
  C     -2.026620    5.999810   -5.580970
  O     -1.228790    6.763000   -6.061400
  O     -1.753800    4.725800   -5.261130
  C     -0.424080    4.299630   -5.529940
  S     -3.969340    7.947340   -5.746640
  C     -7.019630    9.673860   -5.266570
  C     -6.212470   10.522000   -6.074140
  C     -6.662820   11.832340   -6.471250
  N     -5.861370   12.608160   -7.218710
  C     -4.705370   12.144670   -7.618800
  C     -4.282230   10.822080   -7.276180
  N     -5.030570   10.070450   -6.499630
  C     -3.051610   10.329110   -7.775660
  N     -2.057790    9.987640   -8.231100
  C     -3.858440   12.981120   -8.393340
  N     -3.154940   13.630640   -9.020390
  C     -7.946890   12.335220   -6.148220
  C     -8.725060   11.517590   -5.299410
  C     -8.264750   10.222900   -4.873310
  N     -9.144910    9.617490   -4.082600
  S    -10.419090   10.570580   -3.874240
  N     -9.921180   11.803140   -4.780350
  C     -8.346720   13.607380   -6.640560
  C     -9.601140   14.112160   -6.804090
  C    -10.901580   13.490070   -6.793380
  C    -11.180690   12.187910   -7.130570
  C    -12.454550   11.608010   -7.030620
  N    -13.457030   11.061760   -6.894130
  C    -10.219100   11.277860   -7.609220
  N     -9.477990   10.499590   -8.014180
  C    -11.887950   14.536520   -6.563830
  C    -11.242620   15.796410   -6.655750
  C     -9.798050   15.587360   -6.895510
  O     -8.948140   16.425950   -7.074870
  C    -11.921500   16.982150   -6.518270
  C    -13.297270   16.922990   -6.265710
  C    -13.929880   15.660160   -6.164420
  C    -13.245090   14.461030   -6.316170
  S    -15.628380   15.816500   -5.836690
  C    -15.471390   17.552680   -5.845220
  C    -14.212100   17.994500   -6.079580
  Br   -16.984010   18.616790   -5.539630
  H    -13.149340    8.912020   -4.356670
  H    -17.217110    7.275560   -1.926220
  H    -14.799710   10.956810   -5.245940
  H    -12.933870    3.557740   -1.002960
  H    -11.028490    5.208530   -2.541690
  H     -7.231220    2.233930   -1.890380
  H     -9.155400    5.514190   -2.935480
  H     -6.479860    4.054240   -3.167670
  H     -4.178080    4.608250   -4.268520
  H     -0.387550    3.243740   -5.275630
  H      0.284590    4.866590   -4.922990
  H     -0.183470    4.452550   -6.583700
  H     -7.532940   14.285630   -6.877100
  H    -11.409370   17.927730   -6.602650
  H    -13.768990   13.523810   -6.231390
  H    -13.938690   19.033030   -6.118830

 Total Charge           Charge          ....    0
 Multiplicity           Mult            ....    1
 Number of Electrons    NEL             ....  638
 Basis Dimension        Dim             .... 1260

ORBITAL ENERGIES
----------------

  NO   OCC          E(Eh)            E(eV)
   0   2.0000    -482.890973    -13140.1314
   1   2.0000    -482.889213    -13140.0835
   2   2.0000     -89.054014     -2423.2829
   3   2.0000     -89.010898     -2422.1097
   4   2.0000     -88.987329     -2421.4683
   5   2.0000     -88.982993     -2421.3503
   6   2.0000     -88.982448     -2421.3355
   7   2.0000     -88.980178     -2421.2737
   8   2.0000     -62.568548     -1702.5768
   9   2.0000     -62.566924     -1702.5326
  10   2.0000     -56.402503     -1534.7901
  11   2.0000     -56.400866     -1534.7456
  12   2.0000     -56.399805     -1534.7167
  13   2.0000     -56.399732     -1534.7147
  14   2.0000     -56.398160     -1534.6720
  15   2.0000     -56.398126     -1534.6710
  16   2.0000     -19.268606      -524.3254
  17   2.0000     -19.256960      -524.0085
  18   2.0000     -19.255925      -523.9804
  19   2.0000     -19.250618      -523.8359
  20   2.0000     -19.215952      -522.8926
  21   2.0000     -19.212595      -522.8013
  22   2.0000     -14.668428      -399.1482
  23   2.0000     -14.512634      -394.9089
  24   2.0000     -14.476747      -393.9323
  25   2.0000     -14.469550      -393.7365
  26   2.0000     -14.464270      -393.5928
  27   2.0000     -14.458436      -393.4340
  28   2.0000     -14.433470      -392.7547
  29   2.0000     -14.432636      -392.7320
  30   2.0000     -14.429920      -392.6581
  31   2.0000     -14.429326      -392.6419
  32   2.0000     -14.426885      -392.5755
  33   2.0000     -14.421107      -392.4183
  34   2.0000     -10.411868      -283.3213
  35   2.0000     -10.397647      -282.9344
  36   2.0000     -10.396285      -282.8973
  37   2.0000     -10.391117      -282.7567
  38   2.0000     -10.385979      -282.6168
  39   2.0000     -10.384181      -282.5679
  40   2.0000     -10.367729      -282.1202
  41   2.0000     -10.366522      -282.0874
  42   2.0000     -10.363706      -282.0108
  43   2.0000     -10.362936      -281.9898
  44   2.0000     -10.362424      -281.9759
  45   2.0000     -10.362368      -281.9744
  46   2.0000     -10.359716      -281.9022
  47   2.0000     -10.356356      -281.8108
  48   2.0000     -10.354661      -281.7646
  49   2.0000     -10.351756      -281.6856
  50   2.0000     -10.348737      -281.6034
  51   2.0000     -10.348341      -281.5927
  52   2.0000     -10.344510      -281.4884
  53   2.0000     -10.343341      -281.4566
  54   2.0000     -10.342382      -281.4305
  55   2.0000     -10.338808      -281.3333
  56   2.0000     -10.336360      -281.2667
  57   2.0000     -10.335896      -281.2540
  58   2.0000     -10.334773      -281.2235
  59   2.0000     -10.333727      -281.1950
  60   2.0000     -10.331601      -281.1372
  61   2.0000     -10.330003      -281.0937
  62   2.0000     -10.329933      -281.0918
  63   2.0000     -10.329489      -281.0797
  64   2.0000     -10.328173      -281.0439
  65   2.0000     -10.325859      -280.9809
  66   2.0000     -10.324178      -280.9352
  67   2.0000     -10.322927      -280.9011
  68   2.0000     -10.322539      -280.8906
  69   2.0000     -10.322115      -280.8790
  70   2.0000     -10.318218      -280.7730
  71   2.0000     -10.317272      -280.7473
  72   2.0000     -10.316443      -280.7247
  73   2.0000     -10.315830      -280.7080
  74   2.0000     -10.315080      -280.6876
  75   2.0000     -10.315068      -280.6873
  76   2.0000     -10.312654      -280.6216
  77   2.0000     -10.311870      -280.6003
  78   2.0000     -10.311041      -280.5777
  79   2.0000     -10.310471      -280.5622
  80   2.0000     -10.310256      -280.5563
  81   2.0000     -10.309358      -280.5319
  82   2.0000     -10.308922      -280.5200
  83   2.0000     -10.304339      -280.3953
  84   2.0000     -10.300276      -280.2848
  85   2.0000     -10.295975      -280.1677
  86   2.0000     -10.295580      -280.1570
  87   2.0000     -10.294235      -280.1204
  88   2.0000      -8.797936      -239.4040
  89   2.0000      -8.796369      -239.3614
  90   2.0000      -8.144718      -221.6290
  91   2.0000      -8.106230      -220.5817
  92   2.0000      -8.080992      -219.8950
  93   2.0000      -8.078886      -219.8377
  94   2.0000      -8.076108      -219.7621
  95   2.0000      -8.074736      -219.7247
  96   2.0000      -6.634176      -180.5251
  97   2.0000      -6.632678      -180.4843
  98   2.0000      -6.619645      -180.1297
  99   2.0000      -6.619550      -180.1271
 100   2.0000      -6.618101      -180.0877
 101   2.0000      -6.617896      -180.0821
 102   2.0000      -6.115966      -166.4239
 103   2.0000      -6.108232      -166.2134
 104   2.0000      -6.107189      -166.1851
 105   2.0000      -6.075851      -165.3323
 106   2.0000      -6.071466      -165.2130
 107   2.0000      -6.067691      -165.1103
 108   2.0000      -6.050580      -164.6446
 109   2.0000      -6.048531      -164.5889
 110   2.0000      -6.046020      -164.5206
 111   2.0000      -6.045801      -164.5146
 112   2.0000      -6.044426      -164.4772
 113   2.0000      -6.044281      -164.4732
 114   2.0000      -6.042865      -164.4347
 115   2.0000      -6.041539      -164.3986
 116   2.0000      -6.040197      -164.3621
 117   2.0000      -6.039833      -164.3522
 118   2.0000      -6.037331      -164.2841
 119   2.0000      -6.036647      -164.2655
 120   2.0000      -2.750075       -74.8333
 121   2.0000      -2.748533       -74.7914
 122   2.0000      -2.745993       -74.7223
 123   2.0000      -2.745849       -74.7184
 124   2.0000      -2.744454       -74.6804
 125   2.0000      -2.744324       -74.6768
 126   2.0000      -2.734340       -74.4052
 127   2.0000      -2.734318       -74.4046
 128   2.0000      -2.732725       -74.3612
 129   2.0000      -2.732709       -74.3608
 130   2.0000      -1.339119       -36.4393
 131   2.0000      -1.199765       -32.6473
 132   2.0000      -1.165879       -31.7252
 133   2.0000      -1.158746       -31.5311
 134   2.0000      -1.153394       -31.3855
 135   2.0000      -1.131503       -30.7898
 136   2.0000      -1.130662       -30.7669
 137   2.0000      -1.122148       -30.5352
 138   2.0000      -1.106953       -30.1217
 139   2.0000      -1.058121       -28.7929
 140   2.0000      -1.038000       -28.2454
 141   2.0000      -1.036814       -28.2131
 142   2.0000      -1.030542       -28.0425
 143   2.0000      -1.029939       -28.0261
 144   2.0000      -1.024544       -27.8793
 145   2.0000      -1.021172       -27.7875
 146   2.0000      -1.017200       -27.6794
 147   2.0000      -1.011101       -27.5134
 148   2.0000      -1.008766       -27.4499
 149   2.0000      -1.005661       -27.3654
 150   2.0000      -1.003770       -27.3140
 151   2.0000      -1.003094       -27.2956
 152   2.0000      -0.993729       -27.0408
 153   2.0000      -0.987754       -26.8782
 154   2.0000      -0.974027       -26.5046
 155   2.0000      -0.954601       -25.9760
 156   2.0000      -0.948132       -25.8000
 157   2.0000      -0.945251       -25.7216
 158   2.0000      -0.928574       -25.2678
 159   2.0000      -0.921210       -25.0674
 160   2.0000      -0.917227       -24.9590
 161   2.0000      -0.915213       -24.9042
 162   2.0000      -0.912540       -24.8315
 163   2.0000      -0.900043       -24.4914
 164   2.0000      -0.896363       -24.3913
 165   2.0000      -0.893707       -24.3190
 166   2.0000      -0.890054       -24.2196
 167   2.0000      -0.882247       -24.0072
 168   2.0000      -0.866633       -23.5823
 169   2.0000      -0.865500       -23.5515
 170   2.0000      -0.862138       -23.4600
 171   2.0000      -0.852138       -23.1878
 172   2.0000      -0.839115       -22.8335
 173   2.0000      -0.838686       -22.8218
 174   2.0000      -0.832696       -22.6588
 175   2.0000      -0.820379       -22.3236
 176   2.0000      -0.814625       -22.1671
 177   2.0000      -0.810705       -22.0604
 178   2.0000      -0.797890       -21.7117
 179   2.0000      -0.787021       -21.4159
 180   2.0000      -0.777164       -21.1477
 181   2.0000      -0.768757       -20.9190
 182   2.0000      -0.762478       -20.7481
 183   2.0000      -0.753498       -20.5037
 184   2.0000      -0.748897       -20.3785
 185   2.0000      -0.740048       -20.1377
 186   2.0000      -0.732113       -19.9218
 187   2.0000      -0.724403       -19.7120
 188   2.0000      -0.716344       -19.4927
 189   2.0000      -0.707032       -19.2393
 190   2.0000      -0.704598       -19.1731
 191   2.0000      -0.703668       -19.1478
 192   2.0000      -0.698947       -19.0193
 193   2.0000      -0.692822       -18.8526
 194   2.0000      -0.686663       -18.6851
 195   2.0000      -0.679356       -18.4862
 196   2.0000      -0.672712       -18.3054
 197   2.0000      -0.669199       -18.2098
 198   2.0000      -0.665092       -18.0981
 199   2.0000      -0.662969       -18.0403
 200   2.0000      -0.653221       -17.7751
 201   2.0000      -0.649932       -17.6856
 202   2.0000      -0.647430       -17.6175
 203   2.0000      -0.647185       -17.6108
 204   2.0000      -0.645998       -17.5785
 205   2.0000      -0.638494       -17.3743
 206   2.0000      -0.633869       -17.2485
 207   2.0000      -0.631304       -17.1787
 208   2.0000      -0.627222       -17.0676
 209   2.0000      -0.619682       -16.8624
 210   2.0000      -0.614776       -16.7289
 211   2.0000      -0.611049       -16.6275
 212   2.0000      -0.607661       -16.5353
 213   2.0000      -0.601270       -16.3614
 214   2.0000      -0.598365       -16.2823
 215   2.0000      -0.592827       -16.1316
 216   2.0000      -0.591377       -16.0922
 217   2.0000      -0.588717       -16.0198
 218   2.0000      -0.581598       -15.8261
 219   2.0000      -0.578809       -15.7502
 220   2.0000      -0.577734       -15.7209
 221   2.0000      -0.577343       -15.7103
 222   2.0000      -0.576226       -15.6799
 223   2.0000      -0.570615       -15.5272
 224   2.0000      -0.567741       -15.4490
 225   2.0000      -0.562005       -15.2929
 226   2.0000      -0.561554       -15.2807
 227   2.0000      -0.554807       -15.0971
 228   2.0000      -0.552400       -15.0316
 229   2.0000      -0.551672       -15.0118
 230   2.0000      -0.546111       -14.8604
 231   2.0000      -0.543351       -14.7853
 232   2.0000      -0.540071       -14.6961
 233   2.0000      -0.539841       -14.6898
 234   2.0000      -0.537976       -14.6391
 235   2.0000      -0.536431       -14.5970
 236   2.0000      -0.532228       -14.4827
 237   2.0000      -0.527075       -14.3425
 238   2.0000      -0.520028       -14.1507
 239   2.0000      -0.518696       -14.1144
 240   2.0000      -0.516380       -14.0514
 241   2.0000      -0.514053       -13.9881
 242   2.0000      -0.513690       -13.9782
 243   2.0000      -0.510436       -13.8897
 244   2.0000      -0.508649       -13.8411
 245   2.0000      -0.507554       -13.8113
 246   2.0000      -0.506740       -13.7891
 247   2.0000      -0.502920       -13.6852
 248   2.0000      -0.499870       -13.6022
 249   2.0000      -0.495219       -13.4756
 250   2.0000      -0.494337       -13.4516
 251   2.0000      -0.493604       -13.4317
 252   2.0000      -0.491673       -13.3791
 253   2.0000      -0.490917       -13.3585
 254   2.0000      -0.487705       -13.2711
 255   2.0000      -0.485914       -13.2224
 256   2.0000      -0.485119       -13.2008
 257   2.0000      -0.480932       -13.0868
 258   2.0000      -0.477860       -13.0032
 259   2.0000      -0.474038       -12.8992
 260   2.0000      -0.471074       -12.8186
 261   2.0000      -0.463992       -12.6259
 262   2.0000      -0.463474       -12.6118
 263   2.0000      -0.461233       -12.5508
 264   2.0000      -0.459494       -12.5035
 265   2.0000      -0.457860       -12.4590
 266   2.0000      -0.456828       -12.4309
 267   2.0000      -0.456492       -12.4218
 268   2.0000      -0.456218       -12.4143
 269   2.0000      -0.452806       -12.3215
 270   2.0000      -0.452516       -12.3136
 271   2.0000      -0.450737       -12.2652
 272   2.0000      -0.449904       -12.2425
 273   2.0000      -0.446894       -12.1606
 274   2.0000      -0.445948       -12.1349
 275   2.0000      -0.444541       -12.0966
 276   2.0000      -0.442132       -12.0310
 277   2.0000      -0.441780       -12.0214
 278   2.0000      -0.441425       -12.0118
 279   2.0000      -0.439581       -11.9616
 280   2.0000      -0.436196       -11.8695
 281   2.0000      -0.430385       -11.7114
 282   2.0000      -0.426999       -11.6192
 283   2.0000      -0.426059       -11.5937
 284   2.0000      -0.425230       -11.5711
 285   2.0000      -0.423745       -11.5307
 286   2.0000      -0.423206       -11.5160
 287   2.0000      -0.413639       -11.2557
 288   2.0000      -0.412178       -11.2159
 289   2.0000      -0.405901       -11.0451
 290   2.0000      -0.403545       -10.9810
 291   2.0000      -0.403033       -10.9671
 292   2.0000      -0.398193       -10.8354
 293   2.0000      -0.396191       -10.7809
 294   2.0000      -0.392000       -10.6668
 295   2.0000      -0.388840       -10.5809
 296   2.0000      -0.385874       -10.5002
 297   2.0000      -0.385525       -10.4907
 298   2.0000      -0.383370       -10.4320
 299   2.0000      -0.381690       -10.3863
 300   2.0000      -0.380444       -10.3524
 301   2.0000      -0.378074       -10.2879
 302   2.0000      -0.373552       -10.1649
 303   2.0000      -0.372529       -10.1370
 304   2.0000      -0.368045       -10.0150
 305   2.0000      -0.360334        -9.8052
 306   2.0000      -0.358446        -9.7538
 307   2.0000      -0.356754        -9.7078
 308   2.0000      -0.346980        -9.4418
 309   2.0000      -0.343252        -9.3404
 310   2.0000      -0.335323        -9.1246
 311   2.0000      -0.328657        -8.9432
 312   2.0000      -0.327978        -8.9247
 313   2.0000      -0.318645        -8.6708
 314   2.0000      -0.317677        -8.6444
 315   2.0000      -0.302733        -8.2378
 316   2.0000      -0.296782        -8.0758
 317   2.0000      -0.295952        -8.0533
 318   2.0000      -0.254997        -6.9388
 319   0.0000      -0.143109        -3.8942
 320   0.0000      -0.102793        -2.7972
 321   0.0000      -0.085792        -2.3345
 322   0.0000      -0.083714        -2.2780
 323   0.0000      -0.075090        -2.0433

MULLIKEN ATOMIC CHARGES
-----------------------
   0 C :    0.326880
   1 C :   -0.338449
   2 C :   -0.184319
   3 N :    0.158785
   4 C :   -0.194529
   5 N :    0.146828
   6 C :    0.009314
   7 C :    0.000494
   8 C :   -0.065162
   9 C :    0.115208
  10 C :   -0.092330
  11 C :   -0.018805
  12 S :    0.189486
  13 C :   -0.125280
  14 C :    0.081761
  15 Br:    0.025636
  16 C :    0.170932
  17 O :   -0.228110
  18 C :   -0.125489
  19 C :    0.027353
  20 N :   -0.016972
  21 C :   -0.104531
  22 S :    0.194906
  23 C :    0.005278
  24 N :    0.273890
  25 O :   -0.240290
  26 O :   -0.247739
  27 C :    0.010217
  28 C :    0.137888
  29 C :   -0.035308
  30 C :   -0.004899
  31 C :   -0.040151
  32 S :    0.165861
  33 C :   -0.232998
  34 C :    0.013124
  35 C :    0.106201
  36 C :    0.006513
  37 C :   -0.128836
  38 C :    0.202170
  39 O :   -0.185660
  40 O :   -0.305123
  41 C :    0.188132
  42 S :    0.223173
  43 C :    0.204195
  44 C :   -0.044998
  45 C :   -0.026444
  46 N :    0.059000
  47 C :   -0.134650
  48 C :   -0.075628
  49 N :   -0.006994
  50 C :   -0.242869
  51 N :    0.252626
  52 C :   -0.210520
  53 N :    0.248883
  54 C :    0.057361
  55 C :   -0.007577
  56 C :   -0.003811
  57 N :   -0.318798
  58 S :    0.546626
  59 N :   -0.294491
  60 C :   -0.031731
  61 C :   -0.113314
  62 C :    0.334403
  63 C :   -0.353914
  64 C :   -0.154164
  65 N :    0.124582
  66 C :   -0.200226
  67 N :    0.155539
  68 C :    0.013916
  69 C :    0.000491
  70 C :    0.130845
  71 O :   -0.134524
  72 C :   -0.070166
  73 C :    0.112840
  74 C :   -0.084215
  75 C :   -0.026185
  76 S :    0.179001
  77 C :   -0.124165
  78 C :    0.038636
  79 Br:    0.024375
  80 H :   -0.023044
  81 H :   -0.004184
  82 H :   -0.039167
  83 H :    0.046600
  84 H :    0.189925
  85 H :    0.016541
  86 H :    0.018534
  87 H :   -0.005482
  88 H :   -0.002682
  89 H :    0.035617
  90 H :    0.036037
  91 H :    0.040751
  92 H :    0.034300
  93 H :   -0.007643
  94 H :   -0.024086
  95 H :   -0.001003
Sum of atomic charges:   -0.0000000

LOEWDIN ATOMIC CHARGES
----------------------
   0 C :    0.077978
   1 C :   -0.142631
   2 C :   -0.020280
   3 N :   -0.046005
   4 C :   -0.019440
   5 N :   -0.050677
   6 C :   -0.020719
   7 C :   -0.056998
   8 C :    0.028506
   9 C :   -0.029235
  10 C :   -0.141905
  11 C :   -0.005566
  12 S :    0.435457
  13 C :   -0.272462
  14 C :   -0.062278
  15 Br:    0.138767
  16 C :    0.100404
  17 O :   -0.177303
  18 C :   -0.135273
  19 C :    0.109574
  20 N :    0.073440
  21 C :   -0.097969
  22 S :    0.484267
  23 C :   -0.195967
  24 N :    0.272418
  25 O :   -0.206512
  26 O :   -0.214782
  27 C :    0.007064
  28 C :   -0.096174
  29 C :    0.008426
  30 C :   -0.042215
  31 C :   -0.120578
  32 S :    0.509367
  33 C :   -0.178159
  34 C :   -0.155665
  35 C :   -0.085518
  36 C :   -0.014879
  37 C :   -0.207530
  38 C :    0.061371
  39 O :   -0.163319
  40 O :   -0.095932
  41 C :    0.083633
  42 S :    0.529451
  43 C :   -0.003109
  44 C :   -0.007157
  45 C :    0.031277
  46 N :   -0.006745
  47 C :   -0.007164
  48 C :   -0.036823
  49 N :   -0.017850
  50 C :   -0.052002
  51 N :    0.004578
  52 C :   -0.033132
  53 N :    0.006276
  54 C :   -0.078535
  55 C :   -0.030755
  56 C :   -0.048421
  57 N :   -0.286217
  58 S :    0.667014
  59 N :   -0.281726
  60 C :    0.079370
  61 C :   -0.090959
  62 C :    0.085128
  63 C :   -0.157078
  64 C :    0.002349
  65 N :   -0.073264
  66 C :   -0.016936
  67 N :   -0.065998
  68 C :   -0.015358
  69 C :   -0.050208
  70 C :    0.084570
  71 O :   -0.134803
  72 C :    0.023465
  73 C :   -0.033216
  74 C :   -0.143551
  75 C :   -0.018007
  76 S :    0.427909
  77 C :   -0.273010
  78 C :   -0.068858
  79 Br:    0.137270
  80 H :    0.034173
  81 H :    0.042396
  82 H :    0.029381
  83 H :    0.037272
  84 H :    0.082633
  85 H :    0.047105
  86 H :    0.026835
  87 H :    0.035580
  88 H :    0.036114
  89 H :    0.026542
  90 H :    0.025271
  91 H :    0.026659
  92 H :    0.049831
  93 H :    0.042140
  94 H :    0.035876
  95 H :    0.039718

  Mayer bond orders larger than 0.100000
B(  0-C ,  1-C ) :   1.6388 B(  0-C ,  6-C ) :   1.0113 B(  0-C , 18-C ) :   1.0792
B(  1-C ,  2-C ) :   1.1415 B(  1-C ,  4-C ) :   1.1459 B(  2-C ,  3-N ) :   2.9720
B(  4-C ,  5-N ) :   2.9546 B(  6-C ,  7-C ) :   1.2650 B(  6-C , 11-C ) :   1.4193
B(  7-C ,  8-C ) :   1.3998 B(  7-C , 16-C ) :   0.9943 B(  8-C ,  9-C ) :   1.2522
B(  8-C , 80-H ) :   1.0193 B(  9-C , 10-C ) :   1.2902 B(  9-C , 14-C ) :   1.1794
B( 10-C , 11-C ) :   1.3205 B( 10-C , 12-S ) :   1.0977 B( 11-C , 81-H ) :   0.9816
B( 12-S , 13-C ) :   1.0770 B( 13-C , 14-C ) :   1.6082 B( 13-C , 15-Br) :   1.0222
B( 14-C , 82-H ) :   0.9765 B( 16-C , 17-O ) :   2.0129 B( 16-C , 18-C ) :   0.9970
B( 17-O , 84-H ) :   0.1497 B( 18-C , 19-C ) :   1.4942 B( 19-C , 20-N ) :   1.3026
B( 19-C , 83-H ) :   0.9306 B( 20-N , 21-C ) :   1.2249 B( 20-N , 84-H ) :   0.8147
B( 21-C , 22-S ) :   1.1500 B( 21-C , 28-C ) :   1.3373 B( 22-S , 23-C ) :   1.0758
B( 23-C , 24-N ) :   0.9559 B( 23-C , 27-C ) :   1.5267 B( 24-N , 25-O ) :   1.5400
B( 24-N , 26-O ) :   1.5215 B( 25-O , 26-O ) :   0.2664 B( 27-C , 28-C ) :   1.2031
B( 27-C , 85-H ) :   0.9998 B( 28-C , 29-C ) :   1.1035 B( 29-C , 30-C ) :   1.6372
B( 29-C , 86-H ) :   0.9657 B( 30-C , 31-C ) :   1.2036 B( 30-C , 87-H ) :   0.9763
B( 31-C , 32-S ) :   1.1170 B( 31-C , 35-C ) :   1.2991 B( 32-S , 33-C ) :   1.1044
B( 33-C , 34-C ) :   1.3469 B( 33-C , 43-C ) :   1.3489 B( 34-C , 35-C ) :   1.2751
B( 34-C , 42-S ) :   1.1223 B( 35-C , 36-C ) :   1.1490 B( 36-C , 37-C ) :   1.6135
B( 36-C , 88-H ) :   1.0013 B( 37-C , 38-C ) :   0.9552 B( 37-C , 42-S ) :   1.0470
B( 38-C , 39-O ) :   2.1517 B( 38-C , 40-O ) :   1.2445 B( 40-O , 41-C ) :   0.9168
B( 41-C , 89-H ) :   0.9811 B( 41-C , 90-H ) :   0.9771 B( 41-C , 91-H ) :   0.9753
B( 43-C , 44-C ) :   1.1687 B( 43-C , 54-C ) :   0.1022 B( 43-C , 56-C ) :   1.1560
B( 44-C , 45-C ) :   1.1237 B( 44-C , 49-N ) :   1.4707 B( 45-C , 46-N ) :   1.4745
B( 45-C , 54-C ) :   1.2520 B( 46-N , 47-C ) :   1.7241 B( 47-C , 48-C ) :   1.2459
B( 47-C , 52-C ) :   1.1590 B( 48-C , 49-N ) :   1.6170 B( 48-C , 50-C ) :   1.1444
B( 50-C , 51-N ) :   3.0283 B( 52-C , 53-N ) :   3.0528 B( 54-C , 55-C ) :   1.1758
B( 54-C , 60-C ) :   1.1612 B( 55-C , 56-C ) :   1.1209 B( 55-C , 59-N ) :   1.5221
B( 56-C , 57-N ) :   1.5008 B( 57-N , 58-S ) :   1.2639 B( 57-N , 59-N ) :   0.1338
B( 58-S , 59-N ) :   1.2459 B( 60-C , 61-C ) :   1.5839 B( 60-C , 92-H ) :   0.9391
B( 61-C , 62-C ) :   1.0731 B( 61-C , 70-C ) :   0.9405 B( 62-C , 63-C ) :   1.5887
B( 62-C , 68-C ) :   1.0293 B( 63-C , 64-C ) :   1.1660 B( 63-C , 66-C ) :   1.1740
B( 64-C , 65-N ) :   2.8937 B( 66-C , 67-N ) :   2.9909 B( 68-C , 69-C ) :   1.2720
B( 68-C , 75-C ) :   1.4049 B( 69-C , 70-C ) :   0.9137 B( 69-C , 72-C ) :   1.4300
B( 70-C , 71-O ) :   2.2781 B( 72-C , 73-C ) :   1.2458 B( 72-C , 93-H ) :   1.0172
B( 73-C , 74-C ) :   1.3087 B( 73-C , 78-C ) :   1.1625 B( 74-C , 75-C ) :   1.3282
B( 74-C , 76-S ) :   1.0860 B( 75-C , 94-H ) :   0.9881 B( 76-S , 77-C ) :   1.0831
B( 77-C , 78-C ) :   1.6195 B( 77-C , 79-Br) :   1.0188 B( 78-C , 95-H ) :   1.0011

-----------------------------------------------------------------------------
         ABSORPTION SPECTRUM VIA TRANSITION ELECTRIC DIPOLE MOMENTS
-----------------------------------------------------------------------------
State   Energy  Wavelength   fosc         T2         TX        TY        TZ
        (cm-1)    (nm)                  (au**2)     (au)      (au)      (au)
-----------------------------------------------------------------------------
   0    8875.7   1126.7   0.436588427  16.19372  -0.42408   3.68723  -1.55507
   1   18444.1    542.2   0.158383983   2.82702  -1.34786  -0.87573   0.49334
   2   19431.5    514.6   0.358297084   6.07033  -2.34634   0.62660   0.41522
   3   20024.0    499.4   0.309093102   5.08176   2.14328  -0.67844  -0.16676
   4   20550.0    486.6   0.349131694   5.59311  -2.29753   0.56043  -0.01904
   5   21558.9    463.8   0.001614533   0.02465   0.12810  -0.08903   0.01787
   6   22631.5    441.9   0.002285333   0.03324  -0.17518   0.01123  -0.04929
   7   23015.3    434.5   0.086293217   1.23434  -0.61905   0.90266  -0.19060
   8   23440.5    426.6   0.073837837   1.03702  -0.18248  -0.89962   0.44091
   9   23912.2    418.2   0.130624458   1.79838  -0.04223   1.20158  -0.59397
  10   24957.7    400.7   0.011306417   0.14914   0.22370  -0.29800   0.10146
  11   25257.2    395.9   0.044704122   0.58269  -0.02322   0.61164  -0.45613
  12   26229.4    381.3   0.008486524   0.10652  -0.16544  -0.25761   0.11307
  13   26345.5    379.6   0.055661167   0.69554  -0.55340   0.59044   0.20167
  14   26514.5    377.2   0.049340216   0.61262   0.67674   0.13011  -0.37110
  15   26843.8    372.5   0.451719181   5.53989  -1.58609   1.67934  -0.45168
  16   27511.2    363.5   0.026704466   0.31956   0.15719  -0.45971   0.28899
  17   27888.4    358.6   0.123252852   1.45495   0.23116   0.99633  -0.63941
  18   28009.2    357.0   0.146747467   1.72483  -1.01276   0.75348  -0.36250
  19   28103.8    355.8   0.104429235   1.22330  -0.72928   0.83132   0.01903
  20   28888.9    346.2   0.414537794   4.72399   1.28169   1.34273  -1.13063
  21   29229.6    342.1   0.380308371   4.28340   0.78993  -1.70860   0.86028
  22   29651.9    337.2   0.191201451   2.12283  -1.11579   0.72484   0.59367
  23   29954.5    333.8   0.243626070   2.67754   0.86633  -1.36023   0.27711
  24   30310.7    329.9   0.402367867   4.37021  -0.78736   1.93518   0.07305
  25   30645.8    326.3   0.462861743   4.97229  -1.65765  -0.28781   1.46343
  26   30760.6    325.1   0.015392312   0.16473   0.11466  -0.38928   0.00696
  27   31917.8    313.3   0.021502623   0.22179  -0.03545   0.29758  -0.36329
  28   32137.1    311.2   0.009345214   0.09573  -0.18486   0.22663   0.10098
  29   32321.5    309.4   0.127564056   1.29931  -0.81566  -0.78527   0.13171
  30   32547.6    307.2   0.003574373   0.03615   0.18929   0.00613  -0.01693
  31   32646.6    306.3   0.127984305   1.29061  -0.96848  -0.28808   0.51929
  32   32998.9    303.0   0.048704804   0.48590   0.49241   0.34647  -0.35127
  33   33013.9    302.9   0.401139226   4.00012  -0.07005   1.66579  -1.10470
  34   33159.8    301.6   0.123279514   1.22392   0.95882   0.37045  -0.40910
  35   33849.7    295.4   0.016208360   0.15764  -0.15421  -0.32309   0.17167
  36   34208.2    292.3   0.008837740   0.08505  -0.09734   0.27308   0.03171
  37   34402.8    290.7   0.031747230   0.30380   0.12510  -0.52600  -0.10711
  38   34499.6    289.9   0.001177991   0.01124  -0.02761   0.09063  -0.04759
  39   34757.3    287.7   0.023665512   0.22415   0.08228  -0.45157  -0.11604
  40   34825.4    287.1   0.014162783   0.13388  -0.15342   0.29785   0.14707
  41   35272.2    283.5   0.163975850   1.53047   0.22321  -1.21622  -0.03808
  42   35434.3    282.2   0.104869414   0.97432  -0.30691   0.92182   0.17427
  43   35527.0    281.5   0.010418539   0.09654  -0.10329   0.28503  -0.06808
  44   35673.7    280.3   0.000075293   0.00069   0.00158   0.00269   0.02617
  45   36169.0    276.5   0.009248941   0.08418  -0.27644   0.06611  -0.05825
  46   36242.7    275.9   0.102302143   0.92926   0.89389  -0.35167  -0.08096
  47   36394.4    274.8   0.114705283   1.03759  -0.98987   0.15050   0.18734
  48   36856.8    271.3   0.090266856   0.80628   0.70900  -0.53104   0.14697
  49   36888.5    271.1   0.033983436   0.30329   0.34519  -0.42342   0.06960
  50   36993.6    270.3   0.023864187   0.21237  -0.04630   0.43292  -0.15103
  51   37376.7    267.5   0.025078742   0.22089   0.31666  -0.25072  -0.24034
  52   37417.8    267.3   0.000938612   0.00826  -0.01479  -0.08877   0.01262
  53   37675.2    265.4   0.019784163   0.17288  -0.29936   0.14284   0.25071
  54   37711.4    265.2   0.033652527   0.29378   0.40514  -0.23137  -0.27589
  55   37765.4    264.8   0.023022949   0.20070  -0.01338  -0.43070   0.12253
  56   37976.0    263.3   0.067936903   0.58894   0.48425   0.46700  -0.36926
  57   38174.2    262.0   0.077357995   0.66713  -0.67670  -0.44378  -0.11077
  58   38195.0    261.8   0.020881985   0.17999   0.40461  -0.11323   0.05880
  59   38748.1    258.1   0.010662723   0.09059  -0.07119   0.29065   0.03237
  60   38790.0    257.8   0.019610282   0.16643  -0.34523   0.17991   0.12198
  61   38914.9    257.0   0.007327037   0.06199   0.18756   0.01059  -0.16338
  62   38962.4    256.7   0.052484635   0.44347   0.16269   0.45620  -0.45703
  63   39116.8    255.6   0.086539643   0.72833   0.78849  -0.24667  -0.21394
  64   39235.6    254.9   0.037329755   0.31322   0.44756   0.32125  -0.09853
  65   39393.4    253.8   0.122509074   1.02381   0.92894  -0.20487  -0.34483
  66   39770.2    251.4   0.013828228   0.11447  -0.26037  -0.15104   0.15448
  67   39825.4    251.1   0.055648549   0.46001  -0.50988  -0.26640   0.35926
  68   40140.1    249.1   0.034825503   0.28562  -0.51088   0.12538   0.09438
  69   40238.5    248.5   0.055731640   0.45597   0.60797  -0.06355  -0.28688

FINAL SINGLE POINT ENERGY    -10707.936162239295

DIPOLE MOMENT
-------------
                                X             Y             Z
Electronic contribution:   -149.59798     132.58007     -15.95050
Nuclear contribution   :    148.67022    -132.09130      17.36556
                        -----------------------------------------
Total Dipole Moment    :     -0.92776       0.48877       1.41506
                        -----------------------------------------
Magnitude (a.u.)       :      1.76126
Magnitude (Debye)      :      4.47676

Rotational constants in cm-1:     0.000644     0.000404     0.000253
Rotational constants in MHz :    19.295756    12.103844     7.594123

                             ****ORCA TERMINATED NORMALLY****
TOTAL RUN TIME: 0 days 0 hours 11 minutes 46 seconds 577 msec
