                         Program Version 4.2.0 -  RELEASE  -
|  1> # ORCA input file
|  2> # SCF done       -190.312441271997          0.000375178668
|  3> ! CAM-B3LYP def2-SVP def2/J RIJCOSX Grid4 TightSCF
|  4> %maxcore 5000
|  5> %tddft
|  6>     Mode sTDDFT
|  7>     Ethresh 5.0
|  8>     maxcore 5000
|  9> end
| 10>
| 11> %pal
| 12>   nprocs 6
| 13>   end
| 14> * xyz 0 1
| 15>    C       -0.93917         2.02314        -5.04222
| 16>    C        0.33321         2.51872        -4.95362
| 17>    C        1.47141         1.88569        -5.49870
| 18>    N        2.43302         1.42433        -5.92237
| 19>    C        0.69672         3.71939        -4.30585
| 20>    N        1.07412         4.67687        -3.79725
| 21>    C       -1.32226         0.76795        -5.67331
| 22>    C       -2.71548         0.57260        -5.50456
| 23>    C       -3.37471        -0.52623        -6.00090
| 24>    C       -2.62384        -1.48253        -6.69141
| 25>    C       -1.23174        -1.27938        -6.85579
| 26>    C       -0.56600        -0.16713        -6.35830
| 27>    S       -0.49781        -2.57684        -7.74823
| 28>    C       -2.04753        -3.36411        -7.88587
| 29>    C       -3.06412        -2.69198        -7.29445
| 30>   Br       -2.17774        -4.99632        -8.79863
| 31>    C       -3.29291         1.71750        -4.77642
| 32>    O       -4.46785         1.92306        -4.57473
| 33>    C       -2.14170         2.61732        -4.47362
| 34>    C       -2.26096         3.83226        -3.89140
| 35>    C       -3.44919         4.29456        -3.21356
| 36>    C       -3.95005         5.57090        -3.41240
| 37>    C       -5.11610         6.02093        -2.79447
| 38>    C       -5.82300         5.23445        -1.89844
| 39>    C       -5.33684         3.92890        -1.65159
| 40>    C       -4.14003         3.46423        -2.29718
| 41>    N       -3.81838         2.22899        -1.91400
| 42>    S       -4.94551         1.69750        -0.90171
| 43>    N       -5.88047         2.99438        -0.87651
| 44>    C       -7.00072         5.71300        -1.22863
| 45>    O       -7.75651         6.66542        -1.82961
| 46>    C       -7.56641         5.40051        -0.01036
| 47>    C       -7.38955         4.64801         1.24244
| 48>    O       -6.50759         3.93240         1.63246
| 49>    N       -8.51389         4.99771         1.99105
| 50>    C       -9.36563         5.92882         1.40192
| 51>    O      -10.36904         6.36838         1.90063
| 52>    C       -8.73150         6.19953         0.11059
| 53>    C       -8.82282         6.96973        -1.03608
| 54>    C       -9.77918         7.92430        -1.44542
| 55>    C       -9.69475         8.58928        -2.63467
| 56>    C      -10.62729         9.53390        -3.08274
| 57>    C      -10.52257        10.19334        -4.28449
| 58>    C      -11.41760        11.15108        -4.82021
| 59>    C      -11.05171        11.63708        -6.03910
| 60>    C       -9.84531        11.08974        -6.53257
| 61>    S       -9.19076         9.93656        -5.40003
| 62>    C       -9.20964        11.37414        -7.72954
| 63>    C       -9.61122        12.28427        -8.73073
| 64>    C       -8.76250        12.33491        -9.79686
| 65>    C       -7.64905        11.46997        -9.69022
| 66>    S       -7.72055        10.58035        -8.18898
| 67>    C       -6.64627        11.30450       -10.62461
| 68>    C       -5.56172        10.45023       -10.44801
| 69>    C       -4.55319        10.16514       -11.34100
| 70>    C       -4.41716        10.41696       -12.74999
| 71>    C       -5.43125        10.54940       -13.67037
| 72>    C       -5.22051        10.76148       -15.04666
| 73>    N       -5.11020        10.95753       -16.17307
| 74>    C       -6.79841        10.37692       -13.37779
| 75>    N       -7.92152        10.20009       -13.21351
| 76>    C       -2.99893        10.28160       -13.08188
| 77>    C       -2.31803         9.75860       -11.95392
| 78>    C       -3.27800         9.60261       -10.84061
| 79>    O       -3.06480         9.14885        -9.73683
| 80>    C       -0.97303         9.48341       -11.96643
| 81>    C       -0.26337         9.74650       -13.14382
| 82>    C       -0.94999        10.28018       -14.25923
| 83>    C       -2.31375        10.55128       -14.24973
| 84>    S        0.11882        10.53866       -15.60439
| 85>    C        1.45529         9.93000       -14.66406
| 86>    C        1.12090         9.55425       -13.40706
| 87>   Br        3.16536         9.85114       -15.43087
| 88>    H       -4.43769        -0.64342        -5.85976
| 89>    H        0.49360        -0.05495        -6.51615
| 90>    H       -4.08324        -3.03291        -7.28503
| 91>    H       -1.43709         4.53373        -3.92864
| 92>    H       -3.44079         6.22653        -4.10321
| 93>    H       -5.47222         7.01811        -3.00382
| 94>    H       -8.67487         4.63027         2.91819
| 95>    H      -10.59463         8.09826        -0.75927
| 96>    H       -8.85470         8.37418        -3.28328
| 97>    H      -11.47934         9.75961        -2.45577
| 98>    H      -12.30357        11.44791        -4.28749
| 99>    H      -11.61317        12.36749        -6.59286
|100>    H      -10.50544        12.87415        -8.64141
|101>    H       -8.90359        12.95966       -10.66048
|102>    H       -6.71928        11.90324       -11.52072
|103>    H       -5.43259        10.00889        -9.46369
|104>    H       -0.48118         9.07804       -11.09618
|105>    H       -2.79215        10.96193       -15.12335
|106>    H        1.81971         9.15823       -12.69302
|107> *
|108>
|109>                          ****END OF INPUT****

CARTESIAN COORDINATES (ANGSTROEM)
---------------------------------
  C     -0.939170    2.023140   -5.042220
  C      0.333210    2.518720   -4.953620
  C      1.471410    1.885690   -5.498700
  N      2.433020    1.424330   -5.922370
  C      0.696720    3.719390   -4.305850
  N      1.074120    4.676870   -3.797250
  C     -1.322260    0.767950   -5.673310
  C     -2.715480    0.572600   -5.504560
  C     -3.374710   -0.526230   -6.000900
  C     -2.623840   -1.482530   -6.691410
  C     -1.231740   -1.279380   -6.855790
  C     -0.566000   -0.167130   -6.358300
  S     -0.497810   -2.576840   -7.748230
  C     -2.047530   -3.364110   -7.885870
  C     -3.064120   -2.691980   -7.294450
  Br    -2.177740   -4.996320   -8.798630
  C     -3.292910    1.717500   -4.776420
  O     -4.467850    1.923060   -4.574730
  C     -2.141700    2.617320   -4.473620
  C     -2.260960    3.832260   -3.891400
  C     -3.449190    4.294560   -3.213560
  C     -3.950050    5.570900   -3.412400
  C     -5.116100    6.020930   -2.794470
  C     -5.823000    5.234450   -1.898440
  C     -5.336840    3.928900   -1.651590
  C     -4.140030    3.464230   -2.297180
  N     -3.818380    2.228990   -1.914000
  S     -4.945510    1.697500   -0.901710
  N     -5.880470    2.994380   -0.876510
  C     -7.000720    5.713000   -1.228630
  O     -7.756510    6.665420   -1.829610
  C     -7.566410    5.400510   -0.010360
  C     -7.389550    4.648010    1.242440
  O     -6.507590    3.932400    1.632460
  N     -8.513890    4.997710    1.991050
  C     -9.365630    5.928820    1.401920
  O    -10.369040    6.368380    1.900630
  C     -8.731500    6.199530    0.110590
  C     -8.822820    6.969730   -1.036080
  C     -9.779180    7.924300   -1.445420
  C     -9.694750    8.589280   -2.634670
  C    -10.627290    9.533900   -3.082740
  C    -10.522570   10.193340   -4.284490
  C    -11.417600   11.151080   -4.820210
  C    -11.051710   11.637080   -6.039100
  C     -9.845310   11.089740   -6.532570
  S     -9.190760    9.936560   -5.400030
  C     -9.209640   11.374140   -7.729540
  C     -9.611220   12.284270   -8.730730
  C     -8.762500   12.334910   -9.796860
  C     -7.649050   11.469970   -9.690220
  S     -7.720550   10.580350   -8.188980
  C     -6.646270   11.304500  -10.624610
  C     -5.561720   10.450230  -10.448010
  C     -4.553190   10.165140  -11.341000
  C     -4.417160   10.416960  -12.749990
  C     -5.431250   10.549400  -13.670370
  C     -5.220510   10.761480  -15.046660
  N     -5.110200   10.957530  -16.173070
  C     -6.798410   10.376920  -13.377790
  N     -7.921520   10.200090  -13.213510
  C     -2.998930   10.281600  -13.081880
  C     -2.318030    9.758600  -11.953920
  C     -3.278000    9.602610  -10.840610
  O     -3.064800    9.148850   -9.736830
  C     -0.973030    9.483410  -11.966430
  C     -0.263370    9.746500  -13.143820
  C     -0.949990   10.280180  -14.259230
  C     -2.313750   10.551280  -14.249730
  S      0.118820   10.538660  -15.604390
  C      1.455290    9.930000  -14.664060
  C      1.120900    9.554250  -13.407060
  Br     3.165360    9.851140  -15.430870
  H     -4.437690   -0.643420   -5.859760
  H      0.493600   -0.054950   -6.516150
  H     -4.083240   -3.032910   -7.285030
  H     -1.437090    4.533730   -3.928640
  H     -3.440790    6.226530   -4.103210
  H     -5.472220    7.018110   -3.003820
  H     -8.674870    4.630270    2.918190
  H    -10.594630    8.098260   -0.759270
  H     -8.854700    8.374180   -3.283280
  H    -11.479340    9.759610   -2.455770
  H    -12.303570   11.447910   -4.287490
  H    -11.613170   12.367490   -6.592860
  H    -10.505440   12.874150   -8.641410
  H     -8.903590   12.959660  -10.660480
  H     -6.719280   11.903240  -11.520720
  H     -5.432590   10.008890   -9.463690
  H     -0.481180    9.078040  -11.096180
  H     -2.792150   10.961930  -15.123350
  H      1.819710    9.158230  -12.693020

 Total Charge           Charge          ....    0
 Multiplicity           Mult            ....    1
 Number of Electrons    NEL             ....  582
 Basis Dimension        Dim             .... 1173

ORBITAL ENERGIES
----------------

  NO   OCC          E(Eh)            E(eV)
   0   2.0000    -482.888177    -13140.0553
   1   2.0000    -482.879456    -13139.8180
   2   2.0000     -89.026143     -2422.5245
   3   2.0000     -88.978481     -2421.2276
   4   2.0000     -88.969744     -2420.9898
   5   2.0000     -88.968520     -2420.9565
   6   2.0000     -88.966363     -2420.8978
   7   2.0000     -62.565891     -1702.5045
   8   2.0000     -62.557200     -1702.2679
   9   2.0000     -56.399850     -1534.7179
  10   2.0000     -56.397120     -1534.6436
  11   2.0000     -56.397092     -1534.6429
  12   2.0000     -56.391144     -1534.4810
  13   2.0000     -56.388439     -1534.4074
  14   2.0000     -56.388402     -1534.4064
  15   2.0000     -19.318647      -525.6871
  16   2.0000     -19.219184      -522.9806
  17   2.0000     -19.211408      -522.7690
  18   2.0000     -19.207225      -522.6552
  19   2.0000     -19.203621      -522.5571
  20   2.0000     -14.453689      -393.3049
  21   2.0000     -14.438131      -392.8815
  22   2.0000     -14.437127      -392.8542
  23   2.0000     -14.420582      -392.4040
  24   2.0000     -14.420153      -392.3923
  25   2.0000     -14.406130      -392.0107
  26   2.0000     -14.404067      -391.9546
  27   2.0000     -10.400811      -283.0205
  28   2.0000     -10.398476      -282.9569
  29   2.0000     -10.370259      -282.1891
  30   2.0000     -10.369664      -282.1729
  31   2.0000     -10.366945      -282.0989
  32   2.0000     -10.362249      -281.9711
  33   2.0000     -10.354429      -281.7583
  34   2.0000     -10.351503      -281.6787
  35   2.0000     -10.348815      -281.6056
  36   2.0000     -10.346125      -281.5324
  37   2.0000     -10.340649      -281.3834
  38   2.0000     -10.333502      -281.1889
  39   2.0000     -10.331982      -281.1475
  40   2.0000     -10.331571      -281.1363
  41   2.0000     -10.331002      -281.1209
  42   2.0000     -10.330616      -281.1103
  43   2.0000     -10.329331      -281.0754
  44   2.0000     -10.327958      -281.0380
  45   2.0000     -10.326912      -281.0096
  46   2.0000     -10.322821      -280.8982
  47   2.0000     -10.322524      -280.8902
  48   2.0000     -10.320439      -280.8334
  49   2.0000     -10.317744      -280.7601
  50   2.0000     -10.315869      -280.7091
  51   2.0000     -10.312304      -280.6121
  52   2.0000     -10.311548      -280.5915
  53   2.0000     -10.311313      -280.5851
  54   2.0000     -10.310763      -280.5701
  55   2.0000     -10.310644      -280.5669
  56   2.0000     -10.309541      -280.5369
  57   2.0000     -10.309422      -280.5336
  58   2.0000     -10.309409      -280.5333
  59   2.0000     -10.307433      -280.4795
  60   2.0000     -10.306989      -280.4674
  61   2.0000     -10.306449      -280.4527
  62   2.0000     -10.305845      -280.4363
  63   2.0000     -10.305530      -280.4277
  64   2.0000     -10.304311      -280.3945
  65   2.0000     -10.303953      -280.3848
  66   2.0000     -10.302762      -280.3524
  67   2.0000     -10.302392      -280.3423
  68   2.0000     -10.299725      -280.2698
  69   2.0000     -10.299650      -280.2677
  70   2.0000     -10.299582      -280.2659
  71   2.0000     -10.299208      -280.2557
  72   2.0000     -10.297228      -280.2018
  73   2.0000     -10.296875      -280.1922
  74   2.0000     -10.296105      -280.1713
  75   2.0000     -10.295956      -280.1672
  76   2.0000     -10.292876      -280.0834
  77   2.0000     -10.289764      -279.9987
  78   2.0000     -10.288558      -279.9659
  79   2.0000     -10.283535      -279.8292
  80   2.0000     -10.283484      -279.8278
  81   2.0000      -8.795321      -239.3328
  82   2.0000      -8.786644      -239.0967
  83   2.0000      -8.117803      -220.8967
  84   2.0000      -8.074557      -219.7199
  85   2.0000      -8.066095      -219.4896
  86   2.0000      -8.064505      -219.4463
  87   2.0000      -8.062737      -219.3982
  88   2.0000      -6.631662      -180.4567
  89   2.0000      -6.622937      -180.2193
  90   2.0000      -6.617045      -180.0590
  91   2.0000      -6.616819      -180.0528
  92   2.0000      -6.608374      -179.8230
  93   2.0000      -6.608200      -179.8183
  94   2.0000      -6.088923      -165.6880
  95   2.0000      -6.081116      -165.4756
  96   2.0000      -6.080453      -165.4575
  97   2.0000      -6.044244      -164.4722
  98   2.0000      -6.039971      -164.3560
  99   2.0000      -6.035750      -164.2411
 100   2.0000      -6.035746      -164.2410
 101   2.0000      -6.034220      -164.1995
 102   2.0000      -6.032351      -164.1486
 103   2.0000      -6.031759      -164.1325
 104   2.0000      -6.029912      -164.0823
 105   2.0000      -6.028334      -164.0393
 106   2.0000      -6.027076      -164.0051
 107   2.0000      -6.025722      -163.9682
 108   2.0000      -6.023812      -163.9163
 109   2.0000      -2.747491       -74.7630
 110   2.0000      -2.743446       -74.6530
 111   2.0000      -2.743274       -74.6483
 112   2.0000      -2.738760       -74.5255
 113   2.0000      -2.734736       -74.4160
 114   2.0000      -2.734612       -74.4126
 115   2.0000      -2.731655       -74.3321
 116   2.0000      -2.731637       -74.3316
 117   2.0000      -2.723031       -74.0974
 118   2.0000      -2.723005       -74.0967
 119   2.0000      -1.234891       -33.6031
 120   2.0000      -1.154813       -31.4241
 121   2.0000      -1.135928       -30.9102
 122   2.0000      -1.133864       -30.8540
 123   2.0000      -1.125846       -30.6358
 124   2.0000      -1.117906       -30.4198
 125   2.0000      -1.042099       -28.3570
 126   2.0000      -1.026815       -27.9410
 127   2.0000      -1.019285       -27.7362
 128   2.0000      -1.017595       -27.6902
 129   2.0000      -1.014244       -27.5990
 130   2.0000      -1.004170       -27.3249
 131   2.0000      -0.998831       -27.1796
 132   2.0000      -0.996666       -27.1207
 133   2.0000      -0.994072       -27.0501
 134   2.0000      -0.983950       -26.7746
 135   2.0000      -0.983253       -26.7557
 136   2.0000      -0.980080       -26.6693
 137   2.0000      -0.978928       -26.6380
 138   2.0000      -0.946358       -25.7517
 139   2.0000      -0.941445       -25.6180
 140   2.0000      -0.935477       -25.4556
 141   2.0000      -0.926062       -25.1994
 142   2.0000      -0.918815       -25.0022
 143   2.0000      -0.912432       -24.8285
 144   2.0000      -0.910660       -24.7803
 145   2.0000      -0.899866       -24.4866
 146   2.0000      -0.897435       -24.4205
 147   2.0000      -0.889558       -24.2061
 148   2.0000      -0.882719       -24.0200
 149   2.0000      -0.877630       -23.8815
 150   2.0000      -0.873140       -23.7594
 151   2.0000      -0.868914       -23.6444
 152   2.0000      -0.866009       -23.5653
 153   2.0000      -0.854697       -23.2575
 154   2.0000      -0.844810       -22.9884
 155   2.0000      -0.838870       -22.8268
 156   2.0000      -0.832640       -22.6573
 157   2.0000      -0.822712       -22.3871
 158   2.0000      -0.820055       -22.3148
 159   2.0000      -0.799488       -21.7552
 160   2.0000      -0.783177       -21.3113
 161   2.0000      -0.773798       -21.0561
 162   2.0000      -0.767342       -20.8804
 163   2.0000      -0.763930       -20.7876
 164   2.0000      -0.759518       -20.6675
 165   2.0000      -0.751585       -20.4517
 166   2.0000      -0.744431       -20.2570
 167   2.0000      -0.736807       -20.0495
 168   2.0000      -0.720274       -19.5996
 169   2.0000      -0.717675       -19.5289
 170   2.0000      -0.710821       -19.3424
 171   2.0000      -0.700650       -19.0657
 172   2.0000      -0.696596       -18.9553
 173   2.0000      -0.692987       -18.8571
 174   2.0000      -0.690940       -18.8014
 175   2.0000      -0.683051       -18.5868
 176   2.0000      -0.679607       -18.4931
 177   2.0000      -0.668905       -18.2018
 178   2.0000      -0.664986       -18.0952
 179   2.0000      -0.659632       -17.9495
 180   2.0000      -0.653406       -17.7801
 181   2.0000      -0.645224       -17.5574
 182   2.0000      -0.642448       -17.4819
 183   2.0000      -0.633790       -17.2463
 184   2.0000      -0.628201       -17.0942
 185   2.0000      -0.625330       -17.0161
 186   2.0000      -0.618807       -16.8386
 187   2.0000      -0.616433       -16.7740
 188   2.0000      -0.614543       -16.7226
 189   2.0000      -0.602861       -16.4047
 190   2.0000      -0.599254       -16.3065
 191   2.0000      -0.596524       -16.2322
 192   2.0000      -0.593631       -16.1535
 193   2.0000      -0.593232       -16.1427
 194   2.0000      -0.589163       -16.0319
 195   2.0000      -0.587327       -15.9820
 196   2.0000      -0.583769       -15.8852
 197   2.0000      -0.581618       -15.8266
 198   2.0000      -0.576646       -15.6913
 199   2.0000      -0.565791       -15.3960
 200   2.0000      -0.562711       -15.3121
 201   2.0000      -0.556877       -15.1534
 202   2.0000      -0.552466       -15.0334
 203   2.0000      -0.549485       -14.9522
 204   2.0000      -0.545102       -14.8330
 205   2.0000      -0.544080       -14.8052
 206   2.0000      -0.542073       -14.7505
 207   2.0000      -0.539787       -14.6884
 208   2.0000      -0.537166       -14.6170
 209   2.0000      -0.534908       -14.5556
 210   2.0000      -0.531704       -14.4684
 211   2.0000      -0.528839       -14.3904
 212   2.0000      -0.527980       -14.3671
 213   2.0000      -0.524175       -14.2635
 214   2.0000      -0.519627       -14.1398
 215   2.0000      -0.518431       -14.1072
 216   2.0000      -0.516106       -14.0439
 217   2.0000      -0.514085       -13.9890
 218   2.0000      -0.512205       -13.9378
 219   2.0000      -0.511176       -13.9098
 220   2.0000      -0.507049       -13.7975
 221   2.0000      -0.504477       -13.7275
 222   2.0000      -0.500276       -13.6132
 223   2.0000      -0.498471       -13.5641
 224   2.0000      -0.497796       -13.5457
 225   2.0000      -0.496823       -13.5193
 226   2.0000      -0.494551       -13.4574
 227   2.0000      -0.491117       -13.3640
 228   2.0000      -0.489242       -13.3129
 229   2.0000      -0.488681       -13.2977
 230   2.0000      -0.484017       -13.1708
 231   2.0000      -0.483446       -13.1552
 232   2.0000      -0.481963       -13.1149
 233   2.0000      -0.477740       -13.0000
 234   2.0000      -0.476494       -12.9661
 235   2.0000      -0.474901       -12.9227
 236   2.0000      -0.466615       -12.6972
 237   2.0000      -0.465833       -12.6760
 238   2.0000      -0.462670       -12.5899
 239   2.0000      -0.461706       -12.5636
 240   2.0000      -0.456284       -12.4161
 241   2.0000      -0.455077       -12.3833
 242   2.0000      -0.453039       -12.3278
 243   2.0000      -0.451565       -12.2877
 244   2.0000      -0.449967       -12.2442
 245   2.0000      -0.448062       -12.1924
 246   2.0000      -0.443597       -12.0709
 247   2.0000      -0.442522       -12.0416
 248   2.0000      -0.441173       -12.0049
 249   2.0000      -0.439323       -11.9546
 250   2.0000      -0.438012       -11.9189
 251   2.0000      -0.434403       -11.8207
 252   2.0000      -0.432603       -11.7717
 253   2.0000      -0.431021       -11.7287
 254   2.0000      -0.429142       -11.6775
 255   2.0000      -0.427342       -11.6286
 256   2.0000      -0.421178       -11.4608
 257   2.0000      -0.419631       -11.4187
 258   2.0000      -0.415365       -11.3027
 259   2.0000      -0.414611       -11.2821
 260   2.0000      -0.411500       -11.1975
 261   2.0000      -0.409483       -11.1426
 262   2.0000      -0.402882       -10.9630
 263   2.0000      -0.400173       -10.8893
 264   2.0000      -0.394825       -10.7437
 265   2.0000      -0.391743       -10.6599
 266   2.0000      -0.382378       -10.4050
 267   2.0000      -0.379545       -10.3280
 268   2.0000      -0.377488       -10.2720
 269   2.0000      -0.376601       -10.2478
 270   2.0000      -0.375499       -10.2178
 271   2.0000      -0.370192       -10.0734
 272   2.0000      -0.369083       -10.0433
 273   2.0000      -0.367579       -10.0023
 274   2.0000      -0.359410        -9.7800
 275   2.0000      -0.357937        -9.7400
 276   2.0000      -0.353210        -9.6113
 277   2.0000      -0.346272        -9.4225
 278   2.0000      -0.345530        -9.4024
 279   2.0000      -0.341957        -9.3051
 280   2.0000      -0.337001        -9.1703
 281   2.0000      -0.333281        -9.0690
 282   2.0000      -0.330345        -8.9891
 283   2.0000      -0.322974        -8.7886
 284   2.0000      -0.318093        -8.6558
 285   2.0000      -0.307550        -8.3689
 286   2.0000      -0.303107        -8.2480
 287   2.0000      -0.296563        -8.0699
 288   2.0000      -0.286490        -7.7958
 289   2.0000      -0.276886        -7.5345
 290   2.0000      -0.231284        -6.2935
 291   0.0000      -0.119078        -3.2403
 292   0.0000      -0.099409        -2.7050
 293   0.0000      -0.073162        -1.9908
 294   0.0000      -0.067650        -1.8408
 295   0.0000      -0.051052        -1.3892

MULLIKEN ATOMIC CHARGES
-----------------------
   0 C :    0.301496
   1 C :   -0.340213
   2 C :   -0.187714
   3 N :    0.158656
   4 C :   -0.194265
   5 N :    0.162232
   6 C :    0.017440
   7 C :   -0.013947
   8 C :   -0.069978
   9 C :    0.119756
  10 C :   -0.088918
  11 C :   -0.021484
  12 S :    0.189153
  13 C :   -0.121050
  14 C :    0.037006
  15 Br:    0.027394
  16 C :    0.152968
  17 O :   -0.141317
  18 C :   -0.046823
  19 C :   -0.057456
  20 C :    0.076037
  21 C :   -0.019506
  22 C :   -0.010345
  23 C :    0.046702
  24 C :    0.026727
  25 C :    0.040831
  26 N :   -0.277316
  27 S :    0.529970
  28 N :   -0.242554
  29 C :    0.081486
  30 O :   -0.210939
  31 C :   -0.042719
  32 C :    0.167940
  33 O :   -0.131267
  34 N :   -0.166698
  35 C :    0.163777
  36 O :   -0.144123
  37 C :   -0.039480
  38 C :    0.090773
  39 C :   -0.026001
  40 C :    0.018612
  41 C :    0.001909
  42 C :   -0.023086
  43 C :    0.052875
  44 C :    0.023444
  45 C :   -0.031203
  46 S :    0.097102
  47 C :   -0.055216
  48 C :    0.039056
  49 C :    0.040182
  50 C :   -0.015955
  51 S :    0.109164
  52 C :   -0.001961
  53 C :    0.023459
  54 C :   -0.126167
  55 C :    0.285672
  56 C :   -0.341480
  57 C :   -0.178777
  58 N :    0.139545
  59 C :   -0.219208
  60 N :    0.157640
  61 C :    0.006665
  62 C :   -0.003529
  63 C :    0.136339
  64 O :   -0.154422
  65 C :   -0.076472
  66 C :    0.113568
  67 C :   -0.089845
  68 C :   -0.025484
  69 S :    0.181130
  70 C :   -0.125735
  71 C :    0.040528
  72 Br:    0.018224
  73 H :   -0.009060
  74 H :   -0.005528
  75 H :   -0.001971
  76 H :    0.039928
  77 H :   -0.002187
  78 H :   -0.008561
  79 H :    0.138170
  80 H :    0.016901
  81 H :    0.018721
  82 H :   -0.000937
  83 H :   -0.000563
  84 H :   -0.001551
  85 H :   -0.003130
  86 H :    0.004811
  87 H :    0.012000
  88 H :    0.013242
  89 H :   -0.012372
  90 H :   -0.006316
  91 H :   -0.004402
Sum of atomic charges:   -0.0000000

LOEWDIN ATOMIC CHARGES
----------------------
   0 C :    0.075902
   1 C :   -0.130944
   2 C :   -0.017706
   3 N :   -0.047547
   4 C :   -0.020961
   5 N :   -0.044813
   6 C :   -0.021336
   7 C :   -0.048153
   8 C :    0.022902
   9 C :   -0.030330
  10 C :   -0.142659
  11 C :   -0.008621
  12 S :    0.434539
  13 C :   -0.269774
  14 C :   -0.070297
  15 Br:    0.140159
  16 C :    0.086866
  17 O :   -0.133473
  18 C :   -0.066349
  19 C :    0.076233
  20 C :   -0.025002
  21 C :    0.007394
  22 C :    0.000845
  23 C :   -0.034340
  24 C :   -0.042495
  25 C :   -0.035323
  26 N :   -0.284169
  27 S :    0.669808
  28 N :   -0.262833
  29 C :    0.077422
  30 O :    0.017977
  31 C :   -0.084731
  32 C :    0.086677
  33 O :   -0.145689
  34 N :   -0.005338
  35 C :    0.081796
  36 O :   -0.162371
  37 C :   -0.090881
  38 C :    0.063688
  39 C :   -0.025210
  40 C :   -0.014691
  41 C :   -0.035016
  42 C :   -0.141535
  43 C :   -0.016226
  44 C :   -0.029050
  45 C :   -0.154582
  46 S :    0.392667
  47 C :   -0.184949
  48 C :   -0.008982
  49 C :   -0.030739
  50 C :   -0.102650
  51 S :    0.402700
  52 C :   -0.063870
  53 C :    0.050182
  54 C :   -0.101877
  55 C :    0.068493
  56 C :   -0.151155
  57 C :   -0.020117
  58 N :   -0.061615
  59 C :   -0.024406
  60 N :   -0.060640
  61 C :   -0.016494
  62 C :   -0.051564
  63 C :    0.078919
  64 O :   -0.155568
  65 C :    0.019555
  66 C :   -0.035793
  67 C :   -0.144599
  68 C :   -0.015391
  69 S :    0.428701
  70 C :   -0.274111
  71 C :   -0.070148
  72 Br:    0.132545
  73 H :    0.041481
  74 H :    0.041336
  75 H :    0.039472
  76 H :    0.048859
  77 H :    0.039632
  78 H :    0.036952
  79 H :    0.094575
  80 H :    0.047822
  81 H :    0.027019
  82 H :    0.038887
  83 H :    0.038913
  84 H :    0.036317
  85 H :    0.036393
  86 H :    0.041299
  87 H :    0.039060
  88 H :    0.034589
  89 H :    0.040076
  90 H :    0.040017
  91 H :    0.038448

  Mayer bond orders larger than 0.100000
B(  0-C ,  1-C ) :   1.6543 B(  0-C ,  6-C ) :   1.0131 B(  0-C , 18-C ) :   1.0486
B(  1-C ,  2-C ) :   1.1389 B(  1-C ,  4-C ) :   1.1433 B(  2-C ,  3-N ) :   2.9730
B(  4-C ,  5-N ) :   2.9759 B(  6-C ,  7-C ) :   1.2725 B(  6-C , 11-C ) :   1.3992
B(  7-C ,  8-C ) :   1.4204 B(  7-C , 16-C ) :   0.9478 B(  8-C ,  9-C ) :   1.2489
B(  8-C , 73-H ) :   1.0171 B(  9-C , 10-C ) :   1.2991 B(  9-C , 14-C ) :   1.1632
B( 10-C , 11-C ) :   1.3390 B( 10-C , 12-S ) :   1.0870 B( 11-C , 74-H ) :   0.9799
B( 12-S , 13-C ) :   1.0869 B( 13-C , 14-C ) :   1.6155 B( 13-C , 15-Br) :   1.0206
B( 14-C , 75-H ) :   1.0011 B( 16-C , 17-O ) :   2.2340 B( 16-C , 18-C ) :   0.9203
B( 18-C , 19-C ) :   1.7264 B( 19-C , 20-C ) :   1.0392 B( 19-C , 76-H ) :   0.9374
B( 20-C , 21-C ) :   1.4470 B( 20-C , 23-C ) :   0.1110 B( 20-C , 25-C ) :   1.2011
B( 21-C , 22-C ) :   1.2008 B( 21-C , 77-H ) :   1.0003 B( 22-C , 23-C ) :   1.4568
B( 22-C , 78-H ) :   1.0076 B( 23-C , 24-C ) :   1.2185 B( 23-C , 29-C ) :   1.0281
B( 24-C , 25-C ) :   1.1738 B( 24-C , 28-N ) :   1.5435 B( 25-C , 26-N ) :   1.5213
B( 26-N , 27-S ) :   1.2759 B( 26-N , 28-N ) :   0.1467 B( 27-S , 28-N ) :   1.2876
B( 29-C , 30-O ) :   1.1805 B( 29-C , 31-C ) :   1.4833 B( 30-O , 38-C ) :   1.1362
B( 31-C , 32-C ) :   0.8596 B( 31-C , 37-C ) :   1.2718 B( 32-C , 33-O ) :   2.2653
B( 32-C , 34-N ) :   1.0773 B( 34-N , 35-C ) :   1.0827 B( 34-N , 79-H ) :   0.9144
B( 35-C , 36-O ) :   2.2675 B( 35-C , 37-C ) :   0.8797 B( 37-C , 38-C ) :   1.3824
B( 38-C , 39-C ) :   1.1870 B( 39-C , 40-C ) :   1.5780 B( 39-C , 80-H ) :   0.9697
B( 40-C , 41-C ) :   1.1533 B( 40-C , 81-H ) :   0.9788 B( 41-C , 42-C ) :   1.5449
B( 41-C , 82-H ) :   0.9868 B( 42-C , 43-C ) :   1.1496 B( 42-C , 46-S ) :   1.0344
B( 43-C , 44-C ) :   1.5798 B( 43-C , 83-H ) :   1.0004 B( 44-C , 45-C ) :   1.1964
B( 44-C , 84-H ) :   0.9948 B( 45-C , 46-S ) :   1.0710 B( 45-C , 47-C ) :   1.4753
B( 47-C , 48-C ) :   1.2098 B( 47-C , 51-S ) :   1.0467 B( 48-C , 49-C ) :   1.5561
B( 48-C , 85-H ) :   0.9944 B( 49-C , 50-C ) :   1.1735 B( 49-C , 86-H ) :   1.0004
B( 50-C , 51-S ) :   1.0791 B( 50-C , 52-C ) :   1.5143 B( 52-C , 53-C ) :   1.2082
B( 52-C , 87-H ) :   0.9612 B( 53-C , 54-C ) :   1.5473 B( 53-C , 88-H ) :   0.9389
B( 54-C , 55-C ) :   1.0804 B( 54-C , 63-C ) :   0.9623 B( 55-C , 56-C ) :   1.6036
B( 55-C , 61-C ) :   1.0072 B( 56-C , 57-C ) :   1.1323 B( 56-C , 59-C ) :   1.1649
B( 57-C , 58-N ) :   2.9772 B( 59-C , 60-N ) :   3.0115 B( 61-C , 62-C ) :   1.2759
B( 61-C , 68-C ) :   1.4217 B( 62-C , 63-C ) :   0.9191 B( 62-C , 65-C ) :   1.4325
B( 63-C , 64-O ) :   2.2485 B( 65-C , 66-C ) :   1.2449 B( 65-C , 89-H ) :   1.0159
B( 66-C , 67-C ) :   1.3154 B( 66-C , 71-C ) :   1.1630 B( 67-C , 68-C ) :   1.3198
B( 67-C , 69-S ) :   1.0837 B( 68-C , 90-H ) :   0.9812 B( 69-S , 70-C ) :   1.0858
B( 70-C , 71-C ) :   1.6204 B( 70-C , 72-Br) :   1.0153 B( 71-C , 91-H ) :   0.9995

-----------------------------------------------------------------------------
         ABSORPTION SPECTRUM VIA TRANSITION ELECTRIC DIPOLE MOMENTS
-----------------------------------------------------------------------------
State   Energy  Wavelength   fosc         T2         TX        TY        TZ
        (cm-1)    (nm)                  (au**2)     (au)      (au)      (au)
-----------------------------------------------------------------------------
   0   11183.0    894.2   1.170412508  34.45539   1.71050   2.01136  -5.24252
   1   17312.2    577.6   0.500947289   9.52611   2.29123  -1.14500  -1.72202
   2   20574.7    486.0   0.370336321   5.92568  -1.83866   0.95252   1.27973
   3   21477.0    465.6   0.503731512   7.72148   1.99703  -1.92101  -0.20752
   4   23618.2    423.4   0.059331974   0.82702  -0.43056   0.79911   0.05530
   5   24106.0    414.8   0.406282249   5.54854  -1.88249   0.42084   1.35191
   6   24340.6    410.8   0.013241725   0.17910   0.17346  -0.28487  -0.26050
   7   25089.6    398.6   0.214248002   2.81124   1.27805  -0.76071   0.77405
   8   26667.1    375.0   0.121373540   1.49839   0.32526  -1.15439  -0.24491
   9   26792.9    373.2   0.151158257   1.85733  -0.63590  -1.05558  -0.58199
  10   27360.6    365.5   0.057051613   0.68646  -0.68698   0.39146  -0.24755
  11   27756.8    360.3   0.069212405   0.82090   0.51793  -0.23771   0.70437
  12   28054.7    356.4   0.011706195   0.13737   0.34473  -0.04164   0.12959
  13   28701.0    348.4   0.027803087   0.31891   0.09297   0.54083   0.13332
  14   29234.3    342.1   0.020424811   0.23001  -0.33453   0.23551   0.25026
  15   29934.7    334.1   0.004450896   0.04895   0.08713   0.13268  -0.15412
  16   30262.8    330.4   0.066943957   0.72825   0.14135  -0.46377  -0.70227
  17   30494.8    327.9   0.108067486   1.16666  -1.00147   0.40453   0.00902
  18   31151.4    321.0   0.058678030   0.62012   0.66164   0.40030   0.14866
  19   31303.1    319.5   0.227169286   2.38912  -0.45231  -1.15572  -0.92132
  20   31859.9    313.9   0.074259939   0.76734  -0.70408   0.33985   0.39511
  21   31998.2    312.5   0.250043389   2.57256   1.39190  -0.66956  -0.43230
  22   32063.3    311.9   0.050914109   0.52276   0.11336  -0.61879   0.35639
  23   32272.7    309.9   0.155788178   1.58918   1.19428  -0.34053   0.21662
  24   32411.2    308.5   0.160944150   1.63477  -1.27413   0.09020   0.05666
  25   32801.7    304.9   0.110849357   1.11253   0.46787   0.47016  -0.82011
  26   33057.9    302.5   0.194781801   1.93976  -0.96679  -0.90532  -0.43068
  27   33092.8    302.2   0.247851179   2.46566   0.88077   1.28365   0.20530
  28   33308.0    300.2   0.077550343   0.76650   0.60980  -0.10667   0.61908
  29   33659.7    297.1   0.028990454   0.28354   0.15531   0.41716  -0.29224
  30   33792.5    295.9   0.006385416   0.06221  -0.17148  -0.18095   0.00775
  31   33982.9    294.3   0.004715146   0.04568   0.11241   0.15351  -0.09734
  32   34793.3    287.4   0.008274227   0.07829  -0.27692   0.01816  -0.03572
  33   34946.7    286.2   0.012325425   0.11611  -0.07609  -0.01976   0.33156
  34   35237.0    283.8   0.026763053   0.25004  -0.32314  -0.21644  -0.31428
  35   35325.2    283.1   0.078820625   0.73457  -0.55435  -0.65073   0.06171
  36   35631.9    280.6   0.029332301   0.27101  -0.27020   0.32511  -0.30382
  37   35872.5    278.8   0.046983557   0.43118  -0.62215  -0.11213  -0.17760
  38   36006.1    277.7   0.029176486   0.26677  -0.47965   0.18266   0.05781
  39   36132.3    276.8   0.100047804   0.91156  -0.93134   0.12864  -0.16620
  40   36415.9    274.6   0.016657219   0.15059   0.32353  -0.20442  -0.06428
  41   36631.3    273.0   0.018872981   0.16961  -0.23433  -0.33668   0.03672
  42   36902.3    271.0   0.017096125   0.15252  -0.26991   0.08991   0.26755
  43   37244.3    268.5   0.013879092   0.12268  -0.20424   0.01690  -0.28404
  44   37472.8    266.9   0.064282226   0.56474  -0.38355   0.59876  -0.24314
  45   37852.0    264.2   0.100939864   0.87791  -0.81071   0.25876  -0.39204
  46   38048.5    262.8   0.070447527   0.60954  -0.33329   0.01909  -0.70576
  47   38252.1    261.4   0.051982058   0.44738   0.29543  -0.29719   0.52132
  48   38415.9    260.3   0.011087001   0.09501  -0.05325   0.03809  -0.30121
  49   38685.6    258.5   0.015111235   0.12860   0.33713  -0.01227   0.12160
  50   38908.2    257.0   0.076722875   0.64917   0.70951  -0.37734   0.05817
  51   39079.7    255.9   0.232890471   1.96190  -1.20097   0.14948   0.70514
  52   39410.4    253.7   0.032446439   0.27104   0.36287  -0.37272   0.02111
  53   39516.4    253.1   0.013160297   0.10964   0.31468   0.09242  -0.04552
  54   39853.7    250.9   0.030201747   0.24948   0.17265   0.08623  -0.46069
  55   39984.9    250.1   0.041663786   0.34303   0.53068  -0.24679  -0.02257
  56   40289.7    248.2   0.025850753   0.21123  -0.39054  -0.20998  -0.12089

FINAL SINGLE POINT ENERGY     -9963.199180734204

DIPOLE MOMENT
-------------
                                X             Y             Z
Electronic contribution:    117.65868     -95.35843    -101.78016
Nuclear contribution   :   -120.12187      95.81919     103.34537
                        -----------------------------------------
Total Dipole Moment    :     -2.46319       0.46076       1.56521
                        -----------------------------------------
Magnitude (a.u.)       :      2.95457
Magnitude (Debye)      :      7.50993

Rotational constants in cm-1:     0.000457     0.000352     0.000226
Rotational constants in MHz :    13.708119    10.549502     6.787949

                             ****ORCA TERMINATED NORMALLY****
TOTAL RUN TIME: 0 days 0 hours 14 minutes 52 seconds 737 msec
