                         Program Version 4.2.0 -  RELEASE  -
|  1> # ORCA input file
|  2> # SCF done       -195.300036024678          0.000321256550
|  3> ! CAM-B3LYP def2-SVP def2/J RIJCOSX Grid4 TightSCF
|  4> %maxcore 5000
|  5> %tddft
|  6>     Mode sTDDFT
|  7>     Ethresh 5.0
|  8>     maxcore 5000
|  9> end
| 10>
| 11> %pal
| 12>   nprocs 6
| 13>   end
| 14> * xyz 0 1
| 15>    C       -2.19081        -3.16030        -8.98202
| 16>    C       -2.27530        -4.34153        -8.27758
| 17>    C       -1.43977        -5.45343        -8.49754
| 18>    N       -0.79293        -6.39529        -8.62090
| 19>    C       -3.19497        -4.62787        -7.25057
| 20>    N       -3.90691        -4.95673        -6.40936
| 21>    C       -1.24110        -2.89505       -10.06238
| 22>    C       -1.46831        -1.58646       -10.55291
| 23>    C       -0.73956        -1.04192       -11.58037
| 24>    C        0.26611        -1.82760       -12.15514
| 25>    C        0.48756        -3.13220       -11.65814
| 26>    C       -0.25133        -3.68296       -10.61680
| 27>    S        1.77539        -3.93044       -12.51035
| 28>    C        1.99377        -2.51822       -13.50946
| 29>    C        1.14835        -1.50092       -13.22163
| 30>   Br        3.31720        -2.52097       -14.83966
| 31>    C       -2.57555        -0.96801        -9.79242
| 32>    O       -3.02308         0.15060        -9.95987
| 33>    C       -3.00230        -1.98534        -8.81431
| 34>    C       -4.02604        -1.81301        -7.89993
| 35>    C       -4.80492        -0.67063        -7.78081
| 36>    C       -5.84519        -0.56119        -6.87251
| 37>    C       -6.71538         0.53555        -6.71122
| 38>    C       -7.68230         0.34617        -5.76167
| 39>    C       -7.61001        -0.90719        -5.12862
| 40>    S       -6.27583        -1.84012        -5.76067
| 41>    C       -8.45242        -1.42598        -4.15148
| 42>    C       -9.62408        -0.86076        -3.61804
| 43>    C      -10.24658        -1.66150        -2.70210
| 44>    C       -9.60394        -2.89858        -2.46970
| 45>    S       -8.15139        -2.98859        -3.44100
| 46>    C      -10.05745        -3.82614        -1.54820
| 47>    C       -9.59316        -5.07763        -1.14611
| 48>    S      -10.19738        -5.58557         0.42586
| 49>    C       -9.15703        -6.97902         0.44326
| 50>    C       -8.37433        -7.02320        -0.73241
| 51>    C       -8.69375        -6.03864        -1.65841
| 52>    C       -8.28323        -6.15307        -3.09913
| 53>    C       -9.49636        -6.00264        -4.02183
| 54>    C       -7.63941        -7.52046        -3.34578
| 55>    C       -6.59164        -7.81157        -2.28550
| 56>    C       -7.24775        -8.00042        -0.91450
| 57>    C       -6.18635        -7.79724         0.17530
| 58>    C       -9.21460        -7.94019         1.44725
| 59>    C      -10.02620        -7.93753         2.56696
| 60>    C      -10.11220        -8.97585         3.51886
| 61>    C      -11.02211        -8.75087         4.51362
| 62>    C      -11.69106        -7.51860         4.39557
| 63>    S      -11.12497        -6.64600         2.99401
| 64>    C      -12.68416        -6.99817         5.21747
| 65>    C      -13.25786        -7.58396         6.36048
| 66>    C      -14.23588        -6.82027         6.93536
| 67>    C      -14.47048        -5.59634         6.27663
| 68>    S      -13.41583        -5.44535         4.89337
| 69>    C      -15.40778        -4.63831         6.62454
| 70>    C      -15.55399        -3.42656         5.96419
| 71>    C      -16.49247        -2.44268         6.20594
| 72>    C      -17.72363        -2.46077         6.94256
| 73>    C      -18.53281        -3.55005         7.17906
| 74>    C      -19.75495        -3.48419         7.87403
| 75>    N      -20.74789        -3.49378         8.45214
| 76>    C      -18.30193        -4.83729         6.65691
| 77>    N      -18.19356        -5.89513         6.22167
| 78>    C      -18.09440        -1.07037         7.20907
| 79>    C      -17.22145        -0.22368         6.48152
| 80>    C      -16.22465        -1.05556         5.77157
| 81>    O      -15.34729        -0.67870         5.02336
| 82>    C      -17.33374         1.14401         6.50254
| 83>    C      -18.34798         1.70419         7.28842
| 84>    C      -19.20568         0.85067         8.01933
| 85>    C      -19.09846        -0.53568         7.99058
| 86>    S      -20.37859         1.75132         8.93214
| 87>    C      -19.71077         3.24288         8.32428
| 88>    C      -18.66368         3.07741         7.48254
| 89>   Br      -20.45823         4.87808         8.86093
| 90>    H       -0.93871        -0.04176       -11.93218
| 91>    H       -0.04239        -4.68303       -10.27595
| 92>    H        1.14458        -0.55868       -13.73860
| 93>    H       -4.25264        -2.63067        -7.22644
| 94>    H       -4.61093         0.16950        -8.43174
| 95>    H       -6.60933         1.42662        -7.30372
| 96>    H       -8.43235         1.07372        -5.50866
| 97>    H       -9.98736         0.10313        -3.92443
| 98>    H      -11.15802        -1.40106        -2.19363
| 99>    H      -10.89473        -3.46589        -0.95843
|100>    H       -7.54829        -5.37957        -3.34153
|101>    H      -10.23426        -6.76988        -3.79495
|102>    H       -9.18087        -6.12237        -5.05502
|103>    H       -9.97334        -5.03392        -3.91932
|104>    H       -7.18542        -7.52570        -4.33677
|105>    H       -8.40903        -8.29590        -3.32020
|106>    H       -5.89210        -6.97450        -2.24163
|107>    H       -6.02456        -8.70704        -2.54214
|108>    H       -7.64433        -9.02049        -0.84101
|109>    H       -5.81072        -6.77693         0.13862
|110>    H       -5.35401        -8.47530         0.00211
|111>    H       -6.57786        -7.97715         1.17204
|112>    H       -8.59266        -8.81628         1.32372
|113>    H       -9.50831        -9.86263         3.43984
|114>    H      -11.22326        -9.43834         5.31489
|115>    H      -12.94610        -8.54413         6.72993
|116>    H      -14.79733        -7.10458         7.80714
|117>    H      -16.02495        -4.86118         7.48296
|118>    H      -14.79699        -3.16249         5.23137
|119>    H      -16.66037         1.76548         5.93334
|120>    H      -19.77322        -1.14531         8.56834
|121>    H      -18.13344         3.88831         7.01740
|122> *
|123>
|124>                          ****END OF INPUT****

CARTESIAN COORDINATES (ANGSTROEM)
---------------------------------
  C     -2.190810   -3.160300   -8.982020
  C     -2.275300   -4.341530   -8.277580
  C     -1.439770   -5.453430   -8.497540
  N     -0.792930   -6.395290   -8.620900
  C     -3.194970   -4.627870   -7.250570
  N     -3.906910   -4.956730   -6.409360
  C     -1.241100   -2.895050  -10.062380
  C     -1.468310   -1.586460  -10.552910
  C     -0.739560   -1.041920  -11.580370
  C      0.266110   -1.827600  -12.155140
  C      0.487560   -3.132200  -11.658140
  C     -0.251330   -3.682960  -10.616800
  S      1.775390   -3.930440  -12.510350
  C      1.993770   -2.518220  -13.509460
  C      1.148350   -1.500920  -13.221630
  Br     3.317200   -2.520970  -14.839660
  C     -2.575550   -0.968010   -9.792420
  O     -3.023080    0.150600   -9.959870
  C     -3.002300   -1.985340   -8.814310
  C     -4.026040   -1.813010   -7.899930
  C     -4.804920   -0.670630   -7.780810
  C     -5.845190   -0.561190   -6.872510
  C     -6.715380    0.535550   -6.711220
  C     -7.682300    0.346170   -5.761670
  C     -7.610010   -0.907190   -5.128620
  S     -6.275830   -1.840120   -5.760670
  C     -8.452420   -1.425980   -4.151480
  C     -9.624080   -0.860760   -3.618040
  C    -10.246580   -1.661500   -2.702100
  C     -9.603940   -2.898580   -2.469700
  S     -8.151390   -2.988590   -3.441000
  C    -10.057450   -3.826140   -1.548200
  C     -9.593160   -5.077630   -1.146110
  S    -10.197380   -5.585570    0.425860
  C     -9.157030   -6.979020    0.443260
  C     -8.374330   -7.023200   -0.732410
  C     -8.693750   -6.038640   -1.658410
  C     -8.283230   -6.153070   -3.099130
  C     -9.496360   -6.002640   -4.021830
  C     -7.639410   -7.520460   -3.345780
  C     -6.591640   -7.811570   -2.285500
  C     -7.247750   -8.000420   -0.914500
  C     -6.186350   -7.797240    0.175300
  C     -9.214600   -7.940190    1.447250
  C    -10.026200   -7.937530    2.566960
  C    -10.112200   -8.975850    3.518860
  C    -11.022110   -8.750870    4.513620
  C    -11.691060   -7.518600    4.395570
  S    -11.124970   -6.646000    2.994010
  C    -12.684160   -6.998170    5.217470
  C    -13.257860   -7.583960    6.360480
  C    -14.235880   -6.820270    6.935360
  C    -14.470480   -5.596340    6.276630
  S    -13.415830   -5.445350    4.893370
  C    -15.407780   -4.638310    6.624540
  C    -15.553990   -3.426560    5.964190
  C    -16.492470   -2.442680    6.205940
  C    -17.723630   -2.460770    6.942560
  C    -18.532810   -3.550050    7.179060
  C    -19.754950   -3.484190    7.874030
  N    -20.747890   -3.493780    8.452140
  C    -18.301930   -4.837290    6.656910
  N    -18.193560   -5.895130    6.221670
  C    -18.094400   -1.070370    7.209070
  C    -17.221450   -0.223680    6.481520
  C    -16.224650   -1.055560    5.771570
  O    -15.347290   -0.678700    5.023360
  C    -17.333740    1.144010    6.502540
  C    -18.347980    1.704190    7.288420
  C    -19.205680    0.850670    8.019330
  C    -19.098460   -0.535680    7.990580
  S    -20.378590    1.751320    8.932140
  C    -19.710770    3.242880    8.324280
  C    -18.663680    3.077410    7.482540
  Br   -20.458230    4.878080    8.860930
  H     -0.938710   -0.041760  -11.932180
  H     -0.042390   -4.683030  -10.275950
  H      1.144580   -0.558680  -13.738600
  H     -4.252640   -2.630670   -7.226440
  H     -4.610930    0.169500   -8.431740
  H     -6.609330    1.426620   -7.303720
  H     -8.432350    1.073720   -5.508660
  H     -9.987360    0.103130   -3.924430
  H    -11.158020   -1.401060   -2.193630
  H    -10.894730   -3.465890   -0.958430
  H     -7.548290   -5.379570   -3.341530
  H    -10.234260   -6.769880   -3.794950
  H     -9.180870   -6.122370   -5.055020
  H     -9.973340   -5.033920   -3.919320
  H     -7.185420   -7.525700   -4.336770
  H     -8.409030   -8.295900   -3.320200
  H     -5.892100   -6.974500   -2.241630
  H     -6.024560   -8.707040   -2.542140
  H     -7.644330   -9.020490   -0.841010
  H     -5.810720   -6.776930    0.138620
  H     -5.354010   -8.475300    0.002110
  H     -6.577860   -7.977150    1.172040
  H     -8.592660   -8.816280    1.323720
  H     -9.508310   -9.862630    3.439840
  H    -11.223260   -9.438340    5.314890
  H    -12.946100   -8.544130    6.729930
  H    -14.797330   -7.104580    7.807140
  H    -16.024950   -4.861180    7.482960
  H    -14.796990   -3.162490    5.231370
  H    -16.660370    1.765480    5.933340
  H    -19.773220   -1.145310    8.568340
  H    -18.133440    3.888310    7.017400

 Total Charge           Charge          ....    0
 Multiplicity           Mult            ....    1
 Number of Electrons    NEL             ....  618
 Basis Dimension        Dim             .... 1274

ORBITAL ENERGIES
----------------

  NO   OCC          E(Eh)            E(eV)
   0   2.0000    -482.879127    -13139.8091
   1   2.0000    -482.877566    -13139.7666
   2   2.0000     -88.971818     -2421.0463
   3   2.0000     -88.970191     -2421.0020
   4   2.0000     -88.969932     -2420.9949
   5   2.0000     -88.967372     -2420.9253
   6   2.0000     -88.965307     -2420.8691
   7   2.0000     -88.964924     -2420.8586
   8   2.0000     -88.960737     -2420.7447
   9   2.0000     -62.556822     -1702.2577
  10   2.0000     -62.555257     -1702.2151
  11   2.0000     -56.390763     -1534.4707
  12   2.0000     -56.389191     -1534.4279
  13   2.0000     -56.388068     -1534.3973
  14   2.0000     -56.388030     -1534.3963
  15   2.0000     -56.386504     -1534.3548
  16   2.0000     -56.386466     -1534.3538
  17   2.0000     -19.200439      -522.4705
  18   2.0000     -19.199943      -522.4570
  19   2.0000     -14.403074      -391.9276
  20   2.0000     -14.402666      -391.9165
  21   2.0000     -14.400837      -391.8667
  22   2.0000     -14.398771      -391.8105
  23   2.0000     -10.351464      -281.6777
  24   2.0000     -10.350501      -281.6515
  25   2.0000     -10.350156      -281.6421
  26   2.0000     -10.348737      -281.6035
  27   2.0000     -10.338378      -281.3216
  28   2.0000     -10.337411      -281.2952
  29   2.0000     -10.331026      -281.1215
  30   2.0000     -10.329813      -281.0885
  31   2.0000     -10.328913      -281.0640
  32   2.0000     -10.328640      -281.0566
  33   2.0000     -10.327851      -281.0351
  34   2.0000     -10.327299      -281.0201
  35   2.0000     -10.326813      -281.0069
  36   2.0000     -10.324187      -280.9354
  37   2.0000     -10.323771      -280.9241
  38   2.0000     -10.323244      -280.9097
  39   2.0000     -10.322317      -280.8845
  40   2.0000     -10.321847      -280.8717
  41   2.0000     -10.315933      -280.7108
  42   2.0000     -10.315903      -280.7100
  43   2.0000     -10.313420      -280.6424
  44   2.0000     -10.313231      -280.6373
  45   2.0000     -10.309482      -280.5353
  46   2.0000     -10.308224      -280.5010
  47   2.0000     -10.307880      -280.4917
  48   2.0000     -10.307047      -280.4690
  49   2.0000     -10.306732      -280.4604
  50   2.0000     -10.306068      -280.4424
  51   2.0000     -10.305777      -280.4345
  52   2.0000     -10.304297      -280.3942
  53   2.0000     -10.303405      -280.3699
  54   2.0000     -10.302880      -280.3556
  55   2.0000     -10.302255      -280.3386
  56   2.0000     -10.297924      -280.2208
  57   2.0000     -10.297400      -280.2065
  58   2.0000     -10.297378      -280.2059
  59   2.0000     -10.297205      -280.2012
  60   2.0000     -10.297019      -280.1961
  61   2.0000     -10.296992      -280.1954
  62   2.0000     -10.295165      -280.1457
  63   2.0000     -10.294725      -280.1337
  64   2.0000     -10.293973      -280.1133
  65   2.0000     -10.293153      -280.0909
  66   2.0000     -10.292037      -280.0606
  67   2.0000     -10.291017      -280.0328
  68   2.0000     -10.288899      -279.9752
  69   2.0000     -10.288196      -279.9560
  70   2.0000     -10.287967      -279.9498
  71   2.0000     -10.286967      -279.9226
  72   2.0000     -10.286212      -279.9021
  73   2.0000     -10.282051      -279.7888
  74   2.0000     -10.281155      -279.7644
  75   2.0000     -10.279753      -279.7263
  76   2.0000     -10.277740      -279.6715
  77   2.0000     -10.276235      -279.6306
  78   2.0000     -10.274116      -279.5729
  79   2.0000     -10.267524      -279.3935
  80   2.0000     -10.266494      -279.3655
  81   2.0000     -10.265028      -279.3256
  82   2.0000     -10.259133      -279.1652
  83   2.0000      -8.786237      -239.0857
  84   2.0000      -8.784681      -239.0433
  85   2.0000      -8.067928      -219.5395
  86   2.0000      -8.065675      -219.4782
  87   2.0000      -8.065622      -219.4767
  88   2.0000      -8.063286      -219.4132
  89   2.0000      -8.061577      -219.3667
  90   2.0000      -8.060985      -219.3506
  91   2.0000      -8.056853      -219.2381
  92   2.0000      -6.622472      -180.2066
  93   2.0000      -6.620885      -180.1634
  94   2.0000      -6.607990      -179.8126
  95   2.0000      -6.607827      -179.8081
  96   2.0000      -6.606445      -179.7705
  97   2.0000      -6.606281      -179.7660
  98   2.0000      -6.037618      -164.2919
  99   2.0000      -6.035282      -164.2284
 100   2.0000      -6.034877      -164.2174
 101   2.0000      -6.033377      -164.1765
 102   2.0000      -6.033014      -164.1666
 103   2.0000      -6.031153      -164.1160
 104   2.0000      -6.031109      -164.1148
 105   2.0000      -6.030985      -164.1114
 106   2.0000      -6.030679      -164.1031
 107   2.0000      -6.029060      -164.0591
 108   2.0000      -6.028684      -164.0488
 109   2.0000      -6.027637      -164.0203
 110   2.0000      -6.027131      -164.0066
 111   2.0000      -6.026816      -163.9980
 112   2.0000      -6.026418      -163.9872
 113   2.0000      -6.026405      -163.9868
 114   2.0000      -6.024533      -163.9359
 115   2.0000      -6.022770      -163.8879
 116   2.0000      -6.022390      -163.8776
 117   2.0000      -6.022174      -163.8717
 118   2.0000      -6.018077      -163.7602
 119   2.0000      -2.738375       -74.5150
 120   2.0000      -2.736817       -74.4726
 121   2.0000      -2.734273       -74.4034
 122   2.0000      -2.734157       -74.4002
 123   2.0000      -2.732690       -74.3603
 124   2.0000      -2.732583       -74.3574
 125   2.0000      -2.722639       -74.0868
 126   2.0000      -2.722626       -74.0864
 127   2.0000      -2.721084       -74.0445
 128   2.0000      -2.721078       -74.0443
 129   2.0000      -1.114511       -30.3274
 130   2.0000      -1.113280       -30.2939
 131   2.0000      -1.020043       -27.7568
 132   2.0000      -1.016147       -27.6508
 133   2.0000      -1.012285       -27.5457
 134   2.0000      -1.009717       -27.4758
 135   2.0000      -1.007273       -27.4093
 136   2.0000      -1.001485       -27.2518
 137   2.0000      -0.999982       -27.2109
 138   2.0000      -0.994319       -27.0568
 139   2.0000      -0.990440       -26.9513
 140   2.0000      -0.980829       -26.6897
 141   2.0000      -0.979894       -26.6643
 142   2.0000      -0.977567       -26.6009
 143   2.0000      -0.974818       -26.5262
 144   2.0000      -0.935988       -25.4695
 145   2.0000      -0.933923       -25.4133
 146   2.0000      -0.931266       -25.3410
 147   2.0000      -0.927431       -25.2367
 148   2.0000      -0.912343       -24.8261
 149   2.0000      -0.906679       -24.6720
 150   2.0000      -0.897779       -24.4298
 151   2.0000      -0.895495       -24.3677
 152   2.0000      -0.890607       -24.2347
 153   2.0000      -0.886054       -24.1108
 154   2.0000      -0.875824       -23.8324
 155   2.0000      -0.873501       -23.7692
 156   2.0000      -0.872780       -23.7495
 157   2.0000      -0.868020       -23.6200
 158   2.0000      -0.866746       -23.5854
 159   2.0000      -0.863468       -23.4961
 160   2.0000      -0.849781       -23.1237
 161   2.0000      -0.843605       -22.9557
 162   2.0000      -0.839775       -22.8514
 163   2.0000      -0.838791       -22.8247
 164   2.0000      -0.832775       -22.6610
 165   2.0000      -0.820357       -22.3230
 166   2.0000      -0.818069       -22.2608
 167   2.0000      -0.816358       -22.2142
 168   2.0000      -0.805811       -21.9272
 169   2.0000      -0.798436       -21.7266
 170   2.0000      -0.783917       -21.3315
 171   2.0000      -0.769571       -20.9411
 172   2.0000      -0.756144       -20.5757
 173   2.0000      -0.747923       -20.3520
 174   2.0000      -0.744486       -20.2585
 175   2.0000      -0.734332       -19.9822
 176   2.0000      -0.733230       -19.9522
 177   2.0000      -0.720035       -19.5931
 178   2.0000      -0.707443       -19.2505
 179   2.0000      -0.704307       -19.1652
 180   2.0000      -0.696544       -18.9539
 181   2.0000      -0.690990       -18.8028
 182   2.0000      -0.685689       -18.6585
 183   2.0000      -0.681708       -18.5502
 184   2.0000      -0.679448       -18.4887
 185   2.0000      -0.676384       -18.4054
 186   2.0000      -0.672914       -18.3109
 187   2.0000      -0.659939       -17.9578
 188   2.0000      -0.658296       -17.9131
 189   2.0000      -0.650323       -17.6962
 190   2.0000      -0.646002       -17.5786
 191   2.0000      -0.645538       -17.5660
 192   2.0000      -0.641264       -17.4497
 193   2.0000      -0.636150       -17.3105
 194   2.0000      -0.633973       -17.2513
 195   2.0000      -0.629722       -17.1356
 196   2.0000      -0.623928       -16.9779
 197   2.0000      -0.619742       -16.8640
 198   2.0000      -0.612396       -16.6641
 199   2.0000      -0.611996       -16.6532
 200   2.0000      -0.610170       -16.6036
 201   2.0000      -0.603939       -16.4340
 202   2.0000      -0.590472       -16.0676
 203   2.0000      -0.589843       -16.0505
 204   2.0000      -0.587248       -15.9798
 205   2.0000      -0.584646       -15.9090
 206   2.0000      -0.581226       -15.8160
 207   2.0000      -0.571280       -15.5453
 208   2.0000      -0.566075       -15.4037
 209   2.0000      -0.556911       -15.1543
 210   2.0000      -0.552405       -15.0317
 211   2.0000      -0.549484       -14.9522
 212   2.0000      -0.540105       -14.6970
 213   2.0000      -0.537906       -14.6372
 214   2.0000      -0.535569       -14.5736
 215   2.0000      -0.533587       -14.5196
 216   2.0000      -0.531880       -14.4732
 217   2.0000      -0.527716       -14.3599
 218   2.0000      -0.526651       -14.3309
 219   2.0000      -0.525464       -14.2986
 220   2.0000      -0.523159       -14.2359
 221   2.0000      -0.522464       -14.2170
 222   2.0000      -0.520294       -14.1579
 223   2.0000      -0.518292       -14.1034
 224   2.0000      -0.515945       -14.0396
 225   2.0000      -0.515732       -14.0338
 226   2.0000      -0.512718       -13.9518
 227   2.0000      -0.510207       -13.8834
 228   2.0000      -0.506441       -13.7810
 229   2.0000      -0.504033       -13.7154
 230   2.0000      -0.502687       -13.6788
 231   2.0000      -0.501219       -13.6389
 232   2.0000      -0.499384       -13.5889
 233   2.0000      -0.497471       -13.5369
 234   2.0000      -0.496638       -13.5142
 235   2.0000      -0.495995       -13.4967
 236   2.0000      -0.494028       -13.4432
 237   2.0000      -0.490706       -13.3528
 238   2.0000      -0.488470       -13.2919
 239   2.0000      -0.485801       -13.2193
 240   2.0000      -0.483838       -13.1659
 241   2.0000      -0.482539       -13.1305
 242   2.0000      -0.481211       -13.0944
 243   2.0000      -0.480675       -13.0798
 244   2.0000      -0.479313       -13.0428
 245   2.0000      -0.478115       -13.0102
 246   2.0000      -0.475109       -12.9284
 247   2.0000      -0.474526       -12.9125
 248   2.0000      -0.471507       -12.8304
 249   2.0000      -0.462591       -12.5878
 250   2.0000      -0.459321       -12.4988
 251   2.0000      -0.458321       -12.4715
 252   2.0000      -0.455619       -12.3980
 253   2.0000      -0.451692       -12.2912
 254   2.0000      -0.450758       -12.2658
 255   2.0000      -0.449643       -12.2354
 256   2.0000      -0.447171       -12.1681
 257   2.0000      -0.445201       -12.1145
 258   2.0000      -0.443453       -12.0670
 259   2.0000      -0.439754       -11.9663
 260   2.0000      -0.437909       -11.9161
 261   2.0000      -0.437012       -11.8917
 262   2.0000      -0.436818       -11.8864
 263   2.0000      -0.435943       -11.8626
 264   2.0000      -0.432162       -11.7597
 265   2.0000      -0.431680       -11.7466
 266   2.0000      -0.430326       -11.7098
 267   2.0000      -0.428286       -11.6542
 268   2.0000      -0.427833       -11.6419
 269   2.0000      -0.426915       -11.6169
 270   2.0000      -0.423779       -11.5316
 271   2.0000      -0.419676       -11.4200
 272   2.0000      -0.417306       -11.3555
 273   2.0000      -0.413593       -11.2544
 274   2.0000      -0.413048       -11.2396
 275   2.0000      -0.410250       -11.1635
 276   2.0000      -0.409950       -11.1553
 277   2.0000      -0.407438       -11.0870
 278   2.0000      -0.404968       -11.0197
 279   2.0000      -0.402330       -10.9480
 280   2.0000      -0.397792       -10.8245
 281   2.0000      -0.397175       -10.8077
 282   2.0000      -0.393763       -10.7148
 283   2.0000      -0.392501       -10.6805
 284   2.0000      -0.389651       -10.6029
 285   2.0000      -0.383712       -10.4413
 286   2.0000      -0.378652       -10.3037
 287   2.0000      -0.375354       -10.2139
 288   2.0000      -0.369025       -10.0417
 289   2.0000      -0.368643       -10.0313
 290   2.0000      -0.367025        -9.9872
 291   2.0000      -0.358882        -9.7657
 292   2.0000      -0.354859        -9.6562
 293   2.0000      -0.352501        -9.5921
 294   2.0000      -0.347181        -9.4473
 295   2.0000      -0.342695        -9.3252
 296   2.0000      -0.337875        -9.1941
 297   2.0000      -0.330896        -9.0041
 298   2.0000      -0.323433        -8.8011
 299   2.0000      -0.322079        -8.7642
 300   2.0000      -0.320342        -8.7169
 301   2.0000      -0.307018        -8.3544
 302   2.0000      -0.305576        -8.3151
 303   2.0000      -0.303599        -8.2613
 304   2.0000      -0.285978        -7.7819
 305   2.0000      -0.283637        -7.7182
 306   2.0000      -0.279190        -7.5971
 307   2.0000      -0.241913        -6.5828
 308   2.0000      -0.214003        -5.8233
 309   0.0000      -0.129323        -3.5191
 310   0.0000      -0.098287        -2.6745
 311   0.0000      -0.065251        -1.7756
 312   0.0000      -0.055754        -1.5171
 313   0.0000      -0.045192        -1.2297

MULLIKEN ATOMIC CHARGES
-----------------------
   0 C :    0.330574
   1 C :   -0.365450
   2 C :   -0.190039
   3 N :    0.135232
   4 C :   -0.188657
   5 N :    0.119705
   6 C :    0.011944
   7 C :   -0.011328
   8 C :   -0.075191
   9 C :    0.115223
  10 C :   -0.092119
  11 C :   -0.024424
  12 S :    0.178685
  13 C :   -0.123568
  14 C :    0.037145
  15 Br:    0.014553
  16 C :    0.137315
  17 O :   -0.166425
  18 C :   -0.092981
  19 C :   -0.040513
  20 C :   -0.021745
  21 C :    0.005197
  22 C :    0.023764
  23 C :    0.041428
  24 C :   -0.049243
  25 S :    0.105204
  26 C :   -0.024203
  27 C :    0.021678
  28 C :    0.044843
  29 C :   -0.049916
  30 S :    0.105653
  31 C :    0.022190
  32 C :   -0.129312
  33 S :    0.101305
  34 C :   -0.086803
  35 C :   -0.025195
  36 C :    0.008362
  37 C :   -0.096780
  38 C :    0.087879
  39 C :    0.059589
  40 C :    0.078797
  41 C :   -0.067956
  42 C :    0.076236
  43 C :   -0.002081
  44 C :   -0.045904
  45 C :    0.039635
  46 C :    0.025187
  47 C :   -0.019056
  48 S :    0.094832
  49 C :   -0.056090
  50 C :    0.036772
  51 C :    0.040230
  52 C :   -0.017491
  53 S :    0.112279
  54 C :    0.001146
  55 C :    0.019838
  56 C :   -0.128103
  57 C :    0.286208
  58 C :   -0.351374
  59 C :   -0.177618
  60 N :    0.137384
  61 C :   -0.219153
  62 N :    0.158840
  63 C :    0.007400
  64 C :   -0.005598
  65 C :    0.136584
  66 O :   -0.158361
  67 C :   -0.074962
  68 C :    0.111562
  69 C :   -0.091251
  70 C :   -0.024662
  71 S :    0.178881
  72 C :   -0.126052
  73 C :    0.041081
  74 Br:    0.014951
  75 H :   -0.016236
  76 H :   -0.010627
  77 H :   -0.006728
  78 H :    0.012525
  79 H :    0.016731
  80 H :    0.000037
  81 H :   -0.005277
  82 H :   -0.006953
  83 H :    0.000638
  84 H :    0.003476
  85 H :    0.036548
  86 H :    0.008137
  87 H :    0.015428
  88 H :    0.015989
  89 H :    0.014582
  90 H :   -0.005406
  91 H :    0.004265
  92 H :    0.004991
  93 H :    0.004660
  94 H :    0.016137
  95 H :    0.016947
  96 H :    0.003088
  97 H :    0.005726
  98 H :   -0.002301
  99 H :   -0.005864
 100 H :   -0.003910
 101 H :    0.001888
 102 H :    0.009176
 103 H :    0.013725
 104 H :   -0.014295
 105 H :   -0.006301
 106 H :   -0.006502
Sum of atomic charges:   -0.0000000

LOEWDIN ATOMIC CHARGES
----------------------
   0 C :    0.073239
   1 C :   -0.160402
   2 C :   -0.019442
   3 N :   -0.071641
   4 C :   -0.018993
   5 N :   -0.076316
   6 C :   -0.018087
   7 C :   -0.048422
   8 C :    0.017007
   9 C :   -0.036255
  10 C :   -0.146141
  11 C :   -0.013984
  12 S :    0.426585
  13 C :   -0.274944
  14 C :   -0.071009
  15 Br:    0.129538
  16 C :    0.081518
  17 O :   -0.159476
  18 C :   -0.109443
  19 C :    0.045615
  20 C :   -0.071572
  21 C :   -0.105511
  22 C :   -0.042926
  23 C :   -0.009579
  24 C :   -0.193712
  25 S :    0.411913
  26 C :   -0.149373
  27 C :   -0.045036
  28 C :   -0.009491
  29 C :   -0.165289
  30 S :    0.435579
  31 C :   -0.050505
  32 C :   -0.162855
  33 S :    0.434066
  34 C :   -0.169976
  35 C :   -0.028175
  36 C :   -0.035164
  37 C :   -0.039491
  38 C :   -0.044740
  39 C :   -0.020357
  40 C :   -0.021141
  41 C :   -0.030964
  42 C :   -0.040108
  43 C :   -0.047639
  44 C :   -0.160068
  45 C :   -0.015539
  46 C :   -0.040739
  47 C :   -0.153951
  48 S :    0.397817
  49 C :   -0.186036
  50 C :   -0.010275
  51 C :   -0.032770
  52 C :   -0.104134
  53 S :    0.406779
  54 C :   -0.062752
  55 C :    0.047636
  56 C :   -0.104837
  57 C :    0.067385
  58 C :   -0.154328
  59 C :   -0.020268
  60 N :   -0.064797
  61 C :   -0.024483
  62 N :   -0.062799
  63 C :   -0.015855
  64 C :   -0.050954
  65 C :    0.078018
  66 O :   -0.158948
  67 C :    0.017874
  68 C :   -0.037020
  69 C :   -0.145019
  70 C :   -0.016163
  71 S :    0.427570
  72 C :   -0.275130
  73 C :   -0.070845
  74 Br:    0.130157
  75 H :    0.038571
  76 H :    0.039722
  77 H :    0.037418
  78 H :    0.030497
  79 H :    0.038689
  80 H :    0.038819
  81 H :    0.035393
  82 H :    0.034928
  83 H :    0.038348
  84 H :    0.039179
  85 H :    0.018341
  86 H :    0.024381
  87 H :    0.028896
  88 H :    0.017167
  89 H :    0.031166
  90 H :    0.020339
  91 H :    0.025915
  92 H :    0.027643
  93 H :    0.027170
  94 H :    0.028065
  95 H :    0.027512
  96 H :    0.018249
  97 H :    0.042468
  98 H :    0.037761
  99 H :    0.035159
 100 H :    0.036084
 101 H :    0.040342
 102 H :    0.038595
 103 H :    0.034268
 104 H :    0.039110
 105 H :    0.039921
 106 H :    0.037455

  Mayer bond orders larger than 0.100000
B(  0-C ,  1-C ) :   1.5704 B(  0-C ,  6-C ) :   0.9871 B(  0-C , 18-C ) :   1.1236
B(  1-C ,  2-C ) :   1.1519 B(  1-C ,  4-C ) :   1.1554 B(  2-C ,  3-N ) :   2.9603
B(  4-C ,  5-N ) :   2.9532 B(  6-C ,  7-C ) :   1.2754 B(  6-C , 11-C ) :   1.4239
B(  7-C ,  8-C ) :   1.4339 B(  7-C , 16-C ) :   0.9351 B(  8-C ,  9-C ) :   1.2395
B(  8-C , 75-H ) :   1.0153 B(  9-C , 10-C ) :   1.3162 B(  9-C , 14-C ) :   1.1603
B( 10-C , 11-C ) :   1.3185 B( 10-C , 12-S ) :   1.0831 B( 11-C , 76-H ) :   0.9783
B( 12-S , 13-C ) :   1.0849 B( 13-C , 14-C ) :   1.6222 B( 13-C , 15-Br) :   1.0140
B( 14-C , 77-H ) :   0.9995 B( 16-C , 17-O ) :   2.1844 B( 16-C , 18-C ) :   0.9695
B( 18-C , 19-C ) :   1.4600 B( 19-C , 20-C ) :   1.2820 B( 19-C , 78-H ) :   0.9422
B( 20-C , 21-C ) :   1.3902 B( 20-C , 79-H ) :   0.9782 B( 21-C , 22-C ) :   1.2004
B( 21-C , 25-S ) :   1.0881 B( 22-C , 23-C ) :   1.5142 B( 22-C , 80-H ) :   1.0019
B( 23-C , 24-C ) :   1.2402 B( 23-C , 81-H ) :   0.9954 B( 24-C , 25-S ) :   1.0520
B( 24-C , 26-C ) :   1.4218 B( 26-C , 27-C ) :   1.2222 B( 26-C , 30-S ) :   1.0831
B( 27-C , 28-C ) :   1.5437 B( 27-C , 82-H ) :   0.9946 B( 28-C , 29-C ) :   1.1733
B( 28-C , 83-H ) :   1.0015 B( 29-C , 30-S ) :   1.0418 B( 29-C , 31-C ) :   1.5339
B( 31-C , 32-C ) :   1.2364 B( 31-C , 84-H ) :   0.9353 B( 32-C , 33-S ) :   1.1055
B( 32-C , 36-C ) :   1.3415 B( 33-S , 34-C ) :   1.0998 B( 34-C , 35-C ) :   1.3449
B( 34-C , 43-C ) :   1.2584 B( 35-C , 36-C ) :   1.4615 B( 35-C , 41-C ) :   1.0088
B( 36-C , 37-C ) :   0.9975 B( 37-C , 38-C ) :   1.0848 B( 37-C , 39-C ) :   1.0746
B( 37-C , 85-H ) :   0.8734 B( 38-C , 86-H ) :   0.9563 B( 38-C , 87-H ) :   0.9605
B( 38-C , 88-H ) :   0.9581 B( 39-C , 40-C ) :   1.0908 B( 39-C , 89-H ) :   0.9314
B( 39-C , 90-H ) :   0.9312 B( 40-C , 41-C ) :   1.0655 B( 40-C , 91-H ) :   0.9294
B( 40-C , 92-H ) :   0.9288 B( 41-C , 42-C ) :   1.0825 B( 41-C , 93-H ) :   0.8774
B( 42-C , 94-H ) :   0.9579 B( 42-C , 95-H ) :   0.9629 B( 42-C , 96-H ) :   0.9631
B( 43-C , 44-C ) :   1.4992 B( 43-C , 97-H ) :   0.9587 B( 44-C , 45-C ) :   1.1802
B( 44-C , 48-S ) :   1.0450 B( 45-C , 46-C ) :   1.5475 B( 45-C , 98-H ) :   1.0001
B( 46-C , 47-C ) :   1.2193 B( 46-C , 99-H ) :   0.9941 B( 47-C , 48-S ) :   1.0735
B( 47-C , 49-C ) :   1.4392 B( 49-C , 50-C ) :   1.2330 B( 49-C , 53-S ) :   1.0521
B( 50-C , 51-C ) :   1.5299 B( 50-C ,100-H ) :   0.9944 B( 51-C , 52-C ) :   1.1923
B( 51-C ,101-H ) :   1.0012 B( 52-C , 53-S ) :   1.0845 B( 52-C , 54-C ) :   1.4851
B( 54-C , 55-C ) :   1.2333 B( 54-C ,102-H ) :   0.9629 B( 55-C , 56-C ) :   1.5147
B( 55-C ,103-H ) :   0.9419 B( 56-C , 57-C ) :   1.0949 B( 56-C , 65-C ) :   0.9664
B( 57-C , 58-C ) :   1.5940 B( 57-C , 63-C ) :   1.0029 B( 58-C , 59-C ) :   1.1366
B( 58-C , 61-C ) :   1.1668 B( 59-C , 60-N ) :   2.9745 B( 61-C , 62-N ) :   3.0120
B( 63-C , 64-C ) :   1.2749 B( 63-C , 70-C ) :   1.4256 B( 64-C , 65-C ) :   0.9186
B( 64-C , 67-C ) :   1.4375 B( 65-C , 66-O ) :   2.2459 B( 67-C , 68-C ) :   1.2442
B( 67-C ,104-H ) :   1.0154 B( 68-C , 69-C ) :   1.3181 B( 68-C , 73-C ) :   1.1622
B( 69-C , 70-C ) :   1.3189 B( 69-C , 71-S ) :   1.0815 B( 70-C ,105-H ) :   0.9816
B( 71-S , 72-C ) :   1.0865 B( 72-C , 73-C ) :   1.6197 B( 72-C , 74-Br) :   1.0138
B( 73-C ,106-H ) :   0.9998

-----------------------------------------------------------------------------
         ABSORPTION SPECTRUM VIA TRANSITION ELECTRIC DIPOLE MOMENTS
-----------------------------------------------------------------------------
State   Energy  Wavelength   fosc         T2         TX        TY        TZ
        (cm-1)    (nm)                  (au**2)     (au)      (au)      (au)
-----------------------------------------------------------------------------
   0    6813.1   1467.8   1.639584537  79.22584  -5.81857  -0.57780   6.71090
   1   12862.1    777.5   0.018341252   0.46945  -0.03273  -0.61751   0.29507
   2   13330.2    750.2   0.181287439   4.47722   0.23744  -2.01702   0.59371
   3   19074.5    524.3   0.298352323   5.14935   1.37193  -1.80093   0.15433
   4   20764.4    481.6   0.677996980  10.74938  -2.02918   2.56359  -0.24452
   5   21533.0    464.4   0.037207137   0.56885   0.44786  -0.51002   0.32887
   6   21673.7    461.4   0.242080399   3.67707   0.72138  -1.72172   0.43861
   7   22834.0    437.9   0.027814413   0.40102   0.01151  -0.45693  -0.43829
   8   23330.2    428.6   0.227767200   3.21402  -0.33256  -1.62537   0.67942
   9   24550.7    407.3   0.605454266   8.11882   1.68644  -2.27406  -0.32151
  10   25122.7    398.0   0.023283888   0.30512   0.29594  -0.46596   0.02046
  11   26118.0    382.9   0.012196213   0.15373  -0.16094   0.35665   0.02513
  12   26415.6    378.6   0.000011573   0.00014   0.00783  -0.00702  -0.00581
  13   27111.0    368.9   0.029532012   0.35861   0.29743  -0.32970  -0.40180
  14   27166.8    368.1   0.006501462   0.07879   0.17362   0.15325  -0.15861
  15   27465.2    364.1   0.013044178   0.15635  -0.04275   0.39306  -0.00558
  16   27671.3    361.4   0.031658236   0.37665  -0.12064  -0.60159  -0.01340
  17   28091.9    356.0   0.086735606   1.01646   0.54496  -0.50906  -0.67848
  18   28472.2    351.2   0.028367687   0.32800  -0.27856  -0.12684   0.48407
  19   29495.8    339.0   0.080368685   0.89702   0.60492  -0.50137  -0.52889
  20   29690.4    336.8   0.047289310   0.52435   0.53204  -0.48107  -0.09928
  21   30002.2    333.3   0.098700902   1.08304  -0.70581   0.40650   0.64779
  22   30404.7    328.9   0.015970566   0.17292   0.25221  -0.22539  -0.24189
  23   30805.7    324.6   0.198677559   2.12321   0.87538  -0.06160  -1.16324
  24   31203.5    320.5   0.215413723   2.27272  -0.22069  -1.47354   0.22953
  25   31504.6    317.4   0.002473295   0.02585   0.04995   0.15210  -0.01468
  26   32034.6    312.2   0.103338582   1.06198  -0.58020  -0.58256   0.62127
  27   32090.4    311.6   0.116859495   1.19885  -0.52638  -0.63898   0.71657
  28   32183.4    310.7   0.089742643   0.91800  -0.33625  -0.77690   0.44873
  29   32624.5    306.5   0.264077292   2.66479   0.87094  -0.94422  -1.00732
  30   32756.2    305.3   0.000945595   0.00950   0.05192   0.07515  -0.03407
  31   32797.9    304.9   0.023499272   0.23588   0.30044   0.26240  -0.27705
  32   33054.9    302.5   0.042539988   0.42368  -0.42598   0.32017   0.37378
  33   33795.1    295.9   0.026501434   0.25816   0.00986  -0.50265   0.07352
  34   33852.3    295.4   0.039753808   0.38660  -0.06463  -0.61607   0.05373
  35   34024.1    293.9   0.008206122   0.07940   0.03684   0.06951  -0.27058
  36   34483.1    290.0   0.016822096   0.16060  -0.35594   0.14694  -0.11097
  37   34821.5    287.2   0.007978769   0.07543   0.20360  -0.18145  -0.03250
  38   34924.6    286.3   0.007970414   0.07513  -0.16045   0.21663  -0.04961
  39   35282.7    283.4   0.049434292   0.46126   0.16115  -0.00433  -0.65975
  40   35430.1    282.2   0.560067944   5.20408  -0.65476  -2.03691   0.79143
  41   36159.8    276.6   0.025753250   0.23447  -0.18631  -0.15319   0.41987
  42   36183.8    276.4   0.006591016   0.05997  -0.04321   0.20765  -0.12240
  43   36671.9    272.7   0.016623986   0.14924  -0.02843  -0.38363  -0.03544
  44   36872.0    271.2   0.068159337   0.60856   0.32516  -0.58462  -0.40132
  45   37433.1    267.1   0.002760627   0.02428   0.08424  -0.12057  -0.05145
  46   37440.7    267.1   0.002233334   0.01964  -0.07967   0.10757   0.04146
  47   37739.4    265.0   0.015895646   0.13866  -0.23615   0.23724  -0.16313
  48   37917.5    263.7   0.028604225   0.24835   0.25435   0.27028  -0.33258
  49   38337.0    260.8   0.012921104   0.11096   0.21904   0.16075  -0.19271
  50   38520.7    259.6   0.018184410   0.15541   0.13470   0.15512  -0.33646
  51   38899.3    257.1   0.014853574   0.12571  -0.11672   0.32368  -0.08552
  52   39234.3    254.9   0.060698290   0.50931   0.52316  -0.47645  -0.09280
  53   39383.6    253.9   0.092459639   0.77288   0.44031   0.57778  -0.49515
  54   39534.9    252.9   0.024381612   0.20303  -0.34421  -0.10433   0.27141
  55   39681.2    252.0   0.052092336   0.43218   0.29252   0.54881  -0.21312
  56   39902.6    250.6   0.196507246   1.62126   0.89359   0.55398  -0.71824
  57   40091.5    249.4   0.247836115   2.03511   0.22985  -1.39371   0.19961

FINAL SINGLE POINT ENERGY    -10605.973949217552

DIPOLE MOMENT
-------------
                                X             Y             Z
Electronic contribution:      3.43402     124.38202     -30.57582
Nuclear contribution   :     -2.50063    -124.15572      31.15895
                        -----------------------------------------
Total Dipole Moment    :      0.93339       0.22630       0.58313
                        -----------------------------------------
Magnitude (a.u.)       :      1.12360
Magnitude (Debye)      :      2.85596

Rotational constants in cm-1:     0.001075     0.000120     0.000109
Rotational constants in MHz :    32.225024     3.611886     3.278869

                             ****ORCA TERMINATED NORMALLY****
TOTAL RUN TIME: 0 days 0 hours 12 minutes 22 seconds 611 msec
