                         Program Version 4.2.0 -  RELEASE  -
|  1> # ORCA input file
|  2> # SCF done       -188.742328080321          0.000599233510
|  3> ! CAM-B3LYP def2-SVP def2/J RIJCOSX Grid4 TightSCF
|  4> %maxcore 5000
|  5> %tddft
|  6>     Mode sTDDFT
|  7>     Ethresh 5.0
|  8>     maxcore 5000
|  9> end
| 10>
| 11> %pal
| 12>   nprocs 6
| 13>   end
| 14> * xyz 0 1
| 15>    C       -4.01533         2.61880         2.90407
| 16>    C       -3.89298         1.24899         2.99484
| 17>    C       -2.67968         0.57893         3.24046
| 18>    N       -1.72715        -0.03287         3.43991
| 19>    C       -4.93978         0.31521         2.87664
| 20>    N       -5.72355        -0.52397         2.80859
| 21>    C       -2.91672         3.57050         3.06827
| 22>    C       -3.43743         4.88305         2.96660
| 23>    C       -2.65051         6.00245         3.06838
| 24>    C       -1.27835         5.81935         3.27710
| 25>    C       -0.76766         4.50568         3.37716
| 26>    C       -1.56621         3.37169         3.27768
| 27>    S        0.95300         4.50601         3.62796
| 28>    C        0.96033         6.24917         3.59243
| 29>    C       -0.25984         6.80401         3.40501
| 30>   Br        2.58038         7.17233         3.80542
| 31>    C       -4.89598         4.80892         2.72390
| 32>    O       -5.65083         5.75497         2.59943
| 33>    C       -5.21280         3.37292         2.65604
| 34>    C       -6.45574         2.85660         2.33586
| 35>    C       -7.59862         3.60144         2.08270
| 36>    C       -8.78667         3.01812         1.67376
| 37>    C       -9.99713         3.67002         1.35751
| 38>    C      -10.98684         2.83283         0.92155
| 39>    C      -10.60125         1.48025         0.87769
| 40>    S       -8.95030         1.29609         1.42791
| 41>    C      -11.31622         0.37930         0.43239
| 42>    C      -12.61872         0.32192        -0.10827
| 43>    C      -12.98216        -0.92294        -0.52735
| 44>    C      -11.99700        -1.92278        -0.32329
| 45>    S      -10.58655        -1.20319         0.43467
| 46>    C      -12.05809        -3.21420        -0.78402
| 47>    C      -11.13413        -4.26070        -0.58930
| 48>    S      -10.94170        -5.40396        -1.90430
| 49>    C       -9.72277        -6.28193        -1.03276
| 50>    C       -9.54005        -5.74528         0.23856
| 51>    C      -10.31887        -4.60898         0.48636
| 52>    C      -10.32820        -3.96128         1.83240
| 53>    C       -9.86698        -4.95024         2.89830
| 54>    C       -8.48570        -5.49024         2.51245
| 55>    O       -7.91699        -6.33105         3.49863
| 56>    C       -7.33847        -5.65696         4.58822
| 57>    C       -8.60739        -6.34005         1.24498
| 58>    C       -9.00571        -7.35828        -1.61174
| 59>    C       -9.06371        -7.67706        -2.92840
| 60>    C       -8.30961        -8.67382        -3.59933
| 61>    S       -8.15712        -8.51870        -5.33182
| 62>    C       -7.10767        -9.90027        -5.41876
| 63>    C       -6.92508       -10.46107        -4.16419
| 64>    C       -7.60167        -9.77540        -3.14126
| 65>    C       -7.56791       -10.25137        -1.72309
| 66>    C       -7.14377       -11.71571        -1.65314
| 67>    C       -5.83748       -11.91339        -2.42841
| 68>    O       -5.31237       -13.22269        -2.31722
| 69>    C       -4.65052       -13.49878        -1.10967
| 70>    C       -6.09319       -11.67994        -3.91868
| 71>    C       -6.52564       -10.31718        -6.64876
| 72>    C       -6.67753        -9.65253        -7.81116
| 73>    N       -6.08446       -10.03882        -8.98102
| 74>    C       -6.15266        -9.37692       -10.16015
| 75>    S       -7.09051        -7.92513       -10.30784
| 76>    C       -6.61040        -7.80305       -11.97386
| 77>    N       -7.09627        -6.72479       -12.70671
| 78>    O       -6.76044        -6.62994       -13.87566
| 79>    O       -7.82973        -5.94417       -12.11681
| 80>    C       -5.78248        -8.81936       -12.37381
| 81>    C       -5.50465        -9.73832       -11.34976
| 82>    C       -4.66047       -10.90895       -11.48548
| 83>    C       -3.95419       -11.22603       -12.56584
| 84>    H       -3.07701         6.98985         2.98523
| 85>    H       -1.12665         2.39173         3.35854
| 86>    H       -0.43713         7.86297         3.35690
| 87>    H       -6.54876         1.78045         2.24835
| 88>    H       -7.56366         4.67634         2.18197
| 89>    H      -10.09926         4.73640         1.45223
| 90>    H      -11.96985         3.15710         0.62993
| 91>    H      -13.24088         1.19496        -0.18783
| 92>    H      -13.92902        -1.15881        -0.98033
| 93>    H      -12.87490        -3.43341        -1.46221
| 94>    H      -11.32811        -3.58574         2.05950
| 95>    H       -9.64473        -3.10741         1.83516
| 96>    H      -10.56621        -5.78468         2.98047
| 97>    H       -9.81877        -4.44704         3.86412
| 98>    H       -7.81357        -4.63612         2.32815
| 99>    H       -6.84438        -6.41865         5.18842
|100>    H       -8.08802        -5.14791         5.20381
|101>    H       -6.59925        -4.92056         4.25165
|102>    H       -8.97358        -7.32588         1.54855
|103>    H       -7.61619        -6.48133         0.80909
|104>    H       -8.33500        -7.88094        -0.94956
|105>    H       -9.69297        -7.06970        -3.56846
|106>    H       -8.55296       -10.12623        -1.26795
|107>    H       -6.85524        -9.64515        -1.15333
|108>    H       -7.91203       -12.35490        -2.09185
|109>    H       -7.01364       -12.00695        -0.61014
|110>    H       -5.09190       -11.18799        -2.05969
|111>    H       -4.21224       -14.48837        -1.22325
|112>    H       -5.33480       -13.50792        -0.25423
|113>    H       -3.85485       -12.76816        -0.91765
|114>    H       -6.60601       -12.56618        -4.30471
|115>    H       -5.13658       -11.60394        -4.43940
|116>    H       -5.91545       -11.20936        -6.61478
|117>    H       -7.28090        -8.75842        -7.86978
|118>    H       -5.51248       -10.87397        -8.95340
|119>    H       -5.40538        -8.88084       -13.37749
|120>    H       -4.61632       -11.56694       -10.62625
|121>    H       -3.94827       -10.61710       -13.45195
|122>    H       -3.35164       -12.11649       -12.59527
|123> *
|124>
|125>                          ****END OF INPUT****

CARTESIAN COORDINATES (ANGSTROEM)
---------------------------------
  C     -4.015330    2.618800    2.904070
  C     -3.892980    1.248990    2.994840
  C     -2.679680    0.578930    3.240460
  N     -1.727150   -0.032870    3.439910
  C     -4.939780    0.315210    2.876640
  N     -5.723550   -0.523970    2.808590
  C     -2.916720    3.570500    3.068270
  C     -3.437430    4.883050    2.966600
  C     -2.650510    6.002450    3.068380
  C     -1.278350    5.819350    3.277100
  C     -0.767660    4.505680    3.377160
  C     -1.566210    3.371690    3.277680
  S      0.953000    4.506010    3.627960
  C      0.960330    6.249170    3.592430
  C     -0.259840    6.804010    3.405010
  Br     2.580380    7.172330    3.805420
  C     -4.895980    4.808920    2.723900
  O     -5.650830    5.754970    2.599430
  C     -5.212800    3.372920    2.656040
  C     -6.455740    2.856600    2.335860
  C     -7.598620    3.601440    2.082700
  C     -8.786670    3.018120    1.673760
  C     -9.997130    3.670020    1.357510
  C    -10.986840    2.832830    0.921550
  C    -10.601250    1.480250    0.877690
  S     -8.950300    1.296090    1.427910
  C    -11.316220    0.379300    0.432390
  C    -12.618720    0.321920   -0.108270
  C    -12.982160   -0.922940   -0.527350
  C    -11.997000   -1.922780   -0.323290
  S    -10.586550   -1.203190    0.434670
  C    -12.058090   -3.214200   -0.784020
  C    -11.134130   -4.260700   -0.589300
  S    -10.941700   -5.403960   -1.904300
  C     -9.722770   -6.281930   -1.032760
  C     -9.540050   -5.745280    0.238560
  C    -10.318870   -4.608980    0.486360
  C    -10.328200   -3.961280    1.832400
  C     -9.866980   -4.950240    2.898300
  C     -8.485700   -5.490240    2.512450
  O     -7.916990   -6.331050    3.498630
  C     -7.338470   -5.656960    4.588220
  C     -8.607390   -6.340050    1.244980
  C     -9.005710   -7.358280   -1.611740
  C     -9.063710   -7.677060   -2.928400
  C     -8.309610   -8.673820   -3.599330
  S     -8.157120   -8.518700   -5.331820
  C     -7.107670   -9.900270   -5.418760
  C     -6.925080  -10.461070   -4.164190
  C     -7.601670   -9.775400   -3.141260
  C     -7.567910  -10.251370   -1.723090
  C     -7.143770  -11.715710   -1.653140
  C     -5.837480  -11.913390   -2.428410
  O     -5.312370  -13.222690   -2.317220
  C     -4.650520  -13.498780   -1.109670
  C     -6.093190  -11.679940   -3.918680
  C     -6.525640  -10.317180   -6.648760
  C     -6.677530   -9.652530   -7.811160
  N     -6.084460  -10.038820   -8.981020
  C     -6.152660   -9.376920  -10.160150
  S     -7.090510   -7.925130  -10.307840
  C     -6.610400   -7.803050  -11.973860
  N     -7.096270   -6.724790  -12.706710
  O     -6.760440   -6.629940  -13.875660
  O     -7.829730   -5.944170  -12.116810
  C     -5.782480   -8.819360  -12.373810
  C     -5.504650   -9.738320  -11.349760
  C     -4.660470  -10.908950  -11.485480
  C     -3.954190  -11.226030  -12.565840
  H     -3.077010    6.989850    2.985230
  H     -1.126650    2.391730    3.358540
  H     -0.437130    7.862970    3.356900
  H     -6.548760    1.780450    2.248350
  H     -7.563660    4.676340    2.181970
  H    -10.099260    4.736400    1.452230
  H    -11.969850    3.157100    0.629930
  H    -13.240880    1.194960   -0.187830
  H    -13.929020   -1.158810   -0.980330
  H    -12.874900   -3.433410   -1.462210
  H    -11.328110   -3.585740    2.059500
  H     -9.644730   -3.107410    1.835160
  H    -10.566210   -5.784680    2.980470
  H     -9.818770   -4.447040    3.864120
  H     -7.813570   -4.636120    2.328150
  H     -6.844380   -6.418650    5.188420
  H     -8.088020   -5.147910    5.203810
  H     -6.599250   -4.920560    4.251650
  H     -8.973580   -7.325880    1.548550
  H     -7.616190   -6.481330    0.809090
  H     -8.335000   -7.880940   -0.949560
  H     -9.692970   -7.069700   -3.568460
  H     -8.552960  -10.126230   -1.267950
  H     -6.855240   -9.645150   -1.153330
  H     -7.912030  -12.354900   -2.091850
  H     -7.013640  -12.006950   -0.610140
  H     -5.091900  -11.187990   -2.059690
  H     -4.212240  -14.488370   -1.223250
  H     -5.334800  -13.507920   -0.254230
  H     -3.854850  -12.768160   -0.917650
  H     -6.606010  -12.566180   -4.304710
  H     -5.136580  -11.603940   -4.439400
  H     -5.915450  -11.209360   -6.614780
  H     -7.280900   -8.758420   -7.869780
  H     -5.512480  -10.873970   -8.953400
  H     -5.405380   -8.880840  -13.377490
  H     -4.616320  -11.566940  -10.626250
  H     -3.948270  -10.617100  -13.451950
  H     -3.351640  -12.116490  -12.595270

 Total Charge           Charge          ....    0
 Multiplicity           Mult            ....    1
 Number of Electrons    NEL             ....  556
 Basis Dimension        Dim             .... 1203

ORBITAL ENERGIES
----------------

  NO   OCC          E(Eh)            E(eV)
   0   2.0000    -482.874235    -13139.6760
   1   2.0000     -88.978789     -2421.2360
   2   2.0000     -88.961360     -2420.7617
   3   2.0000     -88.960797     -2420.7464
   4   2.0000     -88.955255     -2420.5956
   5   2.0000     -88.954031     -2420.5622
   6   2.0000     -88.951732     -2420.4997
   7   2.0000     -62.551962     -1702.1254
   8   2.0000     -56.385896     -1534.3382
   9   2.0000     -56.383210     -1534.2651
  10   2.0000     -56.383170     -1534.2641
  11   2.0000     -19.226035      -523.1670
  12   2.0000     -19.225303      -523.1471
  13   2.0000     -19.213200      -522.8178
  14   2.0000     -19.206048      -522.6231
  15   2.0000     -19.194176      -522.3001
  16   2.0000     -14.637861      -398.3164
  17   2.0000     -14.483923      -394.1276
  18   2.0000     -14.397166      -391.7668
  19   2.0000     -14.393789      -391.6749
  20   2.0000     -10.366913      -282.0980
  21   2.0000     -10.344970      -281.5010
  22   2.0000     -10.344433      -281.4863
  23   2.0000     -10.334016      -281.2029
  24   2.0000     -10.333335      -281.1844
  25   2.0000     -10.332255      -281.1550
  26   2.0000     -10.321938      -280.8742
  27   2.0000     -10.320361      -280.8313
  28   2.0000     -10.319924      -280.8194
  29   2.0000     -10.318827      -280.7896
  30   2.0000     -10.315858      -280.7088
  31   2.0000     -10.315774      -280.7065
  32   2.0000     -10.313575      -280.6466
  33   2.0000     -10.309920      -280.5472
  34   2.0000     -10.309631      -280.5393
  35   2.0000     -10.309050      -280.5235
  36   2.0000     -10.306097      -280.4432
  37   2.0000     -10.305835      -280.4360
  38   2.0000     -10.304927      -280.4113
  39   2.0000     -10.302838      -280.3545
  40   2.0000     -10.302692      -280.3505
  41   2.0000     -10.302019      -280.3322
  42   2.0000     -10.301760      -280.3251
  43   2.0000     -10.300609      -280.2938
  44   2.0000     -10.299156      -280.2543
  45   2.0000     -10.298862      -280.2463
  46   2.0000     -10.298694      -280.2417
  47   2.0000     -10.292695      -280.0785
  48   2.0000     -10.292139      -280.0633
  49   2.0000     -10.291958      -280.0584
  50   2.0000     -10.290986      -280.0320
  51   2.0000     -10.290565      -280.0205
  52   2.0000     -10.289242      -279.9845
  53   2.0000     -10.288839      -279.9736
  54   2.0000     -10.287464      -279.9361
  55   2.0000     -10.287375      -279.9337
  56   2.0000     -10.287042      -279.9247
  57   2.0000     -10.284171      -279.8465
  58   2.0000     -10.283425      -279.8262
  59   2.0000     -10.283392      -279.8253
  60   2.0000     -10.280107      -279.7359
  61   2.0000     -10.279681      -279.7243
  62   2.0000     -10.278011      -279.6789
  63   2.0000     -10.277738      -279.6715
  64   2.0000     -10.273863      -279.5660
  65   2.0000     -10.273012      -279.5429
  66   2.0000     -10.272664      -279.5334
  67   2.0000     -10.272319      -279.5240
  68   2.0000     -10.269234      -279.4401
  69   2.0000     -10.269103      -279.4365
  70   2.0000     -10.267078      -279.3814
  71   2.0000     -10.266835      -279.3748
  72   2.0000     -10.261671      -279.2343
  73   2.0000      -8.781397      -238.9540
  74   2.0000      -8.074250      -219.7115
  75   2.0000      -8.057302      -219.2503
  76   2.0000      -8.056758      -219.2355
  77   2.0000      -8.051014      -219.0792
  78   2.0000      -8.050112      -219.0547
  79   2.0000      -8.047618      -218.9868
  80   2.0000      -6.617639      -180.0751
  81   2.0000      -6.603149      -179.6808
  82   2.0000      -6.602985      -179.6763
  83   2.0000      -6.044018      -164.4661
  84   2.0000      -6.039575      -164.3452
  85   2.0000      -6.035530      -164.2351
  86   2.0000      -6.027003      -164.0031
  87   2.0000      -6.026462      -163.9884
  88   2.0000      -6.022745      -163.8872
  89   2.0000      -6.022295      -163.8750
  90   2.0000      -6.020256      -163.8195
  91   2.0000      -6.019653      -163.8031
  92   2.0000      -6.018530      -163.7725
  93   2.0000      -6.017788      -163.7523
  94   2.0000      -6.016792      -163.7252
  95   2.0000      -6.016378      -163.7140
  96   2.0000      -6.015682      -163.6950
  97   2.0000      -6.012995      -163.6219
  98   2.0000      -6.012927      -163.6201
  99   2.0000      -6.011334      -163.5767
 100   2.0000      -6.009599      -163.5295
 101   2.0000      -2.733494       -74.3822
 102   2.0000      -2.729442       -74.2719
 103   2.0000      -2.729351       -74.2694
 104   2.0000      -2.717817       -73.9556
 105   2.0000      -2.717800       -73.9551
 106   2.0000      -1.305574       -35.5265
 107   2.0000      -1.124313       -30.5941
 108   2.0000      -1.115197       -30.3461
 109   2.0000      -1.107618       -30.1398
 110   2.0000      -1.107231       -30.1293
 111   2.0000      -1.090309       -29.6688
 112   2.0000      -1.009873       -27.4800
 113   2.0000      -1.005414       -27.3587
 114   2.0000      -0.998527       -27.1713
 115   2.0000      -0.995240       -27.0819
 116   2.0000      -0.994631       -27.0653
 117   2.0000      -0.989489       -26.9254
 118   2.0000      -0.983547       -26.7637
 119   2.0000      -0.974668       -26.5221
 120   2.0000      -0.969996       -26.3949
 121   2.0000      -0.926574       -25.2134
 122   2.0000      -0.920451       -25.0468
 123   2.0000      -0.918109       -24.9830
 124   2.0000      -0.915365       -24.9084
 125   2.0000      -0.910145       -24.7663
 126   2.0000      -0.903001       -24.5719
 127   2.0000      -0.895084       -24.3565
 128   2.0000      -0.890679       -24.2366
 129   2.0000      -0.881059       -23.9748
 130   2.0000      -0.872564       -23.7437
 131   2.0000      -0.868907       -23.6442
 132   2.0000      -0.862083       -23.4585
 133   2.0000      -0.859466       -23.3873
 134   2.0000      -0.851504       -23.1706
 135   2.0000      -0.844448       -22.9786
 136   2.0000      -0.833935       -22.6925
 137   2.0000      -0.832567       -22.6553
 138   2.0000      -0.832255       -22.6468
 139   2.0000      -0.826263       -22.4838
 140   2.0000      -0.822717       -22.3873
 141   2.0000      -0.812982       -22.1224
 142   2.0000      -0.809854       -22.0373
 143   2.0000      -0.797592       -21.7036
 144   2.0000      -0.781248       -21.2588
 145   2.0000      -0.766029       -20.8447
 146   2.0000      -0.760912       -20.7055
 147   2.0000      -0.754801       -20.5392
 148   2.0000      -0.742373       -20.2010
 149   2.0000      -0.739139       -20.1130
 150   2.0000      -0.731453       -19.9039
 151   2.0000      -0.722117       -19.6498
 152   2.0000      -0.719760       -19.5857
 153   2.0000      -0.717453       -19.5229
 154   2.0000      -0.707142       -19.2423
 155   2.0000      -0.699643       -19.0383
 156   2.0000      -0.688013       -18.7218
 157   2.0000      -0.679279       -18.4841
 158   2.0000      -0.673542       -18.3280
 159   2.0000      -0.669988       -18.2313
 160   2.0000      -0.665982       -18.1223
 161   2.0000      -0.657955       -17.9039
 162   2.0000      -0.653573       -17.7846
 163   2.0000      -0.647715       -17.6252
 164   2.0000      -0.643968       -17.5233
 165   2.0000      -0.641131       -17.4461
 166   2.0000      -0.633688       -17.2435
 167   2.0000      -0.631913       -17.1952
 168   2.0000      -0.626413       -17.0456
 169   2.0000      -0.625103       -17.0099
 170   2.0000      -0.620255       -16.8780
 171   2.0000      -0.619098       -16.8465
 172   2.0000      -0.614039       -16.7088
 173   2.0000      -0.613092       -16.6831
 174   2.0000      -0.605596       -16.4791
 175   2.0000      -0.601609       -16.3706
 176   2.0000      -0.589330       -16.0365
 177   2.0000      -0.584642       -15.9089
 178   2.0000      -0.583785       -15.8856
 179   2.0000      -0.582125       -15.8404
 180   2.0000      -0.577017       -15.7014
 181   2.0000      -0.573441       -15.6041
 182   2.0000      -0.568202       -15.4616
 183   2.0000      -0.564972       -15.3737
 184   2.0000      -0.561906       -15.2902
 185   2.0000      -0.553047       -15.0492
 186   2.0000      -0.546708       -14.8767
 187   2.0000      -0.543013       -14.7761
 188   2.0000      -0.542513       -14.7625
 189   2.0000      -0.538923       -14.6648
 190   2.0000      -0.538110       -14.6427
 191   2.0000      -0.536511       -14.5992
 192   2.0000      -0.534552       -14.5459
 193   2.0000      -0.534052       -14.5323
 194   2.0000      -0.527887       -14.3645
 195   2.0000      -0.526545       -14.3280
 196   2.0000      -0.520584       -14.1658
 197   2.0000      -0.520479       -14.1630
 198   2.0000      -0.518326       -14.1044
 199   2.0000      -0.516190       -14.0462
 200   2.0000      -0.513342       -13.9688
 201   2.0000      -0.512497       -13.9458
 202   2.0000      -0.509258       -13.8576
 203   2.0000      -0.508387       -13.8339
 204   2.0000      -0.506767       -13.7898
 205   2.0000      -0.504472       -13.7274
 206   2.0000      -0.501712       -13.6523
 207   2.0000      -0.496405       -13.5079
 208   2.0000      -0.492750       -13.4084
 209   2.0000      -0.490533       -13.3481
 210   2.0000      -0.489991       -13.3333
 211   2.0000      -0.487411       -13.2631
 212   2.0000      -0.483305       -13.1514
 213   2.0000      -0.482182       -13.1208
 214   2.0000      -0.481782       -13.1099
 215   2.0000      -0.478758       -13.0277
 216   2.0000      -0.478136       -13.0107
 217   2.0000      -0.476301       -12.9608
 218   2.0000      -0.475768       -12.9463
 219   2.0000      -0.474159       -12.9025
 220   2.0000      -0.470325       -12.7982
 221   2.0000      -0.470105       -12.7922
 222   2.0000      -0.461328       -12.5534
 223   2.0000      -0.458831       -12.4854
 224   2.0000      -0.456752       -12.4289
 225   2.0000      -0.454671       -12.3722
 226   2.0000      -0.454002       -12.3540
 227   2.0000      -0.447124       -12.1669
 228   2.0000      -0.445929       -12.1343
 229   2.0000      -0.442484       -12.0406
 230   2.0000      -0.440927       -11.9982
 231   2.0000      -0.436990       -11.8911
 232   2.0000      -0.435414       -11.8482
 233   2.0000      -0.433074       -11.7845
 234   2.0000      -0.431676       -11.7465
 235   2.0000      -0.431013       -11.7285
 236   2.0000      -0.427065       -11.6210
 237   2.0000      -0.425611       -11.5815
 238   2.0000      -0.424040       -11.5387
 239   2.0000      -0.423107       -11.5133
 240   2.0000      -0.420333       -11.4378
 241   2.0000      -0.415960       -11.3189
 242   2.0000      -0.412483       -11.2242
 243   2.0000      -0.409339       -11.1387
 244   2.0000      -0.408335       -11.1114
 245   2.0000      -0.405838       -11.0434
 246   2.0000      -0.405228       -11.0268
 247   2.0000      -0.404295       -11.0014
 248   2.0000      -0.402325       -10.9478
 249   2.0000      -0.399013       -10.8577
 250   2.0000      -0.394882       -10.7453
 251   2.0000      -0.391257       -10.6466
 252   2.0000      -0.388774       -10.5791
 253   2.0000      -0.382190       -10.3999
 254   2.0000      -0.376530       -10.2459
 255   2.0000      -0.376256       -10.2384
 256   2.0000      -0.374778       -10.1982
 257   2.0000      -0.369747       -10.0613
 258   2.0000      -0.366268        -9.9667
 259   2.0000      -0.363946        -9.9035
 260   2.0000      -0.358749        -9.7621
 261   2.0000      -0.354743        -9.6531
 262   2.0000      -0.347890        -9.4666
 263   2.0000      -0.343090        -9.3360
 264   2.0000      -0.330772        -9.0008
 265   2.0000      -0.329274        -8.9600
 266   2.0000      -0.325695        -8.8626
 267   2.0000      -0.321501        -8.7485
 268   2.0000      -0.315096        -8.5742
 269   2.0000      -0.313713        -8.5366
 270   2.0000      -0.312636        -8.5073
 271   2.0000      -0.310704        -8.4547
 272   2.0000      -0.299559        -8.1514
 273   2.0000      -0.294211        -8.0059
 274   2.0000      -0.278515        -7.5788
 275   2.0000      -0.269785        -7.3412
 276   2.0000      -0.238285        -6.4841
 277   2.0000      -0.216301        -5.8858
 278   0.0000      -0.105653        -2.8750
 279   0.0000      -0.061772        -1.6809
 280   0.0000      -0.051504        -1.4015
 281   0.0000      -0.040292        -1.0964
 282   0.0000      -0.025683        -0.6989

MULLIKEN ATOMIC CHARGES
-----------------------
   0 C :    0.326956
   1 C :   -0.367772
   2 C :   -0.193337
   3 N :    0.130407
   4 C :   -0.192956
   5 N :    0.124820
   6 C :    0.012649
   7 C :   -0.008603
   8 C :   -0.078205
   9 C :    0.118271
  10 C :   -0.091336
  11 C :   -0.027382
  12 S :    0.176357
  13 C :   -0.123607
  14 C :    0.034469
  15 Br:    0.011514
  16 C :    0.133454
  17 O :   -0.168016
  18 C :   -0.086818
  19 C :   -0.045082
  20 C :   -0.024344
  21 C :    0.006621
  22 C :    0.021367
  23 C :    0.046050
  24 C :   -0.055984
  25 S :    0.096495
  26 C :   -0.028714
  27 C :    0.018989
  28 C :    0.052783
  29 C :   -0.047063
  30 S :    0.110094
  31 C :    0.009546
  32 C :   -0.154483
  33 S :    0.110947
  34 C :   -0.078439
  35 C :   -0.100099
  36 C :   -0.053688
  37 C :    0.100452
  38 C :    0.066123
  39 C :    0.068098
  40 O :   -0.378763
  41 C :    0.188585
  42 C :    0.178630
  43 C :   -0.034830
  44 C :    0.044765
  45 C :   -0.131238
  46 S :    0.094529
  47 C :   -0.103989
  48 C :   -0.092133
  49 C :   -0.073517
  50 C :    0.092991
  51 C :    0.074826
  52 C :    0.066586
  53 O :   -0.375554
  54 C :    0.193195
  55 C :    0.185397
  56 C :   -0.020900
  57 C :    0.051676
  58 N :   -0.026919
  59 C :   -0.108591
  60 S :    0.145518
  61 C :   -0.015528
  62 N :    0.279541
  63 O :   -0.260266
  64 O :   -0.276107
  65 C :    0.012726
  66 C :    0.106711
  67 C :   -0.033531
  68 C :   -0.016908
  69 H :   -0.017125
  70 H :   -0.010931
  71 H :   -0.006872
  72 H :    0.015038
  73 H :    0.014285
  74 H :   -0.002093
  75 H :   -0.008092
  76 H :   -0.006887
  77 H :   -0.001950
  78 H :    0.006665
  79 H :    0.015853
  80 H :    0.044639
  81 H :    0.004303
  82 H :   -0.001001
  83 H :   -0.002107
  84 H :    0.025444
  85 H :    0.001860
  86 H :    0.014138
  87 H :    0.021842
  88 H :    0.021203
  89 H :   -0.010672
  90 H :   -0.009267
  91 H :    0.021187
  92 H :    0.027747
  93 H :    0.006765
  94 H :   -0.004267
  95 H :   -0.016458
  96 H :    0.027420
  97 H :    0.003178
  98 H :    0.000330
  99 H :    0.020612
 100 H :    0.011897
 101 H :   -0.014235
 102 H :    0.036202
 103 H :    0.134891
 104 H :    0.005277
 105 H :   -0.030898
 106 H :    0.018757
 107 H :    0.025887
Sum of atomic charges:   -0.0000000

LOEWDIN ATOMIC CHARGES
----------------------
   0 C :    0.074044
   1 C :   -0.163770
   2 C :   -0.019273
   3 N :   -0.075413
   4 C :   -0.019974
   5 N :   -0.078327
   6 C :   -0.017681
   7 C :   -0.047774
   8 C :    0.015794
   9 C :   -0.036823
  10 C :   -0.146505
  11 C :   -0.014803
  12 S :    0.424857
  13 C :   -0.275812
  14 C :   -0.071207
  15 Br:    0.127240
  16 C :    0.080855
  17 O :   -0.161665
  18 C :   -0.114808
  19 C :    0.047884
  20 C :   -0.078874
  21 C :   -0.101337
  22 C :   -0.049031
  23 C :   -0.006500
  24 C :   -0.201154
  25 S :    0.409360
  26 C :   -0.143970
  27 C :   -0.046948
  28 C :   -0.006620
  29 C :   -0.167562
  30 S :    0.428779
  31 C :   -0.037026
  32 C :   -0.189746
  33 S :    0.426053
  34 C :   -0.154154
  35 C :   -0.056161
  36 C :   -0.040091
  37 C :   -0.036969
  38 C :   -0.034803
  39 C :    0.069260
  40 O :   -0.172392
  41 C :    0.067632
  42 C :   -0.029033
  43 C :   -0.052149
  44 C :   -0.033282
  45 C :   -0.176108
  46 S :    0.420233
  47 C :   -0.167704
  48 C :   -0.062775
  49 C :   -0.050410
  50 C :   -0.026783
  51 C :   -0.035895
  52 C :    0.068413
  53 O :   -0.170676
  54 C :    0.067427
  55 C :   -0.028139
  56 C :   -0.088531
  57 C :    0.017232
  58 N :    0.041354
  59 C :   -0.094748
  60 S :    0.450824
  61 C :   -0.217282
  62 N :    0.274413
  63 O :   -0.226707
  64 O :   -0.241765
  65 C :    0.010510
  66 C :   -0.114950
  67 C :   -0.029775
  68 C :   -0.041554
  69 H :    0.038131
  70 H :    0.039541
  71 H :    0.037209
  72 H :    0.029787
  73 H :    0.037957
  74 H :    0.037659
  75 H :    0.034552
  76 H :    0.034238
  77 H :    0.037313
  78 H :    0.038571
  79 H :    0.031887
  80 H :    0.025945
  81 H :    0.024037
  82 H :    0.024842
  83 H :    0.011111
  84 H :    0.022747
  85 H :    0.003963
  86 H :    0.012030
  87 H :    0.037246
  88 H :    0.034633
  89 H :    0.032707
  90 H :    0.021737
  91 H :    0.035092
  92 H :    0.031781
  93 H :    0.026408
  94 H :    0.023311
  95 H :    0.005414
  96 H :    0.023689
  97 H :    0.004045
  98 H :    0.006608
  99 H :    0.036681
 100 H :    0.030776
 101 H :    0.030603
 102 H :    0.019335
 103 H :    0.095025
 104 H :    0.044007
 105 H :    0.021160
 106 H :    0.023437
 107 H :    0.028059

  Mayer bond orders larger than 0.100000
B(  0-C ,  1-C ) :   1.5664 B(  0-C ,  6-C ) :   0.9871 B(  0-C , 18-C ) :   1.1294
B(  1-C ,  2-C ) :   1.1529 B(  1-C ,  4-C ) :   1.1574 B(  2-C ,  3-N ) :   2.9599
B(  4-C ,  5-N ) :   2.9615 B(  6-C ,  7-C ) :   1.2800 B(  6-C , 11-C ) :   1.4209
B(  7-C ,  8-C ) :   1.4324 B(  7-C , 16-C ) :   0.9317 B(  8-C ,  9-C ) :   1.2370
B(  8-C , 69-H ) :   1.0172 B(  9-C , 10-C ) :   1.3200 B(  9-C , 14-C ) :   1.1578
B( 10-C , 11-C ) :   1.3170 B( 10-C , 12-S ) :   1.0814 B( 11-C , 70-H ) :   0.9806
B( 12-S , 13-C ) :   1.0850 B( 13-C , 14-C ) :   1.6213 B( 13-C , 15-Br) :   1.0113
B( 14-C , 71-H ) :   1.0011 B( 16-C , 17-O ) :   2.1875 B( 16-C , 18-C ) :   0.9727
B( 18-C , 19-C ) :   1.4496 B( 19-C , 20-C ) :   1.2882 B( 19-C , 72-H ) :   0.9432
B( 20-C , 21-C ) :   1.3881 B( 20-C , 73-H ) :   0.9808 B( 21-C , 22-C ) :   1.1967
B( 21-C , 25-S ) :   1.0956 B( 22-C , 23-C ) :   1.5205 B( 22-C , 74-H ) :   1.0018
B( 23-C , 24-C ) :   1.2369 B( 23-C , 75-H ) :   0.9944 B( 24-C , 25-S ) :   1.0439
B( 24-C , 26-C ) :   1.4427 B( 26-C , 27-C ) :   1.2001 B( 26-C , 30-S ) :   1.0970
B( 27-C , 28-C ) :   1.5758 B( 27-C , 76-H ) :   0.9952 B( 28-C , 29-C ) :   1.1536
B( 28-C , 77-H ) :   0.9974 B( 29-C , 30-S ) :   1.0298 B( 29-C , 31-C ) :   1.5954
B( 31-C , 32-C ) :   1.1523 B( 31-C , 78-H ) :   0.9495 B( 32-C , 33-S ) :   1.0852
B( 32-C , 36-C ) :   1.4598 B( 33-S , 34-C ) :   1.1213 B( 34-C , 35-C ) :   1.4590
B( 34-C , 43-C ) :   1.1742 B( 35-C , 36-C ) :   1.3448 B( 35-C , 42-C ) :   1.0153
B( 36-C , 37-C ) :   1.0484 B( 37-C , 38-C ) :   1.0787 B( 37-C , 79-H ) :   0.9198
B( 37-C , 80-H ) :   0.8905 B( 38-C , 39-C ) :   1.0519 B( 38-C , 81-H ) :   0.9302
B( 38-C , 82-H ) :   0.9241 B( 39-C , 40-O ) :   1.0393 B( 39-C , 42-C ) :   1.0364
B( 39-C , 83-H ) :   0.9287 B( 40-O , 41-C ) :   0.9898 B( 41-C , 84-H ) :   0.9823
B( 41-C , 85-H ) :   0.9666 B( 41-C , 86-H ) :   0.9667 B( 42-C , 87-H ) :   0.9062
B( 42-C , 88-H ) :   0.9054 B( 43-C , 44-C ) :   1.6381 B( 43-C , 89-H ) :   0.9640
B( 44-C , 45-C ) :   1.1442 B( 44-C , 90-H ) :   0.9487 B( 45-C , 46-S ) :   1.1012
B( 45-C , 49-C ) :   1.5024 B( 46-S , 47-C ) :   1.1134 B( 47-C , 48-C ) :   1.5019
B( 47-C , 56-C ) :   1.1710 B( 48-C , 49-C ) :   1.3222 B( 48-C , 55-C ) :   1.0155
B( 49-C , 50-C ) :   1.0529 B( 50-C , 51-C ) :   1.0763 B( 50-C , 91-H ) :   0.9136
B( 50-C , 92-H ) :   0.8990 B( 51-C , 52-C ) :   1.0444 B( 51-C , 93-H ) :   0.9283
B( 51-C , 94-H ) :   0.9241 B( 52-C , 53-O ) :   1.0389 B( 52-C , 55-C ) :   1.0386
B( 52-C , 95-H ) :   0.9305 B( 53-O , 54-C ) :   0.9943 B( 54-C , 96-H ) :   0.9826
B( 54-C , 97-H ) :   0.9664 B( 54-C , 98-H ) :   0.9648 B( 55-C , 99-H ) :   0.9039
B( 55-C ,100-H ) :   0.9088 B( 56-C , 57-C ) :   1.6697 B( 56-C ,101-H ) :   0.9604
B( 57-C , 58-N ) :   1.1131 B( 57-C ,102-H ) :   0.9588 B( 58-N , 59-C ) :   1.2372
B( 58-N ,103-H ) :   0.9159 B( 59-C , 60-S ) :   1.1355 B( 59-C , 66-C ) :   1.3584
B( 60-S , 61-C ) :   1.0592 B( 61-C , 62-N ) :   0.9896 B( 61-C , 65-C ) :   1.4873
B( 62-N , 63-O ) :   1.5226 B( 62-N , 64-O ) :   1.4995 B( 63-O , 64-O ) :   0.2502
B( 65-C , 66-C ) :   1.2452 B( 65-C ,104-H ) :   0.9996 B( 66-C , 67-C ) :   1.0600
B( 67-C , 68-C ) :   1.9749 B( 67-C ,105-H ) :   0.9618 B( 68-C ,106-H ) :   0.9528
B( 68-C ,107-H ) :   0.9471

-----------------------------------------------------------------------------
         ABSORPTION SPECTRUM VIA TRANSITION ELECTRIC DIPOLE MOMENTS
-----------------------------------------------------------------------------
State   Energy  Wavelength   fosc         T2         TX        TY        TZ
        (cm-1)    (nm)                  (au**2)     (au)      (au)      (au)
-----------------------------------------------------------------------------
   0   10465.4    955.5   1.178720746  37.07928   2.70660   4.62809   2.88693
   1   17675.3    565.8   0.630859585  11.75007  -3.12161   0.91727   1.07898
   2   20352.2    491.3   0.558592421   9.03565  -1.64033   1.63229   1.91848
   3   22524.9    444.0   0.383127474   5.59959   0.47674   0.91842  -2.12810
   4   23827.4    419.7   0.158906183   2.19553   0.43964  -1.15314  -0.82007
   5   24643.5    405.8   0.657667273   8.78575   0.83469  -2.22277   1.77436
   6   25660.7    389.7   0.323469484   4.14992   1.89355  -0.05922   0.74892
   7   27049.1    369.7   0.058552744   0.71264   0.59432  -0.09994  -0.59113
   8   27283.9    366.5   0.003098609   0.03739  -0.13741   0.07597   0.11286
   9   27715.2    360.8   0.185192091   2.19978  -0.93729   1.07613   0.40400
  10   28876.8    346.3   0.002740793   0.03125   0.01724  -0.09287  -0.14941
  11   29031.5    344.5   0.007322051   0.08303  -0.16470   0.10827  -0.21020
  12   29842.9    335.1   0.021910266   0.24170   0.13102  -0.40133  -0.25194
  13   30320.2    329.8   0.106838915   1.16004   0.14596   0.24457   1.03871
  14   30856.4    324.1   0.083672514   0.89272   0.87637  -0.13886   0.32466
  15   31854.8    313.9   0.308581506   3.18912   0.68601   1.50943   0.66342
  16   32145.2    311.1   0.077321871   0.79188   0.70074  -0.53892   0.10205
  17   32470.5    308.0   0.010998382   0.11151   0.32094   0.06522  -0.06523
  18   32708.1    305.7   0.328311976   3.30451   1.43836   1.09908  -0.16630
  19   32957.9    303.4   0.026595125   0.26566  -0.30161   0.30586   0.28485
  20   33159.4    301.6   0.054454657   0.54063  -0.29677  -0.63762   0.21449
  21   33727.1    296.5   0.061040520   0.59582  -0.50833  -0.57895   0.04736
  22   33816.7    295.7   0.125103090   1.21790   0.49021   0.69593  -0.70233
  23   34240.4    292.1   0.029163303   0.28040  -0.24807  -0.28045  -0.37444
  24   35041.7    285.4   0.042684698   0.40102   0.03830  -0.61500  -0.14605
  25   35246.1    283.7   0.048167237   0.44990  -0.04042   0.59496  -0.30707
  26   35650.4    280.5   0.057743997   0.53323   0.34445  -0.18666   0.61623
  27   36077.0    277.2   0.000661601   0.00604  -0.00919   0.06001  -0.04849
  28   36593.3    273.3   0.095342813   0.85775  -0.06896  -0.89998  -0.20743
  29   37487.4    266.8   0.033693434   0.29589  -0.32617  -0.40997  -0.14640
  30   38102.9    262.4   0.115168140   0.99506   0.62086  -0.77401  -0.10249
  31   38530.0    259.5   0.000799893   0.00683  -0.07833  -0.01565  -0.02129
  32   38898.6    257.1   0.052592888   0.44511  -0.28098  -0.51698   0.31446
  33   39436.2    253.6   0.040594409   0.33888   0.12539  -0.52948   0.20691
  34   39703.7    251.9   0.069807032   0.57882   0.39862  -0.64749   0.02608
  35   40187.0    248.8   0.155933507   1.27741   0.35801  -1.07136   0.03779
  36   40281.7    248.3   0.051742845   0.42288   0.26633  -0.04005   0.59190

FINAL SINGLE POINT ENERGY     -7597.097160134072

DIPOLE MOMENT
-------------
                                X             Y             Z
Electronic contribution:    118.12587     208.62408      51.57148
Nuclear contribution   :   -120.21427    -211.17444     -51.22078
                        -----------------------------------------
Total Dipole Moment    :     -2.08840      -2.55036       0.35070
                        -----------------------------------------
Magnitude (a.u.)       :      3.31492
Magnitude (Debye)      :      8.42586

Rotational constants in cm-1:     0.000707     0.000225     0.000206
Rotational constants in MHz :    21.187686     6.741490     6.170772

                             ****ORCA TERMINATED NORMALLY****
TOTAL RUN TIME: 0 days 0 hours 10 minutes 5 seconds 51 msec
