                         Program Version 4.2.0 -  RELEASE  -
|  1> # ORCA input file
|  2> # SCF done       -191.505709769034          0.000639942873
|  3> ! CAM-B3LYP def2-SVP def2/J RIJCOSX Grid4 TightSCF
|  4> %maxcore 5000
|  5> %tddft
|  6>     Mode sTDDFT
|  7>     Ethresh 5.0
|  8>     maxcore 5000
|  9> end
| 10>
| 11> %pal
| 12>   nprocs 6
| 13>   end
| 14> * xyz 0 1
| 15>    C      -13.41342         3.65942        -2.34576
| 16>    C      -14.26195         3.12756        -1.41029
| 17>    C      -15.57131         3.59147        -1.16642
| 18>    N      -16.64530         3.91549        -0.92447
| 19>    C      -13.93303         2.04310        -0.57162
| 20>    N      -13.70261         1.16500         0.13112
| 21>    C      -13.70996         4.78678        -3.22625
| 22>    C      -12.57490         5.04876        -4.03786
| 23>    C      -12.55265         6.05368        -4.97601
| 24>    C      -13.71641         6.80980        -5.15088
| 25>    C      -14.85034         6.52974        -4.34997
| 26>    C      -14.85940         5.53837        -3.37476
| 27>    S      -16.20359         7.52358        -4.78192
| 28>    C      -15.25087         8.27865        -6.02666
| 29>    C      -13.97296         7.83379        -6.10174
| 30>   Br      -16.03964         9.56100        -7.14423
| 31>    C      -11.53059         4.06745        -3.72259
| 32>    O      -10.43232         3.95314        -4.25935
| 33>    C      -12.07145         3.21790        -2.65535
| 34>    C      -11.34754         2.18490        -2.11087
| 35>    N      -10.09765         1.94889        -2.52396
| 36>    C       -9.25305         0.96552        -2.11881
| 37>    S       -9.80438        -0.40903        -1.21585
| 38>    C       -8.21913        -1.10305        -1.34671
| 39>    N       -8.00735        -2.35123        -0.73797
| 40>    O       -6.90114        -2.84348        -0.83000
| 41>    O       -8.96105        -2.84361        -0.16364
| 42>    C       -7.33166        -0.33031        -2.04482
| 43>    C       -7.89796         0.88433        -2.47737
| 44>    C       -7.19722         1.90411        -3.21235
| 45>    C       -7.52288         3.21327        -3.10484
| 46>    C       -7.13623         4.29953        -3.93841
| 47>    C       -6.18663         4.28115        -4.98597
| 48>    C       -6.02701         5.39886        -5.88071
| 49>    N       -5.07600         5.37304        -6.81581
| 50>    C       -4.30374         4.31201        -6.92886
| 51>    C       -4.50189         3.17956        -6.08312
| 52>    N       -5.41749         3.19074        -5.14390
| 53>    C       -3.70170         2.01962        -6.24516
| 54>    N       -3.04464         1.09407        -6.39632
| 55>    C       -3.27761         4.31078        -7.90392
| 56>    N       -2.44031         4.28162        -8.68557
| 57>    C       -6.88327         6.55154        -5.83705
| 58>    C       -7.79947         6.57271        -4.75345
| 59>    C       -7.87713         5.49564        -3.80218
| 60>    N       -8.77901         5.73642        -2.84997
| 61>    S       -9.47545         7.15493        -3.12307
| 62>    N       -8.65804         7.54081        -4.46008
| 63>    C       -6.74515         7.52330        -6.83178
| 64>    C       -7.51497         8.63328        -7.13385
| 65>    C       -7.23153         9.50481        -8.21177
| 66>    C       -8.15512        10.49581        -8.40400
| 67>    C       -9.21600        10.43366        -7.48667
| 68>    S       -8.99152         9.12821        -6.35166
| 69>    C      -10.34922        11.23556        -7.36997
| 70>    C      -10.72948        12.38682        -8.07847
| 71>    C      -11.92394        12.91388        -7.66556
| 72>    C      -12.54511        12.19964        -6.61743
| 73>    S      -11.54952        10.83025        -6.17350
| 74>    C      -13.77069        12.49079        -6.05386
| 75>    C      -14.44357        11.77870        -5.05838
| 76>    C      -13.98641        10.65560        -4.23150
| 77>    N      -14.90468        10.13501        -3.47353
| 78>    C      -16.04424        10.85578        -3.72074
| 79>    C      -15.77846        11.92413        -4.67496
| 80>    C      -16.98053        12.64547        -4.96195
| 81>    S      -17.16835        13.92727        -5.98076
| 82>    C      -17.99342        11.97968        -4.17312
| 83>    C      -17.38568        10.87229        -3.42123
| 84>    N      -18.33383        10.19620        -2.71217
| 85>    C      -19.45907        10.80054        -2.97109
| 86>    C      -19.33762        11.93658        -3.89547
| 87>    C      -20.38163        12.78733        -4.38528
| 88>    C      -21.66754        12.68571        -4.04594
| 89>    H      -11.67531         6.23657        -5.57754
| 90>    H      -15.74475         5.36841        -2.78525
| 91>    H      -13.24852         8.19690        -6.80778
| 92>    H      -11.74190         1.54609        -1.33103
| 93>    H       -9.76645         2.59522        -3.26331
| 94>    H       -6.30963        -0.61909        -2.21199
| 95>    H       -6.40180         1.58544        -3.86860
| 96>    H       -8.21864         3.52189        -2.33508
| 97>    H       -5.90960         7.34839        -7.50030
| 98>    H       -6.35335         9.37194        -8.81886
| 99>    H       -8.09522        11.23989        -9.17789
|100>    H      -10.12257        12.80183        -8.86284
|101>    H      -12.37702        13.79351        -8.08700
|102>    H      -14.30444        13.33525        -6.47271
|103>    H      -12.98540        10.26344        -4.19665
|104>    H      -20.37133        10.45507        -2.51900
|105>    H      -20.05963        13.55520        -5.07708
|106>    H      -22.02450        11.93618        -3.36035
|107>    H      -22.40570        13.35721        -4.44859
|108> *
|109>
|110>                          ****END OF INPUT****

CARTESIAN COORDINATES (ANGSTROEM)
---------------------------------
  C    -13.413420    3.659420   -2.345760
  C    -14.261950    3.127560   -1.410290
  C    -15.571310    3.591470   -1.166420
  N    -16.645300    3.915490   -0.924470
  C    -13.933030    2.043100   -0.571620
  N    -13.702610    1.165000    0.131120
  C    -13.709960    4.786780   -3.226250
  C    -12.574900    5.048760   -4.037860
  C    -12.552650    6.053680   -4.976010
  C    -13.716410    6.809800   -5.150880
  C    -14.850340    6.529740   -4.349970
  C    -14.859400    5.538370   -3.374760
  S    -16.203590    7.523580   -4.781920
  C    -15.250870    8.278650   -6.026660
  C    -13.972960    7.833790   -6.101740
  Br   -16.039640    9.561000   -7.144230
  C    -11.530590    4.067450   -3.722590
  O    -10.432320    3.953140   -4.259350
  C    -12.071450    3.217900   -2.655350
  C    -11.347540    2.184900   -2.110870
  N    -10.097650    1.948890   -2.523960
  C     -9.253050    0.965520   -2.118810
  S     -9.804380   -0.409030   -1.215850
  C     -8.219130   -1.103050   -1.346710
  N     -8.007350   -2.351230   -0.737970
  O     -6.901140   -2.843480   -0.830000
  O     -8.961050   -2.843610   -0.163640
  C     -7.331660   -0.330310   -2.044820
  C     -7.897960    0.884330   -2.477370
  C     -7.197220    1.904110   -3.212350
  C     -7.522880    3.213270   -3.104840
  C     -7.136230    4.299530   -3.938410
  C     -6.186630    4.281150   -4.985970
  C     -6.027010    5.398860   -5.880710
  N     -5.076000    5.373040   -6.815810
  C     -4.303740    4.312010   -6.928860
  C     -4.501890    3.179560   -6.083120
  N     -5.417490    3.190740   -5.143900
  C     -3.701700    2.019620   -6.245160
  N     -3.044640    1.094070   -6.396320
  C     -3.277610    4.310780   -7.903920
  N     -2.440310    4.281620   -8.685570
  C     -6.883270    6.551540   -5.837050
  C     -7.799470    6.572710   -4.753450
  C     -7.877130    5.495640   -3.802180
  N     -8.779010    5.736420   -2.849970
  S     -9.475450    7.154930   -3.123070
  N     -8.658040    7.540810   -4.460080
  C     -6.745150    7.523300   -6.831780
  C     -7.514970    8.633280   -7.133850
  C     -7.231530    9.504810   -8.211770
  C     -8.155120   10.495810   -8.404000
  C     -9.216000   10.433660   -7.486670
  S     -8.991520    9.128210   -6.351660
  C    -10.349220   11.235560   -7.369970
  C    -10.729480   12.386820   -8.078470
  C    -11.923940   12.913880   -7.665560
  C    -12.545110   12.199640   -6.617430
  S    -11.549520   10.830250   -6.173500
  C    -13.770690   12.490790   -6.053860
  C    -14.443570   11.778700   -5.058380
  C    -13.986410   10.655600   -4.231500
  N    -14.904680   10.135010   -3.473530
  C    -16.044240   10.855780   -3.720740
  C    -15.778460   11.924130   -4.674960
  C    -16.980530   12.645470   -4.961950
  S    -17.168350   13.927270   -5.980760
  C    -17.993420   11.979680   -4.173120
  C    -17.385680   10.872290   -3.421230
  N    -18.333830   10.196200   -2.712170
  C    -19.459070   10.800540   -2.971090
  C    -19.337620   11.936580   -3.895470
  C    -20.381630   12.787330   -4.385280
  C    -21.667540   12.685710   -4.045940
  H    -11.675310    6.236570   -5.577540
  H    -15.744750    5.368410   -2.785250
  H    -13.248520    8.196900   -6.807780
  H    -11.741900    1.546090   -1.331030
  H     -9.766450    2.595220   -3.263310
  H     -6.309630   -0.619090   -2.211990
  H     -6.401800    1.585440   -3.868600
  H     -8.218640    3.521890   -2.335080
  H     -5.909600    7.348390   -7.500300
  H     -6.353350    9.371940   -8.818860
  H     -8.095220   11.239890   -9.177890
  H    -10.122570   12.801830   -8.862840
  H    -12.377020   13.793510   -8.087000
  H    -14.304440   13.335250   -6.472710
  H    -12.985400   10.263440   -4.196650
  H    -20.371330   10.455070   -2.519000
  H    -20.059630   13.555200   -5.077080
  H    -22.024500   11.936180   -3.360350
  H    -22.405700   13.357210   -4.448590

 Total Charge           Charge          ....    0
 Multiplicity           Mult            ....    1
 Number of Electrons    NEL             ....  570
 Basis Dimension        Dim             .... 1173

ORBITAL ENERGIES
----------------

  NO   OCC          E(Eh)            E(eV)
   0   2.0000    -482.893390    -13140.1972
   1   2.0000     -89.048554     -2423.1343
   2   2.0000     -88.991300     -2421.5764
   3   2.0000     -88.980095     -2421.2715
   4   2.0000     -88.979354     -2421.2513
   5   2.0000     -88.972290     -2421.0591
   6   2.0000     -88.907369     -2419.2925
   7   2.0000     -62.570679     -1702.6347
   8   2.0000     -56.404656     -1534.8487
   9   2.0000     -56.401955     -1534.7752
  10   2.0000     -56.401904     -1534.7738
  11   2.0000     -19.239189      -523.5249
  12   2.0000     -19.238764      -523.5134
  13   2.0000     -19.235203      -523.4165
  14   2.0000     -14.650919      -398.6718
  15   2.0000     -14.496874      -394.4800
  16   2.0000     -14.465277      -393.6202
  17   2.0000     -14.461603      -393.5202
  18   2.0000     -14.461454      -393.5162
  19   2.0000     -14.454523      -393.3276
  20   2.0000     -14.432126      -392.7181
  21   2.0000     -14.428467      -392.6186
  22   2.0000     -14.426377      -392.5617
  23   2.0000     -14.422318      -392.4512
  24   2.0000     -14.421251      -392.4222
  25   2.0000     -14.416229      -392.2855
  26   2.0000     -10.384098      -282.5657
  27   2.0000     -10.382027      -282.5093
  28   2.0000     -10.378891      -282.4240
  29   2.0000     -10.373276      -282.2712
  30   2.0000     -10.371428      -282.2209
  31   2.0000     -10.364194      -282.0241
  32   2.0000     -10.352759      -281.7129
  33   2.0000     -10.350530      -281.6522
  34   2.0000     -10.350005      -281.6380
  35   2.0000     -10.348486      -281.5966
  36   2.0000     -10.348238      -281.5899
  37   2.0000     -10.347294      -281.5642
  38   2.0000     -10.344276      -281.4821
  39   2.0000     -10.344258      -281.4816
  40   2.0000     -10.344185      -281.4796
  41   2.0000     -10.343874      -281.4711
  42   2.0000     -10.341160      -281.3973
  43   2.0000     -10.339546      -281.3534
  44   2.0000     -10.339154      -281.3427
  45   2.0000     -10.337723      -281.3037
  46   2.0000     -10.336381      -281.2672
  47   2.0000     -10.330585      -281.1095
  48   2.0000     -10.330159      -281.0979
  49   2.0000     -10.326033      -280.9857
  50   2.0000     -10.325286      -280.9653
  51   2.0000     -10.323685      -280.9218
  52   2.0000     -10.322736      -280.8959
  53   2.0000     -10.319342      -280.8036
  54   2.0000     -10.317098      -280.7425
  55   2.0000     -10.315658      -280.7033
  56   2.0000     -10.315595      -280.7016
  57   2.0000     -10.314852      -280.6814
  58   2.0000     -10.313643      -280.6485
  59   2.0000     -10.312642      -280.6212
  60   2.0000     -10.311923      -280.6017
  61   2.0000     -10.311646      -280.5942
  62   2.0000     -10.310940      -280.5750
  63   2.0000     -10.310645      -280.5669
  64   2.0000     -10.310048      -280.5507
  65   2.0000     -10.308675      -280.5133
  66   2.0000     -10.308609      -280.5115
  67   2.0000     -10.307422      -280.4792
  68   2.0000     -10.306958      -280.4666
  69   2.0000     -10.302205      -280.3373
  70   2.0000     -10.301895      -280.3288
  71   2.0000     -10.301768      -280.3254
  72   2.0000     -10.301253      -280.3113
  73   2.0000     -10.298222      -280.2289
  74   2.0000     -10.293521      -280.1009
  75   2.0000     -10.291543      -280.0471
  76   2.0000     -10.291375      -280.0425
  77   2.0000     -10.288103      -279.9535
  78   2.0000      -8.799924      -239.4581
  79   2.0000      -8.139476      -221.4864
  80   2.0000      -8.086609      -220.0478
  81   2.0000      -8.075623      -219.7489
  82   2.0000      -8.075307      -219.7403
  83   2.0000      -8.066846      -219.5100
  84   2.0000      -8.002754      -217.7660
  85   2.0000      -6.636121      -180.5780
  86   2.0000      -6.621716      -180.1861
  87   2.0000      -6.621506      -180.1803
  88   2.0000      -6.110696      -166.2805
  89   2.0000      -6.102988      -166.0708
  90   2.0000      -6.101954      -166.0426
  91   2.0000      -6.056181      -164.7971
  92   2.0000      -6.051830      -164.6787
  93   2.0000      -6.048177      -164.5793
  94   2.0000      -6.045322      -164.5016
  95   2.0000      -6.044962      -164.4918
  96   2.0000      -6.041010      -164.3842
  97   2.0000      -6.040788      -164.3782
  98   2.0000      -6.036879      -164.2718
  99   2.0000      -6.036557      -164.2631
 100   2.0000      -6.036530      -164.2623
 101   2.0000      -6.032130      -164.1426
 102   2.0000      -6.028160      -164.0346
 103   2.0000      -5.971566      -162.4946
 104   2.0000      -5.971160      -162.4835
 105   2.0000      -5.962268      -162.2416
 106   2.0000      -2.752018       -74.8862
 107   2.0000      -2.747976       -74.7762
 108   2.0000      -2.747827       -74.7722
 109   2.0000      -2.736381       -74.4607
 110   2.0000      -2.736357       -74.4601
 111   2.0000      -1.321469       -35.9590
 112   2.0000      -1.150361       -31.3029
 113   2.0000      -1.145652       -31.1748
 114   2.0000      -1.140891       -31.0452
 115   2.0000      -1.122023       -30.5318
 116   2.0000      -1.104715       -30.0608
 117   2.0000      -1.091348       -29.6971
 118   2.0000      -1.072029       -29.1714
 119   2.0000      -1.048273       -28.5250
 120   2.0000      -1.028647       -27.9909
 121   2.0000      -1.026139       -27.9227
 122   2.0000      -1.018133       -27.7048
 123   2.0000      -1.015118       -27.6228
 124   2.0000      -1.011121       -27.5140
 125   2.0000      -1.007903       -27.4264
 126   2.0000      -1.003834       -27.3157
 127   2.0000      -0.998397       -27.1678
 128   2.0000      -0.997618       -27.1466
 129   2.0000      -0.994515       -27.0621
 130   2.0000      -0.980277       -26.6747
 131   2.0000      -0.970677       -26.4135
 132   2.0000      -0.948334       -25.8055
 133   2.0000      -0.931375       -25.3440
 134   2.0000      -0.927154       -25.2291
 135   2.0000      -0.915363       -24.9083
 136   2.0000      -0.913581       -24.8598
 137   2.0000      -0.913379       -24.8543
 138   2.0000      -0.910929       -24.7876
 139   2.0000      -0.900200       -24.4957
 140   2.0000      -0.892176       -24.2773
 141   2.0000      -0.888299       -24.1719
 142   2.0000      -0.880804       -23.9679
 143   2.0000      -0.871053       -23.7025
 144   2.0000      -0.864377       -23.5209
 145   2.0000      -0.857510       -23.3340
 146   2.0000      -0.854481       -23.2516
 147   2.0000      -0.849848       -23.1255
 148   2.0000      -0.840425       -22.8691
 149   2.0000      -0.836138       -22.7525
 150   2.0000      -0.834383       -22.7047
 151   2.0000      -0.831968       -22.6390
 152   2.0000      -0.809583       -22.0299
 153   2.0000      -0.800895       -21.7934
 154   2.0000      -0.792724       -21.5711
 155   2.0000      -0.783842       -21.3294
 156   2.0000      -0.770680       -20.9713
 157   2.0000      -0.767658       -20.8890
 158   2.0000      -0.753194       -20.4954
 159   2.0000      -0.745687       -20.2912
 160   2.0000      -0.738194       -20.0873
 161   2.0000      -0.730002       -19.8644
 162   2.0000      -0.727801       -19.8045
 163   2.0000      -0.714803       -19.4508
 164   2.0000      -0.709916       -19.3178
 165   2.0000      -0.704925       -19.1820
 166   2.0000      -0.701705       -19.0944
 167   2.0000      -0.698716       -19.0130
 168   2.0000      -0.695849       -18.9350
 169   2.0000      -0.693972       -18.8839
 170   2.0000      -0.681874       -18.5547
 171   2.0000      -0.675287       -18.3755
 172   2.0000      -0.668663       -18.1952
 173   2.0000      -0.662036       -18.0149
 174   2.0000      -0.659041       -17.9334
 175   2.0000      -0.657825       -17.9003
 176   2.0000      -0.648533       -17.6475
 177   2.0000      -0.641855       -17.4658
 178   2.0000      -0.640481       -17.4284
 179   2.0000      -0.636454       -17.3188
 180   2.0000      -0.633221       -17.2308
 181   2.0000      -0.632438       -17.2095
 182   2.0000      -0.627718       -17.0811
 183   2.0000      -0.624824       -17.0023
 184   2.0000      -0.617364       -16.7993
 185   2.0000      -0.614090       -16.7102
 186   2.0000      -0.609170       -16.5763
 187   2.0000      -0.600048       -16.3281
 188   2.0000      -0.597261       -16.2523
 189   2.0000      -0.592732       -16.1291
 190   2.0000      -0.585633       -15.9359
 191   2.0000      -0.583660       -15.8822
 192   2.0000      -0.583024       -15.8649
 193   2.0000      -0.577857       -15.7243
 194   2.0000      -0.574359       -15.6291
 195   2.0000      -0.567398       -15.4397
 196   2.0000      -0.564542       -15.3620
 197   2.0000      -0.562633       -15.3100
 198   2.0000      -0.561211       -15.2713
 199   2.0000      -0.557079       -15.1589
 200   2.0000      -0.555562       -15.1176
 201   2.0000      -0.553577       -15.0636
 202   2.0000      -0.551638       -15.0108
 203   2.0000      -0.544970       -14.8294
 204   2.0000      -0.542427       -14.7602
 205   2.0000      -0.541099       -14.7240
 206   2.0000      -0.532346       -14.4859
 207   2.0000      -0.531323       -14.4580
 208   2.0000      -0.527709       -14.3597
 209   2.0000      -0.525809       -14.3080
 210   2.0000      -0.523654       -14.2493
 211   2.0000      -0.521433       -14.1889
 212   2.0000      -0.516658       -14.0590
 213   2.0000      -0.515107       -14.0168
 214   2.0000      -0.511538       -13.9197
 215   2.0000      -0.508893       -13.8477
 216   2.0000      -0.504837       -13.7373
 217   2.0000      -0.504005       -13.7147
 218   2.0000      -0.502912       -13.6849
 219   2.0000      -0.502821       -13.6824
 220   2.0000      -0.500975       -13.6322
 221   2.0000      -0.498872       -13.5750
 222   2.0000      -0.491615       -13.3775
 223   2.0000      -0.488885       -13.3032
 224   2.0000      -0.485424       -13.2091
 225   2.0000      -0.484003       -13.1704
 226   2.0000      -0.482525       -13.1302
 227   2.0000      -0.482101       -13.1186
 228   2.0000      -0.479129       -13.0378
 229   2.0000      -0.477166       -12.9843
 230   2.0000      -0.468970       -12.7613
 231   2.0000      -0.466631       -12.6977
 232   2.0000      -0.465207       -12.6589
 233   2.0000      -0.461113       -12.5475
 234   2.0000      -0.458987       -12.4897
 235   2.0000      -0.457340       -12.4449
 236   2.0000      -0.455405       -12.3922
 237   2.0000      -0.454025       -12.3547
 238   2.0000      -0.453571       -12.3423
 239   2.0000      -0.451564       -12.2877
 240   2.0000      -0.448660       -12.2087
 241   2.0000      -0.446299       -12.1444
 242   2.0000      -0.445261       -12.1162
 243   2.0000      -0.444799       -12.1036
 244   2.0000      -0.441068       -12.0021
 245   2.0000      -0.438787       -11.9400
 246   2.0000      -0.435107       -11.8399
 247   2.0000      -0.434695       -11.8287
 248   2.0000      -0.430889       -11.7251
 249   2.0000      -0.430837       -11.7237
 250   2.0000      -0.428938       -11.6720
 251   2.0000      -0.420136       -11.4325
 252   2.0000      -0.416556       -11.3351
 253   2.0000      -0.413891       -11.2625
 254   2.0000      -0.413299       -11.2464
 255   2.0000      -0.411226       -11.1900
 256   2.0000      -0.410261       -11.1638
 257   2.0000      -0.403165       -10.9707
 258   2.0000      -0.396848       -10.7988
 259   2.0000      -0.391956       -10.6657
 260   2.0000      -0.385896       -10.5008
 261   2.0000      -0.383812       -10.4441
 262   2.0000      -0.379055       -10.3146
 263   2.0000      -0.378427       -10.2975
 264   2.0000      -0.373424       -10.1614
 265   2.0000      -0.368715       -10.0332
 266   2.0000      -0.368024       -10.0144
 267   2.0000      -0.364459        -9.9174
 268   2.0000      -0.363190        -9.8829
 269   2.0000      -0.361641        -9.8408
 270   2.0000      -0.359565        -9.7843
 271   2.0000      -0.358487        -9.7549
 272   2.0000      -0.352622        -9.5953
 273   2.0000      -0.347337        -9.4515
 274   2.0000      -0.346262        -9.4223
 275   2.0000      -0.343490        -9.3468
 276   2.0000      -0.330254        -8.9867
 277   2.0000      -0.323507        -8.8031
 278   2.0000      -0.318115        -8.6564
 279   2.0000      -0.305495        -8.3129
 280   2.0000      -0.298068        -8.1108
 281   2.0000      -0.295923        -8.0525
 282   2.0000      -0.292844        -7.9687
 283   2.0000      -0.272485        -7.4147
 284   2.0000      -0.227111        -6.1800
 285   0.0000      -0.144637        -3.9358
 286   0.0000      -0.116720        -3.1761
 287   0.0000      -0.094383        -2.5683
 288   0.0000      -0.089042        -2.4230
 289   0.0000      -0.072796        -1.9809

MULLIKEN ATOMIC CHARGES
-----------------------
   0 C :    0.325031
   1 C :   -0.343024
   2 C :   -0.186058
   3 N :    0.157545
   4 C :   -0.198812
   5 N :    0.142887
   6 C :    0.008015
   7 C :   -0.001999
   8 C :   -0.087318
   9 C :    0.109963
  10 C :   -0.076202
  11 C :   -0.016824
  12 S :    0.219819
  13 C :   -0.145046
  14 C :    0.041324
  15 Br:    0.029848
  16 C :    0.165628
  17 O :   -0.219462
  18 C :   -0.128795
  19 C :    0.030651
  20 N :   -0.013991
  21 C :   -0.114624
  22 S :    0.186556
  23 C :    0.004968
  24 N :    0.273215
  25 O :   -0.242906
  26 O :   -0.255332
  27 C :    0.016094
  28 C :    0.114416
  29 C :    0.004177
  30 C :   -0.107691
  31 C :    0.084751
  32 C :   -0.053081
  33 C :   -0.050462
  34 N :    0.049663
  35 C :   -0.143536
  36 C :   -0.117381
  37 N :    0.036249
  38 C :   -0.219303
  39 N :    0.241627
  40 C :   -0.218990
  41 N :    0.236066
  42 C :    0.110106
  43 C :    0.042523
  44 C :    0.041649
  45 N :   -0.290304
  46 S :    0.537727
  47 N :   -0.335906
  48 C :   -0.116754
  49 C :    0.018211
  50 C :    0.025313
  51 C :    0.041460
  52 C :   -0.025501
  53 S :    0.121683
  54 C :   -0.033652
  55 C :    0.035087
  56 C :    0.043028
  57 C :   -0.023525
  58 S :    0.061018
  59 C :   -0.022464
  60 C :   -0.001146
  61 C :    0.049163
  62 N :   -0.040127
  63 C :   -0.013814
  64 C :    0.019763
  65 C :   -0.013542
  66 S :   -0.137392
  67 C :    0.004133
  68 C :    0.019898
  69 N :   -0.028404
  70 C :    0.061768
  71 C :   -0.024644
  72 C :   -0.013561
  73 C :   -0.003845
  74 H :   -0.019806
  75 H :   -0.000840
  76 H :   -0.008374
  77 H :    0.042871
  78 H :    0.183394
  79 H :    0.017483
  80 H :    0.021845
  81 H :    0.010178
  82 H :    0.009397
  83 H :    0.003625
  84 H :   -0.005438
  85 H :   -0.000886
  86 H :    0.005923
  87 H :    0.000159
  88 H :    0.018688
  89 H :    0.010239
  90 H :    0.005188
  91 H :    0.022197
  92 H :    0.038553
Sum of atomic charges:   -0.0000000

LOEWDIN ATOMIC CHARGES
----------------------
   0 C :    0.077813
   1 C :   -0.148011
   2 C :   -0.021308
   3 N :   -0.051290
   4 C :   -0.020217
   5 N :   -0.053353
   6 C :   -0.018142
   7 C :   -0.056558
   8 C :    0.013546
   9 C :   -0.034581
  10 C :   -0.137474
  11 C :   -0.003334
  12 S :    0.464760
  13 C :   -0.275735
  14 C :   -0.074558
  15 Br:    0.152459
  16 C :    0.091364
  17 O :   -0.176806
  18 C :   -0.145978
  19 C :    0.111383
  20 N :    0.084362
  21 C :   -0.112091
  22 S :    0.476055
  23 C :   -0.200291
  24 N :    0.272344
  25 O :   -0.208233
  26 O :   -0.222771
  27 C :    0.004246
  28 C :   -0.083412
  29 C :   -0.006645
  30 C :   -0.021764
  31 C :   -0.042340
  32 C :   -0.001978
  33 C :   -0.003202
  34 N :    0.000806
  35 C :   -0.041338
  36 C :   -0.022252
  37 N :   -0.003814
  38 C :   -0.036920
  39 N :   -0.004149
  40 C :   -0.039195
  41 N :   -0.012390
  42 C :   -0.028469
  43 C :   -0.038808
  44 C :   -0.029588
  45 N :   -0.283342
  46 S :    0.665213
  47 N :   -0.296927
  48 C :   -0.032047
  49 C :   -0.131572
  50 C :   -0.024157
  51 C :   -0.024239
  52 C :   -0.189293
  53 S :    0.447009
  54 C :   -0.162276
  55 C :   -0.027864
  56 C :   -0.014941
  57 C :   -0.141501
  58 S :    0.401737
  59 C :   -0.026321
  60 C :   -0.053494
  61 C :    0.069657
  62 N :   -0.083028
  63 C :    0.025324
  64 C :   -0.036331
  65 C :   -0.142722
  66 S :    0.035902
  67 C :   -0.038634
  68 C :    0.035584
  69 N :   -0.081110
  70 C :    0.093464
  71 C :   -0.030830
  72 C :   -0.022042
  73 C :   -0.013615
  74 H :    0.035217
  75 H :    0.043675
  76 H :    0.030920
  77 H :    0.037196
  78 H :    0.089449
  79 H :    0.050309
  80 H :    0.032861
  81 H :    0.031040
  82 H :    0.043162
  83 H :    0.038939
  84 H :    0.034548
  85 H :    0.037925
  86 H :    0.041133
  87 H :    0.038727
  88 H :    0.010105
  89 H :    0.025512
  90 H :    0.034080
  91 H :    0.023123
  92 H :    0.032334

  Mayer bond orders larger than 0.100000
B(  0-C ,  1-C ) :   1.6271 B(  0-C ,  6-C ) :   1.0023 B(  0-C , 18-C ) :   1.1002
B(  1-C ,  2-C ) :   1.1410 B(  1-C ,  4-C ) :   1.1474 B(  2-C ,  3-N ) :   2.9714
B(  4-C ,  5-N ) :   2.9544 B(  6-C ,  7-C ) :   1.2719 B(  6-C , 11-C ) :   1.4235
B(  7-C ,  8-C ) :   1.4078 B(  7-C , 16-C ) :   0.9807 B(  8-C ,  9-C ) :   1.2461
B(  8-C , 74-H ) :   1.0169 B(  9-C , 10-C ) :   1.3112 B(  9-C , 14-C ) :   1.1619
B( 10-C , 11-C ) :   1.3200 B( 10-C , 12-S ) :   1.0968 B( 11-C , 75-H ) :   0.9795
B( 12-S , 13-C ) :   1.1058 B( 13-C , 14-C ) :   1.5912 B( 13-C , 15-Br) :   1.0234
B( 14-C , 76-H ) :   0.9993 B( 16-C , 17-O ) :   2.0172 B( 16-C , 18-C ) :   1.0017
B( 17-O , 78-H ) :   0.1380 B( 18-C , 19-C ) :   1.4462 B( 19-C , 20-N ) :   1.3443
B( 19-C , 77-H ) :   0.9311 B( 20-N , 21-C ) :   1.1712 B( 20-N , 78-H ) :   0.8256
B( 21-C , 22-S ) :   1.1445 B( 21-C , 28-C ) :   1.3875 B( 22-S , 23-C ) :   1.0869
B( 23-C , 24-N ) :   0.9586 B( 23-C , 27-C ) :   1.4937 B( 24-N , 25-O ) :   1.5440
B( 24-N , 26-O ) :   1.5180 B( 25-O , 26-O ) :   0.2635 B( 27-C , 28-C ) :   1.2169
B( 27-C , 79-H ) :   1.0102 B( 28-C , 29-C ) :   1.0512 B( 29-C , 30-C ) :   1.6501
B( 29-C , 80-H ) :   0.9555 B( 30-C , 31-C ) :   1.2183 B( 30-C , 81-H ) :   0.9466
B( 31-C , 32-C ) :   1.2244 B( 31-C , 42-C ) :   0.1083 B( 31-C , 44-C ) :   1.1921
B( 32-C , 33-C ) :   1.1199 B( 32-C , 37-N ) :   1.4310 B( 33-C , 34-N ) :   1.5051
B( 33-C , 42-C ) :   1.1697 B( 34-N , 35-C ) :   1.6837 B( 35-C , 36-C ) :   1.2336
B( 35-C , 40-C ) :   1.1644 B( 36-C , 37-N ) :   1.7248 B( 36-C , 38-C ) :   1.1451
B( 38-C , 39-N ) :   3.0530 B( 40-C , 41-N ) :   3.0467 B( 42-C , 43-C ) :   1.1449
B( 42-C , 48-C ) :   1.3184 B( 43-C , 44-C ) :   1.1260 B( 43-C , 47-N ) :   1.4739
B( 44-C , 45-N ) :   1.5066 B( 45-N , 46-S ) :   1.2692 B( 45-N , 47-N ) :   0.1415
B( 46-S , 47-N ) :   1.2458 B( 48-C , 49-C ) :   1.4105 B( 48-C , 82-H ) :   0.9459
B( 49-C , 50-C ) :   1.1875 B( 49-C , 53-S ) :   1.0793 B( 50-C , 51-C ) :   1.5326
B( 50-C , 83-H ) :   1.0025 B( 51-C , 52-C ) :   1.2239 B( 51-C , 84-H ) :   0.9959
B( 52-C , 53-S ) :   1.0346 B( 52-C , 54-C ) :   1.4205 B( 54-C , 55-C ) :   1.2302
B( 54-C , 58-S ) :   1.0677 B( 55-C , 56-C ) :   1.5354 B( 55-C , 85-H ) :   0.9960
B( 56-C , 57-C ) :   1.1772 B( 56-C , 86-H ) :   1.0008 B( 57-C , 58-S ) :   1.0390
B( 57-C , 59-C ) :   1.4994 B( 59-C , 60-C ) :   1.1802 B( 59-C , 87-H ) :   0.9613
B( 60-C , 61-C ) :   1.0064 B( 60-C , 64-C ) :   1.4295 B( 61-C , 62-N ) :   1.7333
B( 61-C , 88-H ) :   0.9762 B( 62-N , 63-C ) :   1.2295 B( 63-C , 64-C ) :   1.0895
B( 63-C , 68-C ) :   1.5070 B( 64-C , 65-C ) :   1.0654 B( 65-C , 66-S ) :   1.6678
B( 65-C , 67-C ) :   1.0186 B( 67-C , 68-C ) :   1.0707 B( 67-C , 71-C ) :   1.5521
B( 68-C , 69-N ) :   1.2650 B( 69-N , 70-C ) :   1.7232 B( 70-C , 71-C ) :   1.0087
B( 70-C , 89-H ) :   0.9909 B( 71-C , 72-C ) :   1.1067 B( 72-C , 73-C ) :   1.8960
B( 72-C , 90-H ) :   0.9605 B( 73-C , 91-H ) :   0.9557 B( 73-C , 92-H ) :   0.9521

-----------------------------------------------------------------------------
         ABSORPTION SPECTRUM VIA TRANSITION ELECTRIC DIPOLE MOMENTS
-----------------------------------------------------------------------------
State   Energy  Wavelength   fosc         T2         TX        TY        TZ
        (cm-1)    (nm)                  (au**2)     (au)      (au)      (au)
-----------------------------------------------------------------------------
   0    4831.1   2069.9   0.315017332  21.46678   2.99227  -3.48063   0.63111
   1   10223.1    978.2   0.100320774   3.23061  -1.47668  -0.39158   0.94693
   2   13963.0    716.2   0.103481346   2.43983  -1.34433  -0.45057   0.65543
   3   15086.3    662.9   0.457037625   9.97341  -2.91607   0.87353   0.84077
   4   15196.1    658.1   0.001116469   0.02419   0.13258  -0.06543  -0.04827
   5   16780.8    595.9   0.220433489   4.32454   2.00955  -0.37878  -0.37783
   6   17671.1    565.9   0.043026697   0.80158   0.81735  -0.29278  -0.21865
   7   18341.6    545.2   0.011118270   0.19956   0.39676   0.13092  -0.15813
   8   18380.1    544.1   0.000179139   0.00321  -0.02828  -0.02928   0.03939
   9   18957.0    527.5   0.004243294   0.07369   0.25509   0.09270  -0.00499
  10   19463.4    513.8   0.062876103   1.06351  -0.83895   0.26174   0.53960
  11   20497.4    487.9   0.118625293   1.90526  -0.56973   1.16551  -0.47144
  12   20706.4    482.9   0.008383715   0.13329  -0.30209  -0.20025   0.04401
  13   22757.8    439.4   0.024835894   0.35927   0.36123  -0.47829  -0.00505
  14   23134.1    432.3   0.039047208   0.55566  -0.01971   0.59880  -0.44353
  15   23250.8    430.1   0.066564250   0.94250   0.80881   0.09606  -0.52829
  16   23452.2    426.4   0.145839143   2.04723  -1.06472  -0.17735   0.93923
  17   23898.2    418.4   0.233623992   3.21832  -0.82633   1.46605  -0.62144
  18   24122.4    414.6   0.321279020   4.38467  -1.72191   1.17504  -0.19747
  19   24916.9    401.3   0.001075531   0.01421   0.05559   0.09038   0.05433
  20   24982.1    400.3   0.043495544   0.57318  -0.71812   0.06042   0.23202
  21   25501.6    392.1   0.009314287   0.12024  -0.32665   0.09652  -0.06498
  22   25738.9    388.5   0.023859030   0.30517   0.49392  -0.24178  -0.05242
  23   26020.4    384.3   0.108427669   1.37184   0.64626  -0.89062   0.40122
  24   26081.3    383.4   0.129231515   1.63123  -0.05039  -0.92836   0.87569
  25   26166.4    382.2   0.017902488   0.22524  -0.31506   0.35291   0.03784
  26   26611.2    375.8   0.014413170   0.17831  -0.16580  -0.33961   0.18837
  27   26766.9    373.6   0.016026260   0.19711   0.18761  -0.14409   0.37570
  28   27264.3    366.8   0.021610049   0.26094  -0.48825  -0.07991   0.12715
  29   27471.1    364.0   0.177023284   2.12144   1.35932  -0.17918  -0.49150
  30   28060.9    356.4   0.039747072   0.46631   0.33507  -0.59074   0.07120
  31   28583.1    349.9   0.109671403   1.26316  -0.71996  -0.43812   0.74355
  32   28803.3    347.2   0.338892302   3.87343   1.49947   0.69486  -1.06874
  33   29098.5    343.7   0.035860127   0.40571   0.28445  -0.54569   0.16438
  34   29650.2    337.3   0.035625406   0.39556   0.50943  -0.10273   0.35423
  35   29735.5    336.3   0.573632458   6.35089  -0.24595   1.77840  -1.76853
  36   30119.4    332.0   0.163562794   1.78778  -1.15188   0.21152   0.64514
  37   30216.0    331.0   0.014050020   0.15308   0.01557   0.37471  -0.11149
  38   30372.5    329.2   0.051759923   0.56103   0.58625  -0.27563  -0.37600
  39   30633.6    326.4   0.317227007   3.40916   0.77684  -1.67177   0.10417
  40   30722.6    325.5   0.183397943   1.96522  -1.27649   0.00133   0.57949
  41   30920.3    323.4   0.021975531   0.23398   0.22076  -0.35257   0.24684
  42   30989.6    322.7   0.152215643   1.61703  -1.00027   0.75011   0.23198
  43   31285.7    319.6   0.002283389   0.02403  -0.11185   0.10511  -0.02162
  44   31593.5    316.5   0.065425659   0.68175   0.80404  -0.15105  -0.11158
  45   31829.9    314.2   0.101349718   1.04825   0.01186   0.98674  -0.27287
  46   32576.2    307.0   0.239855764   2.42396  -0.05688  -1.10099   1.09934
  47   32866.3    304.3   0.057403503   0.57499  -0.64985  -0.28747   0.26466
  48   33005.3    303.0   0.067746018   0.67573  -0.75913   0.28367   0.13781
  49   33078.5    302.3   0.139645389   1.38981   0.86734  -0.79328   0.09079
  50   33221.1    301.0   0.010300322   0.10207  -0.10145  -0.01675  -0.30249
  51   33665.6    297.0   0.021415576   0.20942  -0.11074  -0.16330   0.41290
  52   33860.0    295.3   0.039150602   0.38065   0.33094   0.28117  -0.43826
  53   33936.1    294.7   0.287311490   2.78719   0.53588   1.07663  -1.15796
  54   34047.1    293.7   0.026549512   0.25672   0.20379  -0.02450  -0.46323
  55   34397.3    290.7   0.135915941   1.30083  -0.55921  -0.44111   0.89081
  56   34466.9    290.1   0.034847179   0.33284  -0.05534   0.52469  -0.23342
  57   34554.3    289.4   0.007400973   0.07051  -0.06333   0.21982  -0.13484
  58   35010.2    285.6   0.028947860   0.27221   0.15216   0.31225  -0.38930
  59   35138.2    284.6   0.042481966   0.39802   0.02008   0.62959  -0.03513
  60   35195.0    284.1   0.003343052   0.03127   0.04199   0.13294  -0.10878
  61   35415.0    282.4   0.097584932   0.90713  -0.63326   0.67678   0.21927
  62   35613.8    280.8   0.013926605   0.12874  -0.22800  -0.18015   0.21047
  63   35678.6    280.3   0.018243432   0.16834  -0.39659   0.09285  -0.04926
  64   35856.5    278.9   0.022151332   0.20338   0.32629   0.00075  -0.31131
  65   35925.3    278.4   0.000853514   0.00782   0.06472  -0.00338  -0.06018
  66   35999.9    277.8   0.044181353   0.40403  -0.53018   0.35062   0.00092
  67   36325.8    275.3   0.053047640   0.48076   0.12390   0.54677  -0.40798
  68   36390.0    274.8   0.015951903   0.14431   0.13140   0.27934  -0.22140
  69   36534.9    273.7   0.025236991   0.22741   0.14036  -0.40769   0.20371
  70   36608.9    273.2   0.051407989   0.46230   0.53639  -0.15577  -0.38771
  71   36902.9    271.0   0.238840848   2.13071  -0.99918   0.95074  -0.47794
  72   37020.8    270.1   0.017856640   0.15879   0.20516  -0.30435   0.15515
  73   37265.3    268.3   0.148462493   1.31156  -0.69026   0.90634  -0.11683
  74   37671.6    265.5   0.020010511   0.17487   0.26020  -0.32202   0.05894
  75   37770.9    264.8   0.010741227   0.09362   0.27714  -0.02734  -0.12675
  76   37928.3    263.7   0.109961285   0.95445   0.07455  -0.72608   0.64938
  77   38149.1    262.1   0.052037430   0.44906   0.48508  -0.34658  -0.30602
  78   38402.3    260.4   0.011897452   0.10199   0.16180  -0.09209  -0.25949
  79   38687.8    258.5   0.146594715   1.24744   0.89982   0.00846  -0.66158
  80   38727.3    258.2   0.005048482   0.04292   0.14268  -0.11911  -0.09149
  81   38810.2    257.7   0.052164286   0.44249  -0.52558   0.22037   0.34307
  82   38919.4    256.9   0.080573891   0.68156   0.60824  -0.17043  -0.53156
  83   39045.1    256.1   0.015065211   0.12702  -0.22250   0.27098   0.06391
  84   39152.7    255.4   0.061739694   0.51913  -0.40315   0.59528   0.04743
  85   39239.4    254.8   0.047913110   0.40198  -0.16896  -0.60296   0.09938
  86   39294.1    254.5   0.069188740   0.57967  -0.50279   0.56529   0.08558
  87   39427.7    253.6   0.045304384   0.37828   0.43578  -0.22577  -0.37068
  88   39554.3    252.8   0.016744412   0.13936  -0.24695   0.21725   0.17659
  89   39664.0    252.1   0.070116060   0.58196  -0.53921  -0.30170   0.44743
  90   39879.6    250.8   0.056495878   0.46638   0.45214   0.26287  -0.43915
  91   40053.1    249.7   0.023297222   0.19149   0.33348  -0.28309  -0.01181
  92   40107.9    249.3   0.011833009   0.09713  -0.29119  -0.05420   0.09694
  93   40199.7    248.8   0.013906968   0.11389  -0.25274   0.21271   0.06905
  94   40313.7    248.1   0.024544855   0.20044   0.21321   0.17114  -0.35453

FINAL SINGLE POINT ENERGY     -7834.106790293275

DIPOLE MOMENT
-------------
                                X             Y             Z
Electronic contribution:    -26.49627       5.75278     -17.29147
Nuclear contribution   :     24.81623       0.10743      14.73174
                        -----------------------------------------
Total Dipole Moment    :     -1.68004       5.86021      -2.55973
                        -----------------------------------------
Magnitude (a.u.)       :      6.61187
Magnitude (Debye)      :     16.80603

Rotational constants in cm-1:     0.001142     0.000466     0.000346
Rotational constants in MHz :    34.236549    13.972235    10.386639

                             ****ORCA TERMINATED NORMALLY****
TOTAL RUN TIME: 0 days 0 hours 20 minutes 52 seconds 822 msec
