                         Program Version 4.2.0 -  RELEASE  -
|  1> # ORCA input file
|  2> # SCF done       -184.855716554945          0.000822263255
|  3> ! CAM-B3LYP def2-SVP def2/J RIJCOSX Grid4 TightSCF
|  4> %maxcore 5000
|  5> %tddft
|  6>     Mode sTDDFT
|  7>     Ethresh 5.0
|  8>     maxcore 5000
|  9> end
| 10>
| 11> %pal
| 12>   nprocs 6
| 13>   end
| 14> * xyz 0 1
| 15>    C      -26.86865        -0.63886        -5.32312
| 16>    C      -27.98500         0.15055        -5.45774
| 17>    C      -29.24887        -0.32700        -5.85734
| 18>    N      -30.30442        -0.65968        -6.16463
| 19>    C      -28.02006         1.54156        -5.23351
| 20>    N      -28.12161         2.67677        -5.08929
| 21>    C      -26.79696        -2.06621        -5.61975
| 22>    C      -25.46264        -2.50177        -5.43423
| 23>    C      -25.07459        -3.80314        -5.63498
| 24>    C      -26.04827        -4.71849        -6.04985
| 25>    C      -27.37872        -4.27426        -6.23197
| 26>    C      -27.77316        -2.95855        -6.02119
| 27>    S      -28.42137        -5.56932        -6.73912
| 28>    C      -27.07280        -6.67372        -6.70171
| 29>    C      -25.90201        -6.10523        -6.32894
| 30>   Br      -27.33792        -8.47372        -7.15795
| 31>    C      -24.63139        -1.36593        -4.98037
| 32>    O      -23.48819        -1.42890        -4.58447
| 33>    C      -25.54618        -0.19989        -4.94866
| 34>    C      -25.20047         1.03455        -4.45806
| 35>    C      -23.88571         1.50557        -4.35700
| 36>    S      -23.46983         2.78249        -3.22390
| 37>    C      -21.78137         2.83430        -3.67627
| 38>    C      -21.59290         1.91185        -4.69602
| 39>    C      -22.73961         1.18272        -5.08248
| 40>    N      -22.39625         0.39028        -6.14732
| 41>    C      -21.14434         0.62243        -6.32851
| 42>    O      -20.57274         1.52655        -5.49878
| 43>    C      -20.87483         3.70123        -3.03823
| 44>    C      -19.55086         3.78016        -3.34993
| 45>    C      -18.64786         4.64386        -2.70925
| 46>    S      -19.11430         5.72533        -1.40442
| 47>    C      -17.50596         6.39321        -1.18593
| 48>    C      -16.67753         5.78007        -2.10260
| 49>    C      -17.29115         4.81939        -2.94431
| 50>    N      -16.32686         4.31849        -3.78493
| 51>    C      -15.25404         4.94260        -3.44964
| 52>    O      -15.36542         5.84408        -2.44475
| 53>    C      -17.20212         7.37077        -0.20453
| 54>    C      -18.13132         7.86788         0.64051
| 55>    C      -17.89531         8.87454         1.64086
| 56>    C      -16.88419         9.78314         1.47357
| 57>    S      -16.78317        10.98311         2.68680
| 58>    C      -18.13387        10.26032         3.50661
| 59>    C      -18.64803         9.12748         2.85649
| 60>    C      -19.74009         8.44353         3.45431
| 61>    C      -20.23698         7.15831         2.84217
| 62>    C      -19.19995         6.04130         2.98149
| 63>    C      -20.31478         8.93004         4.62365
| 64>    C      -21.55001         8.30308         5.21944
| 65>    C      -21.22426         7.11776         6.13118
| 66>    C      -19.76937        10.06067         5.27839
| 67>    C      -20.17278        10.73666         6.48999
| 68>    C      -19.41876        11.84681         6.72432
| 69>    S      -18.17892        12.13219         5.56875
| 70>    C      -18.68172        10.72269         4.69064
| 71>    C      -21.19820        10.34055         7.44164
| 72>    C      -22.04790        11.21316         8.00475
| 73>    C      -23.03909        10.87411         8.98134
| 74>    O      -23.85617        11.88406         9.40944
| 75>    C      -24.68718        11.33723        10.29947
| 76>    C      -25.78387        11.63853        11.15058
| 77>    C      -26.41265        12.96185        11.35900
| 78>    O      -25.87072        14.00408        11.07039
| 79>    N      -27.65039        12.91743        11.91548
| 80>    C      -26.07397        10.43073        11.74636
| 81>    O      -25.26576         9.42574        11.33966
| 82>    C      -24.41977         9.97759        10.44829
| 83>    C      -23.34837         9.67079         9.59368
| 84>    H      -24.05067        -4.10530        -5.48110
| 85>    H      -28.80106        -2.67076        -6.16577
| 86>    H      -24.97270        -6.63957        -6.25226
| 87>    H      -25.97460         1.70127        -4.09996
| 88>    H      -20.52856         0.16654        -7.07861
| 89>    H      -21.27622         4.33307        -2.25731
| 90>    H      -19.13370         3.15916        -4.13081
| 91>    H      -14.28960         4.80702        -3.89817
| 92>    H      -16.16505         7.67144        -0.15349
| 93>    H      -19.13630         7.49347         0.52758
| 94>    H      -16.20792         9.83778         0.64318
| 95>    H      -20.49148         7.31338         1.79378
| 96>    H      -21.14823         6.82724         3.33181
| 97>    H      -18.26740         6.29846         2.48675
| 98>    H      -19.58025         5.12201         2.54171
| 99>    H      -18.98474         5.86070         4.03239
|100>    H      -22.23085         7.98011         4.43056
|101>    H      -22.07982         9.06610         5.79036
|102>    H      -20.82795         6.28301         5.55954
|103>    H      -22.12172         6.78307         6.64725
|104>    H      -20.47712         7.39593         6.87147
|105>    H      -19.50161        12.50615         7.56611
|106>    H      -21.22325         9.30447         7.74106
|107>    H      -22.04351        12.25290         7.70965
|108>    H      -28.13652        12.05830        12.08989
|109>    H      -28.13157        13.78850        12.06503
|110>    H      -26.80283        10.17178        12.48946
|111>    H      -22.86801         8.72782         9.44224
|112> *
|113>
|114>                          ****END OF INPUT****

CARTESIAN COORDINATES (ANGSTROEM)
---------------------------------
  C    -26.868650   -0.638860   -5.323120
  C    -27.985000    0.150550   -5.457740
  C    -29.248870   -0.327000   -5.857340
  N    -30.304420   -0.659680   -6.164630
  C    -28.020060    1.541560   -5.233510
  N    -28.121610    2.676770   -5.089290
  C    -26.796960   -2.066210   -5.619750
  C    -25.462640   -2.501770   -5.434230
  C    -25.074590   -3.803140   -5.634980
  C    -26.048270   -4.718490   -6.049850
  C    -27.378720   -4.274260   -6.231970
  C    -27.773160   -2.958550   -6.021190
  S    -28.421370   -5.569320   -6.739120
  C    -27.072800   -6.673720   -6.701710
  C    -25.902010   -6.105230   -6.328940
  Br   -27.337920   -8.473720   -7.157950
  C    -24.631390   -1.365930   -4.980370
  O    -23.488190   -1.428900   -4.584470
  C    -25.546180   -0.199890   -4.948660
  C    -25.200470    1.034550   -4.458060
  C    -23.885710    1.505570   -4.357000
  S    -23.469830    2.782490   -3.223900
  C    -21.781370    2.834300   -3.676270
  C    -21.592900    1.911850   -4.696020
  C    -22.739610    1.182720   -5.082480
  N    -22.396250    0.390280   -6.147320
  C    -21.144340    0.622430   -6.328510
  O    -20.572740    1.526550   -5.498780
  C    -20.874830    3.701230   -3.038230
  C    -19.550860    3.780160   -3.349930
  C    -18.647860    4.643860   -2.709250
  S    -19.114300    5.725330   -1.404420
  C    -17.505960    6.393210   -1.185930
  C    -16.677530    5.780070   -2.102600
  C    -17.291150    4.819390   -2.944310
  N    -16.326860    4.318490   -3.784930
  C    -15.254040    4.942600   -3.449640
  O    -15.365420    5.844080   -2.444750
  C    -17.202120    7.370770   -0.204530
  C    -18.131320    7.867880    0.640510
  C    -17.895310    8.874540    1.640860
  C    -16.884190    9.783140    1.473570
  S    -16.783170   10.983110    2.686800
  C    -18.133870   10.260320    3.506610
  C    -18.648030    9.127480    2.856490
  C    -19.740090    8.443530    3.454310
  C    -20.236980    7.158310    2.842170
  C    -19.199950    6.041300    2.981490
  C    -20.314780    8.930040    4.623650
  C    -21.550010    8.303080    5.219440
  C    -21.224260    7.117760    6.131180
  C    -19.769370   10.060670    5.278390
  C    -20.172780   10.736660    6.489990
  C    -19.418760   11.846810    6.724320
  S    -18.178920   12.132190    5.568750
  C    -18.681720   10.722690    4.690640
  C    -21.198200   10.340550    7.441640
  C    -22.047900   11.213160    8.004750
  C    -23.039090   10.874110    8.981340
  O    -23.856170   11.884060    9.409440
  C    -24.687180   11.337230   10.299470
  C    -25.783870   11.638530   11.150580
  C    -26.412650   12.961850   11.359000
  O    -25.870720   14.004080   11.070390
  N    -27.650390   12.917430   11.915480
  C    -26.073970   10.430730   11.746360
  O    -25.265760    9.425740   11.339660
  C    -24.419770    9.977590   10.448290
  C    -23.348370    9.670790    9.593680
  H    -24.050670   -4.105300   -5.481100
  H    -28.801060   -2.670760   -6.165770
  H    -24.972700   -6.639570   -6.252260
  H    -25.974600    1.701270   -4.099960
  H    -20.528560    0.166540   -7.078610
  H    -21.276220    4.333070   -2.257310
  H    -19.133700    3.159160   -4.130810
  H    -14.289600    4.807020   -3.898170
  H    -16.165050    7.671440   -0.153490
  H    -19.136300    7.493470    0.527580
  H    -16.207920    9.837780    0.643180
  H    -20.491480    7.313380    1.793780
  H    -21.148230    6.827240    3.331810
  H    -18.267400    6.298460    2.486750
  H    -19.580250    5.122010    2.541710
  H    -18.984740    5.860700    4.032390
  H    -22.230850    7.980110    4.430560
  H    -22.079820    9.066100    5.790360
  H    -20.827950    6.283010    5.559540
  H    -22.121720    6.783070    6.647250
  H    -20.477120    7.395930    6.871470
  H    -19.501610   12.506150    7.566110
  H    -21.223250    9.304470    7.741060
  H    -22.043510   12.252900    7.709650
  H    -28.136520   12.058300   12.089890
  H    -28.131570   13.788500   12.065030
  H    -26.802830   10.171780   12.489460
  H    -22.868010    8.727820    9.442240

 Total Charge           Charge          ....    0
 Multiplicity           Mult            ....    1
 Number of Electrons    NEL             ....  538
 Basis Dimension        Dim             .... 1144

ORBITAL ENERGIES
----------------

  NO   OCC          E(Eh)            E(eV)
   0   2.0000    -482.879754    -13139.8261
   1   2.0000     -88.974522     -2421.1198
   2   2.0000     -88.971457     -2421.0364
   3   2.0000     -88.967679     -2420.9336
   4   2.0000     -88.956953     -2420.6418
   5   2.0000     -88.951605     -2420.4962
   6   2.0000     -62.557466     -1702.2752
   7   2.0000     -56.391406     -1534.4882
   8   2.0000     -56.388708     -1534.4148
   9   2.0000     -56.388674     -1534.4138
  10   2.0000     -19.313439      -525.5454
  11   2.0000     -19.311535      -525.4936
  12   2.0000     -19.299687      -525.1712
  13   2.0000     -19.289845      -524.9034
  14   2.0000     -19.200905      -522.4832
  15   2.0000     -19.172559      -521.7118
  16   2.0000     -14.426013      -392.5518
  17   2.0000     -14.425095      -392.5268
  18   2.0000     -14.420343      -392.3975
  19   2.0000     -14.404924      -391.9779
  20   2.0000     -14.404221      -391.9588
  21   2.0000     -10.382972      -282.5350
  22   2.0000     -10.380724      -282.4739
  23   2.0000     -10.373164      -282.2681
  24   2.0000     -10.352433      -281.7040
  25   2.0000     -10.351637      -281.6824
  26   2.0000     -10.344063      -281.4763
  27   2.0000     -10.343918      -281.4723
  28   2.0000     -10.339928      -281.3637
  29   2.0000     -10.334555      -281.2175
  30   2.0000     -10.332036      -281.1490
  31   2.0000     -10.329836      -281.0891
  32   2.0000     -10.328971      -281.0656
  33   2.0000     -10.325385      -280.9680
  34   2.0000     -10.321202      -280.8542
  35   2.0000     -10.320401      -280.8324
  36   2.0000     -10.320327      -280.8304
  37   2.0000     -10.317998      -280.7670
  38   2.0000     -10.317417      -280.7512
  39   2.0000     -10.316308      -280.7210
  40   2.0000     -10.315233      -280.6918
  41   2.0000     -10.313519      -280.6451
  42   2.0000     -10.308388      -280.5055
  43   2.0000     -10.307785      -280.4891
  44   2.0000     -10.302803      -280.3535
  45   2.0000     -10.300910      -280.3020
  46   2.0000     -10.300110      -280.2802
  47   2.0000     -10.298678      -280.2413
  48   2.0000     -10.298667      -280.2410
  49   2.0000     -10.297913      -280.2204
  50   2.0000     -10.297594      -280.2118
  51   2.0000     -10.295862      -280.1647
  52   2.0000     -10.293206      -280.0924
  53   2.0000     -10.291940      -280.0579
  54   2.0000     -10.290817      -280.0274
  55   2.0000     -10.290745      -280.0254
  56   2.0000     -10.289448      -279.9901
  57   2.0000     -10.289396      -279.9887
  58   2.0000     -10.288767      -279.9716
  59   2.0000     -10.285349      -279.8786
  60   2.0000     -10.283647      -279.8323
  61   2.0000     -10.282074      -279.7895
  62   2.0000     -10.281437      -279.7721
  63   2.0000     -10.280674      -279.7514
  64   2.0000     -10.279930      -279.7311
  65   2.0000     -10.279293      -279.7138
  66   2.0000     -10.278940      -279.7042
  67   2.0000     -10.278021      -279.6792
  68   2.0000     -10.276351      -279.6337
  69   2.0000     -10.268719      -279.4260
  70   2.0000     -10.265449      -279.3371
  71   2.0000     -10.261326      -279.2249
  72   2.0000     -10.256967      -279.1063
  73   2.0000      -8.786889      -239.1034
  74   2.0000      -8.069571      -219.5842
  75   2.0000      -8.065975      -219.4863
  76   2.0000      -8.063661      -219.4234
  77   2.0000      -8.053159      -219.1376
  78   2.0000      -8.047773      -218.9910
  79   2.0000      -6.623142      -180.2249
  80   2.0000      -6.608646      -179.8304
  81   2.0000      -6.608453      -179.8252
  82   2.0000      -6.038996      -164.3294
  83   2.0000      -6.035413      -164.2319
  84   2.0000      -6.034945      -164.2192
  85   2.0000      -6.033382      -164.1767
  86   2.0000      -6.031513      -164.1258
  87   2.0000      -6.031358      -164.1216
  88   2.0000      -6.029078      -164.0595
  89   2.0000      -6.027723      -164.0227
  90   2.0000      -6.024868      -163.9450
  91   2.0000      -6.022610      -163.8835
  92   2.0000      -6.018355      -163.7678
  93   2.0000      -6.017280      -163.7385
  94   2.0000      -6.014967      -163.6756
  95   2.0000      -6.013061      -163.6237
  96   2.0000      -6.009440      -163.5252
  97   2.0000      -2.739039       -74.5330
  98   2.0000      -2.734927       -74.4212
  99   2.0000      -2.734828       -74.4185
 100   2.0000      -2.723283       -74.1043
 101   2.0000      -2.723272       -74.1040
 102   2.0000      -1.241679       -33.7878
 103   2.0000      -1.240353       -33.7517
 104   2.0000      -1.219756       -33.1912
 105   2.0000      -1.200564       -32.6690
 106   2.0000      -1.116591       -30.3840
 107   2.0000      -1.113552       -30.3013
 108   2.0000      -1.036371       -28.2011
 109   2.0000      -1.034276       -28.1441
 110   2.0000      -1.013282       -27.5728
 111   2.0000      -1.004391       -27.3309
 112   2.0000      -1.003596       -27.3092
 113   2.0000      -0.995374       -27.0855
 114   2.0000      -0.990731       -26.9592
 115   2.0000      -0.983668       -26.7670
 116   2.0000      -0.983492       -26.7622
 117   2.0000      -0.978704       -26.6319
 118   2.0000      -0.974093       -26.5064
 119   2.0000      -0.935111       -25.4457
 120   2.0000      -0.927567       -25.2404
 121   2.0000      -0.924019       -25.1438
 122   2.0000      -0.914478       -24.8842
 123   2.0000      -0.906638       -24.6709
 124   2.0000      -0.902092       -24.5472
 125   2.0000      -0.899133       -24.4666
 126   2.0000      -0.891790       -24.2668
 127   2.0000      -0.887010       -24.1368
 128   2.0000      -0.876625       -23.8542
 129   2.0000      -0.869223       -23.6528
 130   2.0000      -0.865147       -23.5419
 131   2.0000      -0.860444       -23.4139
 132   2.0000      -0.852197       -23.1894
 133   2.0000      -0.848066       -23.0771
 134   2.0000      -0.843580       -22.9550
 135   2.0000      -0.836977       -22.7753
 136   2.0000      -0.820662       -22.3313
 137   2.0000      -0.818208       -22.2646
 138   2.0000      -0.809900       -22.0385
 139   2.0000      -0.798290       -21.7226
 140   2.0000      -0.783731       -21.3264
 141   2.0000      -0.778918       -21.1954
 142   2.0000      -0.762202       -20.7406
 143   2.0000      -0.749049       -20.3827
 144   2.0000      -0.747619       -20.3437
 145   2.0000      -0.744355       -20.2549
 146   2.0000      -0.739723       -20.1289
 147   2.0000      -0.730730       -19.8842
 148   2.0000      -0.727924       -19.8078
 149   2.0000      -0.721832       -19.6420
 150   2.0000      -0.710321       -19.3288
 151   2.0000      -0.708163       -19.2701
 152   2.0000      -0.697125       -18.9697
 153   2.0000      -0.694016       -18.8851
 154   2.0000      -0.682259       -18.5652
 155   2.0000      -0.681344       -18.5403
 156   2.0000      -0.680643       -18.5212
 157   2.0000      -0.668679       -18.1957
 158   2.0000      -0.663995       -18.0682
 159   2.0000      -0.659070       -17.9342
 160   2.0000      -0.656179       -17.8555
 161   2.0000      -0.649733       -17.6801
 162   2.0000      -0.648487       -17.6462
 163   2.0000      -0.646864       -17.6021
 164   2.0000      -0.640885       -17.4394
 165   2.0000      -0.630967       -17.1695
 166   2.0000      -0.627842       -17.0844
 167   2.0000      -0.616454       -16.7746
 168   2.0000      -0.611378       -16.6364
 169   2.0000      -0.605990       -16.4898
 170   2.0000      -0.602251       -16.3881
 171   2.0000      -0.597796       -16.2668
 172   2.0000      -0.591214       -16.0878
 173   2.0000      -0.587317       -15.9817
 174   2.0000      -0.586524       -15.9601
 175   2.0000      -0.585996       -15.9458
 176   2.0000      -0.584130       -15.8950
 177   2.0000      -0.580968       -15.8089
 178   2.0000      -0.576464       -15.6864
 179   2.0000      -0.575267       -15.6538
 180   2.0000      -0.569147       -15.4873
 181   2.0000      -0.561531       -15.2800
 182   2.0000      -0.557759       -15.1774
 183   2.0000      -0.553297       -15.0560
 184   2.0000      -0.547103       -14.8874
 185   2.0000      -0.541069       -14.7232
 186   2.0000      -0.540081       -14.6963
 187   2.0000      -0.536273       -14.5927
 188   2.0000      -0.535019       -14.5586
 189   2.0000      -0.532478       -14.4895
 190   2.0000      -0.527270       -14.3477
 191   2.0000      -0.525136       -14.2897
 192   2.0000      -0.523449       -14.2438
 193   2.0000      -0.522187       -14.2094
 194   2.0000      -0.518698       -14.1145
 195   2.0000      -0.516797       -14.0628
 196   2.0000      -0.510999       -13.9050
 197   2.0000      -0.509328       -13.8595
 198   2.0000      -0.506882       -13.7929
 199   2.0000      -0.504369       -13.7246
 200   2.0000      -0.501854       -13.6562
 201   2.0000      -0.498160       -13.5556
 202   2.0000      -0.497059       -13.5257
 203   2.0000      -0.493541       -13.4299
 204   2.0000      -0.491643       -13.3783
 205   2.0000      -0.489652       -13.3241
 206   2.0000      -0.488054       -13.2806
 207   2.0000      -0.485131       -13.2011
 208   2.0000      -0.484061       -13.1720
 209   2.0000      -0.482599       -13.1322
 210   2.0000      -0.481414       -13.0999
 211   2.0000      -0.477251       -12.9867
 212   2.0000      -0.475791       -12.9469
 213   2.0000      -0.473754       -12.8915
 214   2.0000      -0.473105       -12.8739
 215   2.0000      -0.468215       -12.7408
 216   2.0000      -0.463218       -12.6048
 217   2.0000      -0.459988       -12.5169
 218   2.0000      -0.458741       -12.4830
 219   2.0000      -0.456797       -12.4301
 220   2.0000      -0.454642       -12.3714
 221   2.0000      -0.450716       -12.2646
 222   2.0000      -0.449017       -12.2184
 223   2.0000      -0.444162       -12.0863
 224   2.0000      -0.440118       -11.9762
 225   2.0000      -0.439169       -11.9504
 226   2.0000      -0.438725       -11.9383
 227   2.0000      -0.437191       -11.8966
 228   2.0000      -0.435899       -11.8614
 229   2.0000      -0.434308       -11.8181
 230   2.0000      -0.431929       -11.7534
 231   2.0000      -0.430248       -11.7076
 232   2.0000      -0.429710       -11.6930
 233   2.0000      -0.425079       -11.5670
 234   2.0000      -0.424366       -11.5476
 235   2.0000      -0.422402       -11.4941
 236   2.0000      -0.418139       -11.3781
 237   2.0000      -0.416853       -11.3432
 238   2.0000      -0.413833       -11.2610
 239   2.0000      -0.409467       -11.1422
 240   2.0000      -0.403259       -10.9732
 241   2.0000      -0.401492       -10.9251
 242   2.0000      -0.398197       -10.8355
 243   2.0000      -0.393085       -10.6964
 244   2.0000      -0.389499       -10.5988
 245   2.0000      -0.383141       -10.4258
 246   2.0000      -0.379877       -10.3370
 247   2.0000      -0.379571       -10.3287
 248   2.0000      -0.376876       -10.2553
 249   2.0000      -0.370072       -10.0702
 250   2.0000      -0.369180       -10.0459
 251   2.0000      -0.365510        -9.9460
 252   2.0000      -0.356117        -9.6904
 253   2.0000      -0.344418        -9.3721
 254   2.0000      -0.340362        -9.2617
 255   2.0000      -0.338154        -9.2016
 256   2.0000      -0.330784        -9.0011
 257   2.0000      -0.328549        -8.9403
 258   2.0000      -0.326864        -8.8944
 259   2.0000      -0.325104        -8.8465
 260   2.0000      -0.322867        -8.7857
 261   2.0000      -0.318859        -8.6766
 262   2.0000      -0.305597        -8.3157
 263   2.0000      -0.293898        -7.9974
 264   2.0000      -0.284986        -7.7549
 265   2.0000      -0.279166        -7.5965
 266   2.0000      -0.267764        -7.2862
 267   2.0000      -0.246908        -6.7187
 268   2.0000      -0.235477        -6.4077
 269   0.0000      -0.098787        -2.6881
 270   0.0000      -0.061470        -1.6727
 271   0.0000      -0.044492        -1.2107
 272   0.0000      -0.022923        -0.6238
 273   0.0000      -0.012676        -0.3449

MULLIKEN ATOMIC CHARGES
-----------------------
   0 C :    0.310916
   1 C :   -0.353169
   2 C :   -0.184444
   3 N :    0.143634
   4 C :   -0.203019
   5 N :    0.149695
   6 C :    0.016142
   7 C :   -0.014506
   8 C :   -0.076400
   9 C :    0.119748
  10 C :   -0.088912
  11 C :   -0.026952
  12 S :    0.180964
  13 C :   -0.123487
  14 C :    0.036790
  15 Br:    0.016820
  16 C :    0.150041
  17 O :   -0.146565
  18 C :   -0.106145
  19 C :    0.034011
  20 C :   -0.223245
  21 S :    0.169099
  22 C :   -0.158761
  23 C :    0.168160
  24 C :    0.104687
  25 N :   -0.048969
  26 C :    0.199130
  27 O :   -0.201210
  28 C :    0.047113
  29 C :    0.008622
  30 C :   -0.176959
  31 S :    0.094214
  32 C :   -0.172194
  33 C :    0.199886
  34 C :    0.075246
  35 N :   -0.071445
  36 C :    0.194543
  37 O :   -0.201056
  38 C :    0.026741
  39 C :   -0.038092
  40 C :    0.083117
  41 C :   -0.121624
  42 S :    0.139092
  43 C :   -0.155320
  44 C :    0.124783
  45 C :   -0.114160
  46 C :    0.040786
  47 C :    0.017584
  48 C :   -0.118807
  49 C :    0.008045
  50 C :    0.034170
  51 C :    0.106196
  52 C :    0.066674
  53 C :   -0.115969
  54 S :    0.125566
  55 C :   -0.139199
  56 C :   -0.032927
  57 C :    0.005370
  58 C :    0.169427
  59 O :   -0.180416
  60 C :    0.114588
  61 C :   -0.084267
  62 C :    0.085226
  63 O :   -0.191358
  64 N :   -0.092082
  65 C :    0.080082
  66 O :   -0.184484
  67 C :    0.177685
  68 C :   -0.153616
  69 H :   -0.015277
  70 H :   -0.008139
  71 H :   -0.006095
  72 H :    0.018852
  73 H :    0.038668
  74 H :   -0.013234
  75 H :    0.018927
  76 H :    0.036187
  77 H :   -0.005171
  78 H :    0.003634
  79 H :    0.021514
  80 H :    0.006524
  81 H :   -0.009638
  82 H :    0.026827
  83 H :    0.013820
  84 H :    0.011931
  85 H :    0.012436
  86 H :    0.016828
  87 H :    0.007320
  88 H :    0.014182
  89 H :    0.018045
  90 H :    0.023321
  91 H :    0.000993
  92 H :    0.003756
  93 H :    0.111941
  94 H :    0.130060
  95 H :    0.005856
  96 H :   -0.008903
Sum of atomic charges:   -0.0000000

LOEWDIN ATOMIC CHARGES
----------------------
   0 C :    0.075415
   1 C :   -0.149107
   2 C :   -0.018543
   3 N :   -0.061769
   4 C :   -0.022677
   5 N :   -0.059824
   6 C :   -0.020349
   7 C :   -0.045016
   8 C :    0.017961
   9 C :   -0.033887
  10 C :   -0.145711
  11 C :   -0.011758
  12 S :    0.428006
  13 C :   -0.273552
  14 C :   -0.071296
  15 Br:    0.131830
  16 C :    0.080857
  17 O :   -0.138614
  18 C :   -0.098819
  19 C :    0.046258
  20 C :   -0.194589
  21 S :    0.464979
  22 C :   -0.160408
  23 C :   -0.012359
  24 C :   -0.022537
  25 N :   -0.080479
  26 C :    0.111249
  27 O :   -0.005038
  28 C :   -0.063260
  29 C :   -0.004327
  30 C :   -0.182821
  31 S :    0.437715
  32 C :   -0.174648
  33 C :   -0.010796
  34 C :   -0.053372
  35 N :   -0.098189
  36 C :    0.103592
  37 O :   -0.013288
  38 C :   -0.046405
  39 C :   -0.008246
  40 C :   -0.067541
  41 C :   -0.164051
  42 S :    0.425927
  43 C :   -0.176212
  44 C :   -0.039722
  45 C :   -0.021066
  46 C :   -0.030146
  47 C :   -0.050841
  48 C :   -0.019485
  49 C :   -0.031705
  50 C :   -0.052487
  51 C :   -0.042242
  52 C :   -0.061204
  53 C :   -0.164759
  54 S :    0.411866
  55 C :   -0.178559
  56 C :   -0.016188
  57 C :   -0.034187
  58 C :    0.039390
  59 O :    0.024305
  60 C :    0.006981
  61 C :   -0.118095
  62 C :    0.063066
  63 O :   -0.202992
  64 N :   -0.010741
  65 C :    0.045572
  66 O :    0.015046
  67 C :   -0.007930
  68 C :   -0.079229
  69 H :    0.039043
  70 H :    0.040269
  71 H :    0.037648
  72 H :    0.044006
  73 H :    0.030527
  74 H :    0.024963
  75 H :    0.045639
  76 H :    0.028974
  77 H :    0.035768
  78 H :    0.020938
  79 H :    0.022688
  80 H :    0.023067
  81 H :    0.025915
  82 H :    0.024923
  83 H :    0.024783
  84 H :    0.023847
  85 H :    0.027574
  86 H :    0.031845
  87 H :    0.023276
  88 H :    0.024798
  89 H :    0.021828
  90 H :    0.024964
  91 H :    0.028354
  92 H :    0.039479
  93 H :    0.071247
  94 H :    0.081063
  95 H :    0.021097
  96 H :    0.032526

  Mayer bond orders larger than 0.100000
B(  0-C ,  1-C ) :   1.6130 B(  0-C ,  6-C ) :   0.9985 B(  0-C , 18-C ) :   1.1038
B(  1-C ,  2-C ) :   1.1453 B(  1-C ,  4-C ) :   1.1475 B(  2-C ,  3-N ) :   2.9670
B(  4-C ,  5-N ) :   2.9833 B(  6-C ,  7-C ) :   1.2812 B(  6-C , 11-C ) :   1.4107
B(  7-C ,  8-C ) :   1.4315 B(  7-C , 16-C ) :   0.9319 B(  8-C ,  9-C ) :   1.2417
B(  8-C , 69-H ) :   1.0163 B(  9-C , 10-C ) :   1.3140 B(  9-C , 14-C ) :   1.1579
B( 10-C , 11-C ) :   1.3283 B( 10-C , 12-S ) :   1.0807 B( 11-C , 70-H ) :   0.9798
B( 12-S , 13-C ) :   1.0868 B( 13-C , 14-C ) :   1.6199 B( 13-C , 15-Br) :   1.0155
B( 14-C , 71-H ) :   1.0010 B( 16-C , 17-O ) :   2.2206 B( 16-C , 18-C ) :   0.9579
B( 18-C , 19-C ) :   1.5404 B( 19-C , 20-C ) :   1.2478 B( 19-C , 72-H ) :   0.9304
B( 20-C , 21-S ) :   1.0807 B( 20-C , 22-C ) :   0.1037 B( 20-C , 24-C ) :   1.3527
B( 21-S , 22-C ) :   1.1383 B( 22-C , 23-C ) :   1.4033 B( 22-C , 28-C ) :   1.1674
B( 23-C , 24-C ) :   1.2914 B( 23-C , 27-O ) :   1.1021 B( 24-C , 25-N ) :   1.2904
B( 25-N , 26-C ) :   1.7658 B( 26-C , 27-O ) :   1.1245 B( 26-C , 73-H ) :   0.9839
B( 28-C , 29-C ) :   1.5731 B( 28-C , 74-H ) :   0.9580 B( 29-C , 30-C ) :   1.2331
B( 29-C , 75-H ) :   0.9808 B( 30-C , 31-S ) :   1.0817 B( 30-C , 32-C ) :   0.1172
B( 30-C , 34-C ) :   1.3861 B( 31-S , 32-C ) :   1.1016 B( 32-C , 33-C ) :   1.4468
B( 32-C , 38-C ) :   1.1557 B( 33-C , 34-C ) :   1.2394 B( 33-C , 37-O ) :   1.1128
B( 34-C , 35-N ) :   1.2946 B( 35-N , 36-C ) :   1.7839 B( 36-C , 37-O ) :   1.1245
B( 36-C , 76-H ) :   0.9843 B( 38-C , 39-C ) :   1.6843 B( 38-C , 77-H ) :   0.9817
B( 39-C , 40-C ) :   1.0408 B( 39-C , 78-H ) :   0.9676 B( 40-C , 41-C ) :   1.5885
B( 40-C , 44-C ) :   1.1396 B( 41-C , 42-S ) :   1.1294 B( 41-C , 79-H ) :   0.9612
B( 42-S , 43-C ) :   1.0776 B( 43-C , 44-C ) :   1.3795 B( 43-C , 55-C ) :   1.3772
B( 44-C , 45-C ) :   1.2408 B( 45-C , 46-C ) :   1.0657 B( 45-C , 48-C ) :   1.5235
B( 46-C , 47-C ) :   1.1049 B( 46-C , 80-H ) :   0.9242 B( 46-C , 81-H ) :   0.9081
B( 47-C , 82-H ) :   0.9646 B( 47-C , 83-H ) :   0.9660 B( 47-C , 84-H ) :   0.9550
B( 48-C , 49-C ) :   1.0521 B( 48-C , 51-C ) :   1.2680 B( 49-C , 50-C ) :   1.1023
B( 49-C , 85-H ) :   0.9194 B( 49-C , 86-H ) :   0.9189 B( 50-C , 87-H ) :   0.9624
B( 50-C , 88-H ) :   0.9649 B( 50-C , 89-H ) :   0.9573 B( 51-C , 52-C ) :   1.1508
B( 51-C , 55-C ) :   1.3736 B( 52-C , 53-C ) :   1.6217 B( 52-C , 56-C ) :   1.0111
B( 53-C , 54-S ) :   1.1111 B( 53-C , 90-H ) :   0.9653 B( 54-S , 55-C ) :   1.0795
B( 56-C , 57-C ) :   1.7620 B( 56-C , 91-H ) :   0.9467 B( 57-C , 58-C ) :   1.0982
B( 57-C , 92-H ) :   0.9715 B( 58-C , 59-O ) :   1.1090 B( 58-C , 68-C ) :   1.4887
B( 59-O , 60-C ) :   1.1716 B( 60-C , 61-C ) :   1.2367 B( 60-C , 67-C ) :   1.3955
B( 61-C , 62-C ) :   0.8638 B( 61-C , 65-C ) :   1.5240 B( 62-C , 63-O ) :   2.2420
B( 62-C , 64-N ) :   1.2523 B( 64-N , 93-H ) :   0.9479 B( 64-N , 94-H ) :   0.9399
B( 65-C , 66-O ) :   1.1448 B( 65-C , 95-H ) :   1.0111 B( 66-O , 67-C ) :   1.1270
B( 67-C , 68-C ) :   1.1952 B( 68-C , 96-H ) :   1.0216

-----------------------------------------------------------------------------
         ABSORPTION SPECTRUM VIA TRANSITION ELECTRIC DIPOLE MOMENTS
-----------------------------------------------------------------------------
State   Energy  Wavelength   fosc         T2         TX        TY        TZ
        (cm-1)    (nm)                  (au**2)     (au)      (au)      (au)
-----------------------------------------------------------------------------
   0   15420.7    648.5   1.764689916  37.67393   4.20256   3.76860   2.41041
   1   23393.4    427.5   0.236310221   3.32557   1.10889  -0.82757  -1.18788
   2   24194.3    413.3   0.028547434   0.38844   0.23585   0.47139   0.33259
   3   24314.1    411.3   0.002425841   0.03285  -0.14124  -0.07501   0.08527
   4   26205.7    381.6   0.277033800   3.48027  -0.62269  -1.42628  -1.02872
   5   26469.0    377.8   0.078780985   0.97985  -0.61184   0.76180   0.15862
   6   26912.5    371.6   0.117210801   1.43380  -0.48853  -1.01771   0.39924
   7   28961.8    345.3   0.013697604   0.15570  -0.32090   0.22415  -0.04978
   8   29678.2    336.9   0.030585061   0.33927   0.22952   0.51576  -0.14346
   9   30191.8    331.2   0.027539590   0.30029   0.23142   0.39085  -0.30655
  10   31988.1    312.6   0.201428131   2.07304  -0.83084  -0.24753   1.14955
  11   32207.7    310.5   0.614322787   6.27932  -1.91727  -0.07509   1.61176
  12   32223.1    310.3   0.497585542   5.08365  -1.83251  -0.26329   1.28695
  13   32686.5    305.9   0.013045615   0.13139   0.06377   0.16201  -0.31793
  14   32765.7    305.2   0.490355510   4.92683   0.73006  -2.02182  -0.55326
  15   33232.0    300.9   0.040144330   0.39769  -0.04776   0.62153   0.09543
  16   33658.6    297.1   0.090238727   0.88262  -0.18100  -0.92176  -0.01476
  17   34378.9    290.9   0.148437573   1.42143  -0.60784   0.88711   0.51478
  18   34927.5    286.3   0.002435477   0.02296  -0.09236   0.05313   0.10771
  19   35925.3    278.4   0.018136175   0.16620   0.15708   0.29178   0.23745
  20   36362.3    275.0   0.280762905   2.54193   0.90851  -1.18218  -0.56479
  21   36433.6    274.5   0.143054004   1.29263   0.47115  -0.50761  -0.90166
  22   36606.2    273.2   0.011704281   0.10526  -0.05745   0.15563   0.27882
  23   37142.2    269.2   0.130869694   1.15997   1.02626  -0.16652   0.28111
  24   37691.0    265.3   0.116689814   1.01923   0.34859  -0.56668  -0.75933
  25   38245.6    261.5   0.034750199   0.29912   0.48359   0.23020   0.11080
  26   38465.3    260.0   0.014908138   0.12759   0.12528  -0.29468  -0.15831
  27   38851.1    257.4   0.014654003   0.12417   0.31723   0.01957   0.15216
  28   39370.1    254.0   0.181672087   1.51914   0.91602   0.08749  -0.82000
  29   39602.6    252.5   0.214651893   1.78438   0.85421  -0.27156  -0.99043
  30   39688.1    252.0   0.134411962   1.11495   0.09656   0.66009   0.81848
  31   40115.3    249.3   0.036951191   0.30325  -0.44613  -0.06804  -0.31557

FINAL SINGLE POINT ENERGY     -7284.293672185875

DIPOLE MOMENT
-------------
                                X             Y             Z
Electronic contribution:    -67.98150    -173.61944    -137.62603
Nuclear contribution   :     70.85990     172.97130     139.25248
                        -----------------------------------------
Total Dipole Moment    :      2.87840      -0.64814       1.62644
                        -----------------------------------------
Magnitude (a.u.)       :      3.36907
Magnitude (Debye)      :      8.56348

Rotational constants in cm-1:     0.000911     0.000198     0.000169
Rotational constants in MHz :    27.312652     5.931759     5.075296

                             ****ORCA TERMINATED NORMALLY****
TOTAL RUN TIME: 0 days 0 hours 8 minutes 21 seconds 541 msec
