                         Program Version 4.2.0 -  RELEASE  -
|  1> # ORCA input file
|  2> # SCF done       -180.237571737007          0.000299629788
|  3> ! CAM-B3LYP def2-SVP def2/J RIJCOSX Grid4 TightSCF
|  4> %maxcore 5000
|  5> %tddft
|  6>     Mode sTDDFT
|  7>     Ethresh 5.0
|  8>     maxcore 5000
|  9> end
| 10>
| 11> %pal
| 12>   nprocs 6
| 13>   end
| 14> * xyz 0 1
| 15>    C      -10.47292         3.37743        -4.91497
| 16>    C      -11.54711         3.08532        -4.10280
| 17>    C      -12.83406         3.62702        -4.27191
| 18>    N      -13.90463         4.04003        -4.34542
| 19>    C      -11.52166         2.24128        -2.97837
| 20>    N      -11.61062         1.56946        -2.04920
| 21>    C      -10.51839         4.27229        -6.07100
| 22>    C       -9.20716         4.40850        -6.58555
| 23>    C       -8.91910         5.17421        -7.68671
| 24>    C       -9.98009         5.83395        -8.31902
| 25>    C      -11.28556         5.69075        -7.79911
| 26>    C      -11.57575         4.91958        -6.67865
| 27>    S      -12.44907         6.57828        -8.73924
| 28>    C      -11.17913         7.11868        -9.80474
| 29>    C       -9.94846         6.66295        -9.47479
| 30>   Br      -11.59991         8.23203       -11.25650
| 31>    C       -8.28068         3.59020        -5.76962
| 32>    O       -7.07619         3.50593        -5.92882
| 33>    C       -9.12126         2.92176        -4.76635
| 34>    C       -8.66021         1.99084        -3.84956
| 35>    C       -7.33331         1.63309        -3.68208
| 36>    C       -6.91400         0.68934        -2.75897
| 37>    C       -5.57873         0.34999        -2.45773
| 38>    C       -5.44989        -0.59578        -1.48046
| 39>    C       -6.68137        -1.05601        -0.97737
| 40>    S       -8.01243        -0.24402        -1.77655
| 41>    C       -6.89597        -2.02451        -0.01266
| 42>    C       -5.93136        -2.77821         0.69484
| 43>    C       -6.45980        -3.69301         1.55207
| 44>    C       -7.87543        -3.71398         1.56754
| 45>    S       -8.50355        -2.48819         0.46134
| 46>    C       -8.67820        -4.56364         2.26999
| 47>    N      -10.02660        -4.50426         2.24513
| 48>    C      -10.90990        -5.40297         2.82533
| 49>    C      -12.12641        -5.67564         2.25974
| 50>    S      -12.99679        -6.88317         3.10289
| 51>    C      -11.74032        -7.01781         4.26455
| 52>    C      -10.69464        -6.17153         4.02144
| 53>    N       -9.58270        -6.09031         4.84381
| 54>    C       -8.97579        -4.90425         5.19326
| 55>    C       -7.97288        -4.81706         6.08225
| 56>    C       -7.28113        -3.60463         6.40511
| 57>    S       -5.82750        -3.70651         7.36056
| 58>    C       -5.57672        -2.00791         7.25316
| 59>    C       -6.55346        -1.39417         6.54434
| 60>    C       -7.53960        -2.29290         6.05765
| 61>    N       -8.69536        -1.87908         5.36730
| 62>    C       -9.91254        -1.93530         6.15821
| 63>    C      -10.03156        -0.77267         7.14497
| 64>    C       -8.56696        -0.98808         4.31015
| 65>    C       -9.63694        -0.19590         3.87260
| 66>    C       -9.46139         0.65479         2.80727
| 67>    C       -8.22664         0.75609         2.15022
| 68>    C       -7.17187        -0.04527         2.55746
| 69>    C       -7.35259        -0.91707         3.61334
| 70>    C       -8.34301         1.75062         1.10251
| 71>    C       -9.65950         2.23824         1.09627
| 72>    C      -10.46803         1.60643         2.20536
| 73>    C      -11.71262         0.87446         1.67561
| 74>    C      -11.36936        -0.25008         0.70910
| 75>    C      -10.90418         2.67027         3.23302
| 76>    C       -9.73237         3.43694         3.83434
| 77>    C      -10.04892         3.18856         0.18477
| 78>    C       -9.12533         3.68557        -0.74397
| 79>    C       -7.81160         3.21119        -0.70845
| 80>    C       -7.41463         2.25016         0.20232
| 81>    C       -9.57824         4.68518        -1.70040
| 82>    C       -8.86887         5.24501        -2.67447
| 83>    H       -7.90899         5.25793        -8.05628
| 84>    H      -12.58984         4.83893        -6.32456
| 85>    H       -9.05426         6.89715       -10.02325
| 86>    H       -9.38325         1.50660        -3.20463
| 87>    H       -6.57780         2.12182        -4.28003
| 88>    H       -4.75443         0.82046        -2.96372
| 89>    H       -4.50750        -0.96710        -1.11857
| 90>    H       -4.87759        -2.62669         0.54663
| 91>    H       -5.88307        -4.35544         2.17277
| 92>    H       -8.22783        -5.32887         2.88252
| 93>    H      -10.43203        -3.85916         1.57680
| 94>    H      -12.53608        -5.24017         1.37054
| 95>    H      -11.83740        -7.71106         5.07551
| 96>    H       -9.44717        -6.86705         5.47588
| 97>    H       -9.32849        -4.03301         4.66889
| 98>    H       -7.61653        -5.70976         6.57934
| 99>    H       -4.72558        -1.57188         7.73618
|100>    H       -6.59274        -0.33416         6.36578
|101>    H       -9.89855        -2.87634         6.71503
|102>    H      -10.77453        -1.95876         5.48667
|103>    H       -9.19915        -0.79279         7.84513
|104>    H      -10.95934        -0.85273         7.70555
|105>    H      -10.01764         0.18081         6.62280
|106>    H      -10.59652        -0.23124         4.36246
|107>    H       -6.21455         0.00250         2.05834
|108>    H       -6.53740        -1.55833         3.91492
|109>    H      -12.35247         1.59717         1.16730
|110>    H      -12.27053         0.47155         2.52556
|111>    H      -10.86034         0.14502        -0.16465
|112>    H      -12.27800        -0.74653         0.37669
|113>    H      -10.72296        -0.98258         1.18843
|114>    H      -11.46191         2.17722         4.03318
|115>    H      -11.57988         3.37193         2.73999
|116>    H       -9.05216         2.76001         4.34724
|117>    H      -10.09274         4.17265         4.55036
|118>    H       -9.17534         3.95569         3.05761
|119>    H      -11.06431         3.55818         0.17278
|120>    H       -7.08726         3.60119        -1.40712
|121>    H       -6.39220         1.89789         0.21150
|122>    H      -10.61579         4.97754        -1.58098
|123>    H       -7.83621         5.00549        -2.86109
|124>    H       -9.30506         5.97690        -3.33419
|125> *
|126>
|127>                          ****END OF INPUT****

CARTESIAN COORDINATES (ANGSTROEM)
---------------------------------
  C    -10.472920    3.377430   -4.914970
  C    -11.547110    3.085320   -4.102800
  C    -12.834060    3.627020   -4.271910
  N    -13.904630    4.040030   -4.345420
  C    -11.521660    2.241280   -2.978370
  N    -11.610620    1.569460   -2.049200
  C    -10.518390    4.272290   -6.071000
  C     -9.207160    4.408500   -6.585550
  C     -8.919100    5.174210   -7.686710
  C     -9.980090    5.833950   -8.319020
  C    -11.285560    5.690750   -7.799110
  C    -11.575750    4.919580   -6.678650
  S    -12.449070    6.578280   -8.739240
  C    -11.179130    7.118680   -9.804740
  C     -9.948460    6.662950   -9.474790
  Br   -11.599910    8.232030  -11.256500
  C     -8.280680    3.590200   -5.769620
  O     -7.076190    3.505930   -5.928820
  C     -9.121260    2.921760   -4.766350
  C     -8.660210    1.990840   -3.849560
  C     -7.333310    1.633090   -3.682080
  C     -6.914000    0.689340   -2.758970
  C     -5.578730    0.349990   -2.457730
  C     -5.449890   -0.595780   -1.480460
  C     -6.681370   -1.056010   -0.977370
  S     -8.012430   -0.244020   -1.776550
  C     -6.895970   -2.024510   -0.012660
  C     -5.931360   -2.778210    0.694840
  C     -6.459800   -3.693010    1.552070
  C     -7.875430   -3.713980    1.567540
  S     -8.503550   -2.488190    0.461340
  C     -8.678200   -4.563640    2.269990
  N    -10.026600   -4.504260    2.245130
  C    -10.909900   -5.402970    2.825330
  C    -12.126410   -5.675640    2.259740
  S    -12.996790   -6.883170    3.102890
  C    -11.740320   -7.017810    4.264550
  C    -10.694640   -6.171530    4.021440
  N     -9.582700   -6.090310    4.843810
  C     -8.975790   -4.904250    5.193260
  C     -7.972880   -4.817060    6.082250
  C     -7.281130   -3.604630    6.405110
  S     -5.827500   -3.706510    7.360560
  C     -5.576720   -2.007910    7.253160
  C     -6.553460   -1.394170    6.544340
  C     -7.539600   -2.292900    6.057650
  N     -8.695360   -1.879080    5.367300
  C     -9.912540   -1.935300    6.158210
  C    -10.031560   -0.772670    7.144970
  C     -8.566960   -0.988080    4.310150
  C     -9.636940   -0.195900    3.872600
  C     -9.461390    0.654790    2.807270
  C     -8.226640    0.756090    2.150220
  C     -7.171870   -0.045270    2.557460
  C     -7.352590   -0.917070    3.613340
  C     -8.343010    1.750620    1.102510
  C     -9.659500    2.238240    1.096270
  C    -10.468030    1.606430    2.205360
  C    -11.712620    0.874460    1.675610
  C    -11.369360   -0.250080    0.709100
  C    -10.904180    2.670270    3.233020
  C     -9.732370    3.436940    3.834340
  C    -10.048920    3.188560    0.184770
  C     -9.125330    3.685570   -0.743970
  C     -7.811600    3.211190   -0.708450
  C     -7.414630    2.250160    0.202320
  C     -9.578240    4.685180   -1.700400
  C     -8.868870    5.245010   -2.674470
  H     -7.908990    5.257930   -8.056280
  H    -12.589840    4.838930   -6.324560
  H     -9.054260    6.897150  -10.023250
  H     -9.383250    1.506600   -3.204630
  H     -6.577800    2.121820   -4.280030
  H     -4.754430    0.820460   -2.963720
  H     -4.507500   -0.967100   -1.118570
  H     -4.877590   -2.626690    0.546630
  H     -5.883070   -4.355440    2.172770
  H     -8.227830   -5.328870    2.882520
  H    -10.432030   -3.859160    1.576800
  H    -12.536080   -5.240170    1.370540
  H    -11.837400   -7.711060    5.075510
  H     -9.447170   -6.867050    5.475880
  H     -9.328490   -4.033010    4.668890
  H     -7.616530   -5.709760    6.579340
  H     -4.725580   -1.571880    7.736180
  H     -6.592740   -0.334160    6.365780
  H     -9.898550   -2.876340    6.715030
  H    -10.774530   -1.958760    5.486670
  H     -9.199150   -0.792790    7.845130
  H    -10.959340   -0.852730    7.705550
  H    -10.017640    0.180810    6.622800
  H    -10.596520   -0.231240    4.362460
  H     -6.214550    0.002500    2.058340
  H     -6.537400   -1.558330    3.914920
  H    -12.352470    1.597170    1.167300
  H    -12.270530    0.471550    2.525560
  H    -10.860340    0.145020   -0.164650
  H    -12.278000   -0.746530    0.376690
  H    -10.722960   -0.982580    1.188430
  H    -11.461910    2.177220    4.033180
  H    -11.579880    3.371930    2.739990
  H     -9.052160    2.760010    4.347240
  H    -10.092740    4.172650    4.550360
  H     -9.175340    3.955690    3.057610
  H    -11.064310    3.558180    0.172780
  H     -7.087260    3.601190   -1.407120
  H     -6.392200    1.897890    0.211500
  H    -10.615790    4.977540   -1.580980
  H     -7.836210    5.005490   -2.861090
  H     -9.305060    5.976900   -3.334190

 Total Charge           Charge          ....    0
 Multiplicity           Mult            ....    1
 Number of Electrons    NEL             ....  536
 Basis Dimension        Dim             .... 1200

ORBITAL ENERGIES
----------------

  NO   OCC          E(Eh)            E(eV)
   0   2.0000    -482.869068    -13139.5353
   1   2.0000     -88.971983     -2421.0507
   2   2.0000     -88.961901     -2420.7764
   3   2.0000     -88.954993     -2420.5884
   4   2.0000     -88.950415     -2420.4639
   5   2.0000     -88.947786     -2420.3923
   6   2.0000     -62.546799     -1701.9849
   7   2.0000     -56.380726     -1534.1976
   8   2.0000     -56.378055     -1534.1249
   9   2.0000     -56.378009     -1534.1236
  10   2.0000     -19.184195      -522.0285
  11   2.0000     -14.485733      -394.1768
  12   2.0000     -14.460407      -393.4877
  13   2.0000     -14.426373      -392.5616
  14   2.0000     -14.389021      -391.5452
  15   2.0000     -14.384607      -391.4251
  16   2.0000     -10.353239      -281.7260
  17   2.0000     -10.340756      -281.3863
  18   2.0000     -10.338576      -281.3270
  19   2.0000     -10.338046      -281.3125
  20   2.0000     -10.334103      -281.2052
  21   2.0000     -10.332837      -281.1708
  22   2.0000     -10.321047      -280.8500
  23   2.0000     -10.311906      -280.6012
  24   2.0000     -10.311743      -280.5968
  25   2.0000     -10.308960      -280.5211
  26   2.0000     -10.306962      -280.4667
  27   2.0000     -10.306051      -280.4419
  28   2.0000     -10.304963      -280.4123
  29   2.0000     -10.304227      -280.3923
  30   2.0000     -10.303579      -280.3746
  31   2.0000     -10.303007      -280.3591
  32   2.0000     -10.301928      -280.3297
  33   2.0000     -10.301003      -280.3045
  34   2.0000     -10.299730      -280.2699
  35   2.0000     -10.297975      -280.2221
  36   2.0000     -10.294500      -280.1276
  37   2.0000     -10.293552      -280.1018
  38   2.0000     -10.290932      -280.0305
  39   2.0000     -10.290201      -280.0106
  40   2.0000     -10.288981      -279.9774
  41   2.0000     -10.283669      -279.8329
  42   2.0000     -10.280722      -279.7527
  43   2.0000     -10.279659      -279.7238
  44   2.0000     -10.279468      -279.7185
  45   2.0000     -10.278431      -279.6903
  46   2.0000     -10.277443      -279.6634
  47   2.0000     -10.275947      -279.6227
  48   2.0000     -10.275845      -279.6200
  49   2.0000     -10.268822      -279.4289
  50   2.0000     -10.264683      -279.3162
  51   2.0000     -10.258219      -279.1403
  52   2.0000     -10.258149      -279.1384
  53   2.0000     -10.256568      -279.0954
  54   2.0000     -10.254908      -279.0502
  55   2.0000     -10.253228      -279.0045
  56   2.0000     -10.253112      -279.0014
  57   2.0000     -10.252554      -278.9862
  58   2.0000     -10.251115      -278.9470
  59   2.0000     -10.249828      -278.9120
  60   2.0000     -10.247716      -278.8545
  61   2.0000     -10.247160      -278.8394
  62   2.0000     -10.247086      -278.8374
  63   2.0000     -10.246626      -278.8249
  64   2.0000     -10.245808      -278.8026
  65   2.0000     -10.244433      -278.7652
  66   2.0000     -10.243524      -278.7405
  67   2.0000     -10.242635      -278.7163
  68   2.0000     -10.241815      -278.6940
  69   2.0000     -10.239314      -278.6259
  70   2.0000     -10.232470      -278.4397
  71   2.0000     -10.223145      -278.1859
  72   2.0000      -8.776228      -238.8133
  73   2.0000      -8.067832      -219.5369
  74   2.0000      -8.057283      -219.2498
  75   2.0000      -8.050962      -219.0778
  76   2.0000      -8.046526      -218.9571
  77   2.0000      -8.042374      -218.8441
  78   2.0000      -6.612439      -179.9336
  79   2.0000      -6.597980      -179.5402
  80   2.0000      -6.597853      -179.5367
  81   2.0000      -6.037184      -164.2801
  82   2.0000      -6.032971      -164.1655
  83   2.0000      -6.029914      -164.0823
  84   2.0000      -6.027016      -164.0034
  85   2.0000      -6.022932      -163.8923
  86   2.0000      -6.020684      -163.8311
  87   2.0000      -6.018406      -163.7692
  88   2.0000      -6.016388      -163.7142
  89   2.0000      -6.015849      -163.6996
  90   2.0000      -6.012180      -163.5997
  91   2.0000      -6.012002      -163.5949
  92   2.0000      -6.011727      -163.5874
  93   2.0000      -6.008552      -163.5010
  94   2.0000      -6.007940      -163.4844
  95   2.0000      -6.003810      -163.3720
  96   2.0000      -2.728301       -74.2408
  97   2.0000      -2.724271       -74.1312
  98   2.0000      -2.724164       -74.1283
  99   2.0000      -2.712680       -73.8158
 100   2.0000      -2.712663       -73.8153
 101   2.0000      -1.096995       -29.8507
 102   2.0000      -1.092182       -29.7198
 103   2.0000      -1.058226       -28.7958
 104   2.0000      -1.048901       -28.5421
 105   2.0000      -1.003116       -27.2962
 106   2.0000      -0.998028       -27.1577
 107   2.0000      -0.988117       -26.8880
 108   2.0000      -0.986915       -26.8553
 109   2.0000      -0.975511       -26.5450
 110   2.0000      -0.972152       -26.4536
 111   2.0000      -0.966883       -26.3102
 112   2.0000      -0.963842       -26.2275
 113   2.0000      -0.961098       -26.1528
 114   2.0000      -0.919798       -25.0290
 115   2.0000      -0.918150       -24.9841
 116   2.0000      -0.899692       -24.4819
 117   2.0000      -0.895045       -24.3554
 118   2.0000      -0.887390       -24.1471
 119   2.0000      -0.884737       -24.0749
 120   2.0000      -0.879916       -23.9437
 121   2.0000      -0.862421       -23.4677
 122   2.0000      -0.862063       -23.4579
 123   2.0000      -0.860347       -23.4112
 124   2.0000      -0.852215       -23.1899
 125   2.0000      -0.847787       -23.0694
 126   2.0000      -0.835483       -22.7347
 127   2.0000      -0.833798       -22.6888
 128   2.0000      -0.830990       -22.6124
 129   2.0000      -0.826262       -22.4837
 130   2.0000      -0.819483       -22.2993
 131   2.0000      -0.815342       -22.1866
 132   2.0000      -0.811452       -22.0807
 133   2.0000      -0.808079       -21.9889
 134   2.0000      -0.805274       -21.9126
 135   2.0000      -0.801969       -21.8227
 136   2.0000      -0.785351       -21.3705
 137   2.0000      -0.780157       -21.2292
 138   2.0000      -0.763749       -20.7827
 139   2.0000      -0.753387       -20.5007
 140   2.0000      -0.742776       -20.2120
 141   2.0000      -0.732285       -19.9265
 142   2.0000      -0.728769       -19.8308
 143   2.0000      -0.721853       -19.6426
 144   2.0000      -0.716510       -19.4972
 145   2.0000      -0.701142       -19.0791
 146   2.0000      -0.697738       -18.9864
 147   2.0000      -0.695387       -18.9224
 148   2.0000      -0.684514       -18.6266
 149   2.0000      -0.678903       -18.4739
 150   2.0000      -0.671431       -18.2706
 151   2.0000      -0.669276       -18.2119
 152   2.0000      -0.664307       -18.0767
 153   2.0000      -0.659385       -17.9428
 154   2.0000      -0.658907       -17.9298
 155   2.0000      -0.656431       -17.8624
 156   2.0000      -0.647410       -17.6169
 157   2.0000      -0.643660       -17.5149
 158   2.0000      -0.641814       -17.4646
 159   2.0000      -0.635743       -17.2995
 160   2.0000      -0.632600       -17.2139
 161   2.0000      -0.626747       -17.0546
 162   2.0000      -0.618731       -16.8365
 163   2.0000      -0.615223       -16.7411
 164   2.0000      -0.606996       -16.5172
 165   2.0000      -0.605896       -16.4873
 166   2.0000      -0.597350       -16.2547
 167   2.0000      -0.587582       -15.9889
 168   2.0000      -0.584619       -15.9083
 169   2.0000      -0.581080       -15.8120
 170   2.0000      -0.574806       -15.6413
 171   2.0000      -0.573542       -15.6069
 172   2.0000      -0.569929       -15.5086
 173   2.0000      -0.568690       -15.4748
 174   2.0000      -0.557403       -15.1677
 175   2.0000      -0.552433       -15.0325
 176   2.0000      -0.549161       -14.9434
 177   2.0000      -0.538598       -14.6560
 178   2.0000      -0.535923       -14.5832
 179   2.0000      -0.532658       -14.4944
 180   2.0000      -0.527635       -14.3577
 181   2.0000      -0.526080       -14.3154
 182   2.0000      -0.523862       -14.2550
 183   2.0000      -0.523027       -14.2323
 184   2.0000      -0.522050       -14.2057
 185   2.0000      -0.519756       -14.1433
 186   2.0000      -0.517200       -14.0737
 187   2.0000      -0.512782       -13.9535
 188   2.0000      -0.508336       -13.8325
 189   2.0000      -0.505585       -13.7577
 190   2.0000      -0.504775       -13.7356
 191   2.0000      -0.503663       -13.7054
 192   2.0000      -0.501217       -13.6388
 193   2.0000      -0.498788       -13.5727
 194   2.0000      -0.496599       -13.5131
 195   2.0000      -0.496059       -13.4984
 196   2.0000      -0.493268       -13.4225
 197   2.0000      -0.491339       -13.3700
 198   2.0000      -0.489871       -13.3301
 199   2.0000      -0.487617       -13.2687
 200   2.0000      -0.486490       -13.2381
 201   2.0000      -0.483105       -13.1460
 202   2.0000      -0.481018       -13.0892
 203   2.0000      -0.476377       -12.9629
 204   2.0000      -0.474087       -12.9006
 205   2.0000      -0.470956       -12.8154
 206   2.0000      -0.470473       -12.8022
 207   2.0000      -0.468893       -12.7592
 208   2.0000      -0.467745       -12.7280
 209   2.0000      -0.465475       -12.6662
 210   2.0000      -0.463590       -12.6149
 211   2.0000      -0.461435       -12.5563
 212   2.0000      -0.455941       -12.4068
 213   2.0000      -0.453453       -12.3391
 214   2.0000      -0.452463       -12.3121
 215   2.0000      -0.446819       -12.1586
 216   2.0000      -0.446195       -12.1416
 217   2.0000      -0.444476       -12.0948
 218   2.0000      -0.443688       -12.0734
 219   2.0000      -0.441619       -12.0171
 220   2.0000      -0.438494       -11.9320
 221   2.0000      -0.436584       -11.8801
 222   2.0000      -0.434739       -11.8298
 223   2.0000      -0.433111       -11.7856
 224   2.0000      -0.429656       -11.6915
 225   2.0000      -0.426905       -11.6167
 226   2.0000      -0.424538       -11.5523
 227   2.0000      -0.421893       -11.4803
 228   2.0000      -0.420910       -11.4535
 229   2.0000      -0.418010       -11.3746
 230   2.0000      -0.416819       -11.3422
 231   2.0000      -0.415862       -11.3162
 232   2.0000      -0.411261       -11.1910
 233   2.0000      -0.405864       -11.0441
 234   2.0000      -0.403584       -10.9821
 235   2.0000      -0.402101       -10.9417
 236   2.0000      -0.401267       -10.9190
 237   2.0000      -0.400663       -10.9026
 238   2.0000      -0.396811       -10.7978
 239   2.0000      -0.390975       -10.6390
 240   2.0000      -0.385053       -10.4778
 241   2.0000      -0.383997       -10.4491
 242   2.0000      -0.381624       -10.3845
 243   2.0000      -0.380249       -10.3471
 244   2.0000      -0.371104       -10.0983
 245   2.0000      -0.369114       -10.0441
 246   2.0000      -0.367483        -9.9997
 247   2.0000      -0.367167        -9.9911
 248   2.0000      -0.362722        -9.8702
 249   2.0000      -0.358904        -9.7663
 250   2.0000      -0.358206        -9.7473
 251   2.0000      -0.344869        -9.3844
 252   2.0000      -0.343814        -9.3557
 253   2.0000      -0.336008        -9.1432
 254   2.0000      -0.324154        -8.8207
 255   2.0000      -0.317613        -8.6427
 256   2.0000      -0.314029        -8.5452
 257   2.0000      -0.310113        -8.4386
 258   2.0000      -0.304859        -8.2956
 259   2.0000      -0.303000        -8.2450
 260   2.0000      -0.292792        -7.9673
 261   2.0000      -0.288331        -7.8459
 262   2.0000      -0.281437        -7.6583
 263   2.0000      -0.275788        -7.5046
 264   2.0000      -0.268265        -7.2999
 265   2.0000      -0.250887        -6.8270
 266   2.0000      -0.227213        -6.1828
 267   2.0000      -0.210594        -5.7306
 268   0.0000      -0.089387        -2.4323
 269   0.0000      -0.042455        -1.1553
 270   0.0000      -0.020721        -0.5638
 271   0.0000      -0.008240        -0.2242
 272   0.0000       0.004442         0.1209

MULLIKEN ATOMIC CHARGES
-----------------------
   0 C :    0.342223
   1 C :   -0.390859
   2 C :   -0.200332
   3 N :    0.130461
   4 C :   -0.195033
   5 N :    0.144169
   6 C :    0.008423
   7 C :   -0.002481
   8 C :   -0.086205
   9 C :    0.118160
  10 C :   -0.092448
  11 C :   -0.031856
  12 S :    0.172215
  13 C :   -0.124106
  14 C :    0.035745
  15 Br:    0.006294
  16 C :    0.130092
  17 O :   -0.176012
  18 C :   -0.088872
  19 C :   -0.031040
  20 C :   -0.038238
  21 C :    0.013814
  22 C :    0.012426
  23 C :    0.042956
  24 C :   -0.067928
  25 S :    0.115396
  26 C :   -0.021520
  27 C :    0.003612
  28 C :    0.063476
  29 C :   -0.062895
  30 S :    0.103025
  31 C :    0.053466
  32 N :   -0.043267
  33 C :    0.073121
  34 C :   -0.163606
  35 S :    0.141512
  36 C :   -0.185824
  37 C :    0.103697
  38 N :   -0.066913
  39 C :    0.015679
  40 C :   -0.003008
  41 C :   -0.148192
  42 S :    0.092894
  43 C :   -0.071410
  44 C :    0.042201
  45 C :    0.060044
  46 N :   -0.252769
  47 C :    0.084654
  48 C :    0.018541
  49 C :    0.194705
  50 C :   -0.140560
  51 C :    0.000307
  52 C :    0.113607
  53 C :   -0.056525
  54 C :   -0.051278
  55 C :    0.124858
  56 C :    0.021105
  57 C :   -0.143409
  58 C :    0.076879
  59 C :    0.036579
  60 C :    0.070000
  61 C :    0.024558
  62 C :   -0.085886
  63 C :    0.096874
  64 C :   -0.011707
  65 C :   -0.069066
  66 C :   -0.022057
  67 C :    0.008954
  68 H :   -0.019887
  69 H :   -0.012849
  70 H :   -0.009511
  71 H :    0.012619
  72 H :    0.007708
  73 H :   -0.009592
  74 H :   -0.014199
  75 H :   -0.012572
  76 H :   -0.002848
  77 H :    0.049935
  78 H :    0.146424
  79 H :    0.019827
  80 H :    0.009196
  81 H :    0.121419
  82 H :    0.071949
  83 H :   -0.037231
  84 H :    0.024183
  85 H :   -0.008702
  86 H :    0.025503
  87 H :    0.017260
  88 H :    0.023751
  89 H :    0.013677
  90 H :    0.022333
  91 H :   -0.058037
  92 H :   -0.048848
  93 H :   -0.018441
  94 H :    0.006415
  95 H :   -0.020554
  96 H :    0.040160
  97 H :   -0.008574
  98 H :   -0.015423
  99 H :   -0.011698
 100 H :   -0.001434
 101 H :    0.015417
 102 H :    0.002848
 103 H :    0.026983
 104 H :   -0.044013
 105 H :   -0.037398
 106 H :   -0.050977
 107 H :   -0.015847
 108 H :    0.014425
 109 H :    0.015179
Sum of atomic charges:   -0.0000000

LOEWDIN ATOMIC CHARGES
----------------------
   0 C :    0.077037
   1 C :   -0.171595
   2 C :   -0.020815
   3 N :   -0.083557
   4 C :   -0.009085
   5 N :   -0.072735
   6 C :   -0.016173
   7 C :   -0.046710
   8 C :    0.012846
   9 C :   -0.039047
  10 C :   -0.147616
  11 C :   -0.017496
  12 S :    0.421535
  13 C :   -0.277800
  14 C :   -0.071382
  15 Br:    0.123137
  16 C :    0.079667
  17 O :   -0.168936
  18 C :   -0.119755
  19 C :    0.053917
  20 C :   -0.089007
  21 C :   -0.097563
  22 C :   -0.060003
  23 C :   -0.009758
  24 C :   -0.216169
  25 S :    0.435447
  26 C :   -0.125752
  27 C :   -0.064682
  28 C :    0.006024
  29 C :   -0.211863
  30 S :    0.415263
  31 C :    0.052576
  32 N :    0.050386
  33 C :   -0.038842
  34 C :   -0.213658
  35 S :    0.457819
  36 C :   -0.225790
  37 C :   -0.032141
  38 N :    0.004582
  39 C :    0.025599
  40 C :   -0.116667
  41 C :   -0.182625
  42 S :    0.414956
  43 C :   -0.191150
  44 C :   -0.064223
  45 C :   -0.039000
  46 N :   -0.043369
  47 C :    0.034147
  48 C :   -0.065951
  49 C :    0.030426
  50 C :   -0.073677
  51 C :    0.015840
  52 C :   -0.046240
  53 C :   -0.015311
  54 C :   -0.064825
  55 C :   -0.021035
  56 C :   -0.002760
  57 C :   -0.034054
  58 C :   -0.010090
  59 C :   -0.064661
  60 C :   -0.010968
  61 C :   -0.058881
  62 C :   -0.009253
  63 C :   -0.033100
  64 C :   -0.015185
  65 C :   -0.035745
  66 C :   -0.024215
  67 C :   -0.046361
  68 H :    0.036935
  69 H :    0.038916
  70 H :    0.036312
  71 H :    0.029896
  72 H :    0.034774
  73 H :    0.035153
  74 H :    0.032121
  75 H :    0.032087
  76 H :    0.037914
  77 H :    0.045598
  78 H :    0.090268
  79 H :    0.026389
  80 H :    0.022509
  81 H :    0.087617
  82 H :    0.032672
  83 H :    0.021007
  84 H :    0.022572
  85 H :    0.034044
  86 H :    0.026015
  87 H :    0.017950
  88 H :    0.028118
  89 H :    0.027095
  90 H :    0.025182
  91 H :    0.019661
  92 H :    0.022099
  93 H :    0.025760
  94 H :    0.024588
  95 H :    0.012037
  96 H :    0.022567
  97 H :    0.018818
  98 H :   -0.003279
  99 H :    0.015159
 100 H :    0.020847
 101 H :    0.022546
 102 H :    0.021170
 103 H :    0.027718
 104 H :    0.022686
 105 H :    0.022928
 106 H :    0.020056
 107 H :    0.026879
 108 H :    0.018961
 109 H :    0.023731

  Mayer bond orders larger than 0.100000
B(  0-C ,  1-C ) :   1.5577 B(  0-C ,  6-C ) :   0.9815 B(  0-C , 18-C ) :   1.1416
B(  1-C ,  2-C ) :   1.1521 B(  1-C ,  4-C ) :   1.1660 B(  2-C ,  3-N ) :   2.9642
B(  4-C ,  5-N ) :   2.9233 B(  6-C ,  7-C ) :   1.2798 B(  6-C , 11-C ) :   1.4222
B(  7-C ,  8-C ) :   1.4349 B(  7-C , 16-C ) :   0.9305 B(  8-C ,  9-C ) :   1.2300
B(  8-C , 68-H ) :   1.0171 B(  9-C , 10-C ) :   1.3255 B(  9-C , 14-C ) :   1.1588
B( 10-C , 11-C ) :   1.3125 B( 10-C , 12-S ) :   1.0799 B( 11-C , 69-H ) :   0.9812
B( 12-S , 13-C ) :   1.0842 B( 13-C , 14-C ) :   1.6218 B( 13-C , 15-Br) :   1.0082
B( 14-C , 70-H ) :   1.0002 B( 16-C , 17-O ) :   2.1718 B( 16-C , 18-C ) :   0.9836
B( 18-C , 19-C ) :   1.4102 B( 19-C , 20-C ) :   1.3196 B( 19-C , 71-H ) :   0.9445
B( 20-C , 21-C ) :   1.3472 B( 20-C , 72-H ) :   0.9800 B( 21-C , 22-C ) :   1.2116
B( 21-C , 25-S ) :   1.1195 B( 22-C , 23-C ) :   1.4922 B( 22-C , 73-H ) :   1.0033
B( 23-C , 24-C ) :   1.2481 B( 23-C , 74-H ) :   0.9965 B( 24-C , 25-S ) :   1.0490
B( 24-C , 26-C ) :   1.4240 B( 26-C , 27-C ) :   1.2133 B( 26-C , 30-S ) :   1.1225
B( 27-C , 28-C ) :   1.5606 B( 27-C , 75-H ) :   0.9940 B( 28-C , 29-C ) :   1.1855
B( 28-C , 76-H ) :   0.9970 B( 29-C , 30-S ) :   1.0055 B( 29-C , 31-C ) :   1.5382
B( 31-C , 32-N ) :   1.2312 B( 31-C , 77-H ) :   0.9537 B( 32-N , 33-C ) :   1.0722
B( 32-N , 78-H ) :   0.9035 B( 33-C , 34-C ) :   1.5208 B( 33-C , 37-C ) :   1.2572
B( 34-C , 35-S ) :   1.1792 B( 34-C , 79-H ) :   0.9728 B( 35-S , 36-C ) :   1.1611
B( 36-C , 37-C ) :   1.5217 B( 36-C , 80-H ) :   0.9749 B( 37-C , 38-N ) :   1.0920
B( 38-N , 39-C ) :   1.0969 B( 38-N , 81-H ) :   0.9211 B( 39-C , 40-C ) :   1.7147
B( 39-C , 82-H ) :   0.9359 B( 40-C , 41-C ) :   1.1291 B( 40-C , 83-H ) :   0.9500
B( 41-C , 42-S ) :   1.1246 B( 41-C , 45-C ) :   1.5451 B( 42-S , 43-C ) :   1.1443
B( 43-C , 44-C ) :   1.5606 B( 43-C , 84-H ) :   0.9665 B( 44-C , 45-C ) :   1.2526
B( 44-C , 85-H ) :   0.9987 B( 45-C , 46-N ) :   1.0195 B( 46-N , 47-C ) :   0.9761
B( 46-N , 49-C ) :   1.0503 B( 47-C , 48-C ) :   1.1166 B( 47-C , 86-H ) :   0.9422
B( 47-C , 87-H ) :   0.9397 B( 48-C , 88-H ) :   0.9603 B( 48-C , 89-H ) :   0.9636
B( 48-C , 90-H ) :   0.9634 B( 49-C , 50-C ) :   1.2944 B( 49-C , 54-C ) :   1.3574
B( 50-C , 51-C ) :   1.3577 B( 50-C , 91-H ) :   0.9986 B( 51-C , 52-C ) :   1.3867
B( 51-C , 57-C ) :   0.9241 B( 52-C , 53-C ) :   1.3289 B( 52-C , 55-C ) :   0.9824
B( 53-C , 54-C ) :   1.3752 B( 53-C , 92-H ) :   0.9807 B( 54-C , 93-H ) :   0.9783
B( 55-C , 56-C ) :   1.3840 B( 55-C , 65-C ) :   1.3244 B( 56-C , 57-C ) :   0.9165
B( 56-C , 62-C ) :   1.3798 B( 57-C , 58-C ) :   1.0435 B( 57-C , 60-C ) :   1.0334
B( 58-C , 59-C ) :   1.1056 B( 58-C , 94-H ) :   0.9363 B( 58-C , 95-H ) :   0.9354
B( 59-C , 96-H ) :   0.9533 B( 59-C , 97-H ) :   0.9568 B( 59-C , 98-H ) :   0.9541
B( 60-C , 61-C ) :   1.1007 B( 60-C , 99-H ) :   0.9384 B( 60-C ,100-H ) :   0.9397
B( 61-C ,101-H ) :   0.9634 B( 61-C ,102-H ) :   0.9637 B( 61-C ,103-H ) :   0.9647
B( 62-C , 63-C ) :   1.2974 B( 62-C ,104-H ) :   1.0052 B( 63-C , 64-C ) :   1.3631
B( 63-C , 66-C ) :   1.0668 B( 64-C , 65-C ) :   1.3747 B( 64-C ,105-H ) :   0.9812
B( 65-C ,106-H ) :   0.9956 B( 66-C , 67-C ) :   1.9513 B( 66-C ,107-H ) :   0.9631
B( 67-C ,108-H ) :   0.9390 B( 67-C ,109-H ) :   0.9417

-----------------------------------------------------------------------------
         ABSORPTION SPECTRUM VIA TRANSITION ELECTRIC DIPOLE MOMENTS
-----------------------------------------------------------------------------
State   Energy  Wavelength   fosc         T2         TX        TY        TZ
        (cm-1)    (nm)                  (au**2)     (au)      (au)      (au)
-----------------------------------------------------------------------------
   0   11150.8    896.8   0.590744183  17.44098   0.72575  -2.96815   2.84682
   1   13945.2    717.1   0.488768342  11.53862   0.52476  -2.55481   2.17628
   2   20242.2    494.0   0.062081763   1.00968   0.73738  -0.03215  -0.68184
   3   21278.5    470.0   0.102989789   1.59341   0.96131   0.56432  -0.59231
   4   23957.8    417.4   0.037010674   0.50858   0.40981   0.29110  -0.50585
   5   24835.6    402.6   0.091067837   1.20716   0.80368   0.50041  -0.55753
   6   25432.9    393.2   0.074725735   0.96727   0.58514   0.35888  -0.70433
   7   26188.2    381.9   0.045615233   0.57343   0.68221   0.19097  -0.26750
   8   26769.7    373.6   0.233369889   2.86997  -1.61680  -0.19615   0.46632
   9   28074.2    356.2   0.204083332   2.39318   0.98981  -0.78404   0.89372
  10   28194.6    354.7   0.037099630   0.43319  -0.46939   0.31748  -0.33477
  11   28851.9    346.6   0.314943126   3.59363   0.42762   1.54389  -1.01350
  12   29582.8    338.0   0.024644861   0.27426  -0.23201  -0.10374  -0.45789
  13   29705.0    336.6   0.052169700   0.57818  -0.70822  -0.24062  -0.13678
  14   29961.2    333.8   0.033480213   0.36788   0.14290  -0.52540   0.26723
  15   30286.6    330.2   0.177088136   1.92493   0.41966   1.19803  -0.55995
  16   31434.5    318.1   0.023661360   0.24780   0.18828  -0.26855   0.37448
  17   31898.8    313.5   0.001174916   0.01213   0.10272  -0.03909   0.00682
  18   31978.4    312.7   0.058779999   0.60513   0.42880  -0.39347   0.51618
  19   32218.5    310.4   0.043660545   0.44613  -0.46064   0.11465  -0.46989
  20   32636.3    306.4   0.489410406   4.93683   0.59648  -1.04098   1.87013
  21   33134.0    301.8   0.098220924   0.97590   0.33407   0.50355  -0.78149
  22   33813.1    295.7   0.076966019   0.74936   0.01899  -0.64922   0.57228
  23   33869.9    295.2   0.470278719   4.57106   0.38098   1.20826  -1.72222
  24   34537.7    289.5   0.034693807   0.33070   0.53200   0.00912   0.21815
  25   34716.9    288.0   0.354078180   3.35764   0.20602  -1.24103   1.33230
  26   35461.6    282.0   0.321453649   2.98425   0.94464   1.44631  -0.00956
  27   35780.3    279.5   0.033950291   0.31237  -0.17011  -0.03412  -0.53129
  28   35815.0    279.2   0.059102019   0.54327  -0.43011  -0.47105   0.36930
  29   35973.3    278.0   0.042373880   0.38779  -0.26783  -0.41668   0.37740
  30   36505.0    273.9   0.200141871   1.80493   0.81330   0.99408   0.39405
  31   36549.9    273.6   0.222690249   2.00581  -1.33449  -0.07671  -0.46804
  32   36894.5    271.0   0.291912996   2.60476  -0.84724   0.29810  -1.34093
  33   37343.1    267.8   0.096001074   0.84633   0.66619   0.44770  -0.44954
  34   37594.1    266.0   0.091862556   0.80444   0.89620  -0.03050  -0.01818
  35   37690.4    265.3   0.003861345   0.03373   0.13464  -0.06772   0.10495
  36   38061.2    262.7   0.016823062   0.14551   0.19799   0.24441   0.21581
  37   38129.9    262.3   0.114683000   0.99017   0.20808  -0.63019   0.74144
  38   38303.0    261.1   0.102301649   0.87928  -0.14047  -0.08378  -0.92332
  39   38811.4    257.7   0.032159327   0.27279  -0.50683   0.02140  -0.12430
  40   39231.5    254.9   0.128292409   1.07657  -1.02835  -0.08481   0.10895
  41   39712.8    251.8   0.136228206   1.12931   1.05167  -0.12310   0.09025
  42   39909.1    250.6   0.021143870   0.17442   0.32003   0.05818  -0.26194
  43   40096.1    249.4   0.011716292   0.09620  -0.29556  -0.04455   0.08280

FINAL SINGLE POINT ENERGY     -7069.239103465148

DIPOLE MOMENT
-------------
                                X             Y             Z
Electronic contribution:    -30.68041      89.97649    -190.90881
Nuclear contribution   :     32.48927     -94.53590     194.52486
                        -----------------------------------------
Total Dipole Moment    :      1.80886      -4.55940       3.61605
                        -----------------------------------------
Magnitude (a.u.)       :      6.09393
Magnitude (Debye)      :     15.48953

Rotational constants in cm-1:     0.002197     0.000340     0.000332
Rotational constants in MHz :    65.859493    10.178735     9.963438

                             ****ORCA TERMINATED NORMALLY****
TOTAL RUN TIME: 0 days 0 hours 13 minutes 51 seconds 62 msec
