                         Program Version 4.2.0 -  RELEASE  -
|  1> # ORCA input file
|  2> # SCF done       -185.235746035962          0.002084886129
|  3> ! CAM-B3LYP def2-SVP def2/J RIJCOSX Grid4 TightSCF
|  4> %maxcore 5000
|  5> %tddft
|  6>     Mode sTDDFT
|  7>     Ethresh 5.0
|  8>     maxcore 5000
|  9> end
| 10>
| 11> %pal
| 12>   nprocs 6
| 13>   end
| 14> * xyz 0 1
| 15>    C       -3.80530        -1.62812         3.15734
| 16>    C       -3.87397        -2.60313         2.18683
| 17>    C       -2.80560        -3.45099         1.83771
| 18>    N       -1.99083        -4.19916         1.52583
| 19>    C       -5.00573        -2.93015         1.41639
| 20>    N       -5.86484        -3.28303         0.73780
| 21>    C       -2.59956        -1.26360         3.89597
| 22>    C       -2.92331        -0.23462         4.81448
| 23>    C       -1.98866         0.33307         5.64393
| 24>    C       -0.66865        -0.12738         5.55586
| 25>    C       -0.35529        -1.14888         4.62972
| 26>    C       -1.30328        -1.73005         3.79568
| 27>    S        1.33386        -1.55490         4.66934
| 28>    C        1.59355        -0.36359         5.91536
| 29>    C        0.47385         0.30420         6.28360
| 30>   Br        3.31867        -0.11388         6.61068
| 31>    C       -4.36196         0.09214         4.68751
| 32>    O       -4.98073         0.90546         5.34711
| 33>    C       -4.87470        -0.79139         3.62727
| 34>    C       -6.18728        -0.84016         3.20267
| 35>    C       -7.22147        -0.00554         3.60581
| 36>    C       -8.52066        -0.22140         3.17890
| 37>    C       -9.65127         0.60034         3.38596
| 38>    C      -10.78667         0.13950         2.78632
| 39>    C      -10.61589        -1.09218         2.11419
| 40>    S       -8.96352        -1.63490         2.25287
| 41>    C      -11.53998        -1.82908         1.39971
| 42>    C      -12.85558        -1.42505         1.05280
| 43>    C      -13.51311        -2.33124         0.28948
| 44>    C      -12.75325        -3.50404         0.00360
| 45>    S      -11.16831        -3.41175         0.74333
| 46>    C      -13.13951        -4.55422        -0.76314
| 47>    C      -12.26505        -5.64804        -1.07919
| 48>    N      -12.72619        -6.52416        -1.97849
| 49>    C      -11.90798        -7.49275        -2.34148
| 50>    C      -10.63202        -7.61232        -1.81977
| 51>    C      -10.23751        -6.67470        -0.84708
| 52>    N      -11.07018        -5.69227        -0.48985
| 53>    C       -8.93377        -6.79962        -0.24974
| 54>    C       -8.47566        -6.10260         0.81809
| 55>    C       -7.17673        -6.29359         1.33756
| 56>    C       -6.67905        -5.64843         2.43549
| 57>    C       -5.35486        -5.71035         2.94970
| 58>    C       -5.12665        -4.87955         4.00174
| 59>    C       -6.26667        -4.13493         4.39418
| 60>    S       -7.63995        -4.54647         3.40167
| 61>    C       -6.38726        -3.16447         5.36893
| 62>    C       -5.42938        -2.58725         6.23040
| 63>    C       -5.92945        -1.57814         6.99834
| 64>    C       -7.30969        -1.31426         6.80285
| 65>    S       -7.94951        -2.42902         5.62998
| 66>    C       -8.01229        -0.25756         7.35338
| 67>    C       -9.33951         0.11701         7.14552
| 68>    C      -10.41953        -0.57992         6.63534
| 69>    C      -10.69931        -1.97770         6.50488
| 70>    C      -10.18845        -2.99887         7.27660
| 71>    C      -10.56744        -4.34675         7.13928
| 72>    N      -10.83343        -5.46094         7.05771
| 73>    C       -9.30859        -2.78617         8.35380
| 74>    N       -8.60191        -2.65041         9.24795
| 75>    C      -11.81291        -2.12415         5.57111
| 76>    C      -12.39741        -0.85024         5.37351
| 77>    C      -11.56341         0.16603         6.05943
| 78>    O      -11.74765         1.36416         6.09013
| 79>    C      -13.53416        -0.67729         4.62307
| 80>    C      -14.08146        -1.80412         3.99564
| 81>    C      -13.43343        -3.05285         4.13098
| 82>    C      -12.30893        -3.23801         4.92792
| 83>    S      -14.23099        -4.29439         3.21425
| 84>    C      -15.42754        -3.13954         2.69149
| 85>    C      -15.23713        -1.88773         3.16944
| 86>   Br      -16.79113        -3.69106         1.52752
| 87>    H       -2.26118         1.11704         6.33307
| 88>    H       -1.01406        -2.50265         3.10286
| 89>    H        0.45416         1.07163         7.03559
| 90>    H       -6.44900        -1.60317         2.47904
| 91>    H       -7.01550         0.83122         4.25688
| 92>    H       -9.59103         1.51301         3.95173
| 93>    H      -11.73152         0.65039         2.81905
| 94>    H      -13.25500        -0.47191         1.34923
| 95>    H      -14.50589        -2.20535        -0.10515
| 96>    H      -14.11986        -4.57650        -1.21333
| 97>    H      -12.29219        -8.18753        -3.07744
| 98>    H       -9.96644        -8.40123        -2.12996
| 99>    H       -8.29342        -7.54669        -0.70180
|100>    H       -9.11780        -5.37154         1.28996
|101>    H       -6.51544        -6.97596         0.81920
|102>    H       -4.60785        -6.34088         2.50060
|103>    H       -4.18178        -4.77809         4.50652
|104>    H       -4.40617        -2.91904         6.25221
|105>    H       -5.35119        -1.00348         7.69898
|106>    H       -7.40918         0.42742         7.93510
|107>    H       -9.56258         1.16054         7.34929
|108>    H      -13.99207         0.29467         4.51983
|109>    H      -11.85536        -4.21081         5.02011
|110>    H      -15.88202        -1.05692         2.94757
|111> *
|112>
|113>                          ****END OF INPUT****

CARTESIAN COORDINATES (ANGSTROEM)
---------------------------------
  C     -3.805300   -1.628120    3.157340
  C     -3.873970   -2.603130    2.186830
  C     -2.805600   -3.450990    1.837710
  N     -1.990830   -4.199160    1.525830
  C     -5.005730   -2.930150    1.416390
  N     -5.864840   -3.283030    0.737800
  C     -2.599560   -1.263600    3.895970
  C     -2.923310   -0.234620    4.814480
  C     -1.988660    0.333070    5.643930
  C     -0.668650   -0.127380    5.555860
  C     -0.355290   -1.148880    4.629720
  C     -1.303280   -1.730050    3.795680
  S      1.333860   -1.554900    4.669340
  C      1.593550   -0.363590    5.915360
  C      0.473850    0.304200    6.283600
  Br     3.318670   -0.113880    6.610680
  C     -4.361960    0.092140    4.687510
  O     -4.980730    0.905460    5.347110
  C     -4.874700   -0.791390    3.627270
  C     -6.187280   -0.840160    3.202670
  C     -7.221470   -0.005540    3.605810
  C     -8.520660   -0.221400    3.178900
  C     -9.651270    0.600340    3.385960
  C    -10.786670    0.139500    2.786320
  C    -10.615890   -1.092180    2.114190
  S     -8.963520   -1.634900    2.252870
  C    -11.539980   -1.829080    1.399710
  C    -12.855580   -1.425050    1.052800
  C    -13.513110   -2.331240    0.289480
  C    -12.753250   -3.504040    0.003600
  S    -11.168310   -3.411750    0.743330
  C    -13.139510   -4.554220   -0.763140
  C    -12.265050   -5.648040   -1.079190
  N    -12.726190   -6.524160   -1.978490
  C    -11.907980   -7.492750   -2.341480
  C    -10.632020   -7.612320   -1.819770
  C    -10.237510   -6.674700   -0.847080
  N    -11.070180   -5.692270   -0.489850
  C     -8.933770   -6.799620   -0.249740
  C     -8.475660   -6.102600    0.818090
  C     -7.176730   -6.293590    1.337560
  C     -6.679050   -5.648430    2.435490
  C     -5.354860   -5.710350    2.949700
  C     -5.126650   -4.879550    4.001740
  C     -6.266670   -4.134930    4.394180
  S     -7.639950   -4.546470    3.401670
  C     -6.387260   -3.164470    5.368930
  C     -5.429380   -2.587250    6.230400
  C     -5.929450   -1.578140    6.998340
  C     -7.309690   -1.314260    6.802850
  S     -7.949510   -2.429020    5.629980
  C     -8.012290   -0.257560    7.353380
  C     -9.339510    0.117010    7.145520
  C    -10.419530   -0.579920    6.635340
  C    -10.699310   -1.977700    6.504880
  C    -10.188450   -2.998870    7.276600
  C    -10.567440   -4.346750    7.139280
  N    -10.833430   -5.460940    7.057710
  C     -9.308590   -2.786170    8.353800
  N     -8.601910   -2.650410    9.247950
  C    -11.812910   -2.124150    5.571110
  C    -12.397410   -0.850240    5.373510
  C    -11.563410    0.166030    6.059430
  O    -11.747650    1.364160    6.090130
  C    -13.534160   -0.677290    4.623070
  C    -14.081460   -1.804120    3.995640
  C    -13.433430   -3.052850    4.130980
  C    -12.308930   -3.238010    4.927920
  S    -14.230990   -4.294390    3.214250
  C    -15.427540   -3.139540    2.691490
  C    -15.237130   -1.887730    3.169440
  Br   -16.791130   -3.691060    1.527520
  H     -2.261180    1.117040    6.333070
  H     -1.014060   -2.502650    3.102860
  H      0.454160    1.071630    7.035590
  H     -6.449000   -1.603170    2.479040
  H     -7.015500    0.831220    4.256880
  H     -9.591030    1.513010    3.951730
  H    -11.731520    0.650390    2.819050
  H    -13.255000   -0.471910    1.349230
  H    -14.505890   -2.205350   -0.105150
  H    -14.119860   -4.576500   -1.213330
  H    -12.292190   -8.187530   -3.077440
  H     -9.966440   -8.401230   -2.129960
  H     -8.293420   -7.546690   -0.701800
  H     -9.117800   -5.371540    1.289960
  H     -6.515440   -6.975960    0.819200
  H     -4.607850   -6.340880    2.500600
  H     -4.181780   -4.778090    4.506520
  H     -4.406170   -2.919040    6.252210
  H     -5.351190   -1.003480    7.698980
  H     -7.409180    0.427420    7.935100
  H     -9.562580    1.160540    7.349290
  H    -13.992070    0.294670    4.519830
  H    -11.855360   -4.210810    5.020110
  H    -15.882020   -1.056920    2.947570

 Total Charge           Charge          ....    0
 Multiplicity           Mult            ....    1
 Number of Electrons    NEL             ....  584
 Basis Dimension        Dim             .... 1188

ORBITAL ENERGIES
----------------

  NO   OCC          E(Eh)            E(eV)
   0   2.0000    -482.888735    -13140.0705
   1   2.0000    -482.883041    -13139.9156
   2   2.0000     -88.973726     -2421.0982
   3   2.0000     -88.972458     -2421.0637
   4   2.0000     -88.963323     -2420.8151
   5   2.0000     -88.960316     -2420.7333
   6   2.0000     -88.959556     -2420.7126
   7   2.0000     -88.959473     -2420.7103
   8   2.0000     -62.566259     -1702.5145
   9   2.0000     -62.560755     -1702.3647
  10   2.0000     -56.400180     -1534.7269
  11   2.0000     -56.397541     -1534.6551
  12   2.0000     -56.397464     -1534.6530
  13   2.0000     -56.394702     -1534.5779
  14   2.0000     -56.391993     -1534.5042
  15   2.0000     -56.391956     -1534.5031
  16   2.0000     -19.206417      -522.6332
  17   2.0000     -19.206211      -522.6276
  18   2.0000     -14.420400      -392.3990
  19   2.0000     -14.413388      -392.2082
  20   2.0000     -14.410330      -392.1250
  21   2.0000     -14.409802      -392.1106
  22   2.0000     -14.401496      -391.8846
  23   2.0000     -14.398797      -391.8112
  24   2.0000     -10.356624      -281.8181
  25   2.0000     -10.356565      -281.8165
  26   2.0000     -10.356272      -281.8085
  27   2.0000     -10.355559      -281.7891
  28   2.0000     -10.350362      -281.6477
  29   2.0000     -10.338254      -281.3182
  30   2.0000     -10.336098      -281.2595
  31   2.0000     -10.330753      -281.1141
  32   2.0000     -10.329391      -281.0770
  33   2.0000     -10.328718      -281.0587
  34   2.0000     -10.328346      -281.0486
  35   2.0000     -10.326713      -281.0041
  36   2.0000     -10.325945      -280.9833
  37   2.0000     -10.324655      -280.9481
  38   2.0000     -10.322940      -280.9015
  39   2.0000     -10.322010      -280.8762
  40   2.0000     -10.321416      -280.8600
  41   2.0000     -10.321090      -280.8511
  42   2.0000     -10.321076      -280.8507
  43   2.0000     -10.321067      -280.8505
  44   2.0000     -10.318499      -280.7806
  45   2.0000     -10.314501      -280.6718
  46   2.0000     -10.314229      -280.6644
  47   2.0000     -10.305600      -280.4296
  48   2.0000     -10.305288      -280.4211
  49   2.0000     -10.303337      -280.3681
  50   2.0000     -10.303305      -280.3672
  51   2.0000     -10.303189      -280.3640
  52   2.0000     -10.302683      -280.3503
  53   2.0000     -10.302430      -280.3434
  54   2.0000     -10.302240      -280.3382
  55   2.0000     -10.302039      -280.3327
  56   2.0000     -10.301999      -280.3316
  57   2.0000     -10.300823      -280.2996
  58   2.0000     -10.300791      -280.2988
  59   2.0000     -10.299866      -280.2736
  60   2.0000     -10.297483      -280.2088
  61   2.0000     -10.297209      -280.2013
  62   2.0000     -10.297115      -280.1987
  63   2.0000     -10.296764      -280.1892
  64   2.0000     -10.296497      -280.1819
  65   2.0000     -10.296305      -280.1767
  66   2.0000     -10.295670      -280.1594
  67   2.0000     -10.294905      -280.1386
  68   2.0000     -10.293794      -280.1084
  69   2.0000     -10.291903      -280.0569
  70   2.0000     -10.291462      -280.0449
  71   2.0000     -10.289184      -279.9829
  72   2.0000     -10.288939      -279.9763
  73   2.0000     -10.288695      -279.9696
  74   2.0000     -10.286301      -279.9045
  75   2.0000     -10.285738      -279.8892
  76   2.0000     -10.282743      -279.8077
  77   2.0000     -10.281010      -279.7605
  78   2.0000     -10.279718      -279.7254
  79   2.0000     -10.276784      -279.6455
  80   2.0000      -8.795631      -239.3413
  81   2.0000      -8.790176      -239.1928
  82   2.0000      -8.069239      -219.5752
  83   2.0000      -8.068440      -219.5534
  84   2.0000      -8.057516      -219.2562
  85   2.0000      -8.056389      -219.2255
  86   2.0000      -8.055235      -219.1941
  87   2.0000      -8.053374      -219.1434
  88   2.0000      -6.631754      -180.4592
  89   2.0000      -6.626466      -180.3153
  90   2.0000      -6.617500      -180.0713
  91   2.0000      -6.617226      -180.0639
  92   2.0000      -6.611903      -179.9190
  93   2.0000      -6.611736      -179.9145
  94   2.0000      -6.038954      -164.3283
  95   2.0000      -6.038104      -164.3052
  96   2.0000      -6.034613      -164.2102
  97   2.0000      -6.033873      -164.1900
  98   2.0000      -6.030566      -164.1000
  99   2.0000      -6.029682      -164.0760
 100   2.0000      -6.026982      -164.0025
 101   2.0000      -6.026011      -163.9761
 102   2.0000      -6.024765      -163.9422
 103   2.0000      -6.023336      -163.9033
 104   2.0000      -6.022795      -163.8886
 105   2.0000      -6.022035      -163.8679
 106   2.0000      -6.020694      -163.8314
 107   2.0000      -6.019298      -163.7934
 108   2.0000      -6.018823      -163.7805
 109   2.0000      -6.017383      -163.7413
 110   2.0000      -6.016552      -163.7187
 111   2.0000      -6.014477      -163.6623
 112   2.0000      -2.747617       -74.7664
 113   2.0000      -2.743679       -74.6593
 114   2.0000      -2.743518       -74.6549
 115   2.0000      -2.742336       -74.6227
 116   2.0000      -2.738248       -74.5115
 117   2.0000      -2.738115       -74.5079
 118   2.0000      -2.732159       -74.3458
 119   2.0000      -2.732135       -74.3452
 120   2.0000      -2.726550       -74.1932
 121   2.0000      -2.726536       -74.1928
 122   2.0000      -1.120222       -30.4828
 123   2.0000      -1.119155       -30.4538
 124   2.0000      -1.089573       -29.6488
 125   2.0000      -1.018403       -27.7121
 126   2.0000      -1.017555       -27.6891
 127   2.0000      -1.013203       -27.5706
 128   2.0000      -1.009650       -27.4740
 129   2.0000      -1.008076       -27.4311
 130   2.0000      -1.001925       -27.2638
 131   2.0000      -0.991146       -26.9705
 132   2.0000      -0.990089       -26.9417
 133   2.0000      -0.986480       -26.8435
 134   2.0000      -0.986274       -26.8379
 135   2.0000      -0.982697       -26.7405
 136   2.0000      -0.979157       -26.6442
 137   2.0000      -0.978362       -26.6226
 138   2.0000      -0.937938       -25.5226
 139   2.0000      -0.937235       -25.5035
 140   2.0000      -0.929409       -25.2905
 141   2.0000      -0.916278       -24.9332
 142   2.0000      -0.909110       -24.7381
 143   2.0000      -0.904332       -24.6081
 144   2.0000      -0.902593       -24.5608
 145   2.0000      -0.898511       -24.4497
 146   2.0000      -0.883703       -24.0468
 147   2.0000      -0.881221       -23.9792
 148   2.0000      -0.880600       -23.9623
 149   2.0000      -0.876807       -23.8591
 150   2.0000      -0.868073       -23.6215
 151   2.0000      -0.864510       -23.5245
 152   2.0000      -0.858931       -23.3727
 153   2.0000      -0.852336       -23.1933
 154   2.0000      -0.838978       -22.8298
 155   2.0000      -0.836705       -22.7679
 156   2.0000      -0.831680       -22.6312
 157   2.0000      -0.826141       -22.4804
 158   2.0000      -0.824513       -22.4361
 159   2.0000      -0.823116       -22.3981
 160   2.0000      -0.802096       -21.8261
 161   2.0000      -0.797209       -21.6932
 162   2.0000      -0.774687       -21.0803
 163   2.0000      -0.771891       -21.0042
 164   2.0000      -0.753219       -20.4961
 165   2.0000      -0.752140       -20.4668
 166   2.0000      -0.745576       -20.2881
 167   2.0000      -0.741163       -20.1681
 168   2.0000      -0.724510       -19.7149
 169   2.0000      -0.715749       -19.4765
 170   2.0000      -0.704186       -19.1619
 171   2.0000      -0.693874       -18.8813
 172   2.0000      -0.692536       -18.8449
 173   2.0000      -0.688073       -18.7234
 174   2.0000      -0.684385       -18.6231
 175   2.0000      -0.679076       -18.4786
 176   2.0000      -0.671577       -18.2745
 177   2.0000      -0.665248       -18.1023
 178   2.0000      -0.662666       -18.0321
 179   2.0000      -0.654389       -17.8068
 180   2.0000      -0.652022       -17.7424
 181   2.0000      -0.650210       -17.6931
 182   2.0000      -0.640298       -17.4234
 183   2.0000      -0.636386       -17.3169
 184   2.0000      -0.631358       -17.1801
 185   2.0000      -0.628466       -17.1014
 186   2.0000      -0.622067       -16.9273
 187   2.0000      -0.620992       -16.8980
 188   2.0000      -0.619542       -16.8586
 189   2.0000      -0.617311       -16.7979
 190   2.0000      -0.614108       -16.7107
 191   2.0000      -0.596897       -16.2424
 192   2.0000      -0.592243       -16.1157
 193   2.0000      -0.591306       -16.0902
 194   2.0000      -0.588841       -16.0232
 195   2.0000      -0.587676       -15.9915
 196   2.0000      -0.579473       -15.7682
 197   2.0000      -0.572511       -15.5788
 198   2.0000      -0.570368       -15.5205
 199   2.0000      -0.558382       -15.1943
 200   2.0000      -0.554207       -15.0807
 201   2.0000      -0.545577       -14.8459
 202   2.0000      -0.543739       -14.7959
 203   2.0000      -0.541894       -14.7457
 204   2.0000      -0.540282       -14.7018
 205   2.0000      -0.538217       -14.6456
 206   2.0000      -0.536684       -14.6039
 207   2.0000      -0.534271       -14.5383
 208   2.0000      -0.532461       -14.4890
 209   2.0000      -0.528951       -14.3935
 210   2.0000      -0.528037       -14.3686
 211   2.0000      -0.523444       -14.2436
 212   2.0000      -0.521070       -14.1790
 213   2.0000      -0.518945       -14.1212
 214   2.0000      -0.516679       -14.0595
 215   2.0000      -0.513386       -13.9700
 216   2.0000      -0.510755       -13.8983
 217   2.0000      -0.510026       -13.8785
 218   2.0000      -0.507590       -13.8122
 219   2.0000      -0.505568       -13.7572
 220   2.0000      -0.505051       -13.7431
 221   2.0000      -0.502229       -13.6663
 222   2.0000      -0.499038       -13.5795
 223   2.0000      -0.498616       -13.5680
 224   2.0000      -0.496293       -13.5048
 225   2.0000      -0.492102       -13.3908
 226   2.0000      -0.491375       -13.3710
 227   2.0000      -0.487782       -13.2732
 228   2.0000      -0.486030       -13.2256
 229   2.0000      -0.485128       -13.2010
 230   2.0000      -0.483934       -13.1685
 231   2.0000      -0.478905       -13.0317
 232   2.0000      -0.475548       -12.9403
 233   2.0000      -0.473316       -12.8796
 234   2.0000      -0.469258       -12.7692
 235   2.0000      -0.466077       -12.6826
 236   2.0000      -0.464343       -12.6354
 237   2.0000      -0.462263       -12.5788
 238   2.0000      -0.458319       -12.4715
 239   2.0000      -0.454063       -12.3557
 240   2.0000      -0.450582       -12.2610
 241   2.0000      -0.448254       -12.1976
 242   2.0000      -0.447016       -12.1639
 243   2.0000      -0.445783       -12.1304
 244   2.0000      -0.442406       -12.0385
 245   2.0000      -0.441605       -12.0167
 246   2.0000      -0.439682       -11.9644
 247   2.0000      -0.438731       -11.9385
 248   2.0000      -0.438446       -11.9307
 249   2.0000      -0.437178       -11.8962
 250   2.0000      -0.435738       -11.8570
 251   2.0000      -0.434686       -11.8284
 252   2.0000      -0.434198       -11.8151
 253   2.0000      -0.430635       -11.7182
 254   2.0000      -0.426500       -11.6057
 255   2.0000      -0.422831       -11.5058
 256   2.0000      -0.420418       -11.4401
 257   2.0000      -0.418450       -11.3866
 258   2.0000      -0.414547       -11.2804
 259   2.0000      -0.411778       -11.2051
 260   2.0000      -0.410685       -11.1753
 261   2.0000      -0.405520       -11.0348
 262   2.0000      -0.404874       -11.0172
 263   2.0000      -0.402683       -10.9576
 264   2.0000      -0.396691       -10.7945
 265   2.0000      -0.393487       -10.7073
 266   2.0000      -0.389411       -10.5964
 267   2.0000      -0.386038       -10.5046
 268   2.0000      -0.382612       -10.4114
 269   2.0000      -0.377659       -10.2766
 270   2.0000      -0.377161       -10.2631
 271   2.0000      -0.375282       -10.2119
 272   2.0000      -0.372549       -10.1376
 273   2.0000      -0.365408        -9.9433
 274   2.0000      -0.355576        -9.6757
 275   2.0000      -0.354314        -9.6414
 276   2.0000      -0.340842        -9.2748
 277   2.0000      -0.339654        -9.2424
 278   2.0000      -0.336791        -9.1645
 279   2.0000      -0.333083        -9.0636
 280   2.0000      -0.331003        -9.0071
 281   2.0000      -0.328542        -8.9401
 282   2.0000      -0.326854        -8.8942
 283   2.0000      -0.319391        -8.6911
 284   2.0000      -0.312065        -8.4917
 285   2.0000      -0.308280        -8.3887
 286   2.0000      -0.299000        -8.1362
 287   2.0000      -0.293184        -7.9779
 288   2.0000      -0.286031        -7.7833
 289   2.0000      -0.283139        -7.7046
 290   2.0000      -0.235234        -6.4010
 291   2.0000      -0.233064        -6.3420
 292   0.0000      -0.110612        -3.0099
 293   0.0000      -0.106858        -2.9077
 294   0.0000      -0.065532        -1.7832
 295   0.0000      -0.058416        -1.5896
 296   0.0000      -0.052293        -1.4230

MULLIKEN ATOMIC CHARGES
-----------------------
   0 C :    0.321902
   1 C :   -0.363659
   2 C :   -0.212398
   3 N :    0.140010
   4 C :   -0.201561
   5 N :    0.138577
   6 C :    0.011669
   7 C :   -0.018540
   8 C :   -0.083701
   9 C :    0.119663
  10 C :   -0.090982
  11 C :   -0.037780
  12 S :    0.181139
  13 C :   -0.122722
  14 C :    0.033529
  15 Br:    0.020149
  16 C :    0.137142
  17 O :   -0.168203
  18 C :   -0.057019
  19 C :   -0.075190
  20 C :    0.001129
  21 C :    0.009005
  22 C :    0.024330
  23 C :    0.068354
  24 C :   -0.072223
  25 S :    0.102897
  26 C :   -0.013514
  27 C :    0.041981
  28 C :    0.074350
  29 C :    0.010349
  30 S :    0.124088
  31 C :    0.011113
  32 C :   -0.027872
  33 N :   -0.076827
  34 C :    0.084933
  35 C :   -0.048351
  36 C :    0.077408
  37 N :   -0.115090
  38 C :   -0.018177
  39 C :    0.056819
  40 C :    0.014236
  41 C :   -0.004021
  42 C :    0.042301
  43 C :    0.059239
  44 C :   -0.055369
  45 S :    0.105970
  46 C :   -0.056828
  47 C :    0.050503
  48 C :    0.073705
  49 C :   -0.026996
  50 S :    0.094047
  51 C :    0.015295
  52 C :    0.014226
  53 C :   -0.131319
  54 C :    0.254936
  55 C :   -0.352565
  56 C :   -0.186832
  57 N :    0.152796
  58 C :   -0.202178
  59 N :    0.164024
  60 C :    0.005771
  61 C :    0.024034
  62 C :    0.129730
  63 O :   -0.159165
  64 C :   -0.121645
  65 C :    0.115449
  66 C :   -0.079721
  67 C :   -0.027712
  68 S :    0.189253
  69 C :   -0.140060
  70 C :    0.037980
  71 Br:    0.013932
  72 H :   -0.015297
  73 H :   -0.010516
  74 H :   -0.003809
  75 H :    0.021843
  76 H :    0.016290
  77 H :    0.008231
  78 H :   -0.000803
  79 H :   -0.011433
  80 H :   -0.003984
  81 H :   -0.006111
  82 H :    0.009280
  83 H :   -0.002114
  84 H :   -0.014317
  85 H :    0.023350
  86 H :   -0.003371
  87 H :    0.008861
  88 H :    0.002254
  89 H :   -0.006849
  90 H :   -0.002355
  91 H :    0.002993
  92 H :    0.021395
  93 H :   -0.016789
  94 H :   -0.006597
  95 H :   -0.009895
Sum of atomic charges:   -0.0000000

LOEWDIN ATOMIC CHARGES
----------------------
   0 C :    0.069753
   1 C :   -0.164592
   2 C :   -0.021334
   3 N :   -0.076725
   4 C :   -0.022719
   5 N :   -0.068711
   6 C :   -0.022343
   7 C :   -0.050991
   8 C :    0.015513
   9 C :   -0.035917
  10 C :   -0.147461
  11 C :   -0.017178
  12 S :    0.428851
  13 C :   -0.273908
  14 C :   -0.070733
  15 Br:    0.133290
  16 C :    0.080486
  17 O :   -0.161042
  18 C :   -0.114998
  19 C :    0.047226
  20 C :   -0.078898
  21 C :   -0.101091
  22 C :   -0.039818
  23 C :    0.001459
  24 C :   -0.190399
  25 S :    0.422781
  26 C :   -0.149148
  27 C :   -0.025529
  28 C :   -0.007680
  29 C :   -0.127774
  30 S :    0.431547
  31 C :   -0.045028
  32 C :    0.023929
  33 N :   -0.089430
  34 C :    0.050073
  35 C :   -0.059161
  36 C :    0.038805
  37 N :   -0.109708
  38 C :   -0.030151
  39 C :    0.015595
  40 C :   -0.019346
  41 C :   -0.133707
  42 C :   -0.002599
  43 C :   -0.027387
  44 C :   -0.144371
  45 S :    0.408164
  46 C :   -0.192462
  47 C :   -0.022532
  48 C :   -0.017349
  49 C :   -0.107291
  50 S :    0.483629
  51 C :   -0.061561
  52 C :    0.033880
  53 C :   -0.114010
  54 C :    0.029678
  55 C :   -0.164214
  56 C :   -0.022001
  57 N :   -0.065135
  58 C :   -0.026362
  59 N :   -0.056319
  60 C :   -0.006555
  61 C :   -0.051026
  62 C :    0.082279
  63 O :   -0.159049
  64 C :    0.007171
  65 C :   -0.043768
  66 C :   -0.142229
  67 C :   -0.017489
  68 S :    0.439491
  69 C :   -0.278835
  70 C :   -0.073082
  71 Br:    0.131044
  72 H :    0.038853
  73 H :    0.039519
  74 H :    0.038284
  75 H :    0.026831
  76 H :    0.038703
  77 H :    0.041374
  78 H :    0.035596
  79 H :    0.031216
  80 H :    0.034012
  81 H :    0.041377
  82 H :    0.028034
  83 H :    0.034357
  84 H :    0.031000
  85 H :    0.025747
  86 H :    0.038630
  87 H :    0.042409
  88 H :    0.037817
  89 H :    0.034646
  90 H :    0.038688
  91 H :    0.043754
  92 H :    0.044775
  93 H :    0.035763
  94 H :    0.040271
  95 H :    0.034848

  Mayer bond orders larger than 0.100000
B(  0-C ,  1-C ) :   1.5660 B(  0-C ,  6-C ) :   0.9890 B(  0-C , 18-C ) :   1.1310
B(  1-C ,  2-C ) :   1.1546 B(  1-C ,  4-C ) :   1.1579 B(  2-C ,  3-N ) :   2.9554
B(  4-C ,  5-N ) :   2.9159 B(  6-C ,  7-C ) :   1.2700 B(  6-C , 11-C ) :   1.4159
B(  7-C ,  8-C ) :   1.4299 B(  7-C , 16-C ) :   0.9327 B(  8-C ,  9-C ) :   1.2332
B(  8-C , 72-H ) :   1.0189 B(  9-C , 10-C ) :   1.3165 B(  9-C , 14-C ) :   1.1608
B( 10-C , 11-C ) :   1.3154 B( 10-C , 12-S ) :   1.0846 B( 11-C , 73-H ) :   0.9826
B( 12-S , 13-C ) :   1.0858 B( 13-C , 14-C ) :   1.6185 B( 13-C , 15-Br) :   1.0165
B( 14-C , 74-H ) :   1.0014 B( 16-C , 17-O ) :   2.1740 B( 16-C , 18-C ) :   0.9661
B( 18-C , 19-C ) :   1.4358 B( 19-C , 20-C ) :   1.2962 B( 19-C , 75-H ) :   0.9406
B( 20-C , 21-C ) :   1.3844 B( 20-C , 76-H ) :   0.9844 B( 21-C , 22-C ) :   1.1732
B( 21-C , 25-S ) :   1.1025 B( 22-C , 23-C ) :   1.5398 B( 22-C , 77-H ) :   1.0039
B( 23-C , 24-C ) :   1.2036 B( 23-C , 78-H ) :   0.9874 B( 24-C , 25-S ) :   1.0451
B( 24-C , 26-C ) :   1.4953 B( 26-C , 27-C ) :   1.1806 B( 26-C , 30-S ) :   1.0286
B( 27-C , 28-C ) :   1.6162 B( 27-C , 79-H ) :   0.9862 B( 28-C , 29-C ) :   1.1169
B( 28-C , 80-H ) :   0.9939 B( 29-C , 30-S ) :   1.0411 B( 29-C , 31-C ) :   1.5992
B( 31-C , 32-C ) :   1.0680 B( 31-C , 81-H ) :   0.9788 B( 32-C , 33-N ) :   1.5046
B( 32-C , 37-N ) :   1.4670 B( 33-N , 34-C ) :   1.5458 B( 34-C , 35-C ) :   1.3678
B( 34-C , 82-H ) :   0.9797 B( 35-C , 36-C ) :   1.3221 B( 35-C , 83-H ) :   0.9763
B( 36-C , 37-N ) :   1.4937 B( 36-C , 38-C ) :   1.0778 B( 38-C , 39-C ) :   1.6650
B( 38-C , 84-H ) :   0.9768 B( 39-C , 40-C ) :   1.1270 B( 39-C , 85-H ) :   0.9697
B( 40-C , 41-C ) :   1.5821 B( 40-C , 86-H ) :   0.9829 B( 41-C , 42-C ) :   1.1279
B( 41-C , 45-S ) :   1.0218 B( 42-C , 43-C ) :   1.5913 B( 42-C , 87-H ) :   1.0031
B( 43-C , 44-C ) :   1.1798 B( 43-C , 88-H ) :   0.9919 B( 44-C , 45-S ) :   1.0977
B( 44-C , 46-C ) :   1.4806 B( 46-C , 47-C ) :   1.1794 B( 46-C , 50-S ) :   1.0463
B( 47-C , 48-C ) :   1.5619 B( 47-C , 89-H ) :   0.9991 B( 48-C , 49-C ) :   1.1730
B( 48-C , 90-H ) :   0.9958 B( 49-C , 50-S ) :   1.1163 B( 49-C , 51-C ) :   1.4382
B( 51-C , 52-C ) :   1.3302 B( 51-C , 91-H ) :   0.9554 B( 52-C , 53-C ) :   1.4535
B( 52-C , 92-H ) :   0.9364 B( 53-C , 54-C ) :   1.1313 B( 53-C , 62-C ) :   0.9741
B( 54-C , 55-C ) :   1.5533 B( 54-C , 60-C ) :   0.9915 B( 55-C , 56-C ) :   1.1507
B( 55-C , 58-C ) :   1.1712 B( 56-C , 57-N ) :   2.9924 B( 58-C , 59-N ) :   3.0066
B( 60-C , 61-C ) :   1.2879 B( 60-C , 67-C ) :   1.4322 B( 61-C , 62-C ) :   0.9107
B( 61-C , 64-C ) :   1.4176 B( 62-C , 63-O ) :   2.2412 B( 64-C , 65-C ) :   1.2340
B( 64-C , 93-H ) :   1.0177 B( 65-C , 66-C ) :   1.3312 B( 65-C , 70-C ) :   1.1505
B( 66-C , 67-C ) :   1.3001 B( 66-C , 68-S ) :   1.0839 B( 67-C , 94-H ) :   0.9858
B( 68-S , 69-C ) :   1.0897 B( 69-C , 70-C ) :   1.6163 B( 69-C , 71-Br) :   1.0099
B( 70-C , 95-H ) :   1.0024

-----------------------------------------------------------------------------
         ABSORPTION SPECTRUM VIA TRANSITION ELECTRIC DIPOLE MOMENTS
-----------------------------------------------------------------------------
State   Energy  Wavelength   fosc         T2         TX        TY        TZ
        (cm-1)    (nm)                  (au**2)     (au)      (au)      (au)
-----------------------------------------------------------------------------
   0   10207.3    979.7   0.003130567   0.10097   0.23989   0.03493  -0.20543
   1   10832.4    923.2   0.028410165   0.86342  -0.36856  -0.10470  -0.84654
   2   12148.7    823.1   0.563289789  15.26429  -3.89983  -0.23185   0.04284
   3   13284.5    752.8   0.566075202  14.02831  -0.59812  -2.20425  -2.96848
   4   20608.5    485.2   0.027565810   0.44035   0.62361   0.22565  -0.02346
   5   20992.6    476.4   0.059492696   0.93298  -0.72476   0.46531   0.43726
   6   21458.0    466.0   0.040827430   0.62638  -0.05102  -0.61261  -0.49849
   7   21873.7    457.2   0.043181696   0.64991  -0.24699  -0.59017  -0.49051
   8   22106.8    452.4   0.013931488   0.20747  -0.01772  -0.34733  -0.29413
   9   22532.0    443.8   0.045265870   0.66137  -0.73486   0.30373   0.17059
  10   22692.3    440.7   0.076553266   1.11061  -0.54375  -0.90224   0.03009
  11   23183.4    431.3   0.044804246   0.63623   0.51386   0.59439   0.13740
  12   23406.6    427.2   0.099421959   1.39836   0.49202   0.86160   0.64336
  13   23841.0    419.4   0.351318623   4.85124   1.96050   0.44321   0.90069
  14   24712.9    404.6   0.094129573   1.25394  -0.90129   0.43751   0.50020
  15   25382.6    394.0   0.132185435   1.71444   0.04088  -0.97299  -0.87525
  16   25514.8    391.9   0.048738538   0.62886  -0.06376  -0.67621  -0.40931
  17   25780.9    387.9   0.140520886   1.79440  -1.14456   0.62387   0.30850
  18   26561.7    376.5   0.937438695  11.61884   2.90291   0.70848   1.64012
  19   26774.3    373.5   0.198029499   2.43493   1.36437   0.31702   0.68770
  20   27479.2    363.9   0.236033650   2.82778   0.10073   1.37130   0.96807
  21   27786.8    359.9   0.004034566   0.04780  -0.05015  -0.18968  -0.09649
  22   28115.7    355.7   0.000712760   0.00835   0.00509   0.04351   0.08017
  23   28192.0    354.7   0.023945607   0.27963  -0.20522  -0.42524  -0.23808
  24   28955.3    345.4   0.029143301   0.33135  -0.37156  -0.34715   0.26978
  25   29308.0    341.2   0.011616007   0.13048   0.31499  -0.15602   0.08320
  26   29328.7    341.0   0.003288427   0.03691   0.09018  -0.07187  -0.15367
  27   29808.0    335.5   0.014004991   0.15468   0.17380  -0.20757  -0.28528
  28   29968.2    333.7   0.012081087   0.13272   0.30607  -0.17850   0.08468
  29   30410.5    328.8   0.014355347   0.15541   0.38882  -0.06387  -0.01197
  30   30461.4    328.3   0.064425149   0.69628  -0.53819   0.63058   0.09485
  31   30688.3    325.9   0.000760196   0.00816   0.04384  -0.05794   0.05363
  32   30719.0    325.5   0.019799285   0.21219  -0.42040   0.18721   0.02015
  33   30888.2    323.7   0.029938458   0.31909   0.22900   0.50311   0.11632
  34   31249.6    320.0   0.009592534   0.10106  -0.17503  -0.22092  -0.14702
  35   31325.3    319.2   0.259908519   2.73149  -1.07703  -0.65260  -1.07034
  36   31405.6    318.4   0.106158395   1.11281   0.65167   0.48421   0.67356
  37   31681.0    315.6   0.052274644   0.54321   0.19819  -0.40389  -0.58378
  38   31769.0    314.8   0.120683487   1.25060  -1.05382   0.23282  -0.29303
  39   32318.8    309.4   0.059747089   0.60861  -0.73505  -0.23071  -0.12279
  40   32512.9    307.6   0.392428043   3.97356  -1.50765   0.23268  -1.28313
  41   32602.8    306.7   0.627018792   6.33141   1.81390   0.35612   1.70715
  42   32917.6    303.8   0.030534536   0.30538  -0.51182  -0.11607  -0.17305
  43   33243.1    300.8   0.065445106   0.64811   0.07198   0.65615   0.46086
  44   33485.6    298.6   0.013705999   0.13475   0.16883   0.25743   0.19994
  45   33590.7    297.7   0.005993344   0.05874  -0.10588   0.00567   0.21794
  46   33797.6    295.9   0.030903295   0.30102   0.00270  -0.51706  -0.18347
  47   33940.9    294.6   0.009458406   0.09174   0.14385   0.26647  -0.00631
  48   34369.9    291.0   0.131608397   1.26061  -0.69139  -0.18972  -0.86406
  49   34500.4    289.9   0.032047567   0.30581  -0.08411  -0.49250  -0.23702
  50   34594.1    289.1   0.066612938   0.63392  -0.39570  -0.56627  -0.39583
  51   34756.6    287.7   0.012175735   0.11533  -0.20466   0.27100  -0.00049
  52   35057.6    285.2   0.043524882   0.40872  -0.37905   0.16763  -0.48677
  53   35367.7    282.7   0.024215530   0.22540   0.05768   0.36948   0.29251
  54   35498.3    281.7   0.137036458   1.27088  -0.83296   0.65474  -0.38519
  55   35711.6    280.0   0.062617316   0.57725   0.40149  -0.64429   0.03063
  56   35951.6    278.2   0.001357447   0.01243   0.05382   0.07426  -0.06340
  57   36182.1    276.4   0.191726488   1.74447  -0.64224   0.91326   0.70566
  58   36438.7    274.4   0.078797579   0.71191  -0.22188   0.77233   0.25726
  59   36577.0    273.4   0.019577149   0.17620  -0.00083  -0.34115   0.24458
  60   36913.3    270.9   0.047542677   0.42401  -0.46267   0.27866  -0.36373
  61   37093.7    269.6   0.066914537   0.59388   0.24232  -0.67126  -0.29081
  62   37352.4    267.7   0.021230077   0.18711  -0.09001   0.39513  -0.15127
  63   37440.7    267.1   0.009403949   0.08269  -0.03395   0.26322   0.11069
  64   37648.9    265.6   0.093515532   0.81773   0.55629  -0.66696  -0.25184
  65   37757.5    264.8   0.020777636   0.18116   0.05385  -0.32514  -0.26934
  66   38059.6    262.7   0.002064465   0.01786  -0.06226   0.11806   0.00651
  67   38119.9    262.3   0.022468104   0.19404  -0.14231  -0.32087  -0.26614
  68   38584.8    259.2   0.018205042   0.15533   0.32365  -0.22488  -0.00201
  69   38752.3    258.0   0.097117640   0.82504   0.82165   0.25830   0.28847
  70   38948.0    256.8   0.021668064   0.18315  -0.30129  -0.09467  -0.28882
  71   39199.5    255.1   0.039557711   0.33222  -0.09785  -0.35906  -0.44014
  72   39505.1    253.1   0.011476626   0.09564   0.23282  -0.13770  -0.14991
  73   39605.4    252.5   0.026192216   0.21772   0.16014   0.34974   0.26411
  74   39729.0    251.7   0.131811550   1.09225  -0.63667   0.48966  -0.66868
  75   40008.2    249.9   0.068029148   0.55979   0.01989   0.56430   0.49087
  76   40045.0    249.7   0.024934738   0.20499   0.36310  -0.25719   0.08368
  77   40322.9    248.0   0.038891102   0.31752  -0.10181  -0.00019   0.55422

FINAL SINGLE POINT ENERGY    -10160.213297238224

DIPOLE MOMENT
-------------
                                X             Y             Z
Electronic contribution:     33.41582      12.14264      17.37313
Nuclear contribution   :    -33.80227     -11.96526     -19.46364
                        -----------------------------------------
Total Dipole Moment    :     -0.38646       0.17738      -2.09050
                        -----------------------------------------
Magnitude (a.u.)       :      2.13331
Magnitude (Debye)      :      5.42244

Rotational constants in cm-1:     0.001637     0.000417     0.000367
Rotational constants in MHz :    49.066354    12.504865    10.997314

                             ****ORCA TERMINATED NORMALLY****
TOTAL RUN TIME: 0 days 0 hours 13 minutes 1 seconds 480 msec
