                         Program Version 4.2.0 -  RELEASE  -
|  1> # ORCA input file
|  2> # SCF done       -193.109549439135          0.000360164020
|  3> ! CAM-B3LYP def2-SVP def2/J RIJCOSX Grid4 TightSCF
|  4> %maxcore 5000
|  5> %tddft
|  6>     Mode sTDDFT
|  7>     Ethresh 5.0
|  8>     maxcore 5000
|  9> end
| 10>
| 11> %pal
| 12>   nprocs 6
| 13>   end
| 14> * xyz 0 1
| 15>    C        1.21658        -1.54367        -3.04865
| 16>    C        2.30999        -1.71724        -3.84741
| 17>    C        3.62824        -1.87932        -3.36614
| 18>    N        4.71729        -2.01384        -3.03142
| 19>    C        2.27840        -1.74039        -5.25981
| 20>    N        2.33328        -1.76156        -6.40554
| 21>    C        1.21028        -1.48438        -1.59475
| 22>    C       -0.10691        -1.21679        -1.14056
| 23>    C       -0.42086        -1.10133         0.19278
| 24>    C        0.60958        -1.26025         1.12411
| 25>    C        1.92196        -1.53025         0.66238
| 26>    C        2.24087        -1.64470        -0.68356
| 27>    S        3.04144        -1.69371         1.98066
| 28>    C        1.75218        -1.40118         3.11769
| 29>    C        0.54373        -1.19157         2.54202
| 30>   Br        2.12252        -1.39980         4.95496
| 31>    C       -1.01366        -1.09914        -2.29587
| 32>    O       -2.19408        -0.84412        -2.28402
| 33>    C       -0.16285        -1.35749        -3.49814
| 34>    C       -0.67625        -1.42576        -4.73390
| 35>    C       -2.12319        -1.23778        -4.96104
| 36>    N       -2.88317        -2.32434        -4.86996
| 37>    C       -4.18625        -2.14089        -5.01860
| 38>    C       -4.73835        -0.89653        -5.25386
| 39>    C       -3.84711         0.17774        -5.38296
| 40>    N       -2.52982        -0.01686        -5.24537
| 41>    C       -4.31478         1.51607        -5.64430
| 42>    C       -3.45314         2.54252        -5.82929
| 43>    C       -3.74050         3.91540        -6.01499
| 44>    S       -2.41751         5.02260        -5.83449
| 45>    C       -3.43205         6.42653        -5.91868
| 46>    C       -4.76322         6.04265        -6.19361
| 47>    C       -4.93376         4.62348        -6.25787
| 48>    C       -6.19215         4.09698        -6.60409
| 49>    C       -7.23010         4.94946        -6.85543
| 50>    F       -8.42800         4.45226        -7.19870
| 51>    C       -7.05640         6.34729        -6.80102
| 52>    F       -8.09055         7.14805        -7.09721
| 53>    C       -5.84213         6.89304        -6.48931
| 54>    C       -2.87168         7.69253        -5.68125
| 55>    C       -3.54816         8.78195        -5.19332
| 56>    C       -2.96550        10.03087        -4.97383
| 57>    C       -3.60062        11.05784        -4.30619
| 58>    C       -3.11295        12.35921        -4.05926
| 59>    C       -3.95134        13.13848        -3.31396
| 60>    C       -5.13631        12.48315        -2.92154
| 61>    S       -5.17980        10.86385        -3.56521
| 62>    C       -6.14706        12.95589        -2.09624
| 63>    C       -6.25528        14.22084        -1.48587
| 64>    C       -7.34597        14.34438        -0.67258
| 65>    C       -8.14236        13.18125        -0.59611
| 66>    S       -7.48528        11.93436        -1.62710
| 67>    C       -9.27025        12.99906         0.18382
| 68>    C       -9.95395        11.79158         0.25549
| 69>    C      -11.05677        11.46557         1.01615
| 70>    C      -11.32901        10.03388         1.28545
| 71>    O      -10.81923         9.08098         0.73502
| 72>    C      -12.29956        10.02176         2.39747
| 73>    C      -12.79719         8.95895         3.09241
| 74>    C      -13.68829         9.19264         4.16448
| 75>    C      -14.04290        10.53225         4.49508
| 76>    C      -14.92073        10.75979         5.57227
| 77>    C      -15.41362         9.69449         6.27336
| 78>    C      -15.07918         8.37019         5.96229
| 79>    C      -14.22744         8.13164         4.91943
| 80>    F      -16.25206         9.91082         7.30499
| 81>    C      -13.51862        11.61460         3.74810
| 82>    C      -12.66345        11.36267         2.71103
| 83>    C      -11.98974        12.25782         1.76700
| 84>    C      -12.34902        13.56623         1.53676
| 85>    C      -11.89949        14.33814         0.44820
| 86>    N      -11.60389        15.00437        -0.43990
| 87>    C      -13.29894        14.26602         2.30538
| 88>    N      -14.04624        14.89721         2.90789
| 89>    H       -1.43252        -0.89632         0.50604
| 90>    H        3.25389        -1.85329        -0.98472
| 91>    H       -0.35775        -0.99712         3.09376
| 92>    H       -0.07355        -1.63305        -5.60660
| 93>    H       -4.79501        -3.03221        -4.93737
| 94>    H       -5.80316        -0.75617        -5.34446
| 95>    H       -5.38440         1.64855        -5.63515
| 96>    H       -2.40058         2.29263        -5.76950
| 97>    H       -6.34830         3.03912        -6.71904
| 98>    H       -5.72472         7.96286        -6.51549
| 99>    H       -1.79965         7.77243        -5.81208
|100>    H       -4.58004         8.66741        -4.89133
|101>    H       -1.96023        10.21131        -5.33068
|102>    H       -2.15861        12.68243        -4.43597
|103>    H       -3.73982        14.15296        -3.02834
|104>    H       -5.53479        15.00094        -1.65385
|105>    H       -7.59935        15.23311        -0.12288
|106>    H       -9.57942        13.83816         0.78887
|107>    H       -9.51854        10.94868        -0.27510
|108>    H      -12.51230         7.95082         2.83090
|109>    H      -15.20293        11.76648         5.83847
|110>    H      -15.49922         7.56982         6.55060
|111>    H      -13.95406         7.11977         4.66014
|112>    H      -13.80171        12.61729         4.02624
|113> *
|114>
|115>                          ****END OF INPUT****

CARTESIAN COORDINATES (ANGSTROEM)
---------------------------------
  C      1.216580   -1.543670   -3.048650
  C      2.309990   -1.717240   -3.847410
  C      3.628240   -1.879320   -3.366140
  N      4.717290   -2.013840   -3.031420
  C      2.278400   -1.740390   -5.259810
  N      2.333280   -1.761560   -6.405540
  C      1.210280   -1.484380   -1.594750
  C     -0.106910   -1.216790   -1.140560
  C     -0.420860   -1.101330    0.192780
  C      0.609580   -1.260250    1.124110
  C      1.921960   -1.530250    0.662380
  C      2.240870   -1.644700   -0.683560
  S      3.041440   -1.693710    1.980660
  C      1.752180   -1.401180    3.117690
  C      0.543730   -1.191570    2.542020
  Br     2.122520   -1.399800    4.954960
  C     -1.013660   -1.099140   -2.295870
  O     -2.194080   -0.844120   -2.284020
  C     -0.162850   -1.357490   -3.498140
  C     -0.676250   -1.425760   -4.733900
  C     -2.123190   -1.237780   -4.961040
  N     -2.883170   -2.324340   -4.869960
  C     -4.186250   -2.140890   -5.018600
  C     -4.738350   -0.896530   -5.253860
  C     -3.847110    0.177740   -5.382960
  N     -2.529820   -0.016860   -5.245370
  C     -4.314780    1.516070   -5.644300
  C     -3.453140    2.542520   -5.829290
  C     -3.740500    3.915400   -6.014990
  S     -2.417510    5.022600   -5.834490
  C     -3.432050    6.426530   -5.918680
  C     -4.763220    6.042650   -6.193610
  C     -4.933760    4.623480   -6.257870
  C     -6.192150    4.096980   -6.604090
  C     -7.230100    4.949460   -6.855430
  F     -8.428000    4.452260   -7.198700
  C     -7.056400    6.347290   -6.801020
  F     -8.090550    7.148050   -7.097210
  C     -5.842130    6.893040   -6.489310
  C     -2.871680    7.692530   -5.681250
  C     -3.548160    8.781950   -5.193320
  C     -2.965500   10.030870   -4.973830
  C     -3.600620   11.057840   -4.306190
  C     -3.112950   12.359210   -4.059260
  C     -3.951340   13.138480   -3.313960
  C     -5.136310   12.483150   -2.921540
  S     -5.179800   10.863850   -3.565210
  C     -6.147060   12.955890   -2.096240
  C     -6.255280   14.220840   -1.485870
  C     -7.345970   14.344380   -0.672580
  C     -8.142360   13.181250   -0.596110
  S     -7.485280   11.934360   -1.627100
  C     -9.270250   12.999060    0.183820
  C     -9.953950   11.791580    0.255490
  C    -11.056770   11.465570    1.016150
  C    -11.329010   10.033880    1.285450
  O    -10.819230    9.080980    0.735020
  C    -12.299560   10.021760    2.397470
  C    -12.797190    8.958950    3.092410
  C    -13.688290    9.192640    4.164480
  C    -14.042900   10.532250    4.495080
  C    -14.920730   10.759790    5.572270
  C    -15.413620    9.694490    6.273360
  C    -15.079180    8.370190    5.962290
  C    -14.227440    8.131640    4.919430
  F    -16.252060    9.910820    7.304990
  C    -13.518620   11.614600    3.748100
  C    -12.663450   11.362670    2.711030
  C    -11.989740   12.257820    1.767000
  C    -12.349020   13.566230    1.536760
  C    -11.899490   14.338140    0.448200
  N    -11.603890   15.004370   -0.439900
  C    -13.298940   14.266020    2.305380
  N    -14.046240   14.897210    2.907890
  H     -1.432520   -0.896320    0.506040
  H      3.253890   -1.853290   -0.984720
  H     -0.357750   -0.997120    3.093760
  H     -0.073550   -1.633050   -5.606600
  H     -4.795010   -3.032210   -4.937370
  H     -5.803160   -0.756170   -5.344460
  H     -5.384400    1.648550   -5.635150
  H     -2.400580    2.292630   -5.769500
  H     -6.348300    3.039120   -6.719040
  H     -5.724720    7.962860   -6.515490
  H     -1.799650    7.772430   -5.812080
  H     -4.580040    8.667410   -4.891330
  H     -1.960230   10.211310   -5.330680
  H     -2.158610   12.682430   -4.435970
  H     -3.739820   14.152960   -3.028340
  H     -5.534790   15.000940   -1.653850
  H     -7.599350   15.233110   -0.122880
  H     -9.579420   13.838160    0.788870
  H     -9.518540   10.948680   -0.275100
  H    -12.512300    7.950820    2.830900
  H    -15.202930   11.766480    5.838470
  H    -15.499220    7.569820    6.550600
  H    -13.954060    7.119770    4.660140
  H    -13.801710   12.617290    4.026240

 Total Charge           Charge          ....    0
 Multiplicity           Mult            ....    1
 Number of Electrons    NEL             ....  556
 Basis Dimension        Dim             .... 1190

ORBITAL ENERGIES
----------------

  NO   OCC          E(Eh)            E(eV)
   0   2.0000    -482.892108    -13140.1623
   1   2.0000     -88.985279     -2421.4125
   2   2.0000     -88.983303     -2421.3588
   3   2.0000     -88.966970     -2420.9143
   4   2.0000     -88.961612     -2420.7685
   5   2.0000     -62.569852     -1702.6122
   6   2.0000     -56.403809     -1534.8257
   7   2.0000     -56.401076     -1534.7513
   8   2.0000     -56.401049     -1534.7506
   9   2.0000     -24.796987      -674.7603
  10   2.0000     -24.796428      -674.7451
  11   2.0000     -24.775529      -674.1764
  12   2.0000     -19.226063      -523.1678
  13   2.0000     -19.195089      -522.3249
  14   2.0000     -14.425388      -392.5348
  15   2.0000     -14.424763      -392.5178
  16   2.0000     -14.413169      -392.2023
  17   2.0000     -14.409817      -392.1111
  18   2.0000     -14.399140      -391.8205
  19   2.0000     -14.397757      -391.7829
  20   2.0000     -10.380222      -282.4602
  21   2.0000     -10.379704      -282.4461
  22   2.0000     -10.375359      -282.3279
  23   2.0000     -10.366819      -282.0955
  24   2.0000     -10.357975      -281.8548
  25   2.0000     -10.354459      -281.7591
  26   2.0000     -10.352552      -281.7073
  27   2.0000     -10.351122      -281.6683
  28   2.0000     -10.346338      -281.5382
  29   2.0000     -10.338018      -281.3118
  30   2.0000     -10.334456      -281.2148
  31   2.0000     -10.333051      -281.1766
  32   2.0000     -10.328506      -281.0529
  33   2.0000     -10.327411      -281.0231
  34   2.0000     -10.327254      -281.0189
  35   2.0000     -10.326756      -281.0053
  36   2.0000     -10.326579      -281.0005
  37   2.0000     -10.325842      -280.9804
  38   2.0000     -10.324650      -280.9480
  39   2.0000     -10.323936      -280.9286
  40   2.0000     -10.323397      -280.9139
  41   2.0000     -10.323252      -280.9100
  42   2.0000     -10.319466      -280.8069
  43   2.0000     -10.317924      -280.7650
  44   2.0000     -10.316532      -280.7271
  45   2.0000     -10.314693      -280.6771
  46   2.0000     -10.311431      -280.5883
  47   2.0000     -10.310304      -280.5576
  48   2.0000     -10.309793      -280.5437
  49   2.0000     -10.309666      -280.5403
  50   2.0000     -10.308834      -280.5176
  51   2.0000     -10.308770      -280.5159
  52   2.0000     -10.307862      -280.4912
  53   2.0000     -10.306461      -280.4531
  54   2.0000     -10.306352      -280.4501
  55   2.0000     -10.304031      -280.3869
  56   2.0000     -10.302868      -280.3553
  57   2.0000     -10.301677      -280.3229
  58   2.0000     -10.301623      -280.3214
  59   2.0000     -10.301558      -280.3196
  60   2.0000     -10.301128      -280.3079
  61   2.0000     -10.300988      -280.3041
  62   2.0000     -10.300012      -280.2776
  63   2.0000     -10.298401      -280.2337
  64   2.0000     -10.293813      -280.1089
  65   2.0000     -10.293059      -280.0884
  66   2.0000     -10.291103      -280.0351
  67   2.0000     -10.288131      -279.9543
  68   2.0000     -10.287656      -279.9414
  69   2.0000     -10.287501      -279.9371
  70   2.0000     -10.286578      -279.9120
  71   2.0000     -10.285546      -279.8839
  72   2.0000     -10.283412      -279.8259
  73   2.0000     -10.283387      -279.8252
  74   2.0000     -10.281371      -279.7703
  75   2.0000     -10.277754      -279.6719
  76   2.0000     -10.275728      -279.6168
  77   2.0000     -10.274683      -279.5883
  78   2.0000      -8.799311      -239.4414
  79   2.0000      -8.080611      -219.8846
  80   2.0000      -8.079286      -219.8485
  81   2.0000      -8.063401      -219.4163
  82   2.0000      -8.057957      -219.2681
  83   2.0000      -6.635659      -180.5655
  84   2.0000      -6.621034      -180.1675
  85   2.0000      -6.620799      -180.1611
  86   2.0000      -6.049441      -164.6137
  87   2.0000      -6.048984      -164.6012
  88   2.0000      -6.045477      -164.5058
  89   2.0000      -6.044692      -164.4844
  90   2.0000      -6.043530      -164.4528
  91   2.0000      -6.040504      -164.3705
  92   2.0000      -6.033005      -164.1664
  93   2.0000      -6.029034      -164.0584
  94   2.0000      -6.027539      -164.0177
  95   2.0000      -6.024439      -163.9333
  96   2.0000      -6.023529      -163.9085
  97   2.0000      -6.019094      -163.7879
  98   2.0000      -2.751509       -74.8724
  99   2.0000      -2.747453       -74.7620
 100   2.0000      -2.747236       -74.7561
 101   2.0000      -2.735624       -74.4401
 102   2.0000      -2.735622       -74.4401
 103   2.0000      -1.319130       -35.8954
 104   2.0000      -1.304292       -35.4916
 105   2.0000      -1.289988       -35.1024
 106   2.0000      -1.142238       -31.0819
 107   2.0000      -1.109729       -30.1973
 108   2.0000      -1.087234       -29.5852
 109   2.0000      -1.031442       -28.0670
 110   2.0000      -1.022086       -27.8124
 111   2.0000      -1.019447       -27.7406
 112   2.0000      -1.015637       -27.6369
 113   2.0000      -1.003480       -27.3061
 114   2.0000      -1.001914       -27.2635
 115   2.0000      -0.997875       -27.1536
 116   2.0000      -0.992579       -27.0094
 117   2.0000      -0.985725       -26.8229
 118   2.0000      -0.985307       -26.8116
 119   2.0000      -0.977286       -26.5933
 120   2.0000      -0.961630       -26.1673
 121   2.0000      -0.958141       -26.0724
 122   2.0000      -0.951451       -25.8903
 123   2.0000      -0.937688       -25.5158
 124   2.0000      -0.924128       -25.1468
 125   2.0000      -0.917967       -24.9791
 126   2.0000      -0.916836       -24.9484
 127   2.0000      -0.909605       -24.7516
 128   2.0000      -0.900612       -24.5069
 129   2.0000      -0.894553       -24.3420
 130   2.0000      -0.890726       -24.2379
 131   2.0000      -0.881254       -23.9801
 132   2.0000      -0.874339       -23.7920
 133   2.0000      -0.869328       -23.6556
 134   2.0000      -0.867711       -23.6116
 135   2.0000      -0.861935       -23.4545
 136   2.0000      -0.852062       -23.1858
 137   2.0000      -0.849488       -23.1157
 138   2.0000      -0.843717       -22.9587
 139   2.0000      -0.837570       -22.7914
 140   2.0000      -0.836970       -22.7751
 141   2.0000      -0.822272       -22.3752
 142   2.0000      -0.817596       -22.2479
 143   2.0000      -0.798814       -21.7368
 144   2.0000      -0.788314       -21.4511
 145   2.0000      -0.778222       -21.1765
 146   2.0000      -0.767765       -20.8919
 147   2.0000      -0.757316       -20.6076
 148   2.0000      -0.748914       -20.3790
 149   2.0000      -0.747281       -20.3345
 150   2.0000      -0.741136       -20.1673
 151   2.0000      -0.736850       -20.0507
 152   2.0000      -0.720245       -19.5989
 153   2.0000      -0.712816       -19.3967
 154   2.0000      -0.706151       -19.2154
 155   2.0000      -0.701184       -19.0802
 156   2.0000      -0.699348       -19.0302
 157   2.0000      -0.696154       -18.9433
 158   2.0000      -0.691899       -18.8275
 159   2.0000      -0.679775       -18.4976
 160   2.0000      -0.677293       -18.4301
 161   2.0000      -0.673273       -18.3207
 162   2.0000      -0.664883       -18.0924
 163   2.0000      -0.663997       -18.0683
 164   2.0000      -0.659681       -17.9508
 165   2.0000      -0.652108       -17.7448
 166   2.0000      -0.642990       -17.4967
 167   2.0000      -0.637247       -17.3404
 168   2.0000      -0.633368       -17.2348
 169   2.0000      -0.628629       -17.1059
 170   2.0000      -0.626166       -17.0388
 171   2.0000      -0.621912       -16.9231
 172   2.0000      -0.620138       -16.8748
 173   2.0000      -0.619535       -16.8584
 174   2.0000      -0.617368       -16.7994
 175   2.0000      -0.613733       -16.7005
 176   2.0000      -0.612212       -16.6591
 177   2.0000      -0.606775       -16.5112
 178   2.0000      -0.599856       -16.3229
 179   2.0000      -0.593102       -16.1391
 180   2.0000      -0.584553       -15.9065
 181   2.0000      -0.582833       -15.8597
 182   2.0000      -0.576420       -15.6852
 183   2.0000      -0.572984       -15.5917
 184   2.0000      -0.569521       -15.4975
 185   2.0000      -0.564586       -15.3632
 186   2.0000      -0.558453       -15.1963
 187   2.0000      -0.556275       -15.1370
 188   2.0000      -0.553343       -15.0572
 189   2.0000      -0.549184       -14.9441
 190   2.0000      -0.548085       -14.9142
 191   2.0000      -0.547632       -14.9018
 192   2.0000      -0.547536       -14.8992
 193   2.0000      -0.545854       -14.8534
 194   2.0000      -0.542247       -14.7553
 195   2.0000      -0.539497       -14.6805
 196   2.0000      -0.536531       -14.5998
 197   2.0000      -0.535265       -14.5653
 198   2.0000      -0.530447       -14.4342
 199   2.0000      -0.529402       -14.4058
 200   2.0000      -0.521553       -14.1922
 201   2.0000      -0.519025       -14.1234
 202   2.0000      -0.518532       -14.1100
 203   2.0000      -0.516646       -14.0586
 204   2.0000      -0.516437       -14.0530
 205   2.0000      -0.514710       -14.0060
 206   2.0000      -0.512688       -13.9509
 207   2.0000      -0.511440       -13.9170
 208   2.0000      -0.509798       -13.8723
 209   2.0000      -0.507654       -13.8140
 210   2.0000      -0.506108       -13.7719
 211   2.0000      -0.502739       -13.6802
 212   2.0000      -0.502340       -13.6694
 213   2.0000      -0.500807       -13.6277
 214   2.0000      -0.495499       -13.4832
 215   2.0000      -0.492525       -13.4023
 216   2.0000      -0.491218       -13.3667
 217   2.0000      -0.485600       -13.2139
 218   2.0000      -0.484192       -13.1755
 219   2.0000      -0.481794       -13.1103
 220   2.0000      -0.480596       -13.0777
 221   2.0000      -0.478796       -13.0287
 222   2.0000      -0.475265       -12.9326
 223   2.0000      -0.473847       -12.8940
 224   2.0000      -0.469981       -12.7888
 225   2.0000      -0.466404       -12.6915
 226   2.0000      -0.465899       -12.6777
 227   2.0000      -0.462356       -12.5813
 228   2.0000      -0.457461       -12.4481
 229   2.0000      -0.455650       -12.3989
 230   2.0000      -0.455410       -12.3923
 231   2.0000      -0.452543       -12.3143
 232   2.0000      -0.451376       -12.2826
 233   2.0000      -0.447573       -12.1791
 234   2.0000      -0.447360       -12.1733
 235   2.0000      -0.444029       -12.0826
 236   2.0000      -0.440430       -11.9847
 237   2.0000      -0.439603       -11.9622
 238   2.0000      -0.437091       -11.8939
 239   2.0000      -0.436245       -11.8708
 240   2.0000      -0.434176       -11.8145
 241   2.0000      -0.432768       -11.7762
 242   2.0000      -0.431370       -11.7382
 243   2.0000      -0.427938       -11.6448
 244   2.0000      -0.426282       -11.5997
 245   2.0000      -0.422775       -11.5043
 246   2.0000      -0.420672       -11.4471
 247   2.0000      -0.419013       -11.4019
 248   2.0000      -0.415254       -11.2996
 249   2.0000      -0.413096       -11.2409
 250   2.0000      -0.410020       -11.1572
 251   2.0000      -0.406712       -11.0672
 252   2.0000      -0.402775       -10.9601
 253   2.0000      -0.396232       -10.7820
 254   2.0000      -0.394168       -10.7259
 255   2.0000      -0.388227       -10.5642
 256   2.0000      -0.381675       -10.3859
 257   2.0000      -0.381404       -10.3785
 258   2.0000      -0.381287       -10.3753
 259   2.0000      -0.373546       -10.1647
 260   2.0000      -0.370748       -10.0886
 261   2.0000      -0.365776        -9.9533
 262   2.0000      -0.354952        -9.6587
 263   2.0000      -0.345946        -9.4137
 264   2.0000      -0.343298        -9.3416
 265   2.0000      -0.341160        -9.2834
 266   2.0000      -0.338030        -9.1983
 267   2.0000      -0.331270        -9.0143
 268   2.0000      -0.326904        -8.8955
 269   2.0000      -0.326741        -8.8911
 270   2.0000      -0.323334        -8.7984
 271   2.0000      -0.320257        -8.7146
 272   2.0000      -0.306884        -8.3507
 273   2.0000      -0.301360        -8.2004
 274   2.0000      -0.297714        -8.1012
 275   2.0000      -0.285365        -7.7652
 276   2.0000      -0.262258        -7.1364
 277   2.0000      -0.221701        -6.0328
 278   0.0000      -0.118762        -3.2317
 279   0.0000      -0.091672        -2.4945
 280   0.0000      -0.078731        -2.1424
 281   0.0000      -0.058980        -1.6049
 282   0.0000      -0.052537        -1.4296

MULLIKEN ATOMIC CHARGES
-----------------------
   0 C :    0.326458
   1 C :   -0.340159
   2 C :   -0.186531
   3 N :    0.160333
   4 C :   -0.195600
   5 N :    0.168025
   6 C :    0.007862
   7 C :   -0.016868
   8 C :   -0.061406
   9 C :    0.116268
  10 C :   -0.089552
  11 C :   -0.016441
  12 S :    0.191334
  13 C :   -0.123643
  14 C :    0.040584
  15 Br:    0.030733
  16 C :    0.155827
  17 O :   -0.131743
  18 C :   -0.056177
  19 C :    0.003303
  20 C :   -0.035271
  21 N :   -0.086574
  22 C :    0.088329
  23 C :   -0.042059
  24 C :    0.059788
  25 N :   -0.067395
  26 C :   -0.039432
  27 C :    0.093452
  28 C :   -0.124240
  29 S :    0.188713
  30 C :   -0.126276
  31 C :    0.125182
  32 C :    0.129960
  33 C :   -0.122739
  34 C :    0.233245
  35 F :   -0.173572
  36 C :    0.228332
  37 F :   -0.171757
  38 C :   -0.124083
  39 C :    0.039534
  40 C :   -0.022887
  41 C :    0.008071
  42 C :   -0.031725
  43 C :    0.049551
  44 C :    0.022980
  45 C :   -0.027880
  46 S :    0.092734
  47 C :   -0.058616
  48 C :    0.038857
  49 C :    0.035370
  50 C :   -0.019028
  51 S :    0.109064
  52 C :    0.003097
  53 C :    0.017850
  54 C :   -0.127101
  55 C :    0.133908
  56 O :   -0.157191
  57 C :    0.003398
  58 C :   -0.084032
  59 C :    0.100997
  60 C :    0.101842
  61 C :   -0.098797
  62 C :    0.300966
  63 C :   -0.032982
  64 C :   -0.010896
  65 F :   -0.194892
  66 C :   -0.090244
  67 C :    0.044366
  68 C :    0.292716
  69 C :   -0.350693
  70 C :   -0.218152
  71 N :    0.155105
  72 C :   -0.174891
  73 N :    0.134617
  74 H :   -0.007551
  75 H :   -0.004019
  76 H :   -0.000839
  77 H :    0.052611
  78 H :    0.008178
  79 H :   -0.005015
  80 H :   -0.020477
  81 H :    0.008416
  82 H :   -0.008904
  83 H :   -0.002716
  84 H :   -0.002796
  85 H :    0.020226
  86 H :   -0.004552
  87 H :   -0.003373
  88 H :   -0.005142
  89 H :   -0.003917
  90 H :    0.003281
  91 H :    0.006618
  92 H :    0.014730
  93 H :   -0.017779
  94 H :   -0.005021
  95 H :   -0.000939
  96 H :   -0.013594
  97 H :   -0.008654
Sum of atomic charges:   -0.0000000

LOEWDIN ATOMIC CHARGES
----------------------
   0 C :    0.075634
   1 C :   -0.126801
   2 C :   -0.017675
   3 N :   -0.044536
   4 C :   -0.019381
   5 N :   -0.040583
   6 C :   -0.021893
   7 C :   -0.051605
   8 C :    0.025019
   9 C :   -0.029705
  10 C :   -0.142289
  11 C :   -0.007432
  12 S :    0.436071
  13 C :   -0.269200
  14 C :   -0.069817
  15 Br:    0.142378
  16 C :    0.088234
  17 O :   -0.124958
  18 C :   -0.068672
  19 C :    0.086312
  20 C :    0.025091
  21 N :   -0.092622
  22 C :    0.058555
  23 C :   -0.060807
  24 C :    0.043124
  25 N :   -0.085888
  26 C :   -0.047648
  27 C :   -0.005462
  28 C :   -0.172633
  29 S :    0.501671
  30 C :   -0.177319
  31 C :   -0.038431
  32 C :   -0.038125
  33 C :   -0.038749
  34 C :    0.066936
  35 F :   -0.052112
  36 C :    0.065119
  37 F :   -0.050595
  38 C :   -0.038373
  39 C :   -0.024362
  40 C :   -0.041437
  41 C :   -0.028095
  42 C :   -0.153563
  43 C :   -0.015727
  44 C :   -0.036145
  45 C :   -0.150600
  46 S :    0.394813
  47 C :   -0.191615
  48 C :   -0.009121
  49 C :   -0.036937
  50 C :   -0.101579
  51 S :    0.406581
  52 C :   -0.066936
  53 C :    0.049377
  54 C :   -0.105992
  55 C :    0.076676
  56 O :   -0.159870
  57 C :   -0.056430
  58 C :    0.027992
  59 C :   -0.020559
  60 C :    0.001926
  61 C :   -0.043120
  62 C :    0.090205
  63 C :   -0.041628
  64 C :    0.002232
  65 F :   -0.068951
  66 C :    0.005883
  67 C :   -0.014057
  68 C :    0.067570
  69 C :   -0.153290
  70 C :   -0.024143
  71 N :   -0.063164
  72 C :   -0.019152
  73 N :   -0.065950
  74 H :    0.042409
  75 H :    0.041681
  76 H :    0.039938
  77 H :    0.051897
  78 H :    0.027810
  79 H :    0.033742
  80 H :    0.025440
  81 H :    0.035698
  82 H :    0.040337
  83 H :    0.042622
  84 H :    0.033464
  85 H :    0.024861
  86 H :    0.037390
  87 H :    0.037679
  88 H :    0.035182
  89 H :    0.035776
  90 H :    0.040488
  91 H :    0.037990
  92 H :    0.033237
  93 H :    0.037164
  94 H :    0.041998
  95 H :    0.039849
  96 H :    0.033840
  97 H :    0.037844

  Mayer bond orders larger than 0.100000
B(  0-C ,  1-C ) :   1.6734 B(  0-C ,  6-C ) :   1.0216 B(  0-C , 18-C ) :   1.0005
B(  1-C ,  2-C ) :   1.1321 B(  1-C ,  4-C ) :   1.1497 B(  2-C ,  3-N ) :   2.9763
B(  4-C ,  5-N ) :   2.9800 B(  6-C ,  7-C ) :   1.2707 B(  6-C , 11-C ) :   1.3980
B(  7-C ,  8-C ) :   1.4228 B(  7-C , 16-C ) :   0.9449 B(  8-C ,  9-C ) :   1.2518
B(  8-C , 74-H ) :   1.0163 B(  9-C , 10-C ) :   1.2954 B(  9-C , 14-C ) :   1.1648
B( 10-C , 11-C ) :   1.3426 B( 10-C , 12-S ) :   1.0876 B( 11-C , 75-H ) :   0.9794
B( 12-S , 13-C ) :   1.0869 B( 13-C , 14-C ) :   1.6162 B( 13-C , 15-Br) :   1.0230
B( 14-C , 76-H ) :   1.0001 B( 16-C , 17-O ) :   2.2326 B( 16-C , 18-C ) :   0.9138
B( 18-C , 19-C ) :   1.8881 B( 19-C , 20-C ) :   0.9098 B( 19-C , 77-H ) :   0.9315
B( 20-C , 21-N ) :   1.5016 B( 20-C , 25-N ) :   1.5355 B( 21-N , 22-C ) :   1.5240
B( 22-C , 23-C ) :   1.3867 B( 22-C , 78-H ) :   0.9792 B( 23-C , 24-C ) :   1.3288
B( 23-C , 79-H ) :   0.9747 B( 24-C , 25-N ) :   1.4898 B( 24-C , 26-C ) :   1.0989
B( 26-C , 27-C ) :   1.6719 B( 26-C , 80-H ) :   0.9725 B( 27-C , 28-C ) :   1.1367
B( 27-C , 81-H ) :   0.9400 B( 28-C , 29-S ) :   1.1693 B( 28-C , 30-C ) :   0.1041
B( 28-C , 32-C ) :   1.3160 B( 29-S , 30-C ) :   1.1536 B( 30-C , 31-C ) :   1.3001
B( 30-C , 39-C ) :   1.1788 B( 31-C , 32-C ) :   1.2327 B( 31-C , 38-C ) :   1.1777
B( 32-C , 33-C ) :   1.1705 B( 33-C , 34-C ) :   1.4880 B( 33-C , 38-C ) :   0.1090
B( 33-C , 82-H ) :   0.9991 B( 34-C , 35-F ) :   1.1343 B( 34-C , 36-C ) :   1.1664
B( 36-C , 37-F ) :   1.1343 B( 36-C , 38-C ) :   1.4847 B( 38-C , 83-H ) :   0.9972
B( 39-C , 40-C ) :   1.5802 B( 39-C , 84-H ) :   0.9603 B( 40-C , 41-C ) :   1.2064
B( 40-C , 85-H ) :   0.9660 B( 41-C , 42-C ) :   1.5186 B( 41-C , 86-H ) :   0.9841
B( 42-C , 43-C ) :   1.1690 B( 42-C , 46-S ) :   1.0332 B( 43-C , 44-C ) :   1.5588
B( 43-C , 87-H ) :   0.9996 B( 44-C , 45-C ) :   1.2136 B( 44-C , 88-H ) :   0.9945
B( 45-C , 46-S ) :   1.0813 B( 45-C , 47-C ) :   1.4475 B( 47-C , 48-C ) :   1.2280
B( 47-C , 51-S ) :   1.0485 B( 48-C , 49-C ) :   1.5347 B( 48-C , 89-H ) :   0.9943
B( 49-C , 50-C ) :   1.1891 B( 49-C , 90-H ) :   1.0009 B( 50-C , 51-S ) :   1.0860
B( 50-C , 52-C ) :   1.4848 B( 52-C , 53-C ) :   1.2346 B( 52-C , 91-H ) :   0.9640
B( 53-C , 54-C ) :   1.5187 B( 53-C , 92-H ) :   0.9363 B( 54-C , 55-C ) :   0.9654
B( 54-C , 68-C ) :   1.0883 B( 55-C , 56-O ) :   2.2425 B( 55-C , 57-C ) :   0.9221
B( 57-C , 58-C ) :   1.4805 B( 57-C , 67-C ) :   1.2165 B( 58-C , 59-C ) :   1.1839
B( 58-C , 93-H ) :   1.0154 B( 59-C , 60-C ) :   1.2617 B( 59-C , 64-C ) :   1.2359
B( 60-C , 61-C ) :   1.2062 B( 60-C , 66-C ) :   1.1943 B( 61-C , 62-C ) :   1.4381
B( 61-C , 94-H ) :   1.0071 B( 62-C , 63-C ) :   1.2586 B( 62-C , 65-F ) :   1.0837
B( 63-C , 64-C ) :   1.4571 B( 63-C , 95-H ) :   0.9926 B( 64-C , 96-H ) :   0.9973
B( 66-C , 67-C ) :   1.4711 B( 66-C , 97-H ) :   0.9931 B( 67-C , 68-C ) :   0.9884
B( 68-C , 69-C ) :   1.5971 B( 69-C , 70-C ) :   1.1691 B( 69-C , 72-C ) :   1.1361
B( 70-C , 71-N ) :   3.0059 B( 72-C , 73-N ) :   2.9708

-----------------------------------------------------------------------------
         ABSORPTION SPECTRUM VIA TRANSITION ELECTRIC DIPOLE MOMENTS
-----------------------------------------------------------------------------
State   Energy  Wavelength   fosc         T2         TX        TY        TZ
        (cm-1)    (nm)                  (au**2)     (au)      (au)      (au)
-----------------------------------------------------------------------------
   0    9670.5   1034.1   1.302323687  44.33499   3.97752  -3.85792  -3.69198
   1   17109.6    584.5   0.016396621   0.31549  -0.06820  -0.53344   0.16213
   2   19081.6    524.1   1.144758400  19.75030   2.42710   3.55833  -1.09443
   3   19638.6    509.2   0.000297074   0.00498  -0.04819  -0.05016   0.01192
   4   22669.8    441.1   0.048941251   0.71073   0.11583   0.76993  -0.32328
   5   24393.0    410.0   0.113423659   1.53078   0.23370   0.93404  -0.77700
   6   25081.2    398.7   0.077621736   1.01885   0.27444   0.92839  -0.28569
   7   25629.8    390.2   0.016582072   0.21300  -0.08826   0.29357  -0.34500
   8   25811.6    387.4   0.000069299   0.00088   0.02076  -0.00960   0.01900
   9   27103.2    369.0   0.089503893   1.08717  -0.57400   0.66334  -0.56362
  10   27219.2    367.4   0.013466144   0.16287  -0.31239  -0.06566   0.24692
  11   27539.6    363.1   0.000017643   0.00021   0.01253   0.00570   0.00462
  12   28139.1    355.4   0.092344457   1.08038   0.50121   0.90656  -0.08555
  13   28686.3    348.6   0.451404898   5.18045   0.17165  -0.07836  -2.26823
  14   29227.0    342.1   0.069626606   0.78427  -0.37551   0.78969  -0.14022
  15   29889.4    334.6   0.024275471   0.26738   0.49703  -0.05852   0.13004
  16   30720.6    325.5   0.108416445   1.16183   0.14791   0.14186  -1.05822
  17   30794.8    324.7   0.099454650   1.06322   0.01261  -0.97999   0.32044
  18   30876.1    323.9   0.007450868   0.07944   0.00281  -0.08163  -0.26976
  19   31105.9    321.5   0.225572176   2.38736  -1.53566   0.16823   0.02867
  20   31190.4    320.6   0.087869749   0.92746  -0.93931   0.01750   0.21176
  21   31713.9    315.3   0.021385957   0.22200  -0.33255  -0.08592  -0.32253
  22   31920.6    313.3   0.000462236   0.00477  -0.00835   0.02970  -0.06177
  23   32043.2    312.1   0.284067325   2.91851  -0.55487  -1.22647   1.05186
  24   32864.4    304.3   0.029733873   0.29785  -0.11140   0.05752  -0.53116
  25   33044.4    302.6   0.005646837   0.05626   0.01236  -0.22619   0.07032
  26   33252.5    300.7   0.046269069   0.45808  -0.55447   0.06330   0.38293
  27   33436.7    299.1   0.010489790   0.10328  -0.12357   0.25615   0.14966
  28   33527.5    298.3   0.138978898   1.36466  -0.09183   1.16119  -0.08873
  29   34084.6    293.4   0.012977755   0.12535  -0.12869  -0.23794   0.22841
  30   34326.9    291.3   0.009309527   0.08928   0.17753  -0.17042   0.16949
  31   34401.7    290.7   0.282024490   2.69888   0.70533  -0.18320  -1.47235
  32   34569.0    289.3   0.223137766   2.12502  -0.55824   0.15228   1.33798
  33   34887.7    286.6   0.019749157   0.18636   0.15788   0.27634   0.29167
  34   35951.6    278.2   0.079350917   0.72662   0.73592  -0.11636  -0.41414
  35   36003.3    277.8   0.102504266   0.93729   0.03246  -0.82942   0.49829
  36   36279.3    275.6   0.004247438   0.03854  -0.19147  -0.01434   0.04095
  37   36377.0    274.9   0.006421196   0.05811   0.02343   0.05488  -0.23356
  38   36448.9    274.4   0.130123845   1.17530  -0.04685   0.77250  -0.75918
  39   36539.0    273.7   0.127414787   1.14799   0.17462  -0.80120   0.68963
  40   36961.7    270.6   0.106157386   0.94553  -0.39222  -0.66190   0.59463
  41   37399.6    267.4   0.270688747   2.38275  -0.29205  -1.42686   0.51140
  42   37674.6    265.4   0.012460312   0.10888   0.28708   0.10431   0.12485
  43   37768.0    264.8   0.061802478   0.53871  -0.21890  -0.62774   0.31102
  44   37924.0    263.7   0.026889101   0.23342  -0.21946   0.39252  -0.17659
  45   37960.4    263.4   0.034780442   0.30163  -0.04205  -0.52441   0.15768
  46   38097.7    262.5   0.054113261   0.46761   0.58927   0.34641  -0.01903
  47   38315.6    261.0   0.002254718   0.01937  -0.04554  -0.12741   0.03263
  48   38782.7    257.8   0.000567372   0.00482   0.04070   0.03742  -0.04194
  49   39178.3    255.2   0.060591100   0.50914  -0.51075   0.09932  -0.48827
  50   39639.9    252.3   0.157021934   1.30408   1.04484  -0.44797  -0.10818
  51   39802.9    251.2   0.001265867   0.01047   0.04081  -0.03353  -0.08764
  52   39912.8    250.5   0.002728617   0.02251   0.05311   0.00541   0.14020
  53   40056.5    249.6   0.062867254   0.51669  -0.03445  -0.58372  -0.41805

FINAL SINGLE POINT ENERGY     -7165.469064762762

DIPOLE MOMENT
-------------
                                X             Y             Z
Electronic contribution:     77.51723     -88.45378      62.89875
Nuclear contribution   :    -74.53543      87.45997     -62.64215
                        -----------------------------------------
Total Dipole Moment    :      2.98180      -0.99381       0.25659
                        -----------------------------------------
Magnitude (a.u.)       :      3.15351
Magnitude (Debye)      :      8.01557

Rotational constants in cm-1:     0.000662     0.000222     0.000193
Rotational constants in MHz :    19.854812     6.647143     5.773836

                             ****ORCA TERMINATED NORMALLY****
TOTAL RUN TIME: 0 days 0 hours 9 minutes 37 seconds 324 msec
