                         Program Version 4.2.0 -  RELEASE  -
|  1> # ORCA input file
|  2> # SCF done       -198.223499083099          0.000599902183
|  3> ! CAM-B3LYP def2-SVP def2/J RIJCOSX Grid4 TightSCF
|  4> %maxcore 5000
|  5> %tddft
|  6>     Mode sTDDFT
|  7>     Ethresh 5.0
|  8>     maxcore 5000
|  9> end
| 10>
| 11> %pal
| 12>   nprocs 6
| 13>   end
| 14> * xyz 0 1
| 15>    C       -3.51480        -2.22841         0.20817
| 16>    C       -4.20054        -3.06735        -0.62969
| 17>    C       -4.01158        -4.46483        -0.67650
| 18>    N       -3.90619        -5.60511        -0.75527
| 19>    C       -5.16517        -2.66287        -1.57728
| 20>    N       -5.94773        -2.41613        -2.38077
| 21>    C       -2.45889        -2.62591         1.12858
| 22>    C       -1.90478        -1.46170         1.71311
| 23>    C       -0.88091        -1.50613         2.62817
| 24>    C       -0.37686        -2.76137         2.98228
| 25>    C       -0.93889        -3.92103         2.39558
| 26>    C       -1.97517        -3.87568         1.47208
| 27>    S       -0.17157        -5.36721         2.97799
| 28>    C        0.88037        -4.40811         3.98518
| 29>    C        0.66943        -3.07358         3.89261
| 30>   Br        2.15608        -5.25921         5.06440
| 31>    C       -2.59354        -0.26364         1.19239
| 32>    O       -2.36822         0.88085         1.51598
| 33>    C       -3.64998        -0.78032         0.27954
| 34>    C       -4.69335        -0.06656        -0.22015
| 35>    C       -4.85577         1.36147        -0.25446
| 36>    C       -6.15856         1.88134        -0.14241
| 37>    C       -6.34550         3.23930        -0.14508
| 38>    C       -5.24941         4.10882        -0.30563
| 39>    C       -3.96781         3.60335        -0.47910
| 40>    C       -3.77819         2.23775        -0.44695
| 41>    C       -5.73387         5.46905        -0.26440
| 42>    C       -7.12799         5.44447        -0.07451
| 43>    C       -7.62933         4.02139         0.00408
| 44>    C       -8.61195         3.71071        -1.14122
| 45>    C       -8.01471         3.96350        -2.52023
| 46>    C       -8.30560         3.73510         1.35778
| 47>    C       -7.39540         4.02113         2.54623
| 48>    C       -7.83712         6.61514         0.01888
| 49>    C       -7.16921         7.84937        -0.08159
| 50>    C       -5.77810         7.85288        -0.27810
| 51>    C       -5.06044         6.67986        -0.36793
| 52>    C       -7.94517         9.05496         0.03926
| 53>    C       -7.47943        10.31555        -0.11569
| 54>    C       -8.24687        11.50793         0.03572
| 55>    C       -7.61940        12.76229        -0.17748
| 56>    C       -8.31808        14.01676        -0.02656
| 57>    N       -7.65598        15.17378        -0.23326
| 58>    C       -6.39886        15.14342        -0.58180
| 59>    C       -5.70618        13.89565        -0.73511
| 60>    N       -6.32324        12.75968        -0.52695
| 61>    C       -4.33990        13.88273        -1.10784
| 62>    N       -3.23535        13.90557        -1.41213
| 63>    C       -5.72639        16.37025        -0.81394
| 64>    N       -5.17035        17.34967        -1.02230
| 65>    C       -9.66921        14.06690         0.34166
| 66>    C      -10.29452        12.83262         0.55840
| 67>    C       -9.60755        11.56785         0.40409
| 68>    N      -10.42152        10.53958         0.66082
| 69>    S      -11.87316        11.09757         1.05018
| 70>    N      -11.57319        12.66294         0.91850
| 71>    C      -10.41434        15.31810         0.56693
| 72>    S       -9.66935        16.48868         1.84791
| 73>    C      -10.47467        17.57473         0.60605
| 74>    C      -10.30794        16.47696        -0.42739
| 75>    N      -11.12435        16.90212        -1.54590
| 76>    C      -10.79550        18.34680        -1.58131
| 77>    C      -10.12003        18.79260        -0.21412
| 78>    C      -10.62898        20.09337         0.30684
| 79>    C      -10.76999        21.27366        -0.45999
| 80>    C      -11.24152        22.29667         0.36910
| 81>    C      -11.53451        23.64306         0.11338
| 82>    C      -11.96919        24.41276         1.16990
| 83>    C      -12.33384        25.78789         1.25381
| 84>    C      -12.69343        26.07633         2.56510
| 85>    C      -12.56149        24.88284         3.32555
| 86>    C      -12.11974        23.85412         2.49243
| 87>    C      -11.82980        22.50573         2.74647
| 88>    C      -11.39500        21.73816         1.69039
| 89>    C      -11.00407        20.36612         1.60815
| 90>    C      -13.12647        27.33714         3.12004
| 91>    C      -13.25969        28.47574         2.44550
| 92>    H       -0.48106        -0.59980         3.05518
| 93>    H       -2.37324        -4.78712         1.05863
| 94>    H        1.22702        -2.33817         4.44320
| 95>    H       -5.54024        -0.62379        -0.60474
| 96>    H       -6.99119         1.20311        -0.02191
| 97>    H       -3.13046         4.26610        -0.63387
| 98>    H       -2.79182         1.83444        -0.60421
| 99>    H       -9.50259         4.32929        -1.01303
|100>    H       -8.91746         2.66524        -1.06543
|101>    H       -7.71864         5.00480        -2.62749
|102>    H       -8.74645         3.73303        -3.29074
|103>    H       -7.13886         3.33901        -2.68168
|104>    H       -8.61278         2.68748         1.37977
|105>    H       -9.20604         4.34795         1.43468
|106>    H       -6.49788         3.40807         2.50195
|107>    H       -7.91553         3.80188         3.47577
|108>    H       -7.09547         5.06660         2.55861
|109>    H       -8.90719         6.60631         0.16919
|110>    H       -5.25431         8.79265        -0.35015
|111>    H       -3.99093         6.70285        -0.51206
|112>    H       -8.99235         8.92274         0.27582
|113>    H       -6.44666        10.49589        -0.37608
|114>    H      -11.43790        15.09519         0.87414
|115>    H      -11.51833        17.65243         0.93336
|116>    H       -9.27184        16.48615        -0.78319
|117>    H      -12.11125        16.76963        -1.33820
|118>    H      -11.69384        18.93371        -1.77322
|119>    H      -10.09486        18.50409        -2.40342
|120>    H       -9.03625        18.85610        -0.35950
|121>    H      -10.54130        21.36315        -1.50688
|122>    H      -11.41511        24.05646        -0.87857
|123>    H      -12.32403        26.47499         0.42828
|124>    H      -12.76950        24.79792         4.37781
|125>    H      -11.94098        22.09311         3.73965
|126>    H      -10.98857        19.67606         2.43178
|127>    H      -13.35356        27.31554         4.17905
|128>    H      -13.04831        28.54498         1.39234
|129>    H      -13.59015        29.38025         2.92590
|130> *
|131>
|132>                          ****END OF INPUT****

CARTESIAN COORDINATES (ANGSTROEM)
---------------------------------
  C     -3.514800   -2.228410    0.208170
  C     -4.200540   -3.067350   -0.629690
  C     -4.011580   -4.464830   -0.676500
  N     -3.906190   -5.605110   -0.755270
  C     -5.165170   -2.662870   -1.577280
  N     -5.947730   -2.416130   -2.380770
  C     -2.458890   -2.625910    1.128580
  C     -1.904780   -1.461700    1.713110
  C     -0.880910   -1.506130    2.628170
  C     -0.376860   -2.761370    2.982280
  C     -0.938890   -3.921030    2.395580
  C     -1.975170   -3.875680    1.472080
  S     -0.171570   -5.367210    2.977990
  C      0.880370   -4.408110    3.985180
  C      0.669430   -3.073580    3.892610
  Br     2.156080   -5.259210    5.064400
  C     -2.593540   -0.263640    1.192390
  O     -2.368220    0.880850    1.515980
  C     -3.649980   -0.780320    0.279540
  C     -4.693350   -0.066560   -0.220150
  C     -4.855770    1.361470   -0.254460
  C     -6.158560    1.881340   -0.142410
  C     -6.345500    3.239300   -0.145080
  C     -5.249410    4.108820   -0.305630
  C     -3.967810    3.603350   -0.479100
  C     -3.778190    2.237750   -0.446950
  C     -5.733870    5.469050   -0.264400
  C     -7.127990    5.444470   -0.074510
  C     -7.629330    4.021390    0.004080
  C     -8.611950    3.710710   -1.141220
  C     -8.014710    3.963500   -2.520230
  C     -8.305600    3.735100    1.357780
  C     -7.395400    4.021130    2.546230
  C     -7.837120    6.615140    0.018880
  C     -7.169210    7.849370   -0.081590
  C     -5.778100    7.852880   -0.278100
  C     -5.060440    6.679860   -0.367930
  C     -7.945170    9.054960    0.039260
  C     -7.479430   10.315550   -0.115690
  C     -8.246870   11.507930    0.035720
  C     -7.619400   12.762290   -0.177480
  C     -8.318080   14.016760   -0.026560
  N     -7.655980   15.173780   -0.233260
  C     -6.398860   15.143420   -0.581800
  C     -5.706180   13.895650   -0.735110
  N     -6.323240   12.759680   -0.526950
  C     -4.339900   13.882730   -1.107840
  N     -3.235350   13.905570   -1.412130
  C     -5.726390   16.370250   -0.813940
  N     -5.170350   17.349670   -1.022300
  C     -9.669210   14.066900    0.341660
  C    -10.294520   12.832620    0.558400
  C     -9.607550   11.567850    0.404090
  N    -10.421520   10.539580    0.660820
  S    -11.873160   11.097570    1.050180
  N    -11.573190   12.662940    0.918500
  C    -10.414340   15.318100    0.566930
  S     -9.669350   16.488680    1.847910
  C    -10.474670   17.574730    0.606050
  C    -10.307940   16.476960   -0.427390
  N    -11.124350   16.902120   -1.545900
  C    -10.795500   18.346800   -1.581310
  C    -10.120030   18.792600   -0.214120
  C    -10.628980   20.093370    0.306840
  C    -10.769990   21.273660   -0.459990
  C    -11.241520   22.296670    0.369100
  C    -11.534510   23.643060    0.113380
  C    -11.969190   24.412760    1.169900
  C    -12.333840   25.787890    1.253810
  C    -12.693430   26.076330    2.565100
  C    -12.561490   24.882840    3.325550
  C    -12.119740   23.854120    2.492430
  C    -11.829800   22.505730    2.746470
  C    -11.395000   21.738160    1.690390
  C    -11.004070   20.366120    1.608150
  C    -13.126470   27.337140    3.120040
  C    -13.259690   28.475740    2.445500
  H     -0.481060   -0.599800    3.055180
  H     -2.373240   -4.787120    1.058630
  H      1.227020   -2.338170    4.443200
  H     -5.540240   -0.623790   -0.604740
  H     -6.991190    1.203110   -0.021910
  H     -3.130460    4.266100   -0.633870
  H     -2.791820    1.834440   -0.604210
  H     -9.502590    4.329290   -1.013030
  H     -8.917460    2.665240   -1.065430
  H     -7.718640    5.004800   -2.627490
  H     -8.746450    3.733030   -3.290740
  H     -7.138860    3.339010   -2.681680
  H     -8.612780    2.687480    1.379770
  H     -9.206040    4.347950    1.434680
  H     -6.497880    3.408070    2.501950
  H     -7.915530    3.801880    3.475770
  H     -7.095470    5.066600    2.558610
  H     -8.907190    6.606310    0.169190
  H     -5.254310    8.792650   -0.350150
  H     -3.990930    6.702850   -0.512060
  H     -8.992350    8.922740    0.275820
  H     -6.446660   10.495890   -0.376080
  H    -11.437900   15.095190    0.874140
  H    -11.518330   17.652430    0.933360
  H     -9.271840   16.486150   -0.783190
  H    -12.111250   16.769630   -1.338200
  H    -11.693840   18.933710   -1.773220
  H    -10.094860   18.504090   -2.403420
  H     -9.036250   18.856100   -0.359500
  H    -10.541300   21.363150   -1.506880
  H    -11.415110   24.056460   -0.878570
  H    -12.324030   26.474990    0.428280
  H    -12.769500   24.797920    4.377810
  H    -11.940980   22.093110    3.739650
  H    -10.988570   19.676060    2.431780
  H    -13.353560   27.315540    4.179050
  H    -13.048310   28.544980    1.392340
  H    -13.590150   29.380250    2.925900

 Total Charge           Charge          ....    0
 Multiplicity           Mult            ....    1
 Number of Electrons    NEL             ....  570
 Basis Dimension        Dim             .... 1298

ORBITAL ENERGIES
----------------

  NO   OCC          E(Eh)            E(eV)
   0   2.0000    -482.887967    -13140.0496
   1   2.0000     -89.052549     -2423.2430
   2   2.0000     -88.978280     -2421.2221
   3   2.0000     -88.911982     -2419.4180
   4   2.0000     -62.565670     -1702.4984
   5   2.0000     -56.399625     -1534.7118
   6   2.0000     -56.396901     -1534.6377
   7   2.0000     -56.396872     -1534.6369
   8   2.0000     -19.218649      -522.9660
   9   2.0000     -14.463736      -393.5783
  10   2.0000     -14.460151      -393.4807
  11   2.0000     -14.459391      -393.4600
  12   2.0000     -14.458072      -393.4241
  13   2.0000     -14.429981      -392.6597
  14   2.0000     -14.429102      -392.6358
  15   2.0000     -14.417426      -392.3181
  16   2.0000     -14.417309      -392.3149
  17   2.0000     -14.387346      -391.4996
  18   2.0000     -10.382264      -282.5158
  19   2.0000     -10.380308      -282.4625
  20   2.0000     -10.371021      -282.2098
  21   2.0000     -10.361769      -281.9581
  22   2.0000     -10.347389      -281.5668
  23   2.0000     -10.346757      -281.5496
  24   2.0000     -10.346259      -281.5360
  25   2.0000     -10.344799      -281.4963
  26   2.0000     -10.344750      -281.4949
  27   2.0000     -10.343358      -281.4571
  28   2.0000     -10.328517      -281.0532
  29   2.0000     -10.323076      -280.9052
  30   2.0000     -10.322663      -280.8939
  31   2.0000     -10.321712      -280.8681
  32   2.0000     -10.320209      -280.8272
  33   2.0000     -10.320155      -280.8257
  34   2.0000     -10.318507      -280.7808
  35   2.0000     -10.311487      -280.5898
  36   2.0000     -10.311148      -280.5806
  37   2.0000     -10.310810      -280.5714
  38   2.0000     -10.310601      -280.5657
  39   2.0000     -10.308429      -280.5066
  40   2.0000     -10.303639      -280.3763
  41   2.0000     -10.300777      -280.2984
  42   2.0000     -10.299215      -280.2559
  43   2.0000     -10.294905      -280.1386
  44   2.0000     -10.294310      -280.1224
  45   2.0000     -10.293079      -280.0889
  46   2.0000     -10.291968      -280.0587
  47   2.0000     -10.290182      -280.0101
  48   2.0000     -10.289345      -279.9873
  49   2.0000     -10.288684      -279.9693
  50   2.0000     -10.288515      -279.9647
  51   2.0000     -10.286755      -279.9168
  52   2.0000     -10.286535      -279.9109
  53   2.0000     -10.286321      -279.9050
  54   2.0000     -10.283404      -279.8257
  55   2.0000     -10.283374      -279.8248
  56   2.0000     -10.283151      -279.8188
  57   2.0000     -10.282553      -279.8025
  58   2.0000     -10.281578      -279.7760
  59   2.0000     -10.280997      -279.7602
  60   2.0000     -10.280611      -279.7496
  61   2.0000     -10.279811      -279.7279
  62   2.0000     -10.279182      -279.7108
  63   2.0000     -10.278694      -279.6975
  64   2.0000     -10.275536      -279.6115
  65   2.0000     -10.275418      -279.6083
  66   2.0000     -10.274131      -279.5733
  67   2.0000     -10.270302      -279.4691
  68   2.0000     -10.269727      -279.4535
  69   2.0000     -10.267613      -279.3960
  70   2.0000     -10.265964      -279.3511
  71   2.0000     -10.260758      -279.2094
  72   2.0000     -10.258054      -279.1358
  73   2.0000     -10.256183      -279.0849
  74   2.0000     -10.253378      -279.0086
  75   2.0000     -10.253183      -279.0033
  76   2.0000     -10.252444      -278.9832
  77   2.0000     -10.251989      -278.9708
  78   2.0000     -10.251546      -278.9587
  79   2.0000     -10.251366      -278.9538
  80   2.0000     -10.248513      -278.8762
  81   2.0000      -8.795091      -239.3266
  82   2.0000      -8.143749      -221.6027
  83   2.0000      -8.074194      -219.7100
  84   2.0000      -8.006877      -217.8782
  85   2.0000      -6.631402      -180.4496
  86   2.0000      -6.616831      -180.0531
  87   2.0000      -6.616607      -180.0470
  88   2.0000      -6.114726      -166.3902
  89   2.0000      -6.106890      -166.1769
  90   2.0000      -6.106827      -166.1752
  91   2.0000      -6.043860      -164.4618
  92   2.0000      -6.039625      -164.3465
  93   2.0000      -6.035453      -164.2330
  94   2.0000      -5.977166      -162.6470
  95   2.0000      -5.974472      -162.5736
  96   2.0000      -5.965512      -162.3298
  97   2.0000      -2.747280       -74.7573
  98   2.0000      -2.743185       -74.6459
  99   2.0000      -2.743017       -74.6413
 100   2.0000      -2.731434       -74.3261
 101   2.0000      -2.731421       -74.3258
 102   2.0000      -1.147364       -31.2214
 103   2.0000      -1.134716       -30.8772
 104   2.0000      -1.120295       -30.4848
 105   2.0000      -1.047516       -28.5044
 106   2.0000      -1.025463       -27.9043
 107   2.0000      -1.021265       -27.7900
 108   2.0000      -1.015675       -27.6379
 109   2.0000      -1.013329       -27.5741
 110   2.0000      -1.004139       -27.3240
 111   2.0000      -1.000302       -27.2196
 112   2.0000      -0.999013       -27.1845
 113   2.0000      -0.995967       -27.1016
 114   2.0000      -0.991853       -26.9897
 115   2.0000      -0.980500       -26.6808
 116   2.0000      -0.977215       -26.5914
 117   2.0000      -0.959637       -26.1130
 118   2.0000      -0.951306       -25.8863
 119   2.0000      -0.945173       -25.7195
 120   2.0000      -0.932771       -25.3820
 121   2.0000      -0.927748       -25.2453
 122   2.0000      -0.910850       -24.7855
 123   2.0000      -0.909376       -24.7454
 124   2.0000      -0.904147       -24.6031
 125   2.0000      -0.900598       -24.5065
 126   2.0000      -0.890551       -24.2331
 127   2.0000      -0.888636       -24.1810
 128   2.0000      -0.883833       -24.0503
 129   2.0000      -0.867087       -23.5946
 130   2.0000      -0.855424       -23.2773
 131   2.0000      -0.853811       -23.2334
 132   2.0000      -0.844623       -22.9834
 133   2.0000      -0.843801       -22.9610
 134   2.0000      -0.843400       -22.9501
 135   2.0000      -0.840351       -22.8671
 136   2.0000      -0.834161       -22.6987
 137   2.0000      -0.831386       -22.6232
 138   2.0000      -0.829545       -22.5731
 139   2.0000      -0.809403       -22.0250
 140   2.0000      -0.800945       -21.7948
 141   2.0000      -0.787051       -21.4168
 142   2.0000      -0.777425       -21.1548
 143   2.0000      -0.769159       -20.9299
 144   2.0000      -0.763303       -20.7705
 145   2.0000      -0.758384       -20.6367
 146   2.0000      -0.753289       -20.4980
 147   2.0000      -0.746385       -20.3102
 148   2.0000      -0.738517       -20.0961
 149   2.0000      -0.736080       -20.0298
 150   2.0000      -0.732389       -19.9293
 151   2.0000      -0.725482       -19.7414
 152   2.0000      -0.713829       -19.4243
 153   2.0000      -0.703311       -19.1381
 154   2.0000      -0.701280       -19.0828
 155   2.0000      -0.696061       -18.9408
 156   2.0000      -0.694189       -18.8899
 157   2.0000      -0.691416       -18.8144
 158   2.0000      -0.684077       -18.6147
 159   2.0000      -0.680520       -18.5179
 160   2.0000      -0.672950       -18.3119
 161   2.0000      -0.671184       -18.2639
 162   2.0000      -0.663512       -18.0551
 163   2.0000      -0.661053       -17.9882
 164   2.0000      -0.657685       -17.8965
 165   2.0000      -0.656081       -17.8529
 166   2.0000      -0.645245       -17.5580
 167   2.0000      -0.644402       -17.5351
 168   2.0000      -0.630713       -17.1626
 169   2.0000      -0.629235       -17.1224
 170   2.0000      -0.627894       -17.0859
 171   2.0000      -0.625213       -17.0129
 172   2.0000      -0.613803       -16.7024
 173   2.0000      -0.606381       -16.5005
 174   2.0000      -0.605935       -16.4883
 175   2.0000      -0.603938       -16.4340
 176   2.0000      -0.602482       -16.3944
 177   2.0000      -0.594836       -16.1863
 178   2.0000      -0.586360       -15.9557
 179   2.0000      -0.581559       -15.8250
 180   2.0000      -0.577506       -15.7147
 181   2.0000      -0.573365       -15.6020
 182   2.0000      -0.570956       -15.5365
 183   2.0000      -0.563675       -15.3384
 184   2.0000      -0.560371       -15.2485
 185   2.0000      -0.558936       -15.2094
 186   2.0000      -0.552629       -15.0378
 187   2.0000      -0.551491       -15.0068
 188   2.0000      -0.550731       -14.9862
 189   2.0000      -0.549005       -14.9392
 190   2.0000      -0.543707       -14.7950
 191   2.0000      -0.542691       -14.7674
 192   2.0000      -0.539594       -14.6831
 193   2.0000      -0.534847       -14.5539
 194   2.0000      -0.531321       -14.4580
 195   2.0000      -0.529222       -14.4009
 196   2.0000      -0.527255       -14.3473
 197   2.0000      -0.526204       -14.3187
 198   2.0000      -0.524244       -14.2654
 199   2.0000      -0.522257       -14.2113
 200   2.0000      -0.520846       -14.1730
 201   2.0000      -0.515254       -14.0208
 202   2.0000      -0.514900       -14.0111
 203   2.0000      -0.512243       -13.9389
 204   2.0000      -0.509391       -13.8612
 205   2.0000      -0.505483       -13.7549
 206   2.0000      -0.503124       -13.6907
 207   2.0000      -0.497728       -13.5439
 208   2.0000      -0.495337       -13.4788
 209   2.0000      -0.491966       -13.3871
 210   2.0000      -0.488982       -13.3059
 211   2.0000      -0.487442       -13.2640
 212   2.0000      -0.485543       -13.2123
 213   2.0000      -0.484135       -13.1740
 214   2.0000      -0.483370       -13.1532
 215   2.0000      -0.482262       -13.1230
 216   2.0000      -0.477860       -13.0032
 217   2.0000      -0.476787       -12.9740
 218   2.0000      -0.475980       -12.9521
 219   2.0000      -0.474691       -12.9170
 220   2.0000      -0.470183       -12.7943
 221   2.0000      -0.467587       -12.7237
 222   2.0000      -0.461633       -12.5617
 223   2.0000      -0.461106       -12.5473
 224   2.0000      -0.459346       -12.4994
 225   2.0000      -0.455929       -12.4065
 226   2.0000      -0.455001       -12.3812
 227   2.0000      -0.453890       -12.3510
 228   2.0000      -0.453683       -12.3453
 229   2.0000      -0.452921       -12.3246
 230   2.0000      -0.450871       -12.2688
 231   2.0000      -0.449725       -12.2376
 232   2.0000      -0.448507       -12.2045
 233   2.0000      -0.447608       -12.1800
 234   2.0000      -0.445343       -12.1184
 235   2.0000      -0.444854       -12.1051
 236   2.0000      -0.443438       -12.0666
 237   2.0000      -0.441641       -12.0177
 238   2.0000      -0.440378       -11.9833
 239   2.0000      -0.434644       -11.8273
 240   2.0000      -0.432164       -11.7598
 241   2.0000      -0.431954       -11.7541
 242   2.0000      -0.430934       -11.7263
 243   2.0000      -0.430299       -11.7090
 244   2.0000      -0.429101       -11.6764
 245   2.0000      -0.426940       -11.6176
 246   2.0000      -0.424356       -11.5473
 247   2.0000      -0.419615       -11.4183
 248   2.0000      -0.417985       -11.3739
 249   2.0000      -0.415823       -11.3151
 250   2.0000      -0.414149       -11.2696
 251   2.0000      -0.413246       -11.2450
 252   2.0000      -0.413012       -11.2386
 253   2.0000      -0.410376       -11.1669
 254   2.0000      -0.405004       -11.0207
 255   2.0000      -0.403495       -10.9797
 256   2.0000      -0.401010       -10.9120
 257   2.0000      -0.397279       -10.8105
 258   2.0000      -0.396306       -10.7840
 259   2.0000      -0.395033       -10.7494
 260   2.0000      -0.394068       -10.7231
 261   2.0000      -0.391342       -10.6490
 262   2.0000      -0.389748       -10.6056
 263   2.0000      -0.384320       -10.4579
 264   2.0000      -0.377259       -10.2658
 265   2.0000      -0.376678       -10.2499
 266   2.0000      -0.372648       -10.1403
 267   2.0000      -0.364823        -9.9273
 268   2.0000      -0.356814        -9.7094
 269   2.0000      -0.356152        -9.6914
 270   2.0000      -0.355641        -9.6775
 271   2.0000      -0.349817        -9.5190
 272   2.0000      -0.345147        -9.3919
 273   2.0000      -0.330577        -8.9955
 274   2.0000      -0.327991        -8.9251
 275   2.0000      -0.321152        -8.7390
 276   2.0000      -0.318014        -8.6536
 277   2.0000      -0.307996        -8.3810
 278   2.0000      -0.297930        -8.1071
 279   2.0000      -0.292815        -7.9679
 280   2.0000      -0.289491        -7.8774
 281   2.0000      -0.282651        -7.6913
 282   2.0000      -0.257834        -7.0160
 283   2.0000      -0.255723        -6.9586
 284   2.0000      -0.234016        -6.3679
 285   0.0000      -0.122162        -3.3242
 286   0.0000      -0.090535        -2.4636
 287   0.0000      -0.090378        -2.4593
 288   0.0000      -0.062416        -1.6984
 289   0.0000      -0.050478        -1.3736

MULLIKEN ATOMIC CHARGES
-----------------------
   0 C :    0.292219
   1 C :   -0.338769
   2 C :   -0.184686
   3 N :    0.151687
   4 C :   -0.200747
   5 N :    0.156258
   6 C :    0.020289
   7 C :   -0.026639
   8 C :   -0.066205
   9 C :    0.118143
  10 C :   -0.091591
  11 C :   -0.017973
  12 S :    0.188000
  13 C :   -0.123057
  14 C :    0.038765
  15 Br:    0.026229
  16 C :    0.141109
  17 O :   -0.138666
  18 C :   -0.074257
  19 C :   -0.034323
  20 C :    0.071515
  21 C :   -0.091069
  22 C :    0.009074
  23 C :    0.123225
  24 C :   -0.060284
  25 C :    0.076678
  26 C :    0.107865
  27 C :    0.018748
  28 C :   -0.135943
  29 C :    0.070097
  30 C :    0.023526
  31 C :    0.066664
  32 C :    0.025881
  33 C :   -0.105372
  34 C :    0.124231
  35 C :   -0.005019
  36 C :   -0.039245
  37 C :    0.017711
  38 C :   -0.066908
  39 C :    0.094310
  40 C :   -0.036736
  41 C :   -0.039080
  42 N :    0.058532
  43 C :   -0.125368
  44 C :   -0.137104
  45 N :    0.056682
  46 C :   -0.218646
  47 N :    0.236632
  48 C :   -0.211315
  49 N :    0.242717
  50 C :    0.096754
  51 C :   -0.000924
  52 C :    0.020566
  53 N :   -0.288358
  54 S :    0.553374
  55 N :   -0.281297
  56 C :   -0.161072
  57 S :    0.003915
  58 C :   -0.140997
  59 C :    0.077477
  60 N :   -0.194025
  61 C :    0.154434
  62 C :    0.056764
  63 C :   -0.017668
  64 C :   -0.022466
  65 C :    0.048057
  66 C :   -0.003943
  67 C :    0.042030
  68 C :   -0.025541
  69 C :    0.056832
  70 C :   -0.023455
  71 C :    0.047424
  72 C :   -0.003120
  73 C :    0.056730
  74 C :   -0.029778
  75 C :    0.008729
  76 C :   -0.021399
  77 H :   -0.010134
  78 H :   -0.005474
  79 H :   -0.002633
  80 H :    0.029520
  81 H :   -0.028498
  82 H :   -0.027234
  83 H :   -0.016353
  84 H :   -0.002132
  85 H :    0.001191
  86 H :    0.020838
  87 H :    0.013855
  88 H :    0.023595
  89 H :   -0.000641
  90 H :   -0.002438
  91 H :    0.023895
  92 H :    0.010330
  93 H :    0.020818
  94 H :   -0.034805
  95 H :   -0.018013
  96 H :   -0.027174
  97 H :   -0.004185
  98 H :   -0.004237
  99 H :    0.031293
 100 H :    0.022987
 101 H :    0.033779
 102 H :    0.090944
 103 H :    0.007438
 104 H :    0.009809
 105 H :    0.019714
 106 H :   -0.027332
 107 H :   -0.028120
 108 H :   -0.031090
 109 H :   -0.027154
 110 H :   -0.028872
 111 H :   -0.027223
 112 H :   -0.024214
 113 H :    0.005957
 114 H :    0.015165
Sum of atomic charges:   -0.0000000

LOEWDIN ATOMIC CHARGES
----------------------
   0 C :    0.076149
   1 C :   -0.139058
   2 C :   -0.018180
   3 N :   -0.052077
   4 C :   -0.024506
   5 N :   -0.050078
   6 C :   -0.022211
   7 C :   -0.051092
   8 C :    0.022696
   9 C :   -0.031809
  10 C :   -0.143437
  11 C :   -0.009095
  12 S :    0.433509
  13 C :   -0.270573
  14 C :   -0.070215
  15 Br:    0.138670
  16 C :    0.081831
  17 O :   -0.133104
  18 C :   -0.095087
  19 C :    0.083675
  20 C :   -0.040609
  21 C :   -0.001071
  22 C :   -0.001068
  23 C :    0.003077
  24 C :   -0.018393
  25 C :    0.027193
  26 C :   -0.012304
  27 C :    0.005771
  28 C :   -0.035701
  29 C :   -0.010890
  30 C :   -0.057403
  31 C :   -0.011753
  32 C :   -0.057489
  33 C :   -0.012366
  34 C :   -0.025309
  35 C :   -0.003105
  36 C :   -0.010931
  37 C :    0.022914
  38 C :   -0.030673
  39 C :   -0.001945
  40 C :   -0.010410
  41 C :   -0.004452
  42 N :    0.012252
  43 C :   -0.022676
  44 C :   -0.034067
  45 N :    0.006246
  46 C :   -0.037637
  47 N :   -0.008215
  48 C :   -0.034500
  49 N :   -0.004438
  50 C :   -0.038897
  51 C :   -0.040362
  52 C :   -0.040797
  53 N :   -0.279703
  54 S :    0.685832
  55 N :   -0.285258
  56 C :   -0.080712
  57 S :    0.203522
  58 C :   -0.127321
  59 C :   -0.011885
  60 N :   -0.110987
  61 C :    0.042896
  62 C :   -0.041388
  63 C :   -0.065747
  64 C :    0.031046
  65 C :   -0.074395
  66 C :    0.080724
  67 C :   -0.069698
  68 C :    0.028437
  69 C :   -0.073479
  70 C :    0.043119
  71 C :   -0.079919
  72 C :    0.079780
  73 C :   -0.072448
  74 C :    0.009752
  75 C :   -0.023803
  76 C :   -0.055995
  77 H :    0.041054
  78 H :    0.041184
  79 H :    0.039157
  80 H :    0.045488
  81 H :    0.028731
  82 H :    0.030602
  83 H :    0.031467
  84 H :    0.020159
  85 H :    0.021322
  86 H :    0.025027
  87 H :    0.026304
  88 H :    0.026076
  89 H :    0.020590
  90 H :    0.019976
  91 H :    0.026255
  92 H :    0.024927
  93 H :    0.025297
  94 H :    0.026519
  95 H :    0.030980
  96 H :    0.030637
  97 H :    0.027456
  98 H :    0.029118
  99 H :    0.028619
 100 H :    0.010679
 101 H :    0.021800
 102 H :    0.050310
 103 H :    0.020021
 104 H :    0.020538
 105 H :    0.037133
 106 H :    0.022980
 107 H :    0.033551
 108 H :    0.022077
 109 H :    0.023499
 110 H :    0.033481
 111 H :    0.022797
 112 H :    0.026099
 113 H :    0.017579
 114 H :    0.022142

  Mayer bond orders larger than 0.100000
B(  0-C ,  1-C ) :   1.6464 B(  0-C ,  6-C ) :   1.0112 B(  0-C , 18-C ) :   1.0512
B(  1-C ,  2-C ) :   1.1382 B(  1-C ,  4-C ) :   1.1383 B(  2-C ,  3-N ) :   2.9726
B(  4-C ,  5-N ) :   2.9887 B(  6-C ,  7-C ) :   1.2704 B(  6-C , 11-C ) :   1.4034
B(  7-C ,  8-C ) :   1.4246 B(  7-C , 16-C ) :   0.9434 B(  8-C ,  9-C ) :   1.2483
B(  8-C , 77-H ) :   1.0168 B(  9-C , 10-C ) :   1.3011 B(  9-C , 14-C ) :   1.1638
B( 10-C , 11-C ) :   1.3354 B( 10-C , 12-S ) :   1.0864 B( 11-C , 78-H ) :   0.9804
B( 12-S , 13-C ) :   1.0858 B( 13-C , 14-C ) :   1.6185 B( 13-C , 15-Br) :   1.0196
B( 14-C , 79-H ) :   1.0004 B( 16-C , 17-O ) :   2.2345 B( 16-C , 18-C ) :   0.9310
B( 18-C , 19-C ) :   1.6304 B( 19-C , 20-C ) :   1.0835 B( 19-C , 80-H ) :   0.9512
B( 20-C , 21-C ) :   1.2587 B( 20-C , 25-C ) :   1.3495 B( 21-C , 22-C ) :   1.3993
B( 21-C , 81-H ) :   1.0129 B( 22-C , 23-C ) :   1.3505 B( 22-C , 28-C ) :   0.9143
B( 23-C , 24-C ) :   1.3289 B( 23-C , 26-C ) :   1.0072 B( 24-C , 25-C ) :   1.4047
B( 24-C , 82-H ) :   0.9934 B( 25-C , 83-H ) :   0.9760 B( 26-C , 27-C ) :   1.3652
B( 26-C , 36-C ) :   1.3202 B( 27-C , 28-C ) :   0.9137 B( 27-C , 33-C ) :   1.3729
B( 28-C , 29-C ) :   1.0383 B( 28-C , 31-C ) :   1.0392 B( 29-C , 30-C ) :   1.1008
B( 29-C , 84-H ) :   0.9390 B( 29-C , 85-H ) :   0.9393 B( 30-C , 86-H ) :   0.9648
B( 30-C , 87-H ) :   0.9639 B( 30-C , 88-H ) :   0.9644 B( 31-C , 32-C ) :   1.1015
B( 31-C , 89-H ) :   0.9395 B( 31-C , 90-H ) :   0.9387 B( 32-C , 91-H ) :   0.9642
B( 32-C , 92-H ) :   0.9641 B( 32-C , 93-H ) :   0.9641 B( 33-C , 34-C ) :   1.2784
B( 33-C , 94-H ) :   1.0173 B( 34-C , 35-C ) :   1.3290 B( 34-C , 37-C ) :   1.0658
B( 35-C , 36-C ) :   1.4088 B( 35-C , 95-H ) :   0.9873 B( 36-C , 96-H ) :   0.9910
B( 37-C , 38-C ) :   1.5818 B( 37-C , 97-H ) :   0.9730 B( 38-C , 39-C ) :   1.2087
B( 38-C , 98-H ) :   0.9522 B( 39-C , 40-C ) :   1.2418 B( 39-C , 50-C ) :   0.1423
B( 39-C , 52-C ) :   1.1739 B( 40-C , 41-C ) :   1.1255 B( 40-C , 45-N ) :   1.4355
B( 41-C , 42-N ) :   1.3684 B( 41-C , 50-C ) :   1.3173 B( 42-N , 43-C ) :   1.7578
B( 43-C , 44-C ) :   1.1877 B( 43-C , 48-C ) :   1.1512 B( 44-C , 45-N ) :   1.7503
B( 44-C , 46-C ) :   1.1573 B( 46-C , 47-N ) :   3.0464 B( 48-C , 49-N ) :   3.0477
B( 50-C , 51-C ) :   1.2623 B( 50-C , 56-C ) :   1.0129 B( 51-C , 52-C ) :   1.1049
B( 51-C , 55-N ) :   1.4908 B( 52-C , 53-N ) :   1.4851 B( 53-N , 54-S ) :   1.2897
B( 53-N , 55-N ) :   0.1574 B( 54-S , 55-N ) :   1.2984 B( 56-C , 57-S ) :   1.0180
B( 56-C , 59-C ) :   0.8894 B( 56-C , 99-H ) :   0.8927 B( 57-S , 58-C ) :   0.9850
B( 58-C , 59-C ) :   0.9768 B( 58-C , 62-C ) :   1.0438 B( 58-C ,100-H ) :   0.9227
B( 59-C , 60-N ) :   1.0903 B( 59-C ,101-H ) :   0.9105 B( 60-N , 61-C ) :   1.0742
B( 60-N ,102-H ) :   0.9435 B( 61-C , 62-C ) :   1.0100 B( 61-C ,103-H ) :   0.9469
B( 61-C ,104-H ) :   0.9417 B( 62-C , 63-C ) :   0.9463 B( 62-C ,105-H ) :   0.8755
B( 63-C , 64-C ) :   1.2447 B( 63-C , 74-C ) :   1.5410 B( 64-C , 65-C ) :   1.3340
B( 64-C ,106-H ) :   1.0137 B( 65-C , 66-C ) :   1.1692 B( 65-C , 73-C ) :   1.1710
B( 66-C , 67-C ) :   1.3908 B( 66-C ,107-H ) :   1.0049 B( 67-C , 68-C ) :   1.1335
B( 67-C , 71-C ) :   1.1616 B( 68-C , 69-C ) :   1.4555 B( 68-C ,108-H ) :   1.0109
B( 69-C , 70-C ) :   1.2030 B( 69-C , 75-C ) :   1.0742 B( 70-C , 71-C ) :   1.3463
B( 70-C ,109-H ) :   1.0121 B( 71-C , 72-C ) :   1.1675 B( 72-C , 73-C ) :   1.4026
B( 72-C ,110-H ) :   1.0048 B( 73-C , 74-C ) :   1.0873 B( 74-C ,111-H ) :   1.0162
B( 75-C , 76-C ) :   1.9491 B( 75-C ,112-H ) :   0.9649 B( 76-C ,113-H ) :   0.9520
B( 76-C ,114-H ) :   0.9483

-----------------------------------------------------------------------------
         ABSORPTION SPECTRUM VIA TRANSITION ELECTRIC DIPOLE MOMENTS
-----------------------------------------------------------------------------
State   Energy  Wavelength   fosc         T2         TX        TY        TZ
        (cm-1)    (nm)                  (au**2)     (au)      (au)      (au)
-----------------------------------------------------------------------------
   0    7935.4   1260.2   0.000411263   0.01706  -0.04402   0.11641   0.03965
   1   13511.4    740.1   0.555184506  13.52738  -1.21625   3.46962   0.09913
   2   14476.9    690.8   0.003049020   0.06934  -0.09207   0.24670  -0.00022
   3   15978.6    625.8   0.112962232   2.32739  -0.43161   1.45983   0.09993
   4   19090.7    523.8   0.001285161   0.02216  -0.05854   0.13677  -0.00552
   5   19212.5    520.5   0.000179240   0.00307  -0.01471  -0.04787  -0.02373
   6   22235.5    449.7   0.508695727   7.53160  -0.82370   2.52788   0.68041
   7   22617.8    442.1   0.886065219  12.89708  -1.03284   3.42347  -0.33195
   8   24511.8    408.0   0.009190784   0.12344  -0.13093   0.32360   0.03974
   9   26367.6    379.3   0.000383185   0.00478   0.01167  -0.01214  -0.06709
  10   26760.0    373.7   0.000413809   0.00509   0.01779   0.01024  -0.06833
  11   26809.1    373.0   0.005561659   0.06830   0.04633   0.05024  -0.25224
  12   27373.8    365.3   0.034666823   0.41692  -0.49866   0.27236  -0.30673
  13   27423.1    364.7   0.013707228   0.16455   0.01701   0.03041  -0.40415
  14   27523.9    363.3   0.014999845   0.17941   0.28223  -0.31109   0.05462
  15   28375.3    352.4   0.154112626   1.78802  -0.79890  -0.13417  -1.06385
  16   28549.7    350.3   0.265777056   3.06472  -1.08871   1.24239  -0.57956
  17   28813.6    347.1   0.002239208   0.02558   0.00857   0.02516  -0.15773
  18   29081.5    343.9   0.027809834   0.31482   0.39671  -0.08352   0.38790
  19   29328.7    341.0   0.064603341   0.72517   0.04412   0.41177  -0.74409
  20   29526.1    338.7   0.070765286   0.78902   0.17151  -0.77411   0.40045
  21   29636.4    337.4   0.000163495   0.00182  -0.03115   0.02759   0.00922
  22   30230.0    330.8   0.009838698   0.10715   0.05447  -0.29933  -0.12075
  23   30746.0    325.2   0.001759244   0.01884  -0.10252   0.08763   0.02545
  24   31155.7    321.0   0.103004965   1.08842   1.03562   0.04323   0.11847
  25   31302.4    319.5   0.006557542   0.06897  -0.05927   0.19073  -0.17052
  26   31463.7    317.8   0.011240192   0.11761   0.15747   0.25522  -0.16635
  27   31833.8    314.1   0.007132155   0.07376  -0.09998   0.17553   0.18152
  28   31882.8    313.6   0.149747112   1.54624  -1.07884   0.06198  -0.61523
  29   32083.0    311.7   0.291823355   2.99447   0.66362  -1.56117   0.34181
  30   32132.9    311.2   0.003236718   0.03316  -0.02505  -0.18035   0.00274
  31   32461.3    308.1   0.043484520   0.44101  -0.39927   0.01752   0.53036
  32   33114.1    302.0   0.106524253   1.05904  -0.56152  -0.83968  -0.19666
  33   33302.8    300.3   0.034969085   0.34568  -0.09681  -0.38488   0.43380
  34   33350.1    299.8   0.295140619   2.91345  -0.86584  -1.36299   0.55319
  35   33417.7    299.2   0.578331035   5.69738   1.51711   1.81814  -0.30022
  36   33788.8    296.0   0.579266308   5.64392  -1.94862  -0.30676  -1.32390
  37   34309.9    291.5   0.099046048   0.95037   0.59238  -0.66840  -0.39076
  38   34379.7    290.9   0.398223291   3.81330  -1.41646   1.12096   0.74187
  39   34655.7    288.6   0.087121536   0.82761   0.77469  -0.18054  -0.44144
  40   34741.9    287.8   0.000410248   0.00389  -0.04310   0.02557  -0.03709
  41   34883.8    286.7   0.004958904   0.04680  -0.01329   0.14899  -0.15628
  42   35655.3    280.5   0.011400240   0.10526  -0.03655  -0.23838  -0.21702
  43   35781.7    279.5   0.007601975   0.06994   0.25605   0.04058  -0.05230
  44   36339.1    275.2   0.512695459   4.64473   0.83792  -1.81844  -0.79744
  45   36390.3    274.8   1.204147268  10.89355   0.80974  -2.98606  -1.14949
  46   36435.6    274.5   0.074107561   0.66959  -0.52695   0.61942   0.09075
  47   36780.0    271.9   0.036967110   0.33089   0.57288  -0.00021   0.05192
  48   36805.0    271.7   0.001334577   0.01194   0.10649  -0.01092  -0.02187
  49   37249.6    268.5   0.144796024   1.27971  -0.84520   0.62779  -0.41381
  50   37320.2    268.0   0.002587885   0.02283  -0.13638   0.06426  -0.00991
  51   37384.0    267.5   0.000998819   0.00880  -0.02861   0.07837   0.04284
  52   37761.4    264.8   0.007523288   0.06559  -0.25336   0.03276  -0.01809
  53   37964.3    263.4   0.000063072   0.00055   0.01170  -0.00635   0.01923
  54   38453.3    260.1   0.004794153   0.04104   0.19655   0.02088   0.04447
  55   38868.6    257.3   0.002464588   0.02087   0.00547   0.13939  -0.03760
  56   39137.8    255.5   0.060516529   0.50904  -0.20756   0.66341   0.16077
  57   39781.7    251.4   0.109759978   0.90831   0.04991  -0.95174   0.00466
  58   39992.6    250.0   0.132590791   1.09146   0.26060   0.89423  -0.47318
  59   40038.2    249.8   0.016812041   0.13824  -0.11456   0.31710   0.15672
  60   40125.5    249.2   0.068769337   0.56422   0.16507  -0.69552   0.23070

FINAL SINGLE POINT ENERGY     -6755.714512369073

DIPOLE MOMENT
-------------
                                X             Y             Z
Electronic contribution:    146.94328    -225.92809      54.43499
Nuclear contribution   :   -148.57253     225.33013     -52.67985
                        -----------------------------------------
Total Dipole Moment    :     -1.62924      -0.59796       1.75514
                        -----------------------------------------
Magnitude (a.u.)       :      2.46830
Magnitude (Debye)      :      6.27393

Rotational constants in cm-1:     0.002050     0.000129     0.000126
Rotational constants in MHz :    61.465917     3.880370     3.780601

                             ****ORCA TERMINATED NORMALLY****
TOTAL RUN TIME: 0 days 0 hours 13 minutes 38 seconds 905 msec
