                         Program Version 4.2.0 -  RELEASE  -
|  1> # ORCA input file
|  2> # SCF done       -156.185732497991          0.008292378071
|  3> ! CAM-B3LYP def2-SVP def2/J RIJCOSX Grid4 TightSCF
|  4> %maxcore 5000
|  5> %tddft
|  6>     Mode sTDDFT
|  7>     Ethresh 5.0
|  8>     maxcore 5000
|  9> end
| 10>
| 11> %pal
| 12>   nprocs 6
| 13>   end
| 14> * xyz 0 1
| 15>    C       -7.30913        -4.20866         6.73153
| 16>    C       -5.99330        -4.18058         7.15214
| 17>    C       -4.95686        -4.89747         6.53242
| 18>    N       -4.08148        -5.47694         6.06200
| 19>    C       -5.55157        -3.44469         8.26540
| 20>    N       -5.14325        -2.85150         9.16188
| 21>    C       -7.80145        -4.89573         5.53341
| 22>    C       -9.20404        -4.72858         5.45899
| 23>    C       -9.95649        -5.17550         4.40322
| 24>    C       -9.28707        -5.81207         3.35282
| 25>    C       -7.88951        -5.98911         3.43931
| 26>    C       -7.12854        -5.54372         4.51582
| 27>    S       -7.26703        -6.81451         2.04280
| 28>    C       -8.87324        -6.90730         1.37948
| 29>    C       -9.82981        -6.34741         2.15154
| 30>   Br       -9.14585        -7.77319        -0.25287
| 31>    C       -9.65209        -3.94528         6.62711
| 32>    O      -10.79301        -3.80701         7.01530
| 33>    C       -8.40361        -3.48479         7.29093
| 34>    C       -8.42293        -2.48856         8.26780
| 35>    C       -9.35540        -1.45757         8.22665
| 36>    C       -9.96334        -1.03825         7.04450
| 37>    C      -11.08481        -0.21507         6.86588
| 38>    C      -11.48335        -0.07723         5.55544
| 39>    C      -10.66400        -0.75805         4.64644
| 40>    S       -9.32114        -1.49627         5.47972
| 41>    C      -10.81198        -1.05071         3.29404
| 42>    C      -11.84924        -0.75219         2.39671
| 43>    C      -11.69309        -1.33406         1.16832
| 44>    C      -10.51644        -2.10539         1.03484
| 45>    S       -9.60971        -2.06596         2.53246
| 46>    C      -10.12107        -2.81552        -0.07598
| 47>    C       -8.92667        -3.52285        -0.25438
| 48>    S       -7.55298        -3.33813         0.81646
| 49>    C       -6.56537        -4.26246        -0.24691
| 50>    C       -7.21842        -4.71182        -1.35131
| 51>    C       -6.58677        -5.56222        -2.40139
| 52>    C       -8.59257        -4.32748        -1.35789
| 53>    C       -9.52385        -4.82709        -2.31810
| 54>    C      -10.81892        -5.11742        -2.04649
| 55>    C      -11.71251        -5.76733        -2.94295
| 56>    C      -11.64859        -5.76670        -4.29793
| 57>    C      -12.45951        -6.61925        -5.09707
| 58>    S      -12.99878        -6.14889        -6.68220
| 59>    C      -13.89270        -7.60783        -6.83563
| 60>    C      -13.78782        -8.42877        -5.75583
| 61>    C      -14.45007        -9.76310        -5.68168
| 62>    C      -12.94657        -7.87588        -4.74346
| 63>    C      -12.46856        -8.53248        -3.55466
| 64>    C      -13.09540        -9.42494        -2.76395
| 65>    C      -12.45496        -9.93909        -1.59024
| 66>    C      -13.07431       -10.70455        -0.67198
| 67>    C      -12.49596       -11.19267         0.55503
| 68>    C      -11.23101       -11.57022         0.78310
| 69>    C      -10.15381       -11.62222        -0.25120
| 70>    C      -10.81167       -12.03732         2.16144
| 71>    N       -9.75514       -11.24149         2.73776
| 72>    C       -9.98360       -10.12474         3.49746
| 73>    C       -9.05050        -9.26968         3.91013
| 74>    H      -11.02459        -5.02537         4.37900
| 75>    H       -6.06306        -5.69846         4.53073
| 76>    H      -10.87388        -6.32272         1.89761
| 77>    H       -7.70425        -2.50292         9.07587
| 78>    H       -9.57621        -0.90041         9.12702
| 79>    H      -11.61563         0.20495         7.70225
| 80>    H      -12.35117         0.47773         5.24515
| 81>    H      -12.68621        -0.13778         2.67669
| 82>    H      -12.39160        -1.23436         0.35678
| 83>    H      -10.79608        -2.80133        -0.92211
| 84>    H       -5.53911        -4.43638         0.01514
| 85>    H       -5.54440        -5.74951        -2.15775
| 86>    H       -6.63515        -5.06849        -3.37098
| 87>    H       -7.10704        -6.51620        -2.47811
| 88>    H       -9.11712        -5.10897        -3.27861
| 89>    H      -11.18232        -4.98319        -1.03647
| 90>    H      -12.51920        -6.31640        -2.47539
| 91>    H      -10.98992        -5.08164        -4.81441
| 92>    H      -14.45017        -7.78297        -7.73533
| 93>    H      -14.75611       -10.08863        -6.67211
| 94>    H      -15.33761        -9.71307        -5.05126
| 95>    H      -13.77031       -10.49797        -5.25676
| 96>    H      -11.47006        -8.22925        -3.25561
| 97>    H      -14.11427        -9.73112        -2.95058
| 98>    H      -11.43698        -9.61515        -1.42962
| 99>    H      -14.12403       -10.93904        -0.81570
|100>    H      -13.20660       -11.29798         1.36971
|101>    H      -10.57479       -11.73941        -1.24705
|102>    H       -9.48196       -12.45588        -0.04988
|103>    H       -9.56192       -10.70601        -0.24604
|104>    H      -10.45751       -13.07434         2.09730
|105>    H      -11.66315       -12.00767         2.84466
|106>    H       -8.83783       -11.33004         2.33276
|107>    H      -11.01380       -10.00226         3.79760
|108>    H       -8.01889        -9.38252         3.62314
|109>    H       -9.29176        -8.44382         4.55928
|110> *
|111>
|112>                          ****END OF INPUT****

CARTESIAN COORDINATES (ANGSTROEM)
---------------------------------
  C     -7.309130   -4.208660    6.731530
  C     -5.993300   -4.180580    7.152140
  C     -4.956860   -4.897470    6.532420
  N     -4.081480   -5.476940    6.062000
  C     -5.551570   -3.444690    8.265400
  N     -5.143250   -2.851500    9.161880
  C     -7.801450   -4.895730    5.533410
  C     -9.204040   -4.728580    5.458990
  C     -9.956490   -5.175500    4.403220
  C     -9.287070   -5.812070    3.352820
  C     -7.889510   -5.989110    3.439310
  C     -7.128540   -5.543720    4.515820
  S     -7.267030   -6.814510    2.042800
  C     -8.873240   -6.907300    1.379480
  C     -9.829810   -6.347410    2.151540
  Br    -9.145850   -7.773190   -0.252870
  C     -9.652090   -3.945280    6.627110
  O    -10.793010   -3.807010    7.015300
  C     -8.403610   -3.484790    7.290930
  C     -8.422930   -2.488560    8.267800
  C     -9.355400   -1.457570    8.226650
  C     -9.963340   -1.038250    7.044500
  C    -11.084810   -0.215070    6.865880
  C    -11.483350   -0.077230    5.555440
  C    -10.664000   -0.758050    4.646440
  S     -9.321140   -1.496270    5.479720
  C    -10.811980   -1.050710    3.294040
  C    -11.849240   -0.752190    2.396710
  C    -11.693090   -1.334060    1.168320
  C    -10.516440   -2.105390    1.034840
  S     -9.609710   -2.065960    2.532460
  C    -10.121070   -2.815520   -0.075980
  C     -8.926670   -3.522850   -0.254380
  S     -7.552980   -3.338130    0.816460
  C     -6.565370   -4.262460   -0.246910
  C     -7.218420   -4.711820   -1.351310
  C     -6.586770   -5.562220   -2.401390
  C     -8.592570   -4.327480   -1.357890
  C     -9.523850   -4.827090   -2.318100
  C    -10.818920   -5.117420   -2.046490
  C    -11.712510   -5.767330   -2.942950
  C    -11.648590   -5.766700   -4.297930
  C    -12.459510   -6.619250   -5.097070
  S    -12.998780   -6.148890   -6.682200
  C    -13.892700   -7.607830   -6.835630
  C    -13.787820   -8.428770   -5.755830
  C    -14.450070   -9.763100   -5.681680
  C    -12.946570   -7.875880   -4.743460
  C    -12.468560   -8.532480   -3.554660
  C    -13.095400   -9.424940   -2.763950
  C    -12.454960   -9.939090   -1.590240
  C    -13.074310  -10.704550   -0.671980
  C    -12.495960  -11.192670    0.555030
  C    -11.231010  -11.570220    0.783100
  C    -10.153810  -11.622220   -0.251200
  C    -10.811670  -12.037320    2.161440
  N     -9.755140  -11.241490    2.737760
  C     -9.983600  -10.124740    3.497460
  C     -9.050500   -9.269680    3.910130
  H    -11.024590   -5.025370    4.379000
  H     -6.063060   -5.698460    4.530730
  H    -10.873880   -6.322720    1.897610
  H     -7.704250   -2.502920    9.075870
  H     -9.576210   -0.900410    9.127020
  H    -11.615630    0.204950    7.702250
  H    -12.351170    0.477730    5.245150
  H    -12.686210   -0.137780    2.676690
  H    -12.391600   -1.234360    0.356780
  H    -10.796080   -2.801330   -0.922110
  H     -5.539110   -4.436380    0.015140
  H     -5.544400   -5.749510   -2.157750
  H     -6.635150   -5.068490   -3.370980
  H     -7.107040   -6.516200   -2.478110
  H     -9.117120   -5.108970   -3.278610
  H    -11.182320   -4.983190   -1.036470
  H    -12.519200   -6.316400   -2.475390
  H    -10.989920   -5.081640   -4.814410
  H    -14.450170   -7.782970   -7.735330
  H    -14.756110  -10.088630   -6.672110
  H    -15.337610   -9.713070   -5.051260
  H    -13.770310  -10.497970   -5.256760
  H    -11.470060   -8.229250   -3.255610
  H    -14.114270   -9.731120   -2.950580
  H    -11.436980   -9.615150   -1.429620
  H    -14.124030  -10.939040   -0.815700
  H    -13.206600  -11.297980    1.369710
  H    -10.574790  -11.739410   -1.247050
  H     -9.481960  -12.455880   -0.049880
  H     -9.561920  -10.706010   -0.246040
  H    -10.457510  -13.074340    2.097300
  H    -11.663150  -12.007670    2.844660
  H     -8.837830  -11.330040    2.332760
  H    -11.013800  -10.002260    3.797600
  H     -8.018890   -9.382520    3.623140
  H     -9.291760   -8.443820    4.559280

 Total Charge           Charge          ....    0
 Multiplicity           Mult            ....    1
 Number of Electrons    NEL             ....  474
 Basis Dimension        Dim             .... 1044

ORBITAL ENERGIES
----------------

  NO   OCC          E(Eh)            E(eV)
   0   2.0000    -482.883958    -13139.9405
   1   2.0000     -88.963440     -2420.8183
   2   2.0000     -88.963259     -2420.8133
   3   2.0000     -88.962316     -2420.7877
   4   2.0000     -88.953607     -2420.5507
   5   2.0000     -88.952221     -2420.5130
   6   2.0000     -62.560614     -1702.3609
   7   2.0000     -56.394520     -1534.5729
   8   2.0000     -56.392035     -1534.5053
   9   2.0000     -56.391861     -1534.5005
  10   2.0000     -19.187014      -522.1052
  11   2.0000     -14.401348      -391.8806
  12   2.0000     -14.384515      -391.4226
  13   2.0000     -14.384167      -391.4131
  14   2.0000     -10.344746      -281.4948
  15   2.0000     -10.341866      -281.4165
  16   2.0000     -10.333594      -281.1914
  17   2.0000     -10.321667      -280.8668
  18   2.0000     -10.319797      -280.8159
  19   2.0000     -10.313797      -280.6527
  20   2.0000     -10.313646      -280.6486
  21   2.0000     -10.312283      -280.6115
  22   2.0000     -10.311575      -280.5922
  23   2.0000     -10.307880      -280.4917
  24   2.0000     -10.306504      -280.4542
  25   2.0000     -10.303080      -280.3611
  26   2.0000     -10.302870      -280.3554
  27   2.0000     -10.302212      -280.3375
  28   2.0000     -10.299171      -280.2547
  29   2.0000     -10.298940      -280.2484
  30   2.0000     -10.295694      -280.1601
  31   2.0000     -10.295578      -280.1569
  32   2.0000     -10.290101      -280.0079
  33   2.0000     -10.290056      -280.0067
  34   2.0000     -10.289951      -280.0038
  35   2.0000     -10.289824      -280.0003
  36   2.0000     -10.288721      -279.9703
  37   2.0000     -10.288411      -279.9619
  38   2.0000     -10.287876      -279.9474
  39   2.0000     -10.287791      -279.9450
  40   2.0000     -10.287560      -279.9387
  41   2.0000     -10.287198      -279.9289
  42   2.0000     -10.287151      -279.9276
  43   2.0000     -10.284192      -279.8471
  44   2.0000     -10.284147      -279.8459
  45   2.0000     -10.281847      -279.7833
  46   2.0000     -10.281288      -279.7681
  47   2.0000     -10.281220      -279.7662
  48   2.0000     -10.280349      -279.7425
  49   2.0000     -10.279916      -279.7307
  50   2.0000     -10.275585      -279.6129
  51   2.0000     -10.274168      -279.5743
  52   2.0000     -10.273092      -279.5450
  53   2.0000     -10.270773      -279.4819
  54   2.0000     -10.270590      -279.4770
  55   2.0000     -10.269108      -279.4366
  56   2.0000     -10.268461      -279.4190
  57   2.0000     -10.267718      -279.3988
  58   2.0000     -10.266801      -279.3739
  59   2.0000     -10.264723      -279.3173
  60   2.0000     -10.258908      -279.1591
  61   2.0000     -10.258885      -279.1585
  62   2.0000     -10.216307      -277.9998
  63   2.0000      -8.789680      -239.1794
  64   2.0000      -8.059109      -219.2995
  65   2.0000      -8.058385      -219.2798
  66   2.0000      -8.057670      -219.2604
  67   2.0000      -8.049765      -219.0452
  68   2.0000      -8.047427      -218.9816
  69   2.0000      -6.625551      -180.2904
  70   2.0000      -6.611594      -179.9106
  71   2.0000      -6.611512      -179.9084
  72   2.0000      -6.028791      -164.0517
  73   2.0000      -6.027797      -164.0247
  74   2.0000      -6.027447      -164.0152
  75   2.0000      -6.024553      -163.9364
  76   2.0000      -6.023366      -163.9041
  77   2.0000      -6.023152      -163.8983
  78   2.0000      -6.020572      -163.8281
  79   2.0000      -6.020295      -163.8206
  80   2.0000      -6.018991      -163.7851
  81   2.0000      -6.018874      -163.7819
  82   2.0000      -6.017111      -163.7339
  83   2.0000      -6.014848      -163.6723
  84   2.0000      -6.012963      -163.6210
  85   2.0000      -6.011999      -163.5948
  86   2.0000      -6.008648      -163.5036
  87   2.0000      -2.741542       -74.6011
  88   2.0000      -2.737569       -74.4930
  89   2.0000      -2.737552       -74.4926
  90   2.0000      -2.726426       -74.1898
  91   2.0000      -2.726420       -74.1897
  92   2.0000      -1.103861       -30.0376
  93   2.0000      -1.012069       -27.5398
  94   2.0000      -1.004451       -27.3325
  95   2.0000      -1.003522       -27.3072
  96   2.0000      -0.996297       -27.1106
  97   2.0000      -0.986224       -26.8365
  98   2.0000      -0.985743       -26.8234
  99   2.0000      -0.982781       -26.7428
 100   2.0000      -0.965535       -26.2735
 101   2.0000      -0.963836       -26.2273
 102   2.0000      -0.927246       -25.2317
 103   2.0000      -0.922191       -25.0941
 104   2.0000      -0.914197       -24.8766
 105   2.0000      -0.912220       -24.8228
 106   2.0000      -0.897501       -24.4222
 107   2.0000      -0.892074       -24.2746
 108   2.0000      -0.888416       -24.1750
 109   2.0000      -0.884854       -24.0781
 110   2.0000      -0.871841       -23.7240
 111   2.0000      -0.866337       -23.5742
 112   2.0000      -0.860835       -23.4245
 113   2.0000      -0.855029       -23.2665
 114   2.0000      -0.854301       -23.2467
 115   2.0000      -0.844763       -22.9872
 116   2.0000      -0.830581       -22.6013
 117   2.0000      -0.828247       -22.5378
 118   2.0000      -0.818641       -22.2764
 119   2.0000      -0.811221       -22.0744
 120   2.0000      -0.806760       -21.9531
 121   2.0000      -0.796258       -21.6673
 122   2.0000      -0.788486       -21.4558
 123   2.0000      -0.771896       -21.0044
 124   2.0000      -0.767246       -20.8778
 125   2.0000      -0.759995       -20.6805
 126   2.0000      -0.750511       -20.4225
 127   2.0000      -0.737989       -20.0817
 128   2.0000      -0.733519       -19.9601
 129   2.0000      -0.725507       -19.7421
 130   2.0000      -0.716020       -19.4839
 131   2.0000      -0.696195       -18.9444
 132   2.0000      -0.686742       -18.6872
 133   2.0000      -0.681933       -18.5564
 134   2.0000      -0.674999       -18.3677
 135   2.0000      -0.664885       -18.0924
 136   2.0000      -0.662809       -18.0359
 137   2.0000      -0.656925       -17.8758
 138   2.0000      -0.656243       -17.8573
 139   2.0000      -0.647964       -17.6320
 140   2.0000      -0.642786       -17.4911
 141   2.0000      -0.636801       -17.3282
 142   2.0000      -0.635589       -17.2953
 143   2.0000      -0.631558       -17.1856
 144   2.0000      -0.619155       -16.8481
 145   2.0000      -0.612526       -16.6677
 146   2.0000      -0.610965       -16.6252
 147   2.0000      -0.602854       -16.4045
 148   2.0000      -0.601802       -16.3759
 149   2.0000      -0.590549       -16.0697
 150   2.0000      -0.581451       -15.8221
 151   2.0000      -0.574320       -15.6280
 152   2.0000      -0.570513       -15.5244
 153   2.0000      -0.565907       -15.3991
 154   2.0000      -0.562718       -15.3123
 155   2.0000      -0.560343       -15.2477
 156   2.0000      -0.557788       -15.1782
 157   2.0000      -0.549340       -14.9483
 158   2.0000      -0.546038       -14.8584
 159   2.0000      -0.539741       -14.6871
 160   2.0000      -0.535997       -14.5852
 161   2.0000      -0.530846       -14.4451
 162   2.0000      -0.530109       -14.4250
 163   2.0000      -0.526557       -14.3283
 164   2.0000      -0.524396       -14.2695
 165   2.0000      -0.518693       -14.1143
 166   2.0000      -0.516762       -14.0618
 167   2.0000      -0.516054       -14.0425
 168   2.0000      -0.513483       -13.9726
 169   2.0000      -0.510391       -13.8884
 170   2.0000      -0.507735       -13.8162
 171   2.0000      -0.507210       -13.8019
 172   2.0000      -0.503750       -13.7077
 173   2.0000      -0.502524       -13.6744
 174   2.0000      -0.497629       -13.5412
 175   2.0000      -0.497239       -13.5306
 176   2.0000      -0.492867       -13.4116
 177   2.0000      -0.491112       -13.3638
 178   2.0000      -0.488527       -13.2935
 179   2.0000      -0.484792       -13.1919
 180   2.0000      -0.479748       -13.0546
 181   2.0000      -0.479169       -13.0388
 182   2.0000      -0.474763       -12.9190
 183   2.0000      -0.471641       -12.8340
 184   2.0000      -0.468768       -12.7558
 185   2.0000      -0.467144       -12.7116
 186   2.0000      -0.465232       -12.6596
 187   2.0000      -0.464100       -12.6288
 188   2.0000      -0.461396       -12.5552
 189   2.0000      -0.459733       -12.5100
 190   2.0000      -0.457964       -12.4618
 191   2.0000      -0.456756       -12.4290
 192   2.0000      -0.453757       -12.3474
 193   2.0000      -0.449185       -12.2229
 194   2.0000      -0.447263       -12.1706
 195   2.0000      -0.443554       -12.0697
 196   2.0000      -0.442200       -12.0329
 197   2.0000      -0.440705       -11.9922
 198   2.0000      -0.434216       -11.8156
 199   2.0000      -0.432873       -11.7791
 200   2.0000      -0.431239       -11.7346
 201   2.0000      -0.425842       -11.5877
 202   2.0000      -0.423277       -11.5180
 203   2.0000      -0.421977       -11.4826
 204   2.0000      -0.421089       -11.4584
 205   2.0000      -0.420322       -11.4375
 206   2.0000      -0.419410       -11.4127
 207   2.0000      -0.418303       -11.3826
 208   2.0000      -0.415964       -11.3189
 209   2.0000      -0.409498       -11.1430
 210   2.0000      -0.405380       -11.0310
 211   2.0000      -0.403873       -10.9900
 212   2.0000      -0.399572       -10.8729
 213   2.0000      -0.398252       -10.8370
 214   2.0000      -0.395663       -10.7665
 215   2.0000      -0.386236       -10.5100
 216   2.0000      -0.382165       -10.3992
 217   2.0000      -0.379383       -10.3235
 218   2.0000      -0.372443       -10.1347
 219   2.0000      -0.371135       -10.0991
 220   2.0000      -0.367639       -10.0040
 221   2.0000      -0.356351        -9.6968
 222   2.0000      -0.355458        -9.6725
 223   2.0000      -0.347241        -9.4489
 224   2.0000      -0.339572        -9.2402
 225   2.0000      -0.326741        -8.8911
 226   2.0000      -0.317974        -8.6525
 227   2.0000      -0.314680        -8.5629
 228   2.0000      -0.311908        -8.4875
 229   2.0000      -0.311414        -8.4740
 230   2.0000      -0.297383        -8.0922
 231   2.0000      -0.283670        -7.7191
 232   2.0000      -0.274489        -7.4692
 233   2.0000      -0.267969        -7.2918
 234   2.0000      -0.248677        -6.7668
 235   2.0000      -0.241911        -6.5827
 236   2.0000      -0.216651        -5.8954
 237   0.0000      -0.109968        -2.9924
 238   0.0000      -0.057847        -1.5741
 239   0.0000      -0.042846        -1.1659
 240   0.0000      -0.032718        -0.8903
 241   0.0000      -0.010251        -0.2789

MULLIKEN ATOMIC CHARGES
-----------------------
   0 C :    0.335963
   1 C :   -0.371211
   2 C :   -0.182548
   3 N :    0.117030
   4 C :   -0.200099
   5 N :    0.127456
   6 C :    0.028031
   7 C :    0.024266
   8 C :   -0.082194
   9 C :    0.113354
  10 C :   -0.080078
  11 C :   -0.040397
  12 S :    0.161395
  13 C :   -0.110942
  14 C :    0.054004
  15 Br:    0.011978
  16 C :    0.096936
  17 O :   -0.155655
  18 C :   -0.228837
  19 C :    0.058633
  20 C :    0.010867
  21 C :   -0.011575
  22 C :    0.045793
  23 C :    0.039656
  24 C :   -0.046293
  25 S :    0.081009
  26 C :   -0.005874
  27 C :    0.021280
  28 C :    0.047620
  29 C :   -0.065316
  30 S :    0.099809
  31 C :    0.015721
  32 C :   -0.148879
  33 S :    0.118413
  34 C :   -0.092338
  35 C :   -0.079785
  36 C :    0.124892
  37 C :    0.129803
  38 C :   -0.034150
  39 C :    0.015292
  40 C :   -0.039628
  41 C :    0.036842
  42 C :   -0.152959
  43 S :    0.117492
  44 C :   -0.128913
  45 C :   -0.077322
  46 C :    0.115800
  47 C :    0.131601
  48 C :   -0.083058
  49 C :    0.005420
  50 C :    0.011522
  51 C :   -0.002445
  52 C :   -0.006550
  53 C :   -0.155400
  54 C :    0.076802
  55 C :    0.190887
  56 N :   -0.191862
  57 C :    0.051155
  58 C :   -0.095371
  59 H :   -0.022949
  60 H :   -0.015000
  61 H :   -0.014757
  62 H :    0.035436
  63 H :   -0.002385
  64 H :   -0.006854
  65 H :   -0.007587
  66 H :   -0.008120
  67 H :   -0.002985
  68 H :    0.010898
  69 H :    0.027517
  70 H :    0.012709
  71 H :    0.028952
  72 H :    0.024688
  73 H :   -0.011841
  74 H :    0.001233
  75 H :    0.023799
  76 H :   -0.002681
  77 H :    0.014419
  78 H :    0.006836
  79 H :    0.033856
  80 H :    0.029129
  81 H :    0.007677
  82 H :   -0.020053
  83 H :   -0.027189
  84 H :   -0.013755
  85 H :   -0.022249
  86 H :    0.026832
  87 H :    0.003107
  88 H :    0.026106
  89 H :    0.012023
  90 H :   -0.000006
  91 H :    0.106260
  92 H :   -0.009039
  93 H :   -0.010038
  94 H :    0.018969
Sum of atomic charges:   -0.0000000

LOEWDIN ATOMIC CHARGES
----------------------
   0 C :    0.066666
   1 C :   -0.175028
   2 C :   -0.020701
   3 N :   -0.086125
   4 C :   -0.020196
   5 N :   -0.077797
   6 C :   -0.009790
   7 C :   -0.051822
   8 C :    0.011689
   9 C :   -0.041382
  10 C :   -0.143153
  11 C :   -0.019800
  12 S :    0.430189
  13 C :   -0.277069
  14 C :   -0.064136
  15 Br:    0.155813
  16 C :    0.052395
  17 O :   -0.162035
  18 C :   -0.144627
  19 C :    0.057008
  20 C :   -0.075757
  21 C :   -0.082249
  22 C :   -0.044020
  23 C :   -0.002045
  24 C :   -0.199607
  25 S :    0.449545
  26 C :   -0.141038
  27 C :   -0.049474
  28 C :   -0.007925
  29 C :   -0.177573
  30 S :    0.406664
  31 C :   -0.024997
  32 C :   -0.177969
  33 S :    0.438483
  34 C :   -0.169071
  35 C :   -0.060148
  36 C :   -0.044255
  37 C :   -0.036153
  38 C :   -0.021671
  39 C :   -0.019948
  40 C :   -0.031999
  41 C :   -0.028137
  42 C :   -0.178230
  43 S :    0.426120
  44 C :   -0.190453
  45 C :   -0.054882
  46 C :   -0.044554
  47 C :   -0.054980
  48 C :   -0.026609
  49 C :   -0.032076
  50 C :   -0.028298
  51 C :   -0.032051
  52 C :   -0.061919
  53 C :   -0.027435
  54 C :   -0.059765
  55 C :    0.041715
  56 N :   -0.036112
  57 C :    0.024113
  58 C :   -0.166440
  59 H :    0.035635
  60 H :    0.038216
  61 H :    0.034082
  62 H :    0.042155
  63 H :    0.036567
  64 H :    0.036215
  65 H :    0.034741
  66 H :    0.034944
  67 H :    0.036925
  68 H :    0.045177
  69 H :    0.026132
  70 H :    0.035325
  71 H :    0.035407
  72 H :    0.031380
  73 H :    0.026956
  74 H :    0.028811
  75 H :    0.037851
  76 H :    0.027229
  77 H :    0.021082
  78 H :    0.031760
  79 H :    0.034922
  80 H :    0.035815
  81 H :    0.030234
  82 H :    0.024404
  83 H :    0.019960
  84 H :    0.024931
  85 H :    0.023770
  86 H :    0.034383
  87 H :    0.024752
  88 H :    0.024176
  89 H :    0.024309
  90 H :    0.025094
  91 H :    0.067901
  92 H :    0.020922
  93 H :    0.006998
  94 H :    0.021939

  Mayer bond orders larger than 0.100000
B(  0-C ,  1-C ) :   1.5512 B(  0-C ,  6-C ) :   0.9828 B(  0-C , 18-C ) :   1.1786
B(  1-C ,  2-C ) :   1.1509 B(  1-C ,  4-C ) :   1.1619 B(  2-C ,  3-N ) :   2.9551
B(  4-C ,  5-N ) :   2.9699 B(  6-C ,  7-C ) :   1.2851 B(  6-C , 11-C ) :   1.4173
B(  7-C ,  8-C ) :   1.4248 B(  7-C , 16-C ) :   0.8909 B(  8-C ,  9-C ) :   1.2294
B(  8-C , 59-H ) :   1.0215 B(  9-C , 10-C ) :   1.3255 B(  9-C , 14-C ) :   1.1611
B( 10-C , 11-C ) :   1.3133 B( 10-C , 12-S ) :   1.0787 B( 11-C , 60-H ) :   0.9821
B( 12-S , 13-C ) :   1.0847 B( 13-C , 14-C ) :   1.6163 B( 13-C , 15-Br) :   1.0055
B( 14-C , 61-H ) :   0.9995 B( 16-C , 17-O ) :   2.2553 B( 16-C , 18-C ) :   0.9527
B( 18-C , 19-C ) :   1.3715 B( 19-C , 20-C ) :   1.3791 B( 19-C , 62-H ) :   0.9447
B( 20-C , 21-C ) :   1.3809 B( 20-C , 63-H ) :   0.9618 B( 21-C , 22-C ) :   1.2508
B( 21-C , 25-S ) :   1.0917 B( 22-C , 23-C ) :   1.4861 B( 22-C , 64-H ) :   0.9970
B( 23-C , 24-C ) :   1.2683 B( 23-C , 65-H ) :   0.9940 B( 24-C , 25-S ) :   1.0494
B( 24-C , 26-C ) :   1.3976 B( 26-C , 27-C ) :   1.2289 B( 26-C , 30-S ) :   1.0996
B( 27-C , 28-C ) :   1.5423 B( 27-C , 66-H ) :   0.9953 B( 28-C , 29-C ) :   1.1754
B( 28-C , 67-H ) :   0.9992 B( 29-C , 30-S ) :   1.0322 B( 29-C , 31-C ) :   1.5237
B( 31-C , 32-C ) :   1.2277 B( 31-C , 68-H ) :   0.9626 B( 32-C , 33-S ) :   1.1008
B( 32-C , 37-C ) :   1.3680 B( 33-S , 34-C ) :   1.1446 B( 34-C , 35-C ) :   1.5842
B( 34-C , 69-H ) :   0.9645 B( 35-C , 36-C ) :   1.0948 B( 35-C , 37-C ) :   1.2445
B( 36-C , 70-H ) :   0.9489 B( 36-C , 71-H ) :   0.9411 B( 36-C , 72-H ) :   0.9402
B( 37-C , 38-C ) :   1.1363 B( 38-C , 39-C ) :   1.6794 B( 38-C , 73-H ) :   0.9493
B( 39-C , 40-C ) :   1.1364 B( 39-C , 74-H ) :   0.9690 B( 40-C , 41-C ) :   1.6964
B( 40-C , 75-H ) :   0.9632 B( 41-C , 42-C ) :   1.1213 B( 41-C , 76-H ) :   0.9576
B( 42-C , 43-S ) :   1.1247 B( 42-C , 47-C ) :   1.4450 B( 43-S , 44-C ) :   1.1445
B( 44-C , 45-C ) :   1.5868 B( 44-C , 77-H ) :   0.9666 B( 45-C , 46-C ) :   1.0949
B( 45-C , 47-C ) :   1.2490 B( 46-C , 78-H ) :   0.9472 B( 46-C , 79-H ) :   0.9441
B( 46-C , 80-H ) :   0.9432 B( 47-C , 48-C ) :   1.0611 B( 48-C , 49-C ) :   1.6983
B( 48-C , 81-H ) :   0.9578 B( 49-C , 50-C ) :   1.1047 B( 49-C , 82-H ) :   0.9884
B( 50-C , 51-C ) :   1.7242 B( 50-C , 83-H ) :   0.9802 B( 51-C , 52-C ) :   1.0654
B( 51-C , 84-H ) :   0.9595 B( 52-C , 53-C ) :   1.8565 B( 52-C , 85-H ) :   0.9457
B( 53-C , 54-C ) :   1.0724 B( 53-C , 55-C ) :   1.0328 B( 54-C , 86-H ) :   0.9413
B( 54-C , 87-H ) :   0.9464 B( 54-C , 88-H ) :   0.9384 B( 55-C , 56-N ) :   1.0392
B( 55-C , 89-H ) :   0.9361 B( 55-C , 90-H ) :   0.9378 B( 56-N , 57-C ) :   1.1575
B( 56-N , 91-H ) :   0.9458 B( 57-C , 58-C ) :   1.8880 B( 57-C , 92-H ) :   0.9609
B( 58-C , 93-H ) :   0.9576 B( 58-C , 94-H ) :   0.9504

-----------------------------------------------------------------------------
         ABSORPTION SPECTRUM VIA TRANSITION ELECTRIC DIPOLE MOMENTS
-----------------------------------------------------------------------------
State   Energy  Wavelength   fosc         T2         TX        TY        TZ
        (cm-1)    (nm)                  (au**2)     (au)      (au)      (au)
-----------------------------------------------------------------------------
   0    8140.7   1228.4   0.364353453  14.73461  -1.15477   0.02985  -3.66063
   1   16079.3    621.9   0.178287519   3.65031  -0.20316  -1.62945  -0.97670
   2   17290.7    578.3   0.095631944   1.82082   0.08692   0.98113   0.92231
   3   18647.5    536.3   0.205103604   3.62099   0.28387   1.66351   0.87929
   4   19242.2    519.7   0.045109469   0.77177  -0.13556   0.59669   0.63036
   5   20174.0    495.7   0.145184686   2.36921  -0.20927   0.68422   1.36281
   6   20928.7    477.8   0.322425905   5.07181  -1.58487   1.37149   0.82404
   7   23203.2    431.0   0.080225975   1.13826   0.31063   0.23761   0.99263
   8   23332.8    428.6   0.125565320   1.77165  -0.02122  -0.82699  -1.04273
   9   24326.3    411.1   0.109515248   1.48209   0.26286   1.17896   0.15180
  10   25623.0    390.3   0.217891524   2.79954  -1.35203   0.66092   0.73125
  11   26380.3    379.1   0.089935366   1.12234  -0.60454  -0.64918   0.57917
  12   27157.6    368.2   0.075686230   0.91749   0.21525   0.91914   0.16229
  13   27391.0    365.1   0.068107256   0.81858   0.72275   0.38807  -0.38159
  14   28338.1    352.9   0.027439591   0.31877  -0.20286   0.02700   0.52620
  15   28708.3    348.3   0.058898503   0.67542  -0.75744  -0.29088  -0.13075
  16   29622.6    337.6   0.018323452   0.20364  -0.39152   0.15502   0.16223
  17   29842.1    335.1   0.058643776   0.64695   0.49656  -0.61265   0.15821
  18   30867.3    324.0   0.116848645   1.24624   0.07968   0.54779   0.96944
  19   31105.9    321.5   0.020225868   0.21406  -0.10484   0.42254   0.15662
  20   31315.0    319.3   0.028823383   0.30302  -0.00782  -0.03098  -0.54954
  21   31725.6    315.2   0.049866855   0.51746  -0.02678   0.66086   0.28287
  22   31878.2    313.7   0.066653398   0.68834   0.49852   0.57282   0.33420
  23   32205.0    310.5   0.018913614   0.19334   0.21071   0.36304   0.13094
  24   32404.0    308.6   0.362539741   3.68327   1.13225   0.42214   1.49100
  25   32790.3    305.0   0.014416671   0.14474   0.26930   0.12781   0.23640
  26   33099.1    302.1   0.008868688   0.08821   0.27267   0.07086  -0.09402
  27   33331.5    300.0   0.001687966   0.01667   0.10406  -0.03327  -0.06883
  28   33562.6    298.0   0.100108192   0.98195   0.36819   0.50151  -0.77128
  29   33979.3    294.3   0.095943335   0.92956  -0.64220  -0.22450  -0.68319
  30   34457.9    290.2   0.123770127   1.18250   0.50986  -0.18620   0.94227
  31   34891.2    286.6   0.272801274   2.57398   0.95508  -0.23319   1.26784
  32   34970.1    286.0   0.030121853   0.28357   0.20816  -0.07414   0.48450
  33   35149.9    284.5   0.201717493   1.88928  -0.91570  -0.14433  -1.01486
  34   35453.2    282.1   0.076458104   0.70998   0.11236  -0.78699  -0.27928
  35   36312.8    275.4   0.267477234   2.42495   0.76075   0.49340   1.26600
  36   36609.2    273.2   0.086060635   0.77391   0.31462   0.31895   0.75710
  37   37053.3    269.9   0.106552279   0.94670   0.34008  -0.84084   0.35219
  38   37168.3    269.0   0.633716110   5.61304   0.60477  -0.59513   2.21204
  39   37822.8    264.4   0.085915244   0.74781   0.83758  -0.21510   0.00020
  40   38124.7    262.3   0.087658672   0.75694   0.76461  -0.40957  -0.06753
  41   38237.5    261.5   0.035900249   0.30909   0.35873  -0.42049  -0.05988
  42   38814.3    257.6   0.058950258   0.50000   0.12491   0.04352  -0.69462
  43   38970.6    256.6   0.270029793   2.28113  -1.01041   0.16913  -1.10977
  44   39573.5    252.7   0.016519428   0.13743   0.00016   0.17526   0.32667
  45   39749.6    251.6   0.056159643   0.46512   0.45152  -0.08256   0.50442
  46   40009.1    249.9   0.007264152   0.05977  -0.16301  -0.13870   0.11817
  47   40234.8    248.5   0.037920603   0.31028   0.23070   0.31816  -0.39475

FINAL SINGLE POINT ENERGY     -6689.723705424565

DIPOLE MOMENT
-------------
                                X             Y             Z
Electronic contribution:     35.14296      30.91002      20.66393
Nuclear contribution   :    -38.76393     -30.75305     -25.46519
                        -----------------------------------------
Total Dipole Moment    :     -3.62097       0.15696      -4.80126
                        -----------------------------------------
Magnitude (a.u.)       :      6.01566
Magnitude (Debye)      :     15.29060

Rotational constants in cm-1:     0.001905     0.000715     0.000626
Rotational constants in MHz :    57.125010    21.449112    18.753184

                             ****ORCA TERMINATED NORMALLY****
TOTAL RUN TIME: 0 days 0 hours 11 minutes 3 seconds 397 msec
