                         Program Version 4.2.0 -  RELEASE  -
|  1> # ORCA input file
|  2> # SCF done       -172.307125628267          0.000494340419
|  3> ! CAM-B3LYP def2-SVP def2/J RIJCOSX Grid4 TightSCF
|  4> %maxcore 5000
|  5> %tddft
|  6>     Mode sTDDFT
|  7>     Ethresh 5.0
|  8>     maxcore 5000
|  9> end
| 10>
| 11> %pal
| 12>   nprocs 6
| 13>   end
| 14> * xyz 0 1
| 15>    C       -5.54040         3.54863         7.27521
| 16>    C       -4.62334         2.52361         7.27916
| 17>    C       -4.06343         1.97050         8.44639
| 18>    N       -3.57082         1.48764         9.36496
| 19>    C       -4.14621         1.87477         6.12346
| 20>    N       -3.73354         1.28495         5.22769
| 21>    C       -6.13488         4.16361         8.45829
| 22>    C       -7.10016         5.10925         8.03572
| 23>    C       -7.84389         5.85408         8.91630
| 24>    C       -7.62845         5.65204        10.28446
| 25>    C       -6.66130         4.70711        10.69753
| 26>    C       -5.90576         3.95535         9.80450
| 27>    S       -6.55355         4.61944        12.43024
| 28>    C       -7.79524         5.83527        12.57227
| 29>    C       -8.26664         6.28575        11.38595
| 30>   Br       -8.35086         6.39683        14.27400
| 31>    C       -7.14545         5.13873         6.55857
| 32>    O       -7.80665         5.89756         5.87588
| 33>    C       -6.14990         4.14440         6.11325
| 34>    C       -5.71794         4.00525         4.81032
| 35>    C       -6.40781         4.41545         3.66608
| 36>    S       -5.50528         4.87461         2.24811
| 37>    C       -6.91546         5.39358         1.39273
| 38>    C       -8.07843         5.08856         2.13102
| 39>    C       -7.79016         4.52709         3.41014
| 40>    C       -8.83212         4.04808         4.21945
| 41>    C      -10.12260         4.19038         3.79066
| 42>    F      -11.13333         3.73198         4.54503
| 43>    C      -10.41198         4.76748         2.53868
| 44>    F      -11.69209         4.85519         2.13577
| 45>    C       -9.41462         5.19078         1.70489
| 46>    C       -6.75958         6.04141         0.14327
| 47>    C       -7.63942         6.91149        -0.41421
| 48>    C       -7.43006         7.50967        -1.69000
| 49>    C       -8.18867         8.46367        -2.26832
| 50>    C       -9.40087         9.09221        -1.66709
| 51>    C       -7.88082         8.90748        -3.67725
| 52>    N       -8.76157         8.22110        -4.60484
| 53>    C       -9.99637         8.64922        -4.96095
| 54>    C      -10.51065         9.89846        -4.79398
| 55>    C      -11.79846        10.25903        -5.22703
| 56>    C      -12.35262        11.49948        -5.04276
| 57>    C      -13.64390        11.93167        -5.42516
| 58>    C      -13.92201        13.22666        -5.10598
| 59>    C      -12.86427        13.89975        -4.45645
| 60>    S      -11.49978        12.82501        -4.25249
| 61>    C      -12.83267        15.21385        -4.02938
| 62>    C      -13.85456        16.18107        -4.12248
| 63>    C      -13.50799        17.40132        -3.62532
| 64>    C      -12.19004        17.47774        -3.11240
| 65>    S      -11.41219        15.91275        -3.27610
| 66>    C      -11.61545        18.61110        -2.58955
| 67>    C      -10.31930        18.78311        -2.08460
| 68>    C       -9.26958        17.87905        -1.92911
| 69>    C       -8.13603        18.47018        -1.39926
| 70>    C       -8.29293        19.83710        -1.13923
| 71>    S       -9.85942        20.40044        -1.54556
| 72>    C       -7.08628        20.34727        -0.61638
| 73>    C       -6.15129        19.31514        -0.53514
| 74>    C       -6.75064        18.02984        -1.02527
| 75>    C       -4.92507        19.74114        -0.03279
| 76>    C       -4.91394        21.08902         0.26905
| 77>    S       -6.45564        21.84913        -0.07307
| 78>    C       -3.81138        21.83716         0.79634
| 79>    C       -3.83007        23.14011         1.07248
| 80>    H       -8.57269         6.56629         8.56247
| 81>    H       -5.17734         3.25020        10.16855
| 82>    H       -9.03227         7.03367        11.28851
| 83>    H       -4.72360         3.60825         4.64397
| 84>    H       -8.63195         3.54605         5.15058
| 85>    H       -9.66832         5.55006         0.72214
| 86>    H       -5.81837         5.86031        -0.36160
| 87>    H       -8.51869         7.19463         0.14110
| 88>    H       -6.56214         7.15207        -2.23240
| 89>    H       -9.61535         8.71615        -0.67304
| 90>    H      -10.27054         8.91796        -2.30278
| 91>    H       -9.26255        10.17160        -1.60276
| 92>    H       -6.85155         8.65632        -3.94706
| 93>    H       -8.01966         9.98239        -3.79320
| 94>    H       -8.59907         7.22711        -4.66607
| 95>    H      -10.59618         7.90380        -5.46776
| 96>    H       -9.93909        10.67036        -4.30032
| 97>    H      -12.40289         9.51315        -5.72649
| 98>    H      -14.32852        11.26877        -5.92479
| 99>    H      -14.85455        13.71562        -5.32346
|100>    H      -14.81405        15.95472        -4.55163
|101>    H      -14.15807        18.25845        -3.61394
|102>    H      -12.24473        19.49230        -2.57948
|103>    H       -9.34901        16.84139        -2.19404
|104>    H       -6.76516        17.26356        -0.24724
|105>    H       -6.20721        17.62494        -1.88152
|106>    H       -4.06703        19.10870         0.11161
|107>    H       -2.91330        21.25644         0.96638
|108>    H       -4.71293        23.73609         0.90994
|109>    H       -2.96757        23.64670         1.46676
|110> *
|111>
|112>                          ****END OF INPUT****

CARTESIAN COORDINATES (ANGSTROEM)
---------------------------------
  C     -5.540400    3.548630    7.275210
  C     -4.623340    2.523610    7.279160
  C     -4.063430    1.970500    8.446390
  N     -3.570820    1.487640    9.364960
  C     -4.146210    1.874770    6.123460
  N     -3.733540    1.284950    5.227690
  C     -6.134880    4.163610    8.458290
  C     -7.100160    5.109250    8.035720
  C     -7.843890    5.854080    8.916300
  C     -7.628450    5.652040   10.284460
  C     -6.661300    4.707110   10.697530
  C     -5.905760    3.955350    9.804500
  S     -6.553550    4.619440   12.430240
  C     -7.795240    5.835270   12.572270
  C     -8.266640    6.285750   11.385950
  Br    -8.350860    6.396830   14.274000
  C     -7.145450    5.138730    6.558570
  O     -7.806650    5.897560    5.875880
  C     -6.149900    4.144400    6.113250
  C     -5.717940    4.005250    4.810320
  C     -6.407810    4.415450    3.666080
  S     -5.505280    4.874610    2.248110
  C     -6.915460    5.393580    1.392730
  C     -8.078430    5.088560    2.131020
  C     -7.790160    4.527090    3.410140
  C     -8.832120    4.048080    4.219450
  C    -10.122600    4.190380    3.790660
  F    -11.133330    3.731980    4.545030
  C    -10.411980    4.767480    2.538680
  F    -11.692090    4.855190    2.135770
  C     -9.414620    5.190780    1.704890
  C     -6.759580    6.041410    0.143270
  C     -7.639420    6.911490   -0.414210
  C     -7.430060    7.509670   -1.690000
  C     -8.188670    8.463670   -2.268320
  C     -9.400870    9.092210   -1.667090
  C     -7.880820    8.907480   -3.677250
  N     -8.761570    8.221100   -4.604840
  C     -9.996370    8.649220   -4.960950
  C    -10.510650    9.898460   -4.793980
  C    -11.798460   10.259030   -5.227030
  C    -12.352620   11.499480   -5.042760
  C    -13.643900   11.931670   -5.425160
  C    -13.922010   13.226660   -5.105980
  C    -12.864270   13.899750   -4.456450
  S    -11.499780   12.825010   -4.252490
  C    -12.832670   15.213850   -4.029380
  C    -13.854560   16.181070   -4.122480
  C    -13.507990   17.401320   -3.625320
  C    -12.190040   17.477740   -3.112400
  S    -11.412190   15.912750   -3.276100
  C    -11.615450   18.611100   -2.589550
  C    -10.319300   18.783110   -2.084600
  C     -9.269580   17.879050   -1.929110
  C     -8.136030   18.470180   -1.399260
  C     -8.292930   19.837100   -1.139230
  S     -9.859420   20.400440   -1.545560
  C     -7.086280   20.347270   -0.616380
  C     -6.151290   19.315140   -0.535140
  C     -6.750640   18.029840   -1.025270
  C     -4.925070   19.741140   -0.032790
  C     -4.913940   21.089020    0.269050
  S     -6.455640   21.849130   -0.073070
  C     -3.811380   21.837160    0.796340
  C     -3.830070   23.140110    1.072480
  H     -8.572690    6.566290    8.562470
  H     -5.177340    3.250200   10.168550
  H     -9.032270    7.033670   11.288510
  H     -4.723600    3.608250    4.643970
  H     -8.631950    3.546050    5.150580
  H     -9.668320    5.550060    0.722140
  H     -5.818370    5.860310   -0.361600
  H     -8.518690    7.194630    0.141100
  H     -6.562140    7.152070   -2.232400
  H     -9.615350    8.716150   -0.673040
  H    -10.270540    8.917960   -2.302780
  H     -9.262550   10.171600   -1.602760
  H     -6.851550    8.656320   -3.947060
  H     -8.019660    9.982390   -3.793200
  H     -8.599070    7.227110   -4.666070
  H    -10.596180    7.903800   -5.467760
  H     -9.939090   10.670360   -4.300320
  H    -12.402890    9.513150   -5.726490
  H    -14.328520   11.268770   -5.924790
  H    -14.854550   13.715620   -5.323460
  H    -14.814050   15.954720   -4.551630
  H    -14.158070   18.258450   -3.613940
  H    -12.244730   19.492300   -2.579480
  H     -9.349010   16.841390   -2.194040
  H     -6.765160   17.263560   -0.247240
  H     -6.207210   17.624940   -1.881520
  H     -4.067030   19.108700    0.111610
  H     -2.913300   21.256440    0.966380
  H     -4.712930   23.736090    0.909940
  H     -2.967570   23.646700    1.466760

 Total Charge           Charge          ....    0
 Multiplicity           Mult            ....    1
 Number of Electrons    NEL             ....  520
 Basis Dimension        Dim             .... 1102

ORBITAL ENERGIES
----------------

  NO   OCC          E(Eh)            E(eV)
   0   2.0000    -482.882486    -13139.9005
   1   2.0000     -88.986325     -2421.4410
   2   2.0000     -88.971608     -2421.0405
   3   2.0000     -88.946217     -2420.3496
   4   2.0000     -88.945856     -2420.3398
   5   2.0000     -88.932158     -2419.9670
   6   2.0000     -88.932089     -2419.9652
   7   2.0000     -62.560165     -1702.3486
   8   2.0000     -56.394112     -1534.5618
   9   2.0000     -56.391404     -1534.4881
  10   2.0000     -56.391372     -1534.4872
  11   2.0000     -24.794590      -674.6951
  12   2.0000     -24.794069      -674.6809
  13   2.0000     -19.209068      -522.7053
  14   2.0000     -14.450845      -393.2275
  15   2.0000     -14.409384      -392.0993
  16   2.0000     -14.408669      -392.0798
  17   2.0000     -10.378238      -282.4062
  18   2.0000     -10.376713      -282.3647
  19   2.0000     -10.360161      -281.9143
  20   2.0000     -10.355042      -281.7750
  21   2.0000     -10.340462      -281.3783
  22   2.0000     -10.334972      -281.2289
  23   2.0000     -10.333926      -281.2004
  24   2.0000     -10.326148      -280.9888
  25   2.0000     -10.325131      -280.9611
  26   2.0000     -10.320579      -280.8372
  27   2.0000     -10.320516      -280.8355
  28   2.0000     -10.319206      -280.7999
  29   2.0000     -10.312847      -280.6268
  30   2.0000     -10.312078      -280.6059
  31   2.0000     -10.309458      -280.5346
  32   2.0000     -10.308161      -280.4993
  33   2.0000     -10.305577      -280.4290
  34   2.0000     -10.305290      -280.4212
  35   2.0000     -10.304525      -280.4004
  36   2.0000     -10.302834      -280.3544
  37   2.0000     -10.302414      -280.3429
  38   2.0000     -10.301326      -280.3133
  39   2.0000     -10.300631      -280.2944
  40   2.0000     -10.298791      -280.2443
  41   2.0000     -10.296316      -280.1770
  42   2.0000     -10.295800      -280.1630
  43   2.0000     -10.292866      -280.0831
  44   2.0000     -10.292575      -280.0752
  45   2.0000     -10.291840      -280.0552
  46   2.0000     -10.291284      -280.0401
  47   2.0000     -10.289833      -280.0006
  48   2.0000     -10.289404      -279.9889
  49   2.0000     -10.289271      -279.9853
  50   2.0000     -10.288891      -279.9750
  51   2.0000     -10.287242      -279.9301
  52   2.0000     -10.286958      -279.9223
  53   2.0000     -10.285859      -279.8925
  54   2.0000     -10.279416      -279.7171
  55   2.0000     -10.277337      -279.6606
  56   2.0000     -10.276454      -279.6365
  57   2.0000     -10.274864      -279.5933
  58   2.0000     -10.272695      -279.5342
  59   2.0000     -10.271492      -279.5015
  60   2.0000     -10.270116      -279.4641
  61   2.0000     -10.268960      -279.4326
  62   2.0000     -10.268281      -279.4141
  63   2.0000     -10.265097      -279.3275
  64   2.0000     -10.264811      -279.3197
  65   2.0000     -10.263287      -279.2782
  66   2.0000     -10.262997      -279.2704
  67   2.0000     -10.260854      -279.2120
  68   2.0000     -10.253595      -279.0145
  69   2.0000      -8.789575      -239.1765
  70   2.0000      -8.081789      -219.9167
  71   2.0000      -8.067533      -219.5287
  72   2.0000      -8.041275      -218.8142
  73   2.0000      -8.040897      -218.8039
  74   2.0000      -8.028284      -218.4607
  75   2.0000      -8.027940      -218.4514
  76   2.0000      -6.625830      -180.2980
  77   2.0000      -6.611324      -179.9033
  78   2.0000      -6.611137      -179.8982
  79   2.0000      -6.050694      -164.6477
  80   2.0000      -6.046700      -164.5391
  81   2.0000      -6.044524      -164.4799
  82   2.0000      -6.037211      -164.2809
  83   2.0000      -6.032955      -164.1650
  84   2.0000      -6.028793      -164.0518
  85   2.0000      -6.010644      -163.5579
  86   2.0000      -6.010293      -163.5484
  87   2.0000      -6.006590      -163.4476
  88   2.0000      -6.006286      -163.4394
  89   2.0000      -6.003296      -163.3580
  90   2.0000      -6.002848      -163.3458
  91   2.0000      -5.998039      -163.2149
  92   2.0000      -5.997695      -163.2056
  93   2.0000      -5.994121      -163.1083
  94   2.0000      -5.993692      -163.0967
  95   2.0000      -5.989136      -162.9727
  96   2.0000      -5.988902      -162.9663
  97   2.0000      -2.741744       -74.6066
  98   2.0000      -2.737597       -74.4938
  99   2.0000      -2.737497       -74.4911
 100   2.0000      -2.725949       -74.1768
 101   2.0000      -2.725933       -74.1764
 102   2.0000      -1.316059       -35.8118
 103   2.0000      -1.301109       -35.4050
 104   2.0000      -1.123764       -30.5792
 105   2.0000      -1.049042       -28.5459
 106   2.0000      -1.020473       -27.7685
 107   2.0000      -1.017444       -27.6860
 108   2.0000      -1.007678       -27.4203
 109   2.0000      -0.995541       -27.0901
 110   2.0000      -0.987826       -26.8801
 111   2.0000      -0.984239       -26.7825
 112   2.0000      -0.980751       -26.6876
 113   2.0000      -0.962290       -26.1852
 114   2.0000      -0.957083       -26.0435
 115   2.0000      -0.954981       -25.9863
 116   2.0000      -0.943533       -25.6748
 117   2.0000      -0.936570       -25.4854
 118   2.0000      -0.917476       -24.9658
 119   2.0000      -0.904665       -24.6172
 120   2.0000      -0.903344       -24.5812
 121   2.0000      -0.895024       -24.3548
 122   2.0000      -0.886838       -24.1321
 123   2.0000      -0.880984       -23.9728
 124   2.0000      -0.872882       -23.7523
 125   2.0000      -0.864610       -23.5272
 126   2.0000      -0.855302       -23.2740
 127   2.0000      -0.855051       -23.2671
 128   2.0000      -0.849430       -23.1142
 129   2.0000      -0.840434       -22.8694
 130   2.0000      -0.829813       -22.5804
 131   2.0000      -0.825055       -22.4509
 132   2.0000      -0.823045       -22.3962
 133   2.0000      -0.818762       -22.2797
 134   2.0000      -0.813617       -22.1396
 135   2.0000      -0.807470       -21.9724
 136   2.0000      -0.800383       -21.7795
 137   2.0000      -0.788934       -21.4680
 138   2.0000      -0.776106       -21.1189
 139   2.0000      -0.758817       -20.6484
 140   2.0000      -0.755462       -20.5572
 141   2.0000      -0.752097       -20.4656
 142   2.0000      -0.747134       -20.3305
 143   2.0000      -0.744033       -20.2462
 144   2.0000      -0.722523       -19.6608
 145   2.0000      -0.717755       -19.5311
 146   2.0000      -0.712701       -19.3936
 147   2.0000      -0.689386       -18.7591
 148   2.0000      -0.687407       -18.7053
 149   2.0000      -0.682144       -18.5621
 150   2.0000      -0.675970       -18.3941
 151   2.0000      -0.665145       -18.0995
 152   2.0000      -0.660012       -17.9598
 153   2.0000      -0.653191       -17.7742
 154   2.0000      -0.652609       -17.7584
 155   2.0000      -0.647808       -17.6278
 156   2.0000      -0.640226       -17.4214
 157   2.0000      -0.638627       -17.3779
 158   2.0000      -0.627260       -17.0686
 159   2.0000      -0.625142       -17.0110
 160   2.0000      -0.623525       -16.9670
 161   2.0000      -0.618423       -16.8281
 162   2.0000      -0.616240       -16.7687
 163   2.0000      -0.612661       -16.6714
 164   2.0000      -0.608015       -16.5449
 165   2.0000      -0.604586       -16.4516
 166   2.0000      -0.599420       -16.3110
 167   2.0000      -0.596842       -16.2409
 168   2.0000      -0.592963       -16.1353
 169   2.0000      -0.590085       -16.0570
 170   2.0000      -0.582343       -15.8464
 171   2.0000      -0.577303       -15.7092
 172   2.0000      -0.575115       -15.6497
 173   2.0000      -0.572585       -15.5808
 174   2.0000      -0.567350       -15.4384
 175   2.0000      -0.562753       -15.3133
 176   2.0000      -0.554844       -15.0981
 177   2.0000      -0.551533       -15.0080
 178   2.0000      -0.548264       -14.9190
 179   2.0000      -0.543266       -14.7830
 180   2.0000      -0.540300       -14.7023
 181   2.0000      -0.538842       -14.6626
 182   2.0000      -0.533964       -14.5299
 183   2.0000      -0.531808       -14.4712
 184   2.0000      -0.531381       -14.4596
 185   2.0000      -0.530858       -14.4454
 186   2.0000      -0.530740       -14.4422
 187   2.0000      -0.522955       -14.2303
 188   2.0000      -0.520472       -14.1627
 189   2.0000      -0.515888       -14.0380
 190   2.0000      -0.514121       -13.9899
 191   2.0000      -0.507619       -13.8130
 192   2.0000      -0.503289       -13.6952
 193   2.0000      -0.502741       -13.6803
 194   2.0000      -0.502197       -13.6655
 195   2.0000      -0.500688       -13.6244
 196   2.0000      -0.497604       -13.5405
 197   2.0000      -0.490041       -13.3347
 198   2.0000      -0.488703       -13.2983
 199   2.0000      -0.487783       -13.2733
 200   2.0000      -0.484367       -13.1803
 201   2.0000      -0.482568       -13.1313
 202   2.0000      -0.480774       -13.0825
 203   2.0000      -0.477543       -12.9946
 204   2.0000      -0.473652       -12.8887
 205   2.0000      -0.470897       -12.8137
 206   2.0000      -0.469236       -12.7686
 207   2.0000      -0.467447       -12.7199
 208   2.0000      -0.463916       -12.6238
 209   2.0000      -0.462860       -12.5951
 210   2.0000      -0.459870       -12.5137
 211   2.0000      -0.456836       -12.4311
 212   2.0000      -0.455782       -12.4025
 213   2.0000      -0.453911       -12.3515
 214   2.0000      -0.451443       -12.2844
 215   2.0000      -0.448418       -12.2021
 216   2.0000      -0.445897       -12.1335
 217   2.0000      -0.444088       -12.0842
 218   2.0000      -0.443314       -12.0632
 219   2.0000      -0.442930       -12.0527
 220   2.0000      -0.441377       -12.0105
 221   2.0000      -0.440113       -11.9761
 222   2.0000      -0.438365       -11.9285
 223   2.0000      -0.434545       -11.8246
 224   2.0000      -0.434095       -11.8123
 225   2.0000      -0.432500       -11.7689
 226   2.0000      -0.428535       -11.6610
 227   2.0000      -0.423535       -11.5250
 228   2.0000      -0.422081       -11.4854
 229   2.0000      -0.419034       -11.4025
 230   2.0000      -0.417573       -11.3627
 231   2.0000      -0.416843       -11.3429
 232   2.0000      -0.408757       -11.1228
 233   2.0000      -0.407970       -11.1014
 234   2.0000      -0.403640       -10.9836
 235   2.0000      -0.402946       -10.9647
 236   2.0000      -0.397225       -10.8090
 237   2.0000      -0.390830       -10.6350
 238   2.0000      -0.388057       -10.5596
 239   2.0000      -0.384223       -10.4552
 240   2.0000      -0.383193       -10.4272
 241   2.0000      -0.372924       -10.1478
 242   2.0000      -0.371810       -10.1175
 243   2.0000      -0.362511        -9.8644
 244   2.0000      -0.346162        -9.4196
 245   2.0000      -0.340544        -9.2667
 246   2.0000      -0.327856        -8.9214
 247   2.0000      -0.326798        -8.8926
 248   2.0000      -0.322665        -8.7802
 249   2.0000      -0.317103        -8.6288
 250   2.0000      -0.314838        -8.5672
 251   2.0000      -0.310778        -8.4567
 252   2.0000      -0.310358        -8.4453
 253   2.0000      -0.308137        -8.3848
 254   2.0000      -0.304084        -8.2746
 255   2.0000      -0.289614        -7.8808
 256   2.0000      -0.273656        -7.4466
 257   2.0000      -0.254579        -6.9274
 258   2.0000      -0.234587        -6.3834
 259   2.0000      -0.186560        -5.0766
 260   0.0000      -0.103059        -2.8044
 261   0.0000      -0.065327        -1.7776
 262   0.0000      -0.061497        -1.6734
 263   0.0000      -0.034116        -0.9283
 264   0.0000      -0.015707        -0.4274

MULLIKEN ATOMIC CHARGES
-----------------------
   0 C :    0.298648
   1 C :   -0.346312
   2 C :   -0.186511
   3 N :    0.147247
   4 C :   -0.210955
   5 N :    0.155098
   6 C :    0.022387
   7 C :   -0.012619
   8 C :   -0.075459
   9 C :    0.117976
  10 C :   -0.090372
  11 C :   -0.026753
  12 S :    0.183449
  13 C :   -0.122752
  14 C :    0.035936
  15 Br:    0.020738
  16 C :    0.116625
  17 O :   -0.152881
  18 C :   -0.132243
  19 C :    0.031524
  20 C :   -0.150510
  21 S :    0.196885
  22 C :   -0.100865
  23 C :    0.113369
  24 C :    0.160857
  25 C :   -0.069762
  26 C :    0.223310
  27 F :   -0.172188
  28 C :    0.231761
  29 F :   -0.180321
  30 C :   -0.123910
  31 C :    0.019045
  32 C :    0.012612
  33 C :   -0.004417
  34 C :   -0.181431
  35 C :    0.101669
  36 C :    0.199287
  37 N :   -0.142693
  38 C :    0.043978
  39 C :   -0.049362
  40 C :   -0.007954
  41 C :   -0.038790
  42 C :    0.040322
  43 C :    0.015078
  44 C :   -0.038666
  45 S :    0.040188
  46 C :   -0.043575
  47 C :    0.024876
  48 C :    0.025267
  49 C :   -0.028948
  50 S :    0.041410
  51 C :    0.017764
  52 C :   -0.092668
  53 C :   -0.028407
  54 C :   -0.151029
  55 C :   -0.081284
  56 S :    0.127526
  57 C :   -0.085290
  58 C :   -0.135274
  59 C :    0.372565
  60 C :   -0.027427
  61 C :   -0.077696
  62 S :    0.129464
  63 C :    0.016724
  64 C :   -0.039502
  65 H :   -0.013102
  66 H :   -0.006778
  67 H :   -0.003855
  68 H :    0.025238
  69 H :   -0.002120
  70 H :   -0.011791
  71 H :   -0.005280
  72 H :    0.006903
  73 H :   -0.025927
  74 H :    0.008553
  75 H :    0.052363
  76 H :    0.033672
  77 H :    0.016732
  78 H :    0.029446
  79 H :    0.123301
  80 H :    0.005613
  81 H :   -0.008827
  82 H :   -0.024206
  83 H :   -0.020441
  84 H :   -0.020970
  85 H :   -0.021342
  86 H :   -0.019639
  87 H :   -0.023822
  88 H :   -0.018526
  89 H :    0.026892
  90 H :    0.025994
  91 H :   -0.030972
  92 H :   -0.011941
  93 H :    0.019243
  94 H :    0.020833
Sum of atomic charges:   -0.0000000

LOEWDIN ATOMIC CHARGES
----------------------
   0 C :    0.074709
   1 C :   -0.149956
   2 C :   -0.019259
   3 N :   -0.059556
   4 C :   -0.025255
   5 N :   -0.059596
   6 C :   -0.021526
   7 C :   -0.048777
   8 C :    0.018508
   9 C :   -0.033856
  10 C :   -0.145766
  11 C :   -0.010820
  12 S :    0.430548
  13 C :   -0.272627
  14 C :   -0.070832
  15 Br:    0.134153
  16 C :    0.071719
  17 O :   -0.149240
  18 C :   -0.118645
  19 C :    0.041757
  20 C :   -0.190826
  21 S :    0.502163
  22 C :   -0.133404
  23 C :   -0.049337
  24 C :   -0.008702
  25 C :   -0.018990
  26 C :    0.074755
  27 F :   -0.050332
  28 C :    0.063823
  29 F :   -0.057734
  30 C :   -0.039593
  31 C :   -0.056498
  32 C :    0.004641
  33 C :   -0.062774
  34 C :   -0.010537
  35 C :   -0.048190
  36 C :    0.049222
  37 N :    0.000681
  38 C :    0.037011
  39 C :   -0.125739
  40 C :   -0.040502
  41 C :   -0.172054
  42 C :   -0.031676
  43 C :   -0.048319
  44 C :   -0.173060
  45 S :    0.346450
  46 C :   -0.193763
  47 C :   -0.040449
  48 C :   -0.042423
  49 C :   -0.148840
  50 S :    0.367783
  51 C :   -0.089675
  52 C :   -0.163050
  53 C :   -0.070674
  54 C :   -0.048986
  55 C :   -0.202652
  56 S :    0.421791
  57 C :   -0.193460
  58 C :   -0.059708
  59 C :   -0.009183
  60 C :   -0.055019
  61 C :   -0.174455
  62 S :    0.427420
  63 C :   -0.037835
  64 C :   -0.064510
  65 H :    0.039841
  66 H :    0.040745
  67 H :    0.038425
  68 H :    0.044154
  69 H :    0.043593
  70 H :    0.039421
  71 H :    0.032043
  72 H :    0.029609
  73 H :    0.025155
  74 H :    0.027843
  75 H :    0.044987
  76 H :    0.043220
  77 H :    0.030168
  78 H :    0.034520
  79 H :    0.079175
  80 H :    0.029136
  81 H :    0.014238
  82 H :    0.029058
  83 H :    0.030331
  84 H :    0.028876
  85 H :    0.028944
  86 H :    0.030198
  87 H :    0.030061
  88 H :    0.016528
  89 H :    0.049931
  90 H :    0.049503
  91 H :    0.028081
  92 H :    0.033374
  93 H :    0.016034
  94 H :    0.024337

  Mayer bond orders larger than 0.100000
B(  0-C ,  1-C ) :   1.6191 B(  0-C ,  6-C ) :   1.0009 B(  0-C , 18-C ) :   1.0981
B(  1-C ,  2-C ) :   1.1436 B(  1-C ,  4-C ) :   1.1455 B(  2-C ,  3-N ) :   2.9689
B(  4-C ,  5-N ) :   2.9929 B(  6-C ,  7-C ) :   1.2742 B(  6-C , 11-C ) :   1.4163
B(  7-C ,  8-C ) :   1.4313 B(  7-C , 16-C ) :   0.9330 B(  8-C ,  9-C ) :   1.2405
B(  8-C , 65-H ) :   1.0173 B(  9-C , 10-C ) :   1.3136 B(  9-C , 14-C ) :   1.1610
B( 10-C , 11-C ) :   1.3215 B( 10-C , 12-S ) :   1.0835 B( 11-C , 66-H ) :   0.9807
B( 12-S , 13-C ) :   1.0870 B( 13-C , 14-C ) :   1.6178 B( 13-C , 15-Br) :   1.0175
B( 14-C , 67-H ) :   1.0014 B( 16-C , 17-O ) :   2.2053 B( 16-C , 18-C ) :   0.9722
B( 18-C , 19-C ) :   1.5002 B( 19-C , 20-C ) :   1.2758 B( 19-C , 68-H ) :   0.9319
B( 20-C , 21-S ) :   1.1018 B( 20-C , 24-C ) :   1.2863 B( 21-S , 22-C ) :   1.2110
B( 22-C , 23-C ) :   1.2989 B( 22-C , 31-C ) :   1.1213 B( 23-C , 24-C ) :   1.2475
B( 23-C , 30-C ) :   1.1640 B( 24-C , 25-C ) :   1.1970 B( 25-C , 26-C ) :   1.4864
B( 25-C , 30-C ) :   0.1081 B( 25-C , 69-H ) :   0.9867 B( 26-C , 27-F ) :   1.1342
B( 26-C , 28-C ) :   1.1728 B( 28-C , 29-F ) :   1.1236 B( 28-C , 30-C ) :   1.4899
B( 30-C , 70-H ) :   0.9938 B( 31-C , 32-C ) :   1.6760 B( 31-C , 71-H ) :   0.9600
B( 32-C , 33-C ) :   1.1239 B( 32-C , 72-H ) :   0.9688 B( 33-C , 34-C ) :   1.7278
B( 33-C , 73-H ) :   0.9749 B( 34-C , 35-C ) :   1.0918 B( 34-C , 36-C ) :   1.0428
B( 35-C , 74-H ) :   0.9491 B( 35-C , 75-H ) :   0.9360 B( 35-C , 76-H ) :   0.9394
B( 36-C , 37-N ) :   1.0023 B( 36-C , 77-H ) :   0.9420 B( 36-C , 78-H ) :   0.9262
B( 37-N , 38-C ) :   1.2137 B( 37-N , 79-H ) :   0.9370 B( 38-C , 39-C ) :   1.6132
B( 38-C , 80-H ) :   0.9642 B( 39-C , 40-C ) :   1.1592 B( 39-C , 81-H ) :   0.9604
B( 40-C , 41-C ) :   1.5874 B( 40-C , 82-H ) :   0.9809 B( 41-C , 42-C ) :   1.1464
B( 41-C , 45-S ) :   1.0090 B( 42-C , 43-C ) :   1.5871 B( 42-C , 83-H ) :   0.9974
B( 43-C , 44-C ) :   1.1918 B( 43-C , 84-H ) :   0.9933 B( 44-C , 45-S ) :   1.0464
B( 44-C , 46-C ) :   1.5045 B( 46-C , 47-C ) :   1.1966 B( 46-C , 50-S ) :   1.0262
B( 47-C , 48-C ) :   1.5796 B( 47-C , 85-H ) :   0.9922 B( 48-C , 49-C ) :   1.1534
B( 48-C , 86-H ) :   0.9992 B( 49-C , 50-S ) :   1.0369 B( 49-C , 51-C ) :   1.5923
B( 51-C , 52-C ) :   1.1795 B( 51-C , 87-H ) :   0.9491 B( 52-C , 53-C ) :   1.4242
B( 52-C , 56-S ) :   1.0884 B( 53-C , 54-C ) :   1.3313 B( 53-C , 88-H ) :   0.9811
B( 54-C , 55-C ) :   1.5152 B( 54-C , 59-C ) :   1.0135 B( 55-C , 56-S ) :   1.0801
B( 55-C , 57-C ) :   1.1911 B( 57-C , 58-C ) :   1.5336 B( 57-C , 62-S ) :   1.0848
B( 58-C , 59-C ) :   1.0122 B( 58-C , 60-C ) :   1.2768 B( 59-C , 89-H ) :   0.8669
B( 59-C , 90-H ) :   0.8680 B( 60-C , 61-C ) :   1.4715 B( 60-C , 91-H ) :   1.0068
B( 61-C , 62-S ) :   1.0950 B( 61-C , 63-C ) :   1.1353 B( 63-C , 64-C ) :   1.9057
B( 63-C , 92-H ) :   0.9660 B( 64-C , 93-H ) :   0.9554 B( 64-C , 94-H ) :   0.9508

-----------------------------------------------------------------------------
         ABSORPTION SPECTRUM VIA TRANSITION ELECTRIC DIPOLE MOMENTS
-----------------------------------------------------------------------------
State   Energy  Wavelength   fosc         T2         TX        TY        TZ
        (cm-1)    (nm)                  (au**2)     (au)      (au)      (au)
-----------------------------------------------------------------------------
   0    9184.8   1088.8   0.157762249   5.65467  -0.44492   2.06014  -1.10116
   1   14354.7    696.6   1.406655676  32.26036  -1.33935  -5.39749  -1.15479
   2   17144.4    583.3   1.267946170  24.34750  -1.83404   0.57656  -4.54438
   3   19297.6    518.2   0.003516585   0.05999   0.16915   0.15994  -0.07615
   4   20479.8    488.3   0.010386833   0.16697  -0.36219  -0.12850   0.13882
   5   22438.8    445.7   0.000853516   0.01252   0.04984  -0.09844   0.01865
   6   23984.7    416.9   0.002370409   0.03254  -0.17064   0.05296  -0.02480
   7   24622.4    406.1   0.158038714   2.11305  -1.32975   0.23215  -0.53936
   8   25386.1    393.9   0.085228026   1.10526  -0.19042   0.03643  -1.03328
   9   25844.3    386.9   0.884163317  11.26272   3.17486  -0.61700   0.89572
  10   26259.1    380.8   0.250203184   3.13681   1.17769  -0.74349  -1.09411
  11   27707.2    360.9   0.019305276   0.22938   0.41848   0.22532   0.05906
  12   28221.0    354.3   0.001810572   0.02112   0.06238   0.03360  -0.12689
  13   28764.5    347.7   0.020801248   0.23807   0.03674   0.33029  -0.35726
  14   29352.9    340.7   0.026566662   0.29796  -0.17126   0.51486   0.05957
  15   29770.5    335.9   0.010782339   0.11923  -0.30519   0.04120   0.15619
  16   30369.2    329.3   0.004173076   0.04524  -0.11784  -0.16581  -0.06210
  17   30689.1    325.8   0.134568176   1.44356  -0.77971  -0.88450   0.23079
  18   31540.5    317.1   0.075411930   0.78713   0.77167  -0.38569  -0.20710
  19   31646.5    316.0   0.001940271   0.02018   0.09808  -0.10185  -0.01388
  20   32042.4    312.1   0.434365459   4.46279  -1.20769   1.01670   1.40378
  21   32079.5    311.7   0.097621361   1.00183   0.01296  -0.81889  -0.57539
  22   32511.0    307.6   0.087476370   0.88580   0.75434  -0.35374   0.43778
  23   33523.8    298.3   0.054940411   0.53953  -0.08745  -0.52355  -0.50771
  24   33626.9    297.4   0.046838208   0.45855   0.22227  -0.35583  -0.53154
  25   33723.0    296.5   0.112411145   1.09738   0.44648  -0.64601  -0.69333
  26   34546.0    289.5   0.081587943   0.77751   0.15021   0.83035  -0.25585
  27   34874.5    286.7   0.022815087   0.21537  -0.45623  -0.02366  -0.08167
  28   35636.8    280.6   0.179500199   1.65822   0.05216  -0.38155   1.22879
  29   35919.8    278.4   0.208053943   1.90685  -0.30903   1.01832  -0.87999
  30   36080.8    277.2   0.065886133   0.60117   0.55969  -0.11780   0.52349
  31   36397.1    274.7   0.028598474   0.25867   0.44847  -0.16712  -0.17210
  32   36621.8    273.1   0.018576823   0.16700  -0.36214   0.17773   0.06528
  33   37027.5    270.1   0.003074130   0.02733   0.00444   0.15862  -0.04638
  34   37457.9    267.0   0.000545326   0.00479   0.03389  -0.02038   0.05682
  35   37589.5    266.0   0.006730181   0.05894   0.23215  -0.06950  -0.01476
  36   38001.2    263.1   0.010175823   0.08816   0.21456  -0.16223   0.12571
  37   38221.9    261.6   0.021291722   0.18339   0.01264   0.41666   0.09810
  38   38952.5    256.7   0.103393867   0.87385  -0.03578   0.90048   0.24841
  39   38977.3    256.6   0.011033713   0.09319  -0.00518   0.29241   0.08753
  40   39057.2    256.0   0.037643864   0.31730  -0.08904   0.51391   0.21276
  41   39183.4    255.2   0.023440788   0.19695   0.13548  -0.42239   0.01325
  42   39517.9    253.0   0.023347639   0.19450  -0.02061  -0.30486  -0.31802
  43   39541.8    252.9   0.051666564   0.43016   0.59818  -0.18234  -0.19771
  44   39634.3    252.3   0.002396294   0.01990   0.00242   0.02159   0.13940
  45   39996.4    250.0   0.159493208   1.31280  -1.05086   0.34865  -0.29485
  46   40305.1    248.1   0.075176074   0.61404   0.00305   0.30127  -0.72337

FINAL SINGLE POINT ENERGY     -7397.909499634548

DIPOLE MOMENT
-------------
                                X             Y             Z
Electronic contribution:      1.69585     -89.51270     195.94357
Nuclear contribution   :     -2.64593      89.64557    -198.34027
                        -----------------------------------------
Total Dipole Moment    :     -0.95008       0.13287      -2.39670
                        -----------------------------------------
Magnitude (a.u.)       :      2.58157
Magnitude (Debye)      :      6.56182

Rotational constants in cm-1:     0.000755     0.000241     0.000205
Rotational constants in MHz :    22.639963     7.214146     6.155169

                             ****ORCA TERMINATED NORMALLY****
TOTAL RUN TIME: 0 days 0 hours 9 minutes 31 seconds 246 msec
