                         Program Version 4.2.0 -  RELEASE  -
|  1> # ORCA input file
|  2> # SCF done       -170.187822177351          0.000645582513
|  3> ! CAM-B3LYP def2-SVP def2/J RIJCOSX Grid4 TightSCF
|  4> %maxcore 5000
|  5> %tddft
|  6>     Mode sTDDFT
|  7>     Ethresh 5.0
|  8>     maxcore 5000
|  9> end
| 10>
| 11> %pal
| 12>   nprocs 6
| 13>   end
| 14> * xyz 0 1
| 15>    C      -18.14099        -7.77322        -3.54468
| 16>    C      -19.03852        -8.81543        -3.50051
| 17>    C      -18.69282       -10.16230        -3.72136
| 18>    N      -18.47444       -11.27591        -3.90240
| 19>    C      -20.41328        -8.69888        -3.21678
| 20>    N      -21.53632        -8.70358        -2.97100
| 21>    C      -16.69602        -7.92106        -3.73688
| 22>    C      -16.10654        -6.63752        -3.66079
| 23>    C      -14.75483        -6.42979        -3.76477
| 24>    C      -13.93868        -7.54747        -3.97646
| 25>    C      -14.53522        -8.82441        -4.07028
| 26>    C      -15.90551        -9.03466        -3.94391
| 27>    S      -13.34971       -10.05827        -4.38642
| 28>    C      -12.09285        -8.85159        -4.40498
| 29>    C      -12.52924        -7.59374        -4.16357
| 30>   Br      -10.32655        -9.35594        -4.79024
| 31>    C      -17.16990        -5.63339        -3.46036
| 32>    O      -17.01411        -4.42103        -3.45883
| 33>    C      -18.42156        -6.37582        -3.32990
| 34>    C      -19.69003        -5.81544        -3.18916
| 35>    C      -20.06643        -4.57122        -2.69814
| 36>    C      -19.36949        -3.70702        -1.86099
| 37>    C      -19.80640        -2.42797        -1.43225
| 38>    C      -18.94179        -1.78650        -0.59019
| 39>    C      -17.79072        -2.54552        -0.30012
| 40>    S      -17.86743        -4.09183        -1.10255
| 41>    C      -16.61335        -2.23273         0.36207
| 42>    C      -16.17362        -1.05382         0.99880
| 43>    C      -14.87409        -1.10847         1.41518
| 44>    C      -14.21407        -2.33117         1.12915
| 45>    S      -15.34674        -3.42893         0.36316
| 46>    C      -12.88078        -2.61689         1.29472
| 47>    C      -12.24627        -3.81711         0.91727
| 48>    C      -12.79655        -5.03797         0.58904
| 49>    C      -11.86064        -5.99608         0.16873
| 50>    C      -10.52750        -5.49464         0.17459
| 51>    S      -10.48863        -3.84868         0.74852
| 52>    C       -9.45740        -6.25038        -0.23884
| 53>    C       -9.70309        -7.56164        -0.66492
| 54>    C      -11.03507        -8.07026        -0.63676
| 55>    C      -12.10665        -7.31272        -0.23963
| 56>    S      -11.08375        -9.72611        -1.16891
| 57>    C       -9.34719        -9.72145        -1.47562
| 58>    C       -8.78196        -8.50936        -1.14767
| 59>    C       -8.77608       -10.88651        -2.02356
| 60>    C       -7.51836       -11.03498        -2.54425
| 61>    C       -7.01585       -12.22653        -3.13391
| 62>    C       -5.76252       -12.11809        -3.64675
| 63>    C       -5.18969       -10.83315        -3.49234
| 64>    S       -6.30641        -9.77462        -2.65300
| 65>    C       -3.95893       -10.39018        -3.92064
| 66>    C       -2.96564       -11.11623        -4.62635
| 67>    C       -1.86307       -10.38850        -4.92784
| 68>    C       -1.90436        -9.03008        -4.48733
| 69>    S       -3.42230        -8.74838        -3.63928
| 70>    C       -0.94490        -8.10406        -4.74766
| 71>    C       -0.91258        -6.70865        -4.38226
| 72>    C       -1.63366        -6.18560        -3.37176
| 73>    C       -0.03193        -5.85997        -5.17519
| 74>    S        0.50552        -6.36228        -6.75601
| 75>    C        1.38063        -4.89331        -6.98932
| 76>    C        2.12957        -4.67182        -8.25668
| 77>    C        1.27075        -4.05977        -5.90047
| 78>    C        0.46205        -4.62465        -4.87944
| 79>    C        1.91480        -2.76169        -5.83488
| 80>    C        1.87995        -1.93208        -4.79839
| 81>    H      -14.33832        -5.43724        -3.69367
| 82>    H      -16.30827       -10.03087        -4.01924
| 83>    H      -11.88927        -6.73059        -4.13262
| 84>    H      -20.51473        -6.42741        -3.53598
| 85>    H      -21.07686        -4.25622        -2.93207
| 86>    H      -20.73198        -2.00670        -1.78382
| 87>    H      -19.09397        -0.79723        -0.19669
| 88>    H      -16.81158        -0.19532         1.11063
| 89>    H      -14.35926        -0.29697         1.89909
| 90>    H      -12.24848        -1.82767         1.67942
| 91>    H      -13.84133        -5.26774         0.67829
| 92>    H       -8.45370        -5.85652        -0.24275
| 93>    H      -13.11133        -7.70489        -0.24057
| 94>    H       -7.73147        -8.30416        -1.23570
| 95>    H       -9.42579       -11.74955        -2.08778
| 96>    H       -7.61139       -13.12158        -3.16560
| 97>    H       -5.23723       -12.91811        -4.13660
| 98>    H       -3.10441       -12.14794        -4.89548
| 99>    H       -1.01126       -10.76646        -5.46524
|100>    H       -0.11161        -8.45058        -5.34699
|101>    H       -2.24026        -6.79580        -2.72947
|102>    H       -1.60821        -5.13427        -3.15097
|103>    H        2.02892        -5.53626        -8.90828
|104>    H        3.18907        -4.51008        -8.05618
|105>    H        1.74660        -3.79640        -8.78238
|106>    H        0.26970        -4.12853        -3.94663
|107>    H        2.46211        -2.47580        -6.72325
|108>    H        1.35461        -2.16242        -3.88779
|109>    H        2.38473        -0.98191        -4.82572
|110> *
|111>
|112>                          ****END OF INPUT****

CARTESIAN COORDINATES (ANGSTROEM)
---------------------------------
  C    -18.140990   -7.773220   -3.544680
  C    -19.038520   -8.815430   -3.500510
  C    -18.692820  -10.162300   -3.721360
  N    -18.474440  -11.275910   -3.902400
  C    -20.413280   -8.698880   -3.216780
  N    -21.536320   -8.703580   -2.971000
  C    -16.696020   -7.921060   -3.736880
  C    -16.106540   -6.637520   -3.660790
  C    -14.754830   -6.429790   -3.764770
  C    -13.938680   -7.547470   -3.976460
  C    -14.535220   -8.824410   -4.070280
  C    -15.905510   -9.034660   -3.943910
  S    -13.349710  -10.058270   -4.386420
  C    -12.092850   -8.851590   -4.404980
  C    -12.529240   -7.593740   -4.163570
  Br   -10.326550   -9.355940   -4.790240
  C    -17.169900   -5.633390   -3.460360
  O    -17.014110   -4.421030   -3.458830
  C    -18.421560   -6.375820   -3.329900
  C    -19.690030   -5.815440   -3.189160
  C    -20.066430   -4.571220   -2.698140
  C    -19.369490   -3.707020   -1.860990
  C    -19.806400   -2.427970   -1.432250
  C    -18.941790   -1.786500   -0.590190
  C    -17.790720   -2.545520   -0.300120
  S    -17.867430   -4.091830   -1.102550
  C    -16.613350   -2.232730    0.362070
  C    -16.173620   -1.053820    0.998800
  C    -14.874090   -1.108470    1.415180
  C    -14.214070   -2.331170    1.129150
  S    -15.346740   -3.428930    0.363160
  C    -12.880780   -2.616890    1.294720
  C    -12.246270   -3.817110    0.917270
  C    -12.796550   -5.037970    0.589040
  C    -11.860640   -5.996080    0.168730
  C    -10.527500   -5.494640    0.174590
  S    -10.488630   -3.848680    0.748520
  C     -9.457400   -6.250380   -0.238840
  C     -9.703090   -7.561640   -0.664920
  C    -11.035070   -8.070260   -0.636760
  C    -12.106650   -7.312720   -0.239630
  S    -11.083750   -9.726110   -1.168910
  C     -9.347190   -9.721450   -1.475620
  C     -8.781960   -8.509360   -1.147670
  C     -8.776080  -10.886510   -2.023560
  C     -7.518360  -11.034980   -2.544250
  C     -7.015850  -12.226530   -3.133910
  C     -5.762520  -12.118090   -3.646750
  C     -5.189690  -10.833150   -3.492340
  S     -6.306410   -9.774620   -2.653000
  C     -3.958930  -10.390180   -3.920640
  C     -2.965640  -11.116230   -4.626350
  C     -1.863070  -10.388500   -4.927840
  C     -1.904360   -9.030080   -4.487330
  S     -3.422300   -8.748380   -3.639280
  C     -0.944900   -8.104060   -4.747660
  C     -0.912580   -6.708650   -4.382260
  C     -1.633660   -6.185600   -3.371760
  C     -0.031930   -5.859970   -5.175190
  S      0.505520   -6.362280   -6.756010
  C      1.380630   -4.893310   -6.989320
  C      2.129570   -4.671820   -8.256680
  C      1.270750   -4.059770   -5.900470
  C      0.462050   -4.624650   -4.879440
  C      1.914800   -2.761690   -5.834880
  C      1.879950   -1.932080   -4.798390
  H    -14.338320   -5.437240   -3.693670
  H    -16.308270  -10.030870   -4.019240
  H    -11.889270   -6.730590   -4.132620
  H    -20.514730   -6.427410   -3.535980
  H    -21.076860   -4.256220   -2.932070
  H    -20.731980   -2.006700   -1.783820
  H    -19.093970   -0.797230   -0.196690
  H    -16.811580   -0.195320    1.110630
  H    -14.359260   -0.296970    1.899090
  H    -12.248480   -1.827670    1.679420
  H    -13.841330   -5.267740    0.678290
  H     -8.453700   -5.856520   -0.242750
  H    -13.111330   -7.704890   -0.240570
  H     -7.731470   -8.304160   -1.235700
  H     -9.425790  -11.749550   -2.087780
  H     -7.611390  -13.121580   -3.165600
  H     -5.237230  -12.918110   -4.136600
  H     -3.104410  -12.147940   -4.895480
  H     -1.011260  -10.766460   -5.465240
  H     -0.111610   -8.450580   -5.346990
  H     -2.240260   -6.795800   -2.729470
  H     -1.608210   -5.134270   -3.150970
  H      2.028920   -5.536260   -8.908280
  H      3.189070   -4.510080   -8.056180
  H      1.746600   -3.796400   -8.782380
  H      0.269700   -4.128530   -3.946630
  H      2.462110   -2.475800   -6.723250
  H      1.354610   -2.162420   -3.887790
  H      2.384730   -0.981910   -4.825720

 Total Charge           Charge          ....    0
 Multiplicity           Mult            ....    1
 Number of Electrons    NEL             ....  538
 Basis Dimension        Dim             .... 1119

ORBITAL ENERGIES
----------------

  NO   OCC          E(Eh)            E(eV)
   0   2.0000    -482.872100    -13139.6178
   1   2.0000     -88.962631     -2420.7963
   2   2.0000     -88.959684     -2420.7161
   3   2.0000     -88.955197     -2420.5940
   4   2.0000     -88.952847     -2420.5300
   5   2.0000     -88.950806     -2420.4745
   6   2.0000     -88.948239     -2420.4046
   7   2.0000     -88.946315     -2420.3523
   8   2.0000     -88.945937     -2420.3420
   9   2.0000     -62.549415     -1702.0561
  10   2.0000     -56.383386     -1534.2699
  11   2.0000     -56.380687     -1534.1965
  12   2.0000     -56.380621     -1534.1947
  13   2.0000     -19.191701      -522.2327
  14   2.0000     -14.394814      -391.7028
  15   2.0000     -14.394204      -391.6862
  16   2.0000     -10.342997      -281.4473
  17   2.0000     -10.336994      -281.2839
  18   2.0000     -10.335795      -281.2513
  19   2.0000     -10.324075      -280.9324
  20   2.0000     -10.319398      -280.8051
  21   2.0000     -10.319282      -280.8019
  22   2.0000     -10.317523      -280.7541
  23   2.0000     -10.316223      -280.7187
  24   2.0000     -10.315364      -280.6953
  25   2.0000     -10.314688      -280.6769
  26   2.0000     -10.313730      -280.6509
  27   2.0000     -10.313653      -280.6488
  28   2.0000     -10.311633      -280.5938
  29   2.0000     -10.311116      -280.5797
  30   2.0000     -10.309439      -280.5341
  31   2.0000     -10.307522      -280.4819
  32   2.0000     -10.307366      -280.4777
  33   2.0000     -10.306468      -280.4532
  34   2.0000     -10.303171      -280.3635
  35   2.0000     -10.301667      -280.3226
  36   2.0000     -10.299039      -280.2511
  37   2.0000     -10.298309      -280.2312
  38   2.0000     -10.297515      -280.2096
  39   2.0000     -10.292349      -280.0690
  40   2.0000     -10.291877      -280.0562
  41   2.0000     -10.291260      -280.0394
  42   2.0000     -10.290653      -280.0229
  43   2.0000     -10.289819      -280.0002
  44   2.0000     -10.289628      -279.9950
  45   2.0000     -10.289525      -279.9922
  46   2.0000     -10.288533      -279.9652
  47   2.0000     -10.288233      -279.9571
  48   2.0000     -10.287933      -279.9489
  49   2.0000     -10.287710      -279.9428
  50   2.0000     -10.287110      -279.9265
  51   2.0000     -10.286751      -279.9167
  52   2.0000     -10.286561      -279.9115
  53   2.0000     -10.286098      -279.8990
  54   2.0000     -10.286089      -279.8987
  55   2.0000     -10.284555      -279.8570
  56   2.0000     -10.282370      -279.7975
  57   2.0000     -10.281103      -279.7630
  58   2.0000     -10.280976      -279.7596
  59   2.0000     -10.280702      -279.7521
  60   2.0000     -10.276690      -279.6430
  61   2.0000     -10.274299      -279.5779
  62   2.0000     -10.271781      -279.5094
  63   2.0000     -10.271436      -279.5000
  64   2.0000     -10.270937      -279.4864
  65   2.0000     -10.269559      -279.4489
  66   2.0000     -10.265851      -279.3480
  67   2.0000     -10.263210      -279.2761
  68   2.0000     -10.262957      -279.2693
  69   2.0000     -10.257839      -279.1300
  70   2.0000      -8.778694      -238.8804
  71   2.0000      -8.058772      -219.2903
  72   2.0000      -8.055529      -219.2021
  73   2.0000      -8.050856      -219.0749
  74   2.0000      -8.048803      -219.0191
  75   2.0000      -8.046633      -218.9600
  76   2.0000      -8.044244      -218.8950
  77   2.0000      -8.042250      -218.8407
  78   2.0000      -8.041609      -218.8233
  79   2.0000      -6.614891      -180.0003
  80   2.0000      -6.600414      -179.6064
  81   2.0000      -6.600342      -179.6044
  82   2.0000      -6.028500      -164.0438
  83   2.0000      -6.025229      -163.9548
  84   2.0000      -6.024215      -163.9272
  85   2.0000      -6.020985      -163.8393
  86   2.0000      -6.020270      -163.8199
  87   2.0000      -6.019854      -163.8086
  88   2.0000      -6.018430      -163.7698
  89   2.0000      -6.016779      -163.7249
  90   2.0000      -6.016394      -163.7144
  91   2.0000      -6.015858      -163.6998
  92   2.0000      -6.014563      -163.6646
  93   2.0000      -6.014047      -163.6505
  94   2.0000      -6.012673      -163.6132
  95   2.0000      -6.012293      -163.6028
  96   2.0000      -6.011283      -163.5753
  97   2.0000      -6.011239      -163.5741
  98   2.0000      -6.009916      -163.5381
  99   2.0000      -6.009878      -163.5371
 100   2.0000      -6.007625      -163.4758
 101   2.0000      -6.007380      -163.4691
 102   2.0000      -6.007345      -163.4682
 103   2.0000      -6.005090      -163.4068
 104   2.0000      -6.004626      -163.3942
 105   2.0000      -6.002724      -163.3424
 106   2.0000      -2.730824       -74.3095
 107   2.0000      -2.726665       -74.1963
 108   2.0000      -2.726643       -74.1957
 109   2.0000      -2.715127       -73.8824
 110   2.0000      -2.715119       -73.8821
 111   2.0000      -1.105239       -30.0751
 112   2.0000      -1.013284       -27.5729
 113   2.0000      -1.003994       -27.3201
 114   2.0000      -1.002058       -27.2674
 115   2.0000      -0.998782       -27.1782
 116   2.0000      -0.993760       -27.0416
 117   2.0000      -0.986926       -26.8556
 118   2.0000      -0.980937       -26.6926
 119   2.0000      -0.977474       -26.5984
 120   2.0000      -0.973397       -26.4875
 121   2.0000      -0.972399       -26.4603
 122   2.0000      -0.968866       -26.3642
 123   2.0000      -0.926216       -25.2036
 124   2.0000      -0.922414       -25.1002
 125   2.0000      -0.914597       -24.8874
 126   2.0000      -0.903416       -24.5832
 127   2.0000      -0.890587       -24.2341
 128   2.0000      -0.889356       -24.2006
 129   2.0000      -0.879062       -23.9205
 130   2.0000      -0.877013       -23.8647
 131   2.0000      -0.869884       -23.6707
 132   2.0000      -0.867454       -23.6046
 133   2.0000      -0.865921       -23.5629
 134   2.0000      -0.858963       -23.3736
 135   2.0000      -0.854979       -23.2652
 136   2.0000      -0.849881       -23.1264
 137   2.0000      -0.834443       -22.7064
 138   2.0000      -0.833798       -22.6888
 139   2.0000      -0.830897       -22.6098
 140   2.0000      -0.827569       -22.5193
 141   2.0000      -0.826205       -22.4822
 142   2.0000      -0.811688       -22.0871
 143   2.0000      -0.809794       -22.0356
 144   2.0000      -0.800938       -21.7946
 145   2.0000      -0.792674       -21.5697
 146   2.0000      -0.781817       -21.2743
 147   2.0000      -0.775173       -21.0935
 148   2.0000      -0.759585       -20.6693
 149   2.0000      -0.753868       -20.5138
 150   2.0000      -0.740328       -20.1454
 151   2.0000      -0.737255       -20.0617
 152   2.0000      -0.724210       -19.7068
 153   2.0000      -0.708039       -19.2667
 154   2.0000      -0.697200       -18.9718
 155   2.0000      -0.690698       -18.7949
 156   2.0000      -0.683099       -18.5881
 157   2.0000      -0.681710       -18.5503
 158   2.0000      -0.671988       -18.2857
 159   2.0000      -0.669695       -18.2233
 160   2.0000      -0.663361       -18.0510
 161   2.0000      -0.659745       -17.9526
 162   2.0000      -0.653078       -17.7712
 163   2.0000      -0.646797       -17.6002
 164   2.0000      -0.640861       -17.4387
 165   2.0000      -0.638865       -17.3844
 166   2.0000      -0.634338       -17.2612
 167   2.0000      -0.631073       -17.1724
 168   2.0000      -0.626169       -17.0389
 169   2.0000      -0.618204       -16.8222
 170   2.0000      -0.616154       -16.7664
 171   2.0000      -0.612386       -16.6639
 172   2.0000      -0.602517       -16.3953
 173   2.0000      -0.600176       -16.3316
 174   2.0000      -0.596688       -16.2367
 175   2.0000      -0.592765       -16.1300
 176   2.0000      -0.583675       -15.8826
 177   2.0000      -0.577890       -15.7252
 178   2.0000      -0.574976       -15.6459
 179   2.0000      -0.571217       -15.5436
 180   2.0000      -0.568179       -15.4609
 181   2.0000      -0.562587       -15.3088
 182   2.0000      -0.554794       -15.0967
 183   2.0000      -0.545936       -14.8557
 184   2.0000      -0.538687       -14.6584
 185   2.0000      -0.534997       -14.5580
 186   2.0000      -0.532480       -14.4895
 187   2.0000      -0.530227       -14.4282
 188   2.0000      -0.527446       -14.3525
 189   2.0000      -0.525252       -14.2928
 190   2.0000      -0.523571       -14.2471
 191   2.0000      -0.520250       -14.1567
 192   2.0000      -0.518134       -14.0991
 193   2.0000      -0.516427       -14.0527
 194   2.0000      -0.515244       -14.0205
 195   2.0000      -0.510928       -13.9031
 196   2.0000      -0.509711       -13.8699
 197   2.0000      -0.507383       -13.8066
 198   2.0000      -0.506597       -13.7852
 199   2.0000      -0.505227       -13.7479
 200   2.0000      -0.500437       -13.6176
 201   2.0000      -0.497901       -13.5486
 202   2.0000      -0.496007       -13.4970
 203   2.0000      -0.495165       -13.4741
 204   2.0000      -0.492368       -13.3980
 205   2.0000      -0.490411       -13.3448
 206   2.0000      -0.489184       -13.3114
 207   2.0000      -0.489117       -13.3095
 208   2.0000      -0.482838       -13.1387
 209   2.0000      -0.478453       -13.0194
 210   2.0000      -0.477905       -13.0045
 211   2.0000      -0.471750       -12.8370
 212   2.0000      -0.470189       -12.7945
 213   2.0000      -0.467766       -12.7285
 214   2.0000      -0.465010       -12.6536
 215   2.0000      -0.462826       -12.5941
 216   2.0000      -0.460993       -12.5443
 217   2.0000      -0.459021       -12.4906
 218   2.0000      -0.455969       -12.4075
 219   2.0000      -0.455659       -12.3991
 220   2.0000      -0.453109       -12.3297
 221   2.0000      -0.450781       -12.2664
 222   2.0000      -0.443697       -12.0736
 223   2.0000      -0.442539       -12.0421
 224   2.0000      -0.439789       -11.9673
 225   2.0000      -0.436633       -11.8814
 226   2.0000      -0.432831       -11.7779
 227   2.0000      -0.431303       -11.7363
 228   2.0000      -0.429583       -11.6895
 229   2.0000      -0.427390       -11.6299
 230   2.0000      -0.425715       -11.5843
 231   2.0000      -0.424837       -11.5604
 232   2.0000      -0.422283       -11.4909
 233   2.0000      -0.421517       -11.4701
 234   2.0000      -0.420604       -11.4452
 235   2.0000      -0.416989       -11.3469
 236   2.0000      -0.410902       -11.1812
 237   2.0000      -0.407120       -11.0783
 238   2.0000      -0.405160       -11.0250
 239   2.0000      -0.404905       -11.0180
 240   2.0000      -0.400941       -10.9102
 241   2.0000      -0.400421       -10.8960
 242   2.0000      -0.396520       -10.7899
 243   2.0000      -0.393434       -10.7059
 244   2.0000      -0.389051       -10.5866
 245   2.0000      -0.385981       -10.5031
 246   2.0000      -0.379780       -10.3343
 247   2.0000      -0.375807       -10.2262
 248   2.0000      -0.371615       -10.1122
 249   2.0000      -0.364704        -9.9241
 250   2.0000      -0.361961        -9.8495
 251   2.0000      -0.356782        -9.7085
 252   2.0000      -0.350556        -9.5391
 253   2.0000      -0.342854        -9.3295
 254   2.0000      -0.339540        -9.2394
 255   2.0000      -0.333295        -9.0694
 256   2.0000      -0.329469        -8.9653
 257   2.0000      -0.325705        -8.8629
 258   2.0000      -0.320669        -8.7258
 259   2.0000      -0.308422        -8.3926
 260   2.0000      -0.300429        -8.1751
 261   2.0000      -0.292999        -7.9729
 262   2.0000      -0.290324        -7.9001
 263   2.0000      -0.282054        -7.6751
 264   2.0000      -0.275523        -7.4974
 265   2.0000      -0.265605        -7.2275
 266   2.0000      -0.260602        -7.0913
 267   2.0000      -0.234194        -6.3727
 268   2.0000      -0.216571        -5.8932
 269   0.0000      -0.109071        -2.9680
 270   0.0000      -0.078811        -2.1445
 271   0.0000      -0.056405        -1.5349
 272   0.0000      -0.033681        -0.9165
 273   0.0000      -0.016737        -0.4554

MULLIKEN ATOMIC CHARGES
-----------------------
   0 C :    0.307865
   1 C :   -0.359284
   2 C :   -0.184838
   3 N :    0.133345
   4 C :   -0.207018
   5 N :    0.147720
   6 C :    0.017233
   7 C :   -0.002883
   8 C :   -0.089986
   9 C :    0.112343
  10 C :   -0.093629
  11 C :   -0.032930
  12 S :    0.168763
  13 C :   -0.123725
  14 C :    0.047095
  15 Br:    0.017496
  16 C :    0.108802
  17 O :   -0.175291
  18 C :   -0.116525
  19 C :   -0.004156
  20 C :    0.004186
  21 C :   -0.003214
  22 C :    0.032188
  23 C :    0.042848
  24 C :   -0.060594
  25 S :    0.145331
  26 C :   -0.008939
  27 C :    0.026341
  28 C :    0.056157
  29 C :   -0.045382
  30 S :    0.070628
  31 C :    0.074915
  32 C :   -0.101456
  33 C :   -0.023529
  34 C :    0.093752
  35 C :   -0.030850
  36 S :    0.108031
  37 C :   -0.069182
  38 C :    0.112078
  39 C :   -0.038761
  40 C :   -0.051436
  41 S :    0.109657
  42 C :   -0.072381
  43 C :   -0.039121
  44 C :    0.037053
  45 C :   -0.030835
  46 C :    0.035071
  47 C :    0.033356
  48 C :   -0.044144
  49 S :    0.063374
  50 C :   -0.046098
  51 C :    0.031383
  52 C :    0.038982
  53 C :   -0.004914
  54 S :    0.078238
  55 C :   -0.064859
  56 C :    0.070643
  57 C :   -0.066296
  58 C :   -0.079500
  59 S :    0.106191
  60 C :   -0.295399
  61 C :    0.117823
  62 C :    0.130901
  63 C :   -0.030372
  64 C :   -0.024126
  65 C :   -0.016768
  66 H :   -0.018440
  67 H :   -0.010723
  68 H :   -0.005981
  69 H :    0.025713
  70 H :   -0.007611
  71 H :   -0.007691
  72 H :   -0.010250
  73 H :   -0.004127
  74 H :   -0.000014
  75 H :   -0.003351
  76 H :    0.006675
  77 H :   -0.029246
  78 H :   -0.022679
  79 H :   -0.010474
  80 H :   -0.013339
  81 H :   -0.008297
  82 H :   -0.010862
  83 H :   -0.011561
  84 H :   -0.008011
  85 H :   -0.002410
  86 H :    0.026899
  87 H :    0.016993
  88 H :    0.014329
  89 H :    0.039619
  90 H :    0.039612
  91 H :   -0.029667
  92 H :   -0.022593
  93 H :    0.008172
  94 H :    0.017949
Sum of atomic charges:   -0.0000000

LOEWDIN ATOMIC CHARGES
----------------------
   0 C :    0.077468
   1 C :   -0.155785
   2 C :   -0.017720
   3 N :   -0.070291
   4 C :   -0.024172
   5 N :   -0.065151
   6 C :   -0.021860
   7 C :   -0.044914
   8 C :    0.009125
   9 C :   -0.037456
  10 C :   -0.150562
  11 C :   -0.014834
  12 S :    0.419719
  13 C :   -0.277363
  14 C :   -0.071501
  15 Br:    0.142225
  16 C :    0.044845
  17 O :   -0.179092
  18 C :   -0.126426
  19 C :    0.040724
  20 C :   -0.078128
  21 C :   -0.109407
  22 C :   -0.037801
  23 C :   -0.021564
  24 C :   -0.194737
  25 S :    0.489145
  26 C :   -0.138601
  27 C :   -0.043558
  28 C :   -0.004289
  29 C :   -0.154457
  30 S :    0.415772
  31 C :   -0.034508
  32 C :   -0.168526
  33 C :   -0.046053
  34 C :   -0.049828
  35 C :   -0.147877
  36 S :    0.386219
  37 C :   -0.042148
  38 C :   -0.032951
  39 C :   -0.151923
  40 C :   -0.029270
  41 S :    0.399528
  42 C :   -0.146416
  43 C :   -0.072633
  44 C :   -0.083801
  45 C :   -0.138318
  46 C :   -0.030868
  47 C :   -0.031081
  48 C :   -0.180879
  49 S :    0.385065
  50 C :   -0.172791
  51 C :   -0.034479
  52 C :   -0.022391
  53 C :   -0.134529
  54 S :    0.383825
  55 C :   -0.059528
  56 C :   -0.043699
  57 C :   -0.045166
  58 C :   -0.169060
  59 S :    0.428417
  60 C :   -0.175384
  61 C :   -0.062473
  62 C :   -0.076677
  63 C :   -0.042449
  64 C :   -0.020251
  65 C :   -0.050152
  66 H :    0.037425
  67 H :    0.039062
  68 H :    0.037563
  69 H :    0.045567
  70 H :    0.038140
  71 H :    0.035072
  72 H :    0.033904
  73 H :    0.036011
  74 H :    0.038225
  75 H :    0.038635
  76 H :    0.019044
  77 H :    0.031614
  78 H :    0.034226
  79 H :    0.017166
  80 H :    0.033221
  81 H :    0.035186
  82 H :    0.032992
  83 H :    0.032655
  84 H :    0.035099
  85 H :    0.025041
  86 H :    0.009186
  87 H :    0.023248
  88 H :    0.031714
  89 H :    0.039358
  90 H :    0.039594
  91 H :    0.025077
  92 H :    0.026806
  93 H :    0.018675
  94 H :    0.024193

  Mayer bond orders larger than 0.100000
B(  0-C ,  1-C ) :   1.5936 B(  0-C ,  6-C ) :   0.9866 B(  0-C , 18-C ) :   1.1296
B(  1-C ,  2-C ) :   1.1481 B(  1-C ,  4-C ) :   1.1465 B(  2-C ,  3-N ) :   2.9632
B(  4-C ,  5-N ) :   2.9882 B(  6-C ,  7-C ) :   1.2782 B(  6-C , 11-C ) :   1.4189
B(  7-C ,  8-C ) :   1.4335 B(  7-C , 16-C ) :   0.9229 B(  8-C ,  9-C ) :   1.2294
B(  8-C , 66-H ) :   1.0192 B(  9-C , 10-C ) :   1.3220 B(  9-C , 14-C ) :   1.1592
B( 10-C , 11-C ) :   1.3156 B( 10-C , 12-S ) :   1.0784 B( 11-C , 67-H ) :   0.9818
B( 12-S , 13-C ) :   1.0820 B( 13-C , 14-C ) :   1.6166 B( 13-C , 15-Br) :   1.0159
B( 14-C , 68-H ) :   1.0016 B( 16-C , 17-O ) :   2.1631 B( 16-C , 18-C ) :   1.0168
B( 18-C , 19-C ) :   1.3796 B( 19-C , 20-C ) :   1.3984 B( 19-C , 69-H ) :   0.9374
B( 20-C , 21-C ) :   1.4090 B( 20-C , 70-H ) :   0.9515 B( 21-C , 22-C ) :   1.1895
B( 21-C , 25-S ) :   1.1471 B( 22-C , 23-C ) :   1.5536 B( 22-C , 71-H ) :   0.9967
B( 23-C , 24-C ) :   1.2084 B( 23-C , 72-H ) :   0.9941 B( 24-C , 25-S ) :   1.0763
B( 24-C , 26-C ) :   1.4439 B( 26-C , 27-C ) :   1.2030 B( 26-C , 30-S ) :   1.0825
B( 27-C , 28-C ) :   1.5737 B( 27-C , 73-H ) :   0.9956 B( 28-C , 29-C ) :   1.1554
B( 28-C , 74-H ) :   0.9969 B( 29-C , 30-S ) :   1.0361 B( 29-C , 31-C ) :   1.5892
B( 31-C , 32-C ) :   1.1715 B( 31-C , 75-H ) :   0.9569 B( 32-C , 33-C ) :   1.4921
B( 32-C , 36-S ) :   1.0516 B( 33-C , 34-C ) :   1.2125 B( 33-C , 76-H ) :   0.9735
B( 34-C , 35-C ) :   1.2687 B( 34-C , 40-C ) :   1.2876 B( 35-C , 36-S ) :   1.0477
B( 35-C , 37-C ) :   1.3885 B( 37-C , 38-C ) :   1.3030 B( 37-C , 77-H ) :   1.0027
B( 38-C , 39-C ) :   1.2615 B( 38-C , 43-C ) :   1.1966 B( 39-C , 40-C ) :   1.4045
B( 39-C , 41-S ) :   1.0445 B( 40-C , 78-H ) :   1.0039 B( 41-S , 42-C ) :   1.0661
B( 42-C , 43-C ) :   1.5141 B( 42-C , 44-C ) :   1.1477 B( 43-C , 79-H ) :   0.9794
B( 44-C , 45-C ) :   1.6112 B( 44-C , 80-H ) :   0.9536 B( 45-C , 46-C ) :   1.1362
B( 45-C , 49-S ) :   1.0462 B( 46-C , 47-C ) :   1.6030 B( 46-C , 81-H ) :   0.9997
B( 47-C , 48-C ) :   1.1747 B( 47-C , 82-H ) :   0.9929 B( 48-C , 49-S ) :   1.0307
B( 48-C , 50-C ) :   1.5395 B( 50-C , 51-C ) :   1.1621 B( 50-C , 54-S ) :   1.0388
B( 51-C , 52-C ) :   1.6244 B( 51-C , 83-H ) :   0.9932 B( 52-C , 53-C ) :   1.1129
B( 52-C , 84-H ) :   0.9977 B( 53-C , 54-S ) :   1.0298 B( 53-C , 55-C ) :   1.6671
B( 55-C , 56-C ) :   1.0465 B( 55-C , 85-H ) :   0.9527 B( 56-C , 57-C ) :   1.8901
B( 56-C , 58-C ) :   1.0229 B( 57-C , 86-H ) :   0.9308 B( 57-C , 87-H ) :   0.9379
B( 58-C , 59-S ) :   1.1137 B( 58-C , 63-C ) :   1.5881 B( 59-S , 60-C ) :   1.1440
B( 60-C , 61-C ) :   1.0942 B( 60-C , 62-C ) :   1.5306 B( 61-C , 88-H ) :   0.9456
B( 61-C , 89-H ) :   0.9476 B( 61-C , 90-H ) :   0.9475 B( 62-C , 63-C ) :   1.2092
B( 62-C , 64-C ) :   1.0821 B( 63-C , 91-H ) :   0.9910 B( 64-C , 65-C ) :   1.9570
B( 64-C , 92-H ) :   0.9610 B( 65-C , 93-H ) :   0.9516 B( 65-C , 94-H ) :   0.9472

-----------------------------------------------------------------------------
         ABSORPTION SPECTRUM VIA TRANSITION ELECTRIC DIPOLE MOMENTS
-----------------------------------------------------------------------------
State   Energy  Wavelength   fosc         T2         TX        TY        TZ
        (cm-1)    (nm)                  (au**2)     (au)      (au)      (au)
-----------------------------------------------------------------------------
   0   10651.1    938.9   0.731458027  22.60851  -4.64738  -0.05712  -1.00356
   1   15299.5    653.6   0.642485657  13.82490   1.81690  -2.05632  -2.50905
   2   17447.8    573.1   0.778373596  14.68663   3.54403   0.00116  -1.45825
   3   19831.6    504.2   0.065593012   1.08887  -0.10004   0.95832   0.40060
   4   20925.1    477.9   0.165096230   2.59743   0.50383   1.52460  -0.13848
   5   21263.9    470.3   0.086869409   1.34493   0.05273   1.15174  -0.12511
   6   22317.9    448.1   0.089385455   1.31853   0.81813   0.78750  -0.17042
   7   23049.8    433.8   0.090248856   1.28899  -1.10104   0.22425  -0.16255
   8   23444.7    426.5   0.241538914   3.39170   0.37046  -1.76000  -0.39603
   9   25106.9    398.3   0.030527856   0.40029  -0.22475   0.52747  -0.26751
  10   25499.2    392.2   0.109265041   1.41069  -0.79008   0.74723   0.47760
  11   25807.8    387.5   0.488442112   6.23071  -0.24937   2.37182   0.73687
  12   26204.3    381.6   0.166148062   2.08737  -1.38861   0.32127   0.23648
  13   27111.4    368.8   0.282355941   3.42863   0.21321  -1.78031  -0.46226
  14   27777.4    360.0   0.016182829   0.19180   0.19391   0.39268  -0.00031
  15   28157.2    355.1   0.130926735   1.53079  -1.15572   0.37007   0.24113
  16   28844.6    346.7   0.022543414   0.25729  -0.01273  -0.42730  -0.27303
  17   29438.5    339.7   0.035215649   0.39382  -0.24616  -0.47326  -0.33053
  18   29897.3    334.5   0.265046137   2.91853   1.67676  -0.31711  -0.08032
  19   30398.6    329.0   0.012176259   0.13187  -0.18139  -0.15029   0.27636
  20   30522.5    327.6   0.138515682   1.49402   0.82885   0.86281   0.25019
  21   31139.0    321.1   0.126509557   1.33750  -1.03509  -0.50984   0.07845
  22   31246.4    320.0   0.151061647   1.59158   1.07152  -0.62570  -0.22787
  23   31366.1    318.8   0.159360404   1.67261   0.76309  -0.88180  -0.55922
  24   31751.0    315.0   0.061921964   0.64204   0.15791   0.76643   0.17231
  25   31943.5    313.1   0.047264772   0.48711  -0.67430  -0.13671  -0.11722
  26   32769.1    305.2   0.189844144   1.90725   1.30566   0.44808  -0.04174
  27   33231.2    300.9   0.069859731   0.69208  -0.81303  -0.16247  -0.06828
  28   33506.0    298.5   0.169881680   1.66917  -0.81739  -0.99855  -0.06266
  29   34037.3    293.8   0.058417153   0.56502   0.59206   0.20975   0.41291
  30   34274.5    291.8   0.008229945   0.07905  -0.17425   0.18940   0.11320
  31   34543.8    289.5   0.040350947   0.38456  -0.44937   0.40901   0.12383
  32   34915.8    286.4   0.074852313   0.70576   0.34375   0.75444   0.13570
  33   35202.8    284.1   0.086200075   0.80613  -0.81427   0.37628   0.03888
  34   35494.8    281.7   0.115570575   1.07191   0.92975   0.39025   0.23487
  35   35726.9    279.9   0.036526332   0.33658   0.41097  -0.40729  -0.04238
  36   36103.8    277.0   0.019718382   0.17980   0.32760   0.18963  -0.19111
  37   36171.1    276.5   0.018748411   0.17064  -0.25527   0.32289   0.03484
  38   36298.8    275.5   0.009929330   0.09005   0.06825  -0.21826   0.19431
  39   36391.0    274.8   0.001355663   0.01226   0.08940  -0.06526   0.00354
  40   36720.6    272.3   0.033366150   0.29914   0.41314   0.35772   0.02225
  41   36862.9    271.3   0.015536011   0.13875  -0.06483  -0.02467  -0.36597
  42   37135.9    269.3   0.077466245   0.68674  -0.58009   0.56566   0.17399
  43   37235.0    268.6   0.045457657   0.40191  -0.61604   0.11605   0.09452
  44   37529.7    266.5   0.157371678   1.38047  -0.52337  -1.03021   0.21263
  45   37877.2    264.0   0.133691476   1.16199  -0.82956  -0.64564  -0.23868
  46   38058.6    262.8   0.037525371   0.32460   0.04500   0.55488  -0.12118
  47   38350.9    260.8   0.016409086   0.14086   0.00977  -0.34387  -0.15006
  48   39134.0    255.5   0.073701596   0.62001  -0.52548  -0.35641   0.46568
  49   39303.8    254.4   0.056690945   0.47485  -0.11537   0.67551  -0.07231
  50   39569.4    252.7   0.015252630   0.12690  -0.23341  -0.25476  -0.08670
  51   39665.9    252.1   0.028982566   0.24054  -0.14677   0.37956   0.27374
  52   40145.3    249.1   0.016015660   0.13134   0.31163   0.15473  -0.10139

FINAL SINGLE POINT ENERGY     -8015.404077244499

DIPOLE MOMENT
-------------
                                X             Y             Z
Electronic contribution:    -67.33215     -49.26503      -7.06442
Nuclear contribution   :     71.24299      51.93322       7.96981
                        -----------------------------------------
Total Dipole Moment    :      3.91084       2.66819       0.90539
                        -----------------------------------------
Magnitude (a.u.)       :      4.82013
Magnitude (Debye)      :     12.25180

Rotational constants in cm-1:     0.001331     0.000327     0.000290
Rotational constants in MHz :    39.900228     9.800700     8.681603

                             ****ORCA TERMINATED NORMALLY****
TOTAL RUN TIME: 0 days 0 hours 10 minutes 34 seconds 305 msec
