                         Program Version 4.2.0 -  RELEASE  -
|  1> # ORCA input file
|  2> # SCF done       -195.194441127202          0.000238614113
|  3> ! CAM-B3LYP def2-SVP def2/J RIJCOSX Grid4 TightSCF
|  4> %maxcore 5000
|  5> %tddft
|  6>     Mode sTDDFT
|  7>     Ethresh 5.0
|  8>     maxcore 5000
|  9> end
| 10>
| 11> %pal
| 12>   nprocs 6
| 13>   end
| 14> * xyz 0 1
| 15>    C       -4.69483        -2.48783        -8.02639
| 16>    C       -5.28885        -3.59083        -8.57904
| 17>    C       -4.60928        -4.55608        -9.35177
| 18>    N       -4.10932        -5.37434        -9.98166
| 19>    C       -6.65560        -3.90778        -8.43372
| 20>    N       -7.75992        -4.20388        -8.33463
| 21>    C       -3.28258        -2.13338        -8.12424
| 22>    C       -3.05462        -0.94264        -7.38308
| 23>    C       -1.80216        -0.39426        -7.23418
| 24>    C       -0.72787        -1.03419        -7.86038
| 25>    C       -0.97121        -2.19669        -8.63579
| 26>    C       -2.23508        -2.76020        -8.77094
| 27>    S        0.48360        -2.80402        -9.35051
| 28>    C        1.39589        -1.52502        -8.60293
| 29>    C        0.64489        -0.67326        -7.85798
| 30>   Br        3.24365        -1.42269        -8.86362
| 31>    C       -4.32925        -0.46979        -6.84197
| 32>    O       -4.53062         0.57106        -6.21331
| 33>    C       -5.33449        -1.46777        -7.22049
| 34>    C       -6.64211        -1.36882        -6.81719
| 35>    N       -7.02164        -0.32831        -6.06723
| 36>    C       -8.24395        -0.05622        -5.56298
| 37>    S       -9.56380        -1.16996        -5.65642
| 38>    C      -10.55359        -0.03567        -4.78938
| 39>    N      -11.88606        -0.39806        -4.52434
| 40>    O      -12.58070         0.41054        -3.94236
| 41>    O      -12.23616        -1.49865        -4.90437
| 42>    C       -9.90925         1.12292        -4.45569
| 43>    C       -8.57001         1.13767        -4.89437
| 44>    C       -7.65005         2.22551        -4.79049
| 45>    C       -7.86950         3.44124        -4.24269
| 46>    C       -6.88932         4.46300        -4.38463
| 47>    O       -5.75906         4.19490        -5.09929
| 48>    C       -6.84852         5.78653        -4.00394
| 49>    C       -7.60373         6.85597        -3.34456
| 50>    O       -8.69707         6.85040        -2.84268
| 51>    N       -6.77318         7.96663        -3.46471
| 52>    C       -5.57896         7.75250        -4.15326
| 53>    O       -4.74372         8.58677        -4.37503
| 54>    C       -5.63892         6.33079        -4.51068
| 55>    C       -4.99783         5.31897        -5.19320
| 56>    C       -3.82949         5.29801        -6.00363
| 57>    C       -3.49242         4.20013        -6.71471
| 58>    N       -2.44089         4.15197        -7.58469
| 59>    C       -2.17113         3.14122        -8.45463
| 60>    S       -0.52069         2.89589        -8.92666
| 61>    C       -0.98860         1.49029        -9.82624
| 62>    N        0.01392         0.75662       -10.47066
| 63>    O       -0.30895        -0.29268       -10.99793
| 64>    O        1.14381         1.20495       -10.42101
| 65>    C       -2.32456         1.22380        -9.75127
| 66>    C       -3.04102         2.18417        -9.00242
| 67>    C       -4.46911         2.09209        -8.91572
| 68>    C       -5.42987         3.03152        -8.73870
| 69>    C       -5.41252         4.48172        -8.74745
| 70>    C       -4.56863         5.27769        -9.47792
| 71>    C       -4.64061         6.68634        -9.49801
| 72>    N       -4.63885         7.83293        -9.52926
| 73>    C       -3.57506         4.77562       -10.33795
| 74>    N       -2.76142         4.40189       -11.05660
| 75>    C       -6.60587         4.93211        -8.04597
| 76>    C       -7.45424         3.81685        -7.82209
| 77>    C       -6.78495         2.59521        -8.29368
| 78>    O       -7.18993         1.45389        -8.23752
| 79>    C       -8.67458         3.93538        -7.19967
| 80>    C       -9.05271         5.20039        -6.73724
| 81>    C       -8.18776         6.30284        -6.94996
| 82>    C       -6.97042         6.19156        -7.61043
| 83>    S       -8.83484         7.76124        -6.26933
| 84>    C      -10.23312         6.88665        -5.70023
| 85>    C      -10.22065         5.56884        -6.01815
| 86>   Br      -11.56018         7.79300        -4.75312
| 87>    H       -1.65209         0.49539        -6.64163
| 88>    H       -2.36770        -3.65253        -9.35919
| 89>    H        1.04908         0.17456        -7.33473
| 90>    H       -7.39219        -2.10547        -7.07273
| 91>    H       -6.25855         0.35207        -5.90696
| 92>    H      -10.39117         1.91877        -3.91822
| 93>    H       -6.68278         2.07992        -5.25112
| 94>    H       -8.77616         3.71315        -3.72748
| 95>    H       -7.02605         8.87235        -3.09480
| 96>    H       -3.27719         6.22286        -6.07114
| 97>    H       -4.04887         3.28103        -6.60602
| 98>    H       -1.76248         4.90359        -7.53351
| 99>    H       -2.78093         0.39636       -10.26433
|100>    H       -4.85077         1.07865        -8.99998
|101>    H       -9.31726         3.07984        -7.06609
|102>    H       -6.34280         7.05668        -7.74735
|103>    H      -11.00484         4.88431        -5.75146
|104> *
|105>
|106>                          ****END OF INPUT****

CARTESIAN COORDINATES (ANGSTROEM)
---------------------------------
  C     -4.694830   -2.487830   -8.026390
  C     -5.288850   -3.590830   -8.579040
  C     -4.609280   -4.556080   -9.351770
  N     -4.109320   -5.374340   -9.981660
  C     -6.655600   -3.907780   -8.433720
  N     -7.759920   -4.203880   -8.334630
  C     -3.282580   -2.133380   -8.124240
  C     -3.054620   -0.942640   -7.383080
  C     -1.802160   -0.394260   -7.234180
  C     -0.727870   -1.034190   -7.860380
  C     -0.971210   -2.196690   -8.635790
  C     -2.235080   -2.760200   -8.770940
  S      0.483600   -2.804020   -9.350510
  C      1.395890   -1.525020   -8.602930
  C      0.644890   -0.673260   -7.857980
  Br     3.243650   -1.422690   -8.863620
  C     -4.329250   -0.469790   -6.841970
  O     -4.530620    0.571060   -6.213310
  C     -5.334490   -1.467770   -7.220490
  C     -6.642110   -1.368820   -6.817190
  N     -7.021640   -0.328310   -6.067230
  C     -8.243950   -0.056220   -5.562980
  S     -9.563800   -1.169960   -5.656420
  C    -10.553590   -0.035670   -4.789380
  N    -11.886060   -0.398060   -4.524340
  O    -12.580700    0.410540   -3.942360
  O    -12.236160   -1.498650   -4.904370
  C     -9.909250    1.122920   -4.455690
  C     -8.570010    1.137670   -4.894370
  C     -7.650050    2.225510   -4.790490
  C     -7.869500    3.441240   -4.242690
  C     -6.889320    4.463000   -4.384630
  O     -5.759060    4.194900   -5.099290
  C     -6.848520    5.786530   -4.003940
  C     -7.603730    6.855970   -3.344560
  O     -8.697070    6.850400   -2.842680
  N     -6.773180    7.966630   -3.464710
  C     -5.578960    7.752500   -4.153260
  O     -4.743720    8.586770   -4.375030
  C     -5.638920    6.330790   -4.510680
  C     -4.997830    5.318970   -5.193200
  C     -3.829490    5.298010   -6.003630
  C     -3.492420    4.200130   -6.714710
  N     -2.440890    4.151970   -7.584690
  C     -2.171130    3.141220   -8.454630
  S     -0.520690    2.895890   -8.926660
  C     -0.988600    1.490290   -9.826240
  N      0.013920    0.756620  -10.470660
  O     -0.308950   -0.292680  -10.997930
  O      1.143810    1.204950  -10.421010
  C     -2.324560    1.223800   -9.751270
  C     -3.041020    2.184170   -9.002420
  C     -4.469110    2.092090   -8.915720
  C     -5.429870    3.031520   -8.738700
  C     -5.412520    4.481720   -8.747450
  C     -4.568630    5.277690   -9.477920
  C     -4.640610    6.686340   -9.498010
  N     -4.638850    7.832930   -9.529260
  C     -3.575060    4.775620  -10.337950
  N     -2.761420    4.401890  -11.056600
  C     -6.605870    4.932110   -8.045970
  C     -7.454240    3.816850   -7.822090
  C     -6.784950    2.595210   -8.293680
  O     -7.189930    1.453890   -8.237520
  C     -8.674580    3.935380   -7.199670
  C     -9.052710    5.200390   -6.737240
  C     -8.187760    6.302840   -6.949960
  C     -6.970420    6.191560   -7.610430
  S     -8.834840    7.761240   -6.269330
  C    -10.233120    6.886650   -5.700230
  C    -10.220650    5.568840   -6.018150
  Br   -11.560180    7.793000   -4.753120
  H     -1.652090    0.495390   -6.641630
  H     -2.367700   -3.652530   -9.359190
  H      1.049080    0.174560   -7.334730
  H     -7.392190   -2.105470   -7.072730
  H     -6.258550    0.352070   -5.906960
  H    -10.391170    1.918770   -3.918220
  H     -6.682780    2.079920   -5.251120
  H     -8.776160    3.713150   -3.727480
  H     -7.026050    8.872350   -3.094800
  H     -3.277190    6.222860   -6.071140
  H     -4.048870    3.281030   -6.606020
  H     -1.762480    4.903590   -7.533510
  H     -2.780930    0.396360  -10.264330
  H     -4.850770    1.078650   -8.999980
  H     -9.317260    3.079840   -7.066090
  H     -6.342800    7.056680   -7.747350
  H    -11.004840    4.884310   -5.751460

 Total Charge           Charge          ....    0
 Multiplicity           Mult            ....    1
 Number of Electrons    NEL             ....  574
 Basis Dimension        Dim             .... 1145

ORBITAL ENERGIES
----------------

  NO   OCC          E(Eh)            E(eV)
   0   2.0000    -482.889808    -13140.0997
   1   2.0000    -482.887803    -13140.0452
   2   2.0000     -89.005789     -2421.9707
   3   2.0000     -89.004133     -2421.9256
   4   2.0000     -88.988756     -2421.5072
   5   2.0000     -88.983001     -2421.3506
   6   2.0000     -62.567547     -1702.5495
   7   2.0000     -62.565527     -1702.4945
   8   2.0000     -56.401520     -1534.7634
   9   2.0000     -56.399491     -1534.7082
  10   2.0000     -56.398775     -1534.6887
  11   2.0000     -56.398737     -1534.6877
  12   2.0000     -56.396745     -1534.6335
  13   2.0000     -56.396725     -1534.6329
  14   2.0000     -19.326728      -525.9070
  15   2.0000     -19.256038      -523.9834
  16   2.0000     -19.255560      -523.9704
  17   2.0000     -19.251449      -523.8586
  18   2.0000     -19.250574      -523.8348
  19   2.0000     -19.250398      -523.8300
  20   2.0000     -19.238627      -523.5097
  21   2.0000     -19.220654      -523.0206
  22   2.0000     -19.220245      -523.0095
  23   2.0000     -14.666520      -399.0963
  24   2.0000     -14.662999      -399.0005
  25   2.0000     -14.514333      -394.9551
  26   2.0000     -14.505840      -394.7240
  27   2.0000     -14.464256      -393.5924
  28   2.0000     -14.430191      -392.6655
  29   2.0000     -14.429498      -392.6466
  30   2.0000     -14.429131      -392.6366
  31   2.0000     -14.424146      -392.5010
  32   2.0000     -10.410380      -283.2809
  33   2.0000     -10.410060      -283.2721
  34   2.0000     -10.399601      -282.9875
  35   2.0000     -10.395188      -282.8674
  36   2.0000     -10.387707      -282.6639
  37   2.0000     -10.387671      -282.6629
  38   2.0000     -10.381102      -282.4842
  39   2.0000     -10.380758      -282.4748
  40   2.0000     -10.376639      -282.3627
  41   2.0000     -10.368453      -282.1399
  42   2.0000     -10.365542      -282.0607
  43   2.0000     -10.361386      -281.9476
  44   2.0000     -10.361313      -281.9457
  45   2.0000     -10.361246      -281.9438
  46   2.0000     -10.357142      -281.8322
  47   2.0000     -10.357053      -281.8297
  48   2.0000     -10.356551      -281.8161
  49   2.0000     -10.353617      -281.7362
  50   2.0000     -10.339181      -281.3434
  51   2.0000     -10.339081      -281.3407
  52   2.0000     -10.335924      -281.2548
  53   2.0000     -10.332160      -281.1524
  54   2.0000     -10.331641      -281.1382
  55   2.0000     -10.331208      -281.1265
  56   2.0000     -10.330358      -281.1033
  57   2.0000     -10.327489      -281.0253
  58   2.0000     -10.326993      -281.0118
  59   2.0000     -10.326779      -281.0059
  60   2.0000     -10.322470      -280.8887
  61   2.0000     -10.322391      -280.8865
  62   2.0000     -10.321138      -280.8524
  63   2.0000     -10.319361      -280.8041
  64   2.0000     -10.318727      -280.7868
  65   2.0000     -10.318311      -280.7755
  66   2.0000     -10.318242      -280.7736
  67   2.0000     -10.318046      -280.7683
  68   2.0000     -10.318028      -280.7678
  69   2.0000     -10.316594      -280.7288
  70   2.0000     -10.315895      -280.7098
  71   2.0000     -10.315640      -280.7028
  72   2.0000     -10.312400      -280.6147
  73   2.0000     -10.311862      -280.6000
  74   2.0000     -10.309747      -280.5425
  75   2.0000     -10.307241      -280.4743
  76   2.0000     -10.305976      -280.4399
  77   2.0000     -10.303488      -280.3722
  78   2.0000     -10.303371      -280.3690
  79   2.0000     -10.303204      -280.3644
  80   2.0000      -8.797010      -239.3788
  81   2.0000      -8.794990      -239.3238
  82   2.0000      -8.101500      -220.4530
  83   2.0000      -8.099264      -220.3922
  84   2.0000      -8.083821      -219.9720
  85   2.0000      -8.078816      -219.8358
  86   2.0000      -6.633435      -180.5049
  87   2.0000      -6.631403      -180.4497
  88   2.0000      -6.618641      -180.1024
  89   2.0000      -6.618506      -180.0987
  90   2.0000      -6.616666      -180.0486
  91   2.0000      -6.616456      -180.0429
  92   2.0000      -6.071200      -165.2057
  93   2.0000      -6.068864      -165.1422
  94   2.0000      -6.066764      -165.0851
  95   2.0000      -6.064504      -165.0235
  96   2.0000      -6.062843      -164.9783
  97   2.0000      -6.060833      -164.9237
  98   2.0000      -6.053523      -164.7247
  99   2.0000      -6.049255      -164.6086
 100   2.0000      -6.048477      -164.5874
 101   2.0000      -6.045173      -164.4975
 102   2.0000      -6.044128      -164.4691
 103   2.0000      -6.040142      -164.3606
 104   2.0000      -2.749327       -74.8130
 105   2.0000      -2.747258       -74.7567
 106   2.0000      -2.745100       -74.6980
 107   2.0000      -2.745015       -74.6956
 108   2.0000      -2.743124       -74.6442
 109   2.0000      -2.742967       -74.6399
 110   2.0000      -2.733259       -74.3757
 111   2.0000      -2.733238       -74.3752
 112   2.0000      -2.731248       -74.3210
 113   2.0000      -2.731236       -74.3207
 114   2.0000      -1.336902       -36.3790
 115   2.0000      -1.333719       -36.2924
 116   2.0000      -1.243707       -33.8430
 117   2.0000      -1.165673       -31.7196
 118   2.0000      -1.162651       -31.6373
 119   2.0000      -1.155976       -31.4557
 120   2.0000      -1.153365       -31.3846
 121   2.0000      -1.152702       -31.3666
 122   2.0000      -1.145344       -31.1664
 123   2.0000      -1.117662       -30.4131
 124   2.0000      -1.115921       -30.3658
 125   2.0000      -1.052949       -28.6522
 126   2.0000      -1.037171       -28.2229
 127   2.0000      -1.035811       -28.1859
 128   2.0000      -1.028563       -27.9886
 129   2.0000      -1.026009       -27.9191
 130   2.0000      -1.024940       -27.8900
 131   2.0000      -1.023016       -27.8377
 132   2.0000      -1.008770       -27.4500
 133   2.0000      -1.006021       -27.3752
 134   2.0000      -1.004814       -27.3424
 135   2.0000      -1.002190       -27.2710
 136   2.0000      -0.959122       -26.0990
 137   2.0000      -0.955784       -26.0082
 138   2.0000      -0.953285       -25.9402
 139   2.0000      -0.937576       -25.5127
 140   2.0000      -0.935302       -25.4509
 141   2.0000      -0.931420       -25.3452
 142   2.0000      -0.921316       -25.0703
 143   2.0000      -0.920445       -25.0466
 144   2.0000      -0.916921       -24.9507
 145   2.0000      -0.904340       -24.6083
 146   2.0000      -0.899174       -24.4678
 147   2.0000      -0.898004       -24.4359
 148   2.0000      -0.894330       -24.3359
 149   2.0000      -0.889294       -24.1989
 150   2.0000      -0.877419       -23.8758
 151   2.0000      -0.862542       -23.4710
 152   2.0000      -0.854856       -23.2618
 153   2.0000      -0.842295       -22.9200
 154   2.0000      -0.840845       -22.8806
 155   2.0000      -0.837933       -22.8013
 156   2.0000      -0.809973       -22.0405
 157   2.0000      -0.800267       -21.7764
 158   2.0000      -0.789995       -21.4969
 159   2.0000      -0.785378       -21.3712
 160   2.0000      -0.778640       -21.1879
 161   2.0000      -0.776469       -21.1288
 162   2.0000      -0.771148       -20.9840
 163   2.0000      -0.767338       -20.8803
 164   2.0000      -0.754632       -20.5346
 165   2.0000      -0.745304       -20.2807
 166   2.0000      -0.731930       -19.9168
 167   2.0000      -0.727366       -19.7926
 168   2.0000      -0.717568       -19.5260
 169   2.0000      -0.710824       -19.3425
 170   2.0000      -0.706109       -19.2142
 171   2.0000      -0.703489       -19.1429
 172   2.0000      -0.701676       -19.0936
 173   2.0000      -0.690373       -18.7860
 174   2.0000      -0.686359       -18.6768
 175   2.0000      -0.673711       -18.3326
 176   2.0000      -0.670592       -18.2477
 177   2.0000      -0.665448       -18.1078
 178   2.0000      -0.662558       -18.0291
 179   2.0000      -0.650987       -17.7142
 180   2.0000      -0.646508       -17.5924
 181   2.0000      -0.645893       -17.5757
 182   2.0000      -0.645568       -17.5668
 183   2.0000      -0.644518       -17.5382
 184   2.0000      -0.643043       -17.4981
 185   2.0000      -0.638377       -17.3711
 186   2.0000      -0.632340       -17.2068
 187   2.0000      -0.623448       -16.9649
 188   2.0000      -0.617212       -16.7952
 189   2.0000      -0.615555       -16.7501
 190   2.0000      -0.609347       -16.5812
 191   2.0000      -0.607097       -16.5199
 192   2.0000      -0.606707       -16.5093
 193   2.0000      -0.605151       -16.4670
 194   2.0000      -0.601874       -16.3778
 195   2.0000      -0.601226       -16.3602
 196   2.0000      -0.600038       -16.3279
 197   2.0000      -0.591925       -16.1071
 198   2.0000      -0.586191       -15.9511
 199   2.0000      -0.580738       -15.8027
 200   2.0000      -0.574033       -15.6202
 201   2.0000      -0.572785       -15.5863
 202   2.0000      -0.571454       -15.5501
 203   2.0000      -0.565412       -15.3857
 204   2.0000      -0.563193       -15.3253
 205   2.0000      -0.560964       -15.2646
 206   2.0000      -0.559702       -15.2303
 207   2.0000      -0.558495       -15.1974
 208   2.0000      -0.556961       -15.1557
 209   2.0000      -0.553533       -15.0624
 210   2.0000      -0.551849       -15.0166
 211   2.0000      -0.547944       -14.9103
 212   2.0000      -0.545850       -14.8533
 213   2.0000      -0.539212       -14.6727
 214   2.0000      -0.536777       -14.6064
 215   2.0000      -0.531983       -14.4760
 216   2.0000      -0.528798       -14.3893
 217   2.0000      -0.527179       -14.3453
 218   2.0000      -0.527055       -14.3419
 219   2.0000      -0.523709       -14.2509
 220   2.0000      -0.520288       -14.1578
 221   2.0000      -0.517132       -14.0719
 222   2.0000      -0.516063       -14.0428
 223   2.0000      -0.512630       -13.9494
 224   2.0000      -0.511140       -13.9088
 225   2.0000      -0.509236       -13.8570
 226   2.0000      -0.507915       -13.8211
 227   2.0000      -0.506503       -13.7827
 228   2.0000      -0.499895       -13.6028
 229   2.0000      -0.492749       -13.4084
 230   2.0000      -0.490999       -13.3608
 231   2.0000      -0.488167       -13.2837
 232   2.0000      -0.486936       -13.2502
 233   2.0000      -0.486519       -13.2389
 234   2.0000      -0.481079       -13.0908
 235   2.0000      -0.478456       -13.0195
 236   2.0000      -0.471354       -12.8262
 237   2.0000      -0.469487       -12.7754
 238   2.0000      -0.467463       -12.7203
 239   2.0000      -0.466474       -12.6934
 240   2.0000      -0.463778       -12.6201
 241   2.0000      -0.461329       -12.5534
 242   2.0000      -0.459998       -12.5172
 243   2.0000      -0.457784       -12.4569
 244   2.0000      -0.456454       -12.4208
 245   2.0000      -0.453641       -12.3442
 246   2.0000      -0.451417       -12.2837
 247   2.0000      -0.448400       -12.2016
 248   2.0000      -0.446327       -12.1452
 249   2.0000      -0.441026       -12.0009
 250   2.0000      -0.439417       -11.9572
 251   2.0000      -0.438242       -11.9252
 252   2.0000      -0.438122       -11.9219
 253   2.0000      -0.430200       -11.7063
 254   2.0000      -0.424407       -11.5487
 255   2.0000      -0.421251       -11.4628
 256   2.0000      -0.421017       -11.4564
 257   2.0000      -0.407400       -11.0859
 258   2.0000      -0.404873       -11.0172
 259   2.0000      -0.402551       -10.9540
 260   2.0000      -0.402285       -10.9467
 261   2.0000      -0.397658       -10.8208
 262   2.0000      -0.393120       -10.6974
 263   2.0000      -0.391587       -10.6556
 264   2.0000      -0.389645       -10.6028
 265   2.0000      -0.385145       -10.4803
 266   2.0000      -0.384481       -10.4623
 267   2.0000      -0.380441       -10.3523
 268   2.0000      -0.380287       -10.3481
 269   2.0000      -0.379130       -10.3167
 270   2.0000      -0.378301       -10.2941
 271   2.0000      -0.377168       -10.2633
 272   2.0000      -0.373632       -10.1670
 273   2.0000      -0.371943       -10.1211
 274   2.0000      -0.371394       -10.1061
 275   2.0000      -0.361431        -9.8351
 276   2.0000      -0.355817        -9.6823
 277   2.0000      -0.353219        -9.6116
 278   2.0000      -0.347718        -9.4619
 279   2.0000      -0.336311        -9.1515
 280   2.0000      -0.329366        -8.9625
 281   2.0000      -0.327156        -8.9024
 282   2.0000      -0.316157        -8.6031
 283   2.0000      -0.302640        -8.2353
 284   2.0000      -0.301891        -8.2149
 285   2.0000      -0.293858        -7.9963
 286   2.0000      -0.269296        -7.3279
 287   0.0000      -0.104790        -2.8515
 288   0.0000      -0.098901        -2.6912
 289   0.0000      -0.086186        -2.3452
 290   0.0000      -0.080947        -2.2027
 291   0.0000      -0.073167        -1.9910

MULLIKEN ATOMIC CHARGES
-----------------------
   0 C :    0.325300
   1 C :   -0.342221
   2 C :   -0.188934
   3 N :    0.161381
   4 C :   -0.197080
   5 N :    0.150822
   6 C :    0.013595
   7 C :   -0.023418
   8 C :   -0.060634
   9 C :    0.097643
  10 C :   -0.070522
  11 C :   -0.024447
  12 S :    0.223575
  13 C :   -0.120024
  14 C :    0.021481
  15 Br:    0.044460
  16 C :    0.154456
  17 O :   -0.243263
  18 C :   -0.109887
  19 C :    0.040503
  20 N :    0.008729
  21 C :   -0.100663
  22 S :    0.195791
  23 C :    0.005319
  24 N :    0.272296
  25 O :   -0.242739
  26 O :   -0.249809
  27 C :   -0.000501
  28 C :    0.134938
  29 C :   -0.034872
  30 C :   -0.008026
  31 C :    0.073406
  32 O :   -0.241943
  33 C :   -0.025411
  34 C :    0.166643
  35 O :   -0.140619
  36 N :   -0.165788
  37 C :    0.152368
  38 O :   -0.135227
  39 C :   -0.032850
  40 C :    0.081767
  41 C :   -0.034832
  42 C :    0.084684
  43 N :   -0.021522
  44 C :   -0.134210
  45 S :    0.197214
  46 C :    0.002791
  47 N :    0.275883
  48 O :   -0.241361
  49 O :   -0.253013
  50 C :    0.028076
  51 C :    0.114853
  52 C :    0.003193
  53 C :   -0.146916
  54 C :    0.253697
  55 C :   -0.326506
  56 C :   -0.196696
  57 N :    0.168925
  58 C :   -0.209500
  59 N :    0.171673
  60 C :    0.003414
  61 C :    0.007377
  62 C :    0.143248
  63 O :   -0.164429
  64 C :   -0.057377
  65 C :    0.111423
  66 C :   -0.096182
  67 C :   -0.009182
  68 S :    0.170517
  69 C :   -0.111155
  70 C :    0.035672
  71 Br:    0.046180
  72 H :   -0.019489
  73 H :   -0.003346
  74 H :   -0.006205
  75 H :    0.043737
  76 H :    0.184682
  77 H :    0.015043
  78 H :    0.009492
  79 H :    0.008717
  80 H :    0.139901
  81 H :    0.016441
  82 H :    0.061450
  83 H :    0.148807
  84 H :    0.019825
  85 H :    0.021836
  86 H :   -0.014769
  87 H :   -0.004396
  88 H :   -0.003260
Sum of atomic charges:   -0.0000000

LOEWDIN ATOMIC CHARGES
----------------------
   0 C :    0.076118
   1 C :   -0.142873
   2 C :   -0.021078
   3 N :   -0.046275
   4 C :   -0.019968
   5 N :   -0.048913
   6 C :   -0.023678
   7 C :   -0.062387
   8 C :    0.022667
   9 C :   -0.040680
  10 C :   -0.141207
  11 C :   -0.004077
  12 S :    0.467165
  13 C :   -0.265660
  14 C :   -0.085591
  15 Br:    0.155584
  16 C :    0.097203
  17 O :   -0.192550
  18 C :   -0.141984
  19 C :    0.122924
  20 N :    0.093374
  21 C :   -0.098177
  22 S :    0.485462
  23 C :   -0.197823
  24 N :    0.271879
  25 O :   -0.209300
  26 O :   -0.216569
  27 C :   -0.000088
  28 C :   -0.095761
  29 C :    0.000458
  30 C :   -0.036791
  31 C :    0.072391
  32 O :    0.011273
  33 C :   -0.099054
  34 C :    0.073802
  35 O :   -0.161129
  36 N :   -0.004123
  37 C :    0.079601
  38 O :   -0.155979
  39 C :   -0.103513
  40 C :    0.072831
  41 C :   -0.079822
  42 C :    0.054112
  43 N :    0.049793
  44 C :   -0.086937
  45 S :    0.473955
  46 C :   -0.202181
  47 N :    0.278155
  48 O :   -0.211092
  49 O :   -0.217983
  50 C :    0.023660
  51 C :   -0.108153
  52 C :    0.062582
  53 C :   -0.092447
  54 C :    0.060205
  55 C :   -0.144066
  56 C :   -0.023944
  57 N :   -0.044132
  58 C :   -0.023770
  59 N :   -0.052962
  60 C :   -0.018640
  61 C :   -0.061478
  62 C :    0.091468
  63 O :   -0.159691
  64 C :    0.027488
  65 C :   -0.035954
  66 C :   -0.142234
  67 C :   -0.016281
  68 S :    0.443777
  69 C :   -0.263003
  70 C :   -0.072920
  71 Br:    0.158276
  72 H :    0.035873
  73 H :    0.043389
  74 H :    0.035066
  75 H :    0.038339
  76 H :    0.080808
  77 H :    0.046434
  78 H :    0.030048
  79 H :    0.042175
  80 H :    0.095320
  81 H :    0.046542
  82 H :    0.039626
  83 H :    0.100864
  84 H :    0.049279
  85 H :    0.044215
  86 H :    0.039346
  87 H :    0.040467
  88 H :    0.038925

  Mayer bond orders larger than 0.100000
B(  0-C ,  1-C ) :   1.6362 B(  0-C ,  6-C ) :   1.0030 B(  0-C , 18-C ) :   1.0853
B(  1-C ,  2-C ) :   1.1420 B(  1-C ,  4-C ) :   1.1477 B(  2-C ,  3-N ) :   2.9730
B(  4-C ,  5-N ) :   2.9551 B(  6-C ,  7-C ) :   1.2654 B(  6-C , 11-C ) :   1.4153
B(  7-C ,  8-C ) :   1.4033 B(  7-C , 16-C ) :   0.9940 B(  8-C ,  9-C ) :   1.2320
B(  8-C , 72-H ) :   1.0272 B(  9-C , 10-C ) :   1.3039 B(  9-C , 14-C ) :   1.1656
B( 10-C , 11-C ) :   1.3129 B( 10-C , 12-S ) :   1.1079 B( 11-C , 73-H ) :   0.9807
B( 12-S , 13-C ) :   1.1074 B( 13-C , 14-C ) :   1.5898 B( 13-C , 15-Br) :   1.0336
B( 14-C , 74-H ) :   1.0093 B( 16-C , 17-O ) :   1.9508 B( 16-C , 18-C ) :   1.0197
B( 17-O , 76-H ) :   0.1412 B( 18-C , 19-C ) :   1.4605 B( 19-C , 20-N ) :   1.3265
B( 19-C , 75-H ) :   0.9281 B( 20-N , 21-C ) :   1.2133 B( 20-N , 76-H ) :   0.8265
B( 21-C , 22-S ) :   1.1465 B( 21-C , 28-C ) :   1.3557 B( 22-S , 23-C ) :   1.0849
B( 23-C , 24-N ) :   0.9567 B( 23-C , 27-C ) :   1.5062 B( 24-N , 25-O ) :   1.5402
B( 24-N , 26-O ) :   1.5213 B( 25-O , 26-O ) :   0.2647 B( 27-C , 28-C ) :   1.2168
B( 27-C , 77-H ) :   1.0036 B( 28-C , 29-C ) :   1.0660 B( 29-C , 30-C ) :   1.6513
B( 29-C , 78-H ) :   0.9700 B( 30-C , 31-C ) :   1.1794 B( 30-C , 79-H ) :   0.9728
B( 31-C , 32-O ) :   1.1171 B( 31-C , 33-C ) :   1.4004 B( 32-O , 40-C ) :   1.1278
B( 33-C , 34-C ) :   0.8840 B( 33-C , 39-C ) :   1.2626 B( 34-C , 35-O ) :   2.2598
B( 34-C , 36-N ) :   1.0777 B( 36-N , 37-C ) :   1.0728 B( 36-N , 80-H ) :   0.9134
B( 37-C , 38-O ) :   2.2801 B( 37-C , 39-C ) :   0.8784 B( 39-C , 40-C ) :   1.4060
B( 40-C , 41-C ) :   1.2135 B( 41-C , 42-C ) :   1.6236 B( 41-C , 81-H ) :   0.9520
B( 42-C , 43-N ) :   1.1331 B( 42-C , 82-H ) :   0.9515 B( 43-N , 44-C ) :   1.2049
B( 43-N , 83-H ) :   0.9035 B( 44-C , 45-S ) :   1.1589 B( 44-C , 51-C ) :   1.3362
B( 45-S , 46-C ) :   1.0688 B( 46-C , 47-N ) :   0.9662 B( 46-C , 50-C ) :   1.5058
B( 47-N , 48-O ) :   1.5317 B( 47-N , 49-O ) :   1.5042 B( 48-O , 49-O ) :   0.2528
B( 50-C , 51-C ) :   1.2000 B( 50-C , 84-H ) :   1.0038 B( 51-C , 52-C ) :   1.0820
B( 52-C , 53-C ) :   1.7093 B( 52-C , 85-H ) :   0.9195 B( 53-C , 54-C ) :   1.0170
B( 53-C , 62-C ) :   0.9456 B( 54-C , 55-C ) :   1.6328 B( 54-C , 60-C ) :   1.0195
B( 55-C , 56-C ) :   1.1318 B( 55-C , 58-C ) :   1.1826 B( 56-C , 57-N ) :   2.9900
B( 58-C , 59-N ) :   3.0025 B( 60-C , 61-C ) :   1.2817 B( 60-C , 67-C ) :   1.4068
B( 61-C , 62-C ) :   0.9366 B( 61-C , 64-C ) :   1.4141 B( 62-C , 63-O ) :   2.2010
B( 64-C , 65-C ) :   1.2439 B( 64-C , 86-H ) :   1.0071 B( 65-C , 66-C ) :   1.3048
B( 65-C , 70-C ) :   1.1676 B( 66-C , 67-C ) :   1.3177 B( 66-C , 68-S ) :   1.0951
B( 67-C , 87-H ) :   0.9857 B( 68-S , 69-C ) :   1.0857 B( 69-C , 70-C ) :   1.6120
B( 69-C , 71-Br) :   1.0325 B( 70-C , 88-H ) :   1.0016

-----------------------------------------------------------------------------
         ABSORPTION SPECTRUM VIA TRANSITION ELECTRIC DIPOLE MOMENTS
-----------------------------------------------------------------------------
State   Energy  Wavelength   fosc         T2         TX        TY        TZ
        (cm-1)    (nm)                  (au**2)     (au)      (au)      (au)
-----------------------------------------------------------------------------
   0   18137.5    551.3   0.125924482   2.28564   0.25266  -0.96406   1.13683
   1   21124.6    473.4   0.296686170   4.62364  -0.98374   1.46511   1.22856
   2   22605.7    442.4   0.197150453   2.87115  -0.97365   0.94689   1.01320
   3   23393.4    427.5   0.065056992   0.91554   0.88758  -0.33074   0.13547
   4   24081.8    415.3   0.008302253   0.11350  -0.15044  -0.28931  -0.08464
   5   25513.3    392.0   0.023669604   0.30542   0.47195   0.28388   0.04581
   6   25979.8    384.9   0.405952608   5.14416  -1.75742   0.45676   1.35905
   7   26578.5    376.2   0.325442549   4.03106  -1.92022   0.25427   0.52835
   8   27227.0    367.3   0.210915732   2.55026   0.71196   1.41421   0.20828
   9   27581.1    362.6   0.291114916   3.47480  -0.02495   1.75474   0.62853
  10   28306.2    353.3   0.221658142   2.57797  -1.59065   0.17231   0.13456
  11   28383.2    352.3   0.087454124   1.01437  -0.98846   0.11058  -0.15839
  12   28646.0    349.1   0.078096163   0.89751   0.60114   0.70289   0.20516
  13   28778.3    347.5   0.035900454   0.41069  -0.58147  -0.26874  -0.01885
  14   28983.2    345.0   0.101821169   1.15656   0.54635   0.89965   0.22065
  15   29495.8    339.0   0.372427763   4.15678   1.90480  -0.23408  -0.68828
  16   29699.1    336.7   0.162217073   1.79816   1.23686   0.35480  -0.37742
  17   30093.4    332.3   0.010696284   0.11701   0.29991   0.08660   0.13989
  18   30326.3    329.7   0.453733405   4.92558   1.43702  -1.23416  -1.15646
  19   31273.4    319.8   0.048976351   0.51557  -0.04553   0.65172   0.29791
  20   31457.3    317.9   0.007720251   0.08080   0.12115  -0.25359   0.04258
  21   31620.6    316.2   0.263489172   2.74327  -1.30816  -0.62258   0.80273
  22   32103.1    311.5   0.138216117   1.41738  -0.69639   0.83763   0.48041
  23   32461.3    308.1   0.006074364   0.06160  -0.14767  -0.17195  -0.10114
  24   32915.3    303.8   0.027484898   0.27490   0.34477  -0.21660  -0.33033
  25   33104.4    302.1   0.214312808   2.13127   1.12660   0.92360   0.09493
  26   33256.2    300.7   0.141260489   1.39837  -1.04507   0.43448   0.34267
  27   33341.9    299.9   0.124038184   1.22473  -0.75412  -0.79436  -0.15817
  28   33487.8    298.6   0.288831683   2.83944   1.67673  -0.13426   0.10005
  29   33712.7    296.6   0.081430363   0.79518  -0.08083  -0.71277  -0.52973
  30   34106.5    293.2   0.121233603   1.17021  -0.89422   0.18992   0.57837
  31   34413.9    290.6   0.232431648   2.22350   1.32509   0.67048  -0.13450
  32   34605.2    289.0   0.019872780   0.18906   0.32321   0.01880  -0.29024
  33   34724.8    288.0   0.059740414   0.56638   0.60677   0.33823  -0.28950
  34   34982.9    285.9   0.062259318   0.58590  -0.63377   0.25082   0.34831
  35   35070.4    285.1   0.108513583   1.01864  -0.35939   0.84867   0.41139
  36   35488.5    281.8   0.170635549   1.58291  -0.41994   1.02982   0.58825
  37   35613.8    280.8   0.045107014   0.41697   0.60655  -0.05013  -0.21574
  38   35891.1    278.6   0.015110023   0.13860  -0.34090   0.10747  -0.10409
  39   35978.5    277.9   0.088659580   0.81126  -0.46419   0.71438   0.29231
  40   36301.2    275.5   0.303571784   2.75306  -1.17188   0.84869   0.81208
  41   36697.9    272.5   0.005240115   0.04701   0.03417  -0.06976  -0.20242
  42   36858.5    271.3   0.012646617   0.11296  -0.07096   0.23334   0.23125
  43   37217.0    268.7   0.103106593   0.91205  -0.76648   0.16424   0.54552
  44   37531.7    266.4   0.106966594   0.93827  -0.84827   0.07705   0.46126
  45   37637.7    265.7   0.072135962   0.63096   0.40130  -0.62636  -0.27856
  46   37980.9    263.3   0.257423191   2.23130  -0.11585   1.45693   0.30860
  47   38039.0    262.9   0.013856525   0.11992  -0.33430  -0.04536  -0.07817
  48   38130.9    262.3   0.012503596   0.10795   0.00958   0.29694   0.14031
  49   38188.5    261.9   0.042534706   0.36668  -0.57476  -0.12385   0.14488
  50   38515.9    259.6   0.116004408   0.99154   0.80057   0.30067  -0.51012
  51   38874.7    257.2   0.000669697   0.00567  -0.02391   0.05928  -0.03982
  52   38983.1    256.5   0.012000573   0.10134  -0.28428  -0.02268   0.14148
  53   39282.7    254.6   0.157250440   1.31785   1.07857  -0.11929  -0.37458
  54   39526.7    253.0   0.004289777   0.03573  -0.17736  -0.02978  -0.05819
  55   39778.6    251.4   0.136189879   1.12712  -0.92389   0.25763   0.45517
  56   39831.9    251.1   0.058007623   0.47943  -0.33908   0.53095   0.28731
  57   40034.5    249.8   0.024132672   0.19845  -0.18082   0.32435   0.24607
  58   40101.1    249.4   0.029661285   0.24351   0.10791   0.41370   0.24640

FINAL SINGLE POINT ENERGY     -9745.383471531184

DIPOLE MOMENT
-------------
                                X             Y             Z
Electronic contribution:     25.06885      14.66533      -0.39062
Nuclear contribution   :    -23.69254     -13.13863       2.46943
                        -----------------------------------------
Total Dipole Moment    :      1.37630       1.52669       2.07881
                        -----------------------------------------
Magnitude (a.u.)       :      2.92343
Magnitude (Debye)      :      7.43077

Rotational constants in cm-1:     0.001327     0.000527     0.000416
Rotational constants in MHz :    39.776645    15.790672    12.485822

                             ****ORCA TERMINATED NORMALLY****
TOTAL RUN TIME: 0 days 0 hours 11 minutes 36 seconds 829 msec
