                         Program Version 4.2.0 -  RELEASE  -
|  1> # ORCA input file
|  2> # SCF done       -203.401872602085          0.000980988024
|  3> ! CAM-B3LYP def2-SVP def2/J RIJCOSX Grid4 TightSCF
|  4> %maxcore 5000
|  5> %tddft
|  6>     Mode sTDDFT
|  7>     Ethresh 5.0
|  8>     maxcore 5000
|  9> end
| 10>
| 11> %pal
| 12>   nprocs 6
| 13>   end
| 14> * xyz 0 1
| 15>    C       -5.85997         3.97446        -4.73146
| 16>    C       -5.88322         2.79058        -5.42912
| 17>    C       -4.74547         1.99939        -5.68414
| 18>    N       -3.86013         1.30806        -5.92525
| 19>    C       -7.02410         2.19338        -6.00189
| 20>    N       -7.89408         1.63986        -6.50928
| 21>    C       -4.66010         4.58872        -4.16665
| 22>    C       -5.01950         5.82010        -3.56884
| 23>    C       -4.10914         6.63498        -2.94278
| 24>    C       -2.77584         6.21305        -2.90074
| 25>    C       -2.42548         4.98144        -3.50010
| 26>    C       -3.34701         4.15823        -4.13624
| 27>    S       -0.72759         4.64750        -3.32899
| 28>    C       -0.51704         6.14796        -2.46627
| 29>    C       -1.65573         6.86324        -2.31270
| 30>   Br        1.18745         6.62710        -1.84497
| 31>    C       -6.47494         6.03406        -3.72672
| 32>    O       -7.09769         7.00141        -3.33671
| 33>    C       -6.97904         4.83882        -4.43422
| 34>    C       -8.30375         4.58772        -4.70401
| 35>    C       -9.36933         5.43801        -4.37537
| 36>    C      -10.66986         5.07265        -4.59066
| 37>    C      -11.77834         5.85708        -4.23668
| 38>    O      -11.64071         7.09975        -3.69961
| 39>    C      -12.87303         7.58095        -3.41740
| 40>    C      -13.83574         6.63340        -3.77281
| 41>    C      -13.14055         5.53643        -4.30602
| 42>    O      -13.65867         4.39196        -4.78322
| 43>    O      -15.18592         6.68494        -3.65995
| 44>    C      -13.07916         8.85880        -2.84956
| 45>    C      -12.11318         9.78349        -2.60519
| 46>    C      -12.37117        11.05379        -2.01636
| 47>    C      -13.52496        11.32998        -1.35974
| 48>    C      -13.93579        12.55716        -0.79343
| 49>    S      -12.92176        13.98027        -0.77151
| 50>    C      -14.12264        14.89701         0.10097
| 51>    C      -15.24585        14.12511         0.33291
| 52>    C      -15.15008        12.82214        -0.18208
| 53>    C      -16.39790        11.98382        -0.08850
| 54>    C      -16.41572        10.75672        -0.83952
| 55>    N      -16.50933         9.78541        -1.44087
| 56>    C      -17.55022        12.88181        -0.59718
| 57>    C      -17.74980        14.09974         0.30956
| 58>    C      -16.48606        14.50905         1.08473
| 59>    O      -16.53134        13.82526         2.33628
| 60>    C      -15.57904        14.26988         3.26525
| 61>    C      -13.92973        16.26198         0.44265
| 62>    C      -12.95783        17.05016        -0.06674
| 63>    C      -12.80259        18.43738         0.21082
| 64>    S      -11.19552        19.11368         0.07905
| 65>    C      -11.72588        20.66623         0.67687
| 66>    C      -13.09238        20.64163         0.91653
| 67>    C      -13.69918        19.40484         0.62773
| 68>    C      -15.20529        19.37338         0.66846
| 69>    C      -15.84275        18.32277        -0.08678
| 70>    N      -16.44248        17.56813        -0.70382
| 71>    C      -15.69282        20.70645         0.05727
| 72>    C      -15.28582        21.89312         0.92509
| 73>    C      -13.89995        21.72504         1.57317
| 74>    O      -14.14385        21.37678         2.93651
| 75>    C      -13.01237        21.43695         3.76415
| 76>    C      -10.82228        21.73952         0.83986
| 77>    C       -9.50259        21.69898         0.50015
| 78>    C       -8.62536        22.78149         0.65823
| 79>    C       -7.30729        22.77677         0.27819
| 80>    C       -6.38262        23.84417         0.41073
| 81>    C       -5.13993        23.57326        -0.06760
| 82>    C       -5.00368        22.27173        -0.61121
| 83>    S       -6.52115        21.40164        -0.48070
| 84>    C       -3.88579        21.70983        -1.18070
| 85>    C       -2.60824        22.31459        -1.35123
| 86>    C       -1.69439        21.52512        -1.95664
| 87>    C       -2.18016        20.22317        -2.31539
| 88>    S       -3.87585        20.08062        -1.82369
| 89>    C       -1.50928        19.23665        -2.92495
| 90>    H       -4.41613         7.56772        -2.49609
| 91>    H       -3.02814         3.22777        -4.57495
| 92>    H       -1.70716         7.80937        -1.80538
| 93>    H       -8.56335         3.65297        -5.18465
| 94>    H       -9.15621         6.39189        -3.91740
| 95>    H      -10.90609         4.11451        -5.03371
| 96>    H      -14.62118         4.43558        -4.70212
| 97>    H      -15.46084         7.49687        -3.21507
| 98>    H      -14.11265         9.08921        -2.62755
| 99>    H      -11.09860         9.56003        -2.90220
|100>    H      -11.60545        11.81362        -2.09554
|101>    H      -14.23202        10.52917        -1.22120
|102>    H      -16.58209        11.73882         0.96681
|103>    H      -18.47360        12.30282        -0.64964
|104>    H      -17.29916        13.20632        -1.60983
|105>    H      -18.51175        13.88692         1.06059
|106>    H      -18.07972        14.94692        -0.29021
|107>    H      -16.51102        15.59211         1.26933
|108>    H      -15.73916        13.68911         4.17140
|109>    H      -15.71266        15.33599         3.48823
|110>    H      -14.55452        14.11192         2.90808
|111>    H      -14.64276        16.67334         1.14164
|112>    H      -12.20022        16.60572        -0.69983
|113>    H      -15.54539        19.31180         1.71159
|114>    H      -16.77833        20.68857        -0.05526
|115>    H      -15.25364        20.80038        -0.93927
|116>    H      -15.99320        22.01222         1.74752
|117>    H      -15.30607        22.80107         0.32274
|118>    H      -13.35553        22.68056         1.54899
|119>    H      -13.35250        21.17652         4.76448
|120>    H      -12.58553        22.44762         3.77688
|121>    H      -12.23494        20.73151         3.44893
|122>    H      -11.22448        22.65561         1.25190
|123>    H       -9.09948        20.78820         0.07420
|124>    H       -9.00890        23.69103         1.10300
|125>    H       -6.67271        24.77968         0.85635
|126>    H       -4.31974        24.26829        -0.04811
|127>    H       -2.41544        23.31863        -1.01712
|128>    H       -0.67955        21.80970        -2.17099
|129>    H       -0.47946        19.36632        -3.20742
|130>    H       -1.97144        18.29320        -3.15022
|131> *
|132>
|133>                          ****END OF INPUT****

CARTESIAN COORDINATES (ANGSTROEM)
---------------------------------
  C     -5.859970    3.974460   -4.731460
  C     -5.883220    2.790580   -5.429120
  C     -4.745470    1.999390   -5.684140
  N     -3.860130    1.308060   -5.925250
  C     -7.024100    2.193380   -6.001890
  N     -7.894080    1.639860   -6.509280
  C     -4.660100    4.588720   -4.166650
  C     -5.019500    5.820100   -3.568840
  C     -4.109140    6.634980   -2.942780
  C     -2.775840    6.213050   -2.900740
  C     -2.425480    4.981440   -3.500100
  C     -3.347010    4.158230   -4.136240
  S     -0.727590    4.647500   -3.328990
  C     -0.517040    6.147960   -2.466270
  C     -1.655730    6.863240   -2.312700
  Br     1.187450    6.627100   -1.844970
  C     -6.474940    6.034060   -3.726720
  O     -7.097690    7.001410   -3.336710
  C     -6.979040    4.838820   -4.434220
  C     -8.303750    4.587720   -4.704010
  C     -9.369330    5.438010   -4.375370
  C    -10.669860    5.072650   -4.590660
  C    -11.778340    5.857080   -4.236680
  O    -11.640710    7.099750   -3.699610
  C    -12.873030    7.580950   -3.417400
  C    -13.835740    6.633400   -3.772810
  C    -13.140550    5.536430   -4.306020
  O    -13.658670    4.391960   -4.783220
  O    -15.185920    6.684940   -3.659950
  C    -13.079160    8.858800   -2.849560
  C    -12.113180    9.783490   -2.605190
  C    -12.371170   11.053790   -2.016360
  C    -13.524960   11.329980   -1.359740
  C    -13.935790   12.557160   -0.793430
  S    -12.921760   13.980270   -0.771510
  C    -14.122640   14.897010    0.100970
  C    -15.245850   14.125110    0.332910
  C    -15.150080   12.822140   -0.182080
  C    -16.397900   11.983820   -0.088500
  C    -16.415720   10.756720   -0.839520
  N    -16.509330    9.785410   -1.440870
  C    -17.550220   12.881810   -0.597180
  C    -17.749800   14.099740    0.309560
  C    -16.486060   14.509050    1.084730
  O    -16.531340   13.825260    2.336280
  C    -15.579040   14.269880    3.265250
  C    -13.929730   16.261980    0.442650
  C    -12.957830   17.050160   -0.066740
  C    -12.802590   18.437380    0.210820
  S    -11.195520   19.113680    0.079050
  C    -11.725880   20.666230    0.676870
  C    -13.092380   20.641630    0.916530
  C    -13.699180   19.404840    0.627730
  C    -15.205290   19.373380    0.668460
  C    -15.842750   18.322770   -0.086780
  N    -16.442480   17.568130   -0.703820
  C    -15.692820   20.706450    0.057270
  C    -15.285820   21.893120    0.925090
  C    -13.899950   21.725040    1.573170
  O    -14.143850   21.376780    2.936510
  C    -13.012370   21.436950    3.764150
  C    -10.822280   21.739520    0.839860
  C     -9.502590   21.698980    0.500150
  C     -8.625360   22.781490    0.658230
  C     -7.307290   22.776770    0.278190
  C     -6.382620   23.844170    0.410730
  C     -5.139930   23.573260   -0.067600
  C     -5.003680   22.271730   -0.611210
  S     -6.521150   21.401640   -0.480700
  C     -3.885790   21.709830   -1.180700
  C     -2.608240   22.314590   -1.351230
  C     -1.694390   21.525120   -1.956640
  C     -2.180160   20.223170   -2.315390
  S     -3.875850   20.080620   -1.823690
  C     -1.509280   19.236650   -2.924950
  H     -4.416130    7.567720   -2.496090
  H     -3.028140    3.227770   -4.574950
  H     -1.707160    7.809370   -1.805380
  H     -8.563350    3.652970   -5.184650
  H     -9.156210    6.391890   -3.917400
  H    -10.906090    4.114510   -5.033710
  H    -14.621180    4.435580   -4.702120
  H    -15.460840    7.496870   -3.215070
  H    -14.112650    9.089210   -2.627550
  H    -11.098600    9.560030   -2.902200
  H    -11.605450   11.813620   -2.095540
  H    -14.232020   10.529170   -1.221200
  H    -16.582090   11.738820    0.966810
  H    -18.473600   12.302820   -0.649640
  H    -17.299160   13.206320   -1.609830
  H    -18.511750   13.886920    1.060590
  H    -18.079720   14.946920   -0.290210
  H    -16.511020   15.592110    1.269330
  H    -15.739160   13.689110    4.171400
  H    -15.712660   15.335990    3.488230
  H    -14.554520   14.111920    2.908080
  H    -14.642760   16.673340    1.141640
  H    -12.200220   16.605720   -0.699830
  H    -15.545390   19.311800    1.711590
  H    -16.778330   20.688570   -0.055260
  H    -15.253640   20.800380   -0.939270
  H    -15.993200   22.012220    1.747520
  H    -15.306070   22.801070    0.322740
  H    -13.355530   22.680560    1.548990
  H    -13.352500   21.176520    4.764480
  H    -12.585530   22.447620    3.776880
  H    -12.234940   20.731510    3.448930
  H    -11.224480   22.655610    1.251900
  H     -9.099480   20.788200    0.074200
  H     -9.008900   23.691030    1.103000
  H     -6.672710   24.779680    0.856350
  H     -4.319740   24.268290   -0.048110
  H     -2.415440   23.318630   -1.017120
  H     -0.679550   21.809700   -2.170990
  H     -0.479460   19.366320   -3.207420
  H     -1.971440   18.293200   -3.150220

 Total Charge           Charge          ....    0
 Multiplicity           Mult            ....    1
 Number of Electrons    NEL             ....  586
 Basis Dimension        Dim             .... 1293

ORBITAL ENERGIES
----------------

  NO   OCC          E(Eh)            E(eV)
   0   2.0000    -482.876124    -13139.7273
   1   2.0000     -88.963014     -2420.8067
   2   2.0000     -88.956349     -2420.6253
   3   2.0000     -88.955809     -2420.6106
   4   2.0000     -88.945126     -2420.3199
   5   2.0000     -88.941129     -2420.2112
   6   2.0000     -62.553810     -1702.1757
   7   2.0000     -56.387745     -1534.3886
   8   2.0000     -56.385059     -1534.3155
   9   2.0000     -56.385020     -1534.3144
  10   2.0000     -19.288300      -524.8613
  11   2.0000     -19.265533      -524.2418
  12   2.0000     -19.262561      -524.1609
  13   2.0000     -19.222927      -523.0824
  14   2.0000     -19.220254      -523.0097
  15   2.0000     -19.196445      -522.3618
  16   2.0000     -14.417797      -392.3282
  17   2.0000     -14.408972      -392.0881
  18   2.0000     -14.397611      -391.7789
  19   2.0000     -14.396417      -391.7464
  20   2.0000     -10.347123      -281.5595
  21   2.0000     -10.347114      -281.5593
  22   2.0000     -10.346902      -281.5535
  23   2.0000     -10.339747      -281.3588
  24   2.0000     -10.339079      -281.3406
  25   2.0000     -10.333480      -281.1883
  26   2.0000     -10.329145      -281.0703
  27   2.0000     -10.326590      -281.0008
  28   2.0000     -10.326108      -280.9877
  29   2.0000     -10.322643      -280.8934
  30   2.0000     -10.321940      -280.8743
  31   2.0000     -10.320059      -280.8231
  32   2.0000     -10.319907      -280.8189
  33   2.0000     -10.313586      -280.6470
  34   2.0000     -10.312519      -280.6179
  35   2.0000     -10.311291      -280.5845
  36   2.0000     -10.311051      -280.5780
  37   2.0000     -10.311036      -280.5775
  38   2.0000     -10.310949      -280.5752
  39   2.0000     -10.310334      -280.5584
  40   2.0000     -10.310274      -280.5568
  41   2.0000     -10.309257      -280.5291
  42   2.0000     -10.309097      -280.5248
  43   2.0000     -10.308194      -280.5002
  44   2.0000     -10.307837      -280.4905
  45   2.0000     -10.301380      -280.3148
  46   2.0000     -10.300568      -280.2927
  47   2.0000     -10.294812      -280.1361
  48   2.0000     -10.293720      -280.1064
  49   2.0000     -10.293454      -280.0991
  50   2.0000     -10.293334      -280.0959
  51   2.0000     -10.292368      -280.0696
  52   2.0000     -10.291717      -280.0519
  53   2.0000     -10.291681      -280.0509
  54   2.0000     -10.291613      -280.0490
  55   2.0000     -10.290490      -280.0185
  56   2.0000     -10.289932      -280.0033
  57   2.0000     -10.288819      -279.9730
  58   2.0000     -10.288798      -279.9724
  59   2.0000     -10.287962      -279.9497
  60   2.0000     -10.286653      -279.9141
  61   2.0000     -10.286277      -279.9038
  62   2.0000     -10.285729      -279.8889
  63   2.0000     -10.285287      -279.8769
  64   2.0000     -10.284787      -279.8633
  65   2.0000     -10.283807      -279.8366
  66   2.0000     -10.283604      -279.8311
  67   2.0000     -10.281429      -279.7719
  68   2.0000     -10.280188      -279.7381
  69   2.0000     -10.280018      -279.7335
  70   2.0000     -10.279673      -279.7241
  71   2.0000     -10.278985      -279.7054
  72   2.0000     -10.277212      -279.6572
  73   2.0000     -10.276822      -279.6465
  74   2.0000     -10.275286      -279.6048
  75   2.0000     -10.273266      -279.5498
  76   2.0000     -10.272175      -279.5201
  77   2.0000     -10.268583      -279.4223
  78   2.0000     -10.262710      -279.2625
  79   2.0000      -8.783224      -239.0037
  80   2.0000      -8.059036      -219.2975
  81   2.0000      -8.052094      -219.1086
  82   2.0000      -8.051222      -219.0849
  83   2.0000      -8.041451      -218.8190
  84   2.0000      -8.037938      -218.7234
  85   2.0000      -6.619430      -180.1239
  86   2.0000      -6.604991      -179.7309
  87   2.0000      -6.604828      -179.7265
  88   2.0000      -6.028748      -164.0506
  89   2.0000      -6.024469      -163.9341
  90   2.0000      -6.021323      -163.8485
  91   2.0000      -6.020477      -163.8255
  92   2.0000      -6.020216      -163.8184
  93   2.0000      -6.017410      -163.7420
  94   2.0000      -6.016576      -163.7194
  95   2.0000      -6.014046      -163.6505
  96   2.0000      -6.013183      -163.6270
  97   2.0000      -6.011192      -163.5729
  98   2.0000      -6.007744      -163.4790
  99   2.0000      -6.007286      -163.4666
 100   2.0000      -6.003846      -163.3729
 101   2.0000      -6.002211      -163.3285
 102   2.0000      -5.998445      -163.2260
 103   2.0000      -2.735347       -74.4326
 104   2.0000      -2.731237       -74.3207
 105   2.0000      -2.731135       -74.3180
 106   2.0000      -2.719640       -74.0052
 107   2.0000      -2.719631       -74.0049
 108   2.0000      -1.210137       -32.9295
 109   2.0000      -1.163527       -31.6612
 110   2.0000      -1.145845       -31.1800
 111   2.0000      -1.123985       -30.5852
 112   2.0000      -1.121652       -30.5217
 113   2.0000      -1.110379       -30.2150
 114   2.0000      -1.009590       -27.4723
 115   2.0000      -1.007518       -27.4160
 116   2.0000      -1.005944       -27.3731
 117   2.0000      -0.996671       -27.1208
 118   2.0000      -0.995086       -27.0777
 119   2.0000      -0.992533       -27.0082
 120   2.0000      -0.990509       -26.9531
 121   2.0000      -0.976077       -26.5604
 122   2.0000      -0.972203       -26.4550
 123   2.0000      -0.972080       -26.4516
 124   2.0000      -0.936160       -25.4742
 125   2.0000      -0.933886       -25.4123
 126   2.0000      -0.929843       -25.3023
 127   2.0000      -0.925779       -25.1917
 128   2.0000      -0.917370       -24.9629
 129   2.0000      -0.910524       -24.7766
 130   2.0000      -0.900421       -24.5017
 131   2.0000      -0.893451       -24.3120
 132   2.0000      -0.892459       -24.2850
 133   2.0000      -0.886894       -24.1336
 134   2.0000      -0.876291       -23.8451
 135   2.0000      -0.872523       -23.7426
 136   2.0000      -0.870890       -23.6981
 137   2.0000      -0.864192       -23.5159
 138   2.0000      -0.858221       -23.3534
 139   2.0000      -0.848669       -23.0935
 140   2.0000      -0.847093       -23.0506
 141   2.0000      -0.839941       -22.8560
 142   2.0000      -0.836380       -22.7591
 143   2.0000      -0.828943       -22.5567
 144   2.0000      -0.822611       -22.3844
 145   2.0000      -0.816089       -22.2069
 146   2.0000      -0.814272       -22.1575
 147   2.0000      -0.802131       -21.8271
 148   2.0000      -0.786653       -21.4059
 149   2.0000      -0.779739       -21.2178
 150   2.0000      -0.776312       -21.1245
 151   2.0000      -0.770233       -20.9591
 152   2.0000      -0.757912       -20.6238
 153   2.0000      -0.745236       -20.2789
 154   2.0000      -0.738938       -20.1075
 155   2.0000      -0.729778       -19.8583
 156   2.0000      -0.725577       -19.7439
 157   2.0000      -0.721030       -19.6202
 158   2.0000      -0.717468       -19.5233
 159   2.0000      -0.711640       -19.3647
 160   2.0000      -0.698473       -19.0064
 161   2.0000      -0.696299       -18.9472
 162   2.0000      -0.693463       -18.8701
 163   2.0000      -0.681929       -18.5562
 164   2.0000      -0.677870       -18.4458
 165   2.0000      -0.675647       -18.3853
 166   2.0000      -0.672714       -18.3055
 167   2.0000      -0.668277       -18.1848
 168   2.0000      -0.655938       -17.8490
 169   2.0000      -0.650583       -17.7033
 170   2.0000      -0.647808       -17.6278
 171   2.0000      -0.646366       -17.5885
 172   2.0000      -0.641208       -17.4482
 173   2.0000      -0.639803       -17.4099
 174   2.0000      -0.628746       -17.1091
 175   2.0000      -0.623062       -16.9544
 176   2.0000      -0.620122       -16.8744
 177   2.0000      -0.614719       -16.7274
 178   2.0000      -0.608763       -16.5653
 179   2.0000      -0.604881       -16.4597
 180   2.0000      -0.602406       -16.3923
 181   2.0000      -0.600598       -16.3431
 182   2.0000      -0.597609       -16.2618
 183   2.0000      -0.595165       -16.1953
 184   2.0000      -0.594584       -16.1794
 185   2.0000      -0.587471       -15.9859
 186   2.0000      -0.585137       -15.9224
 187   2.0000      -0.579630       -15.7725
 188   2.0000      -0.571723       -15.5574
 189   2.0000      -0.569677       -15.5017
 190   2.0000      -0.567951       -15.4547
 191   2.0000      -0.561364       -15.2755
 192   2.0000      -0.559391       -15.2218
 193   2.0000      -0.557286       -15.1645
 194   2.0000      -0.555659       -15.1202
 195   2.0000      -0.552351       -15.0302
 196   2.0000      -0.545707       -14.8494
 197   2.0000      -0.544931       -14.8283
 198   2.0000      -0.540922       -14.7192
 199   2.0000      -0.537314       -14.6211
 200   2.0000      -0.532491       -14.4898
 201   2.0000      -0.526285       -14.3209
 202   2.0000      -0.522550       -14.2193
 203   2.0000      -0.521776       -14.1982
 204   2.0000      -0.519598       -14.1390
 205   2.0000      -0.517048       -14.0696
 206   2.0000      -0.515114       -14.0170
 207   2.0000      -0.511321       -13.9138
 208   2.0000      -0.509901       -13.8751
 209   2.0000      -0.508716       -13.8429
 210   2.0000      -0.506684       -13.7876
 211   2.0000      -0.505072       -13.7437
 212   2.0000      -0.503450       -13.6996
 213   2.0000      -0.502766       -13.6809
 214   2.0000      -0.499589       -13.5945
 215   2.0000      -0.497788       -13.5455
 216   2.0000      -0.495370       -13.4797
 217   2.0000      -0.494423       -13.4539
 218   2.0000      -0.492261       -13.3951
 219   2.0000      -0.491602       -13.3772
 220   2.0000      -0.491003       -13.3609
 221   2.0000      -0.489814       -13.3285
 222   2.0000      -0.488256       -13.2861
 223   2.0000      -0.482049       -13.1172
 224   2.0000      -0.480604       -13.0779
 225   2.0000      -0.479333       -13.0433
 226   2.0000      -0.477873       -13.0036
 227   2.0000      -0.475599       -12.9417
 228   2.0000      -0.474157       -12.9025
 229   2.0000      -0.473192       -12.8762
 230   2.0000      -0.470821       -12.8117
 231   2.0000      -0.470358       -12.7991
 232   2.0000      -0.464698       -12.6451
 233   2.0000      -0.462925       -12.5968
 234   2.0000      -0.458843       -12.4858
 235   2.0000      -0.457229       -12.4418
 236   2.0000      -0.456842       -12.4313
 237   2.0000      -0.455245       -12.3878
 238   2.0000      -0.451385       -12.2828
 239   2.0000      -0.450009       -12.2454
 240   2.0000      -0.443246       -12.0613
 241   2.0000      -0.442450       -12.0397
 242   2.0000      -0.438711       -11.9379
 243   2.0000      -0.438229       -11.9248
 244   2.0000      -0.434461       -11.8223
 245   2.0000      -0.434027       -11.8105
 246   2.0000      -0.432448       -11.7675
 247   2.0000      -0.431807       -11.7501
 248   2.0000      -0.430887       -11.7250
 249   2.0000      -0.428119       -11.6497
 250   2.0000      -0.427301       -11.6275
 251   2.0000      -0.427098       -11.6219
 252   2.0000      -0.425907       -11.5895
 253   2.0000      -0.425529       -11.5792
 254   2.0000      -0.423598       -11.5267
 255   2.0000      -0.423268       -11.5177
 256   2.0000      -0.419319       -11.4103
 257   2.0000      -0.417656       -11.3650
 258   2.0000      -0.415205       -11.2983
 259   2.0000      -0.410930       -11.1820
 260   2.0000      -0.409209       -11.1351
 261   2.0000      -0.406665       -11.0659
 262   2.0000      -0.405988       -11.0475
 263   2.0000      -0.404235       -10.9998
 264   2.0000      -0.401046       -10.9130
 265   2.0000      -0.398926       -10.8553
 266   2.0000      -0.394439       -10.7332
 267   2.0000      -0.393985       -10.7209
 268   2.0000      -0.390872       -10.6362
 269   2.0000      -0.389873       -10.6090
 270   2.0000      -0.389778       -10.6064
 271   2.0000      -0.384479       -10.4622
 272   2.0000      -0.375732       -10.2242
 273   2.0000      -0.372232       -10.1289
 274   2.0000      -0.365611        -9.9488
 275   2.0000      -0.356779        -9.7085
 276   2.0000      -0.348179        -9.4744
 277   2.0000      -0.342341        -9.3156
 278   2.0000      -0.340144        -9.2558
 279   2.0000      -0.339307        -9.2330
 280   2.0000      -0.331314        -9.0155
 281   2.0000      -0.321553        -8.7499
 282   2.0000      -0.319979        -8.7071
 283   2.0000      -0.318757        -8.6738
 284   2.0000      -0.317313        -8.6345
 285   2.0000      -0.316204        -8.6043
 286   2.0000      -0.301705        -8.2098
 287   2.0000      -0.301141        -8.1945
 288   2.0000      -0.283008        -7.7010
 289   2.0000      -0.278242        -7.5713
 290   2.0000      -0.258526        -7.0349
 291   2.0000      -0.227890        -6.2012
 292   2.0000      -0.213101        -5.7988
 293   0.0000      -0.087016        -2.3678
 294   0.0000      -0.077310        -2.1037
 295   0.0000      -0.054026        -1.4701
 296   0.0000      -0.041122        -1.1190
 297   0.0000      -0.021202        -0.5769

MULLIKEN ATOMIC CHARGES
-----------------------
   0 C :    0.334261
   1 C :   -0.365167
   2 C :   -0.184883
   3 N :    0.133626
   4 C :   -0.193178
   5 N :    0.139004
   6 C :    0.010639
   7 C :   -0.008992
   8 C :   -0.077626
   9 C :    0.117201
  10 C :   -0.091208
  11 C :   -0.024808
  12 S :    0.178945
  13 C :   -0.124075
  14 C :    0.038618
  15 Br:    0.012977
  16 C :    0.137372
  17 O :   -0.161130
  18 C :   -0.075606
  19 C :   -0.034389
  20 C :   -0.004853
  21 C :   -0.002113
  22 C :    0.078814
  23 O :   -0.211611
  24 C :    0.121026
  25 C :    0.074150
  26 C :    0.111583
  27 O :   -0.160015
  28 O :   -0.197151
  29 C :   -0.060243
  30 C :    0.025607
  31 C :   -0.000257
  32 C :   -0.018872
  33 C :   -0.084740
  34 S :    0.110885
  35 C :   -0.116434
  36 C :   -0.016471
  37 C :   -0.067608
  38 C :    0.131190
  39 C :   -0.253351
  40 N :    0.082864
  41 C :   -0.015454
  42 C :    0.135770
  43 C :    0.187213
  44 O :   -0.385831
  45 C :    0.189133
  46 C :    0.014367
  47 C :    0.022182
  48 C :   -0.138943
  49 S :    0.114217
  50 C :   -0.080467
  51 C :   -0.055252
  52 C :   -0.029162
  53 C :    0.085567
  54 C :   -0.288177
  55 N :    0.113090
  56 C :    0.010277
  57 C :    0.128802
  58 C :    0.183476
  59 O :   -0.384479
  60 C :    0.185246
  61 C :   -0.023450
  62 C :    0.005404
  63 C :   -0.026267
  64 C :   -0.012659
  65 C :    0.034177
  66 C :    0.026361
  67 C :   -0.049508
  68 S :    0.072609
  69 C :   -0.065052
  70 C :    0.029492
  71 C :    0.055186
  72 C :   -0.067675
  73 S :    0.083110
  74 C :   -0.024402
  75 H :   -0.017109
  76 H :   -0.009623
  77 H :   -0.007985
  78 H :    0.006392
  79 H :    0.027733
  80 H :    0.022959
  81 H :    0.199977
  82 H :    0.202802
  83 H :   -0.017626
  84 H :    0.010680
  85 H :   -0.005512
  86 H :   -0.000324
  87 H :    0.049617
  88 H :    0.027785
  89 H :    0.025805
  90 H :    0.006169
  91 H :    0.026898
  92 H :   -0.016826
  93 H :    0.028687
  94 H :   -0.004126
  95 H :    0.017002
  96 H :   -0.007543
  97 H :   -0.003176
  98 H :    0.044818
  99 H :    0.030513
 100 H :    0.022686
 101 H :    0.009657
 102 H :    0.011591
 103 H :   -0.019660
 104 H :    0.027424
 105 H :   -0.004602
 106 H :    0.021937
 107 H :   -0.022698
 108 H :    0.007098
 109 H :   -0.020688
 110 H :   -0.014640
 111 H :   -0.012010
 112 H :   -0.012111
 113 H :   -0.010321
 114 H :    0.021644
 115 H :    0.023823
Sum of atomic charges:   -0.0000000

LOEWDIN ATOMIC CHARGES
----------------------
   0 C :    0.076490
   1 C :   -0.154095
   2 C :   -0.017940
   3 N :   -0.067813
   4 C :   -0.020821
   5 N :   -0.064013
   6 C :   -0.018931
   7 C :   -0.048018
   8 C :    0.016811
   9 C :   -0.035679
  10 C :   -0.145657
  11 C :   -0.012927
  12 S :    0.426344
  13 C :   -0.274687
  14 C :   -0.071279
  15 Br:    0.128635
  16 C :    0.081901
  17 O :   -0.154917
  18 C :   -0.113906
  19 C :    0.067735
  20 C :   -0.045953
  21 C :    0.026696
  22 C :   -0.010215
  23 O :    0.008913
  24 C :    0.015165
  25 C :   -0.022547
  26 C :    0.020761
  27 O :   -0.031244
  28 O :   -0.057059
  29 C :   -0.048634
  30 C :   -0.005231
  31 C :   -0.033192
  32 C :   -0.033274
  33 C :   -0.163653
  34 S :    0.427862
  35 C :   -0.156773
  36 C :   -0.066810
  37 C :   -0.042036
  38 C :   -0.047707
  39 C :   -0.001088
  40 N :   -0.097103
  41 C :   -0.002966
  42 C :   -0.025602
  43 C :    0.077021
  44 O :   -0.171771
  45 C :    0.063824
  46 C :   -0.023698
  47 C :   -0.051658
  48 C :   -0.164829
  49 S :    0.429756
  50 C :   -0.162203
  51 C :   -0.078187
  52 C :   -0.049580
  53 C :   -0.046299
  54 C :   -0.019630
  55 N :   -0.077979
  56 C :   -0.004282
  57 C :   -0.029697
  58 C :    0.077642
  59 O :   -0.173066
  60 C :    0.063776
  61 C :   -0.053606
  62 C :   -0.027565
  63 C :   -0.066992
  64 C :   -0.139339
  65 C :   -0.037926
  66 C :   -0.027574
  67 C :   -0.182631
  68 S :    0.365172
  69 C :   -0.173988
  70 C :   -0.027377
  71 C :   -0.028502
  72 C :   -0.139924
  73 S :    0.353991
  74 C :   -0.071607
  75 H :    0.038279
  76 H :    0.040015
  77 H :    0.037105
  78 H :    0.040285
  79 H :    0.033976
  80 H :    0.047990
  81 H :    0.109166
  82 H :    0.104194
  83 H :    0.029558
  84 H :    0.037119
  85 H :    0.025337
  86 H :    0.034429
  87 H :    0.064418
  88 H :    0.032757
  89 H :    0.034032
  90 H :    0.031433
  91 H :    0.038770
  92 H :    0.014581
  93 H :    0.024113
  94 H :    0.004316
  95 H :    0.009449
  96 H :    0.029517
  97 H :    0.024508
  98 H :    0.059775
  99 H :    0.034121
 100 H :    0.033260
 101 H :    0.033183
 102 H :    0.031947
 103 H :    0.011888
 104 H :    0.023751
 105 H :    0.004901
 106 H :    0.011036
 107 H :    0.027218
 108 H :    0.017799
 109 H :    0.031088
 110 H :    0.032771
 111 H :    0.031865
 112 H :    0.032227
 113 H :    0.034030
 114 H :    0.029596
 115 H :    0.027382

  Mayer bond orders larger than 0.100000
B(  0-C ,  1-C ) :   1.5977 B(  0-C ,  6-C ) :   0.9916 B(  0-C , 18-C ) :   1.0982
B(  1-C ,  2-C ) :   1.1477 B(  1-C ,  4-C ) :   1.1495 B(  2-C ,  3-N ) :   2.9608
B(  4-C ,  5-N ) :   2.9635 B(  6-C ,  7-C ) :   1.2793 B(  6-C , 11-C ) :   1.4161
B(  7-C ,  8-C ) :   1.4289 B(  7-C , 16-C ) :   0.9356 B(  8-C ,  9-C ) :   1.2423
B(  8-C , 75-H ) :   1.0157 B(  9-C , 10-C ) :   1.3143 B(  9-C , 14-C ) :   1.1592
B( 10-C , 11-C ) :   1.3250 B( 10-C , 12-S ) :   1.0815 B( 11-C , 76-H ) :   0.9783
B( 12-S , 13-C ) :   1.0851 B( 13-C , 14-C ) :   1.6224 B( 13-C , 15-Br) :   1.0129
B( 14-C , 77-H ) :   0.9995 B( 16-C , 17-O ) :   2.1964 B( 16-C , 18-C ) :   0.9643
B( 18-C , 19-C ) :   1.4587 B( 19-C , 20-C ) :   1.2176 B( 19-C , 78-H ) :   0.9612
B( 20-C , 21-C ) :   1.4481 B( 20-C , 79-H ) :   0.9933 B( 21-C , 22-C ) :   1.2188
B( 21-C , 80-H ) :   0.9765 B( 22-C , 23-O ) :   1.1032 B( 22-C , 24-C ) :   0.1057
B( 22-C , 26-C ) :   1.3165 B( 23-O , 24-C ) :   1.1464 B( 24-C , 25-C ) :   1.2815
B( 24-C , 29-C ) :   1.1720 B( 25-C , 26-C ) :   1.2557 B( 25-C , 28-O ) :   1.2489
B( 26-C , 27-O ) :   1.2968 B( 27-O , 81-H ) :   0.9494 B( 28-O , 82-H ) :   0.9449
B( 29-C , 30-C ) :   1.6520 B( 29-C , 83-H ) :   0.9417 B( 30-C , 31-C ) :   1.1207
B( 30-C , 84-H ) :   0.9864 B( 31-C , 32-C ) :   1.6567 B( 31-C , 85-H ) :   0.9787
B( 32-C , 33-C ) :   1.1584 B( 32-C , 86-H ) :   0.9500 B( 33-C , 34-S ) :   1.0889
B( 33-C , 37-C ) :   1.5135 B( 34-S , 35-C ) :   1.1055 B( 35-C , 36-C ) :   1.4987
B( 35-C , 46-C ) :   1.1799 B( 36-C , 37-C ) :   1.3063 B( 36-C , 43-C ) :   1.0183
B( 37-C , 38-C ) :   0.9856 B( 38-C , 39-C ) :   1.0495 B( 38-C , 41-C ) :   1.1214
B( 38-C , 87-H ) :   0.8089 B( 39-C , 40-N ) :   3.0309 B( 41-C , 42-C ) :   1.1203
B( 41-C , 88-H ) :   0.9424 B( 41-C , 89-H ) :   0.9122 B( 42-C , 43-C ) :   1.0429
B( 42-C , 90-H ) :   0.9032 B( 42-C , 91-H ) :   0.9258 B( 43-C , 44-O ) :   1.0110
B( 43-C , 92-H ) :   0.9055 B( 44-O , 45-C ) :   0.9890 B( 45-C , 93-H ) :   0.9807
B( 45-C , 94-H ) :   0.9625 B( 45-C , 95-H ) :   0.9668 B( 46-C , 47-C ) :   1.6873
B( 46-C , 96-H ) :   0.9505 B( 47-C , 48-C ) :   1.1044 B( 47-C , 97-H ) :   0.9489
B( 48-C , 49-S ) :   1.1020 B( 48-C , 52-C ) :   1.5350 B( 49-S , 50-C ) :   1.1040
B( 50-C , 51-C ) :   1.4764 B( 50-C , 61-C ) :   1.1524 B( 51-C , 52-C ) :   1.2966
B( 51-C , 58-C ) :   1.0402 B( 52-C , 53-C ) :   0.9826 B( 53-C , 54-C ) :   1.0567
B( 53-C , 56-C ) :   1.1400 B( 53-C , 98-H ) :   0.8190 B( 54-C , 55-N ) :   3.0468
B( 56-C , 57-C ) :   1.1382 B( 56-C , 99-H ) :   0.9432 B( 56-C ,100-H ) :   0.9056
B( 57-C , 58-C ) :   1.0244 B( 57-C ,101-H ) :   0.9007 B( 57-C ,102-H ) :   0.9265
B( 58-C , 59-O ) :   1.0281 B( 58-C ,103-H ) :   0.9086 B( 59-O , 60-C ) :   0.9888
B( 60-C ,104-H ) :   0.9804 B( 60-C ,105-H ) :   0.9636 B( 60-C ,106-H ) :   0.9670
B( 61-C , 62-C ) :   1.6151 B( 61-C ,107-H ) :   0.9786 B( 62-C , 63-C ) :   1.1629
B( 62-C ,108-H ) :   0.9715 B( 63-C , 64-C ) :   1.5608 B( 63-C ,109-H ) :   0.9842
B( 64-C , 65-C ) :   1.1367 B( 64-C , 68-S ) :   1.0361 B( 65-C , 66-C ) :   1.6027
B( 65-C ,110-H ) :   0.9989 B( 66-C , 67-C ) :   1.1751 B( 66-C ,111-H ) :   0.9932
B( 67-C , 68-S ) :   1.0340 B( 67-C , 69-C ) :   1.5528 B( 69-C , 70-C ) :   1.1531
B( 69-C , 73-S ) :   1.0487 B( 70-C , 71-C ) :   1.6632 B( 70-C ,112-H ) :   0.9910
B( 71-C , 72-C ) :   1.0801 B( 71-C ,113-H ) :   0.9924 B( 72-C , 73-S ) :   1.0068
B( 72-C , 74-C ) :   1.8656 B( 74-C ,114-H ) :   0.9504 B( 74-C ,115-H ) :   0.9414

-----------------------------------------------------------------------------
         ABSORPTION SPECTRUM VIA TRANSITION ELECTRIC DIPOLE MOMENTS
-----------------------------------------------------------------------------
State   Energy  Wavelength   fosc         T2         TX        TY        TZ
        (cm-1)    (nm)                  (au**2)     (au)      (au)      (au)
-----------------------------------------------------------------------------
   0   14816.6    674.9   0.900845505  20.01596  -0.27281  -4.41479  -0.67166
   1   17090.7    585.1   2.441765442  47.03471   6.46099  -1.40071  -1.82437
   2   20481.6    488.2   0.008372154   0.13457  -0.27359  -0.02670   0.24291
   3   22414.4    446.1   0.460379110   6.76182  -0.04180  -2.32284  -1.16811
   4   23770.6    420.7   0.071980107   0.99689   0.89736  -0.34161  -0.27375
   5   24565.4    407.1   0.083989558   1.12558   0.53104  -0.81107  -0.43098
   6   25499.7    392.2   0.370423178   4.78232   0.71714   1.90903   0.78970
   7   27134.8    368.5   0.071748588   0.87049   0.40101   0.80228   0.25694
   8   27371.1    365.3   0.058881312   0.70821   0.26582  -0.77343  -0.19837
   9   28184.0    354.8   0.490754250   5.73240   1.85740   1.21100   0.90330
  10   28415.5    351.9   0.014042338   0.16269   0.30144   0.21260   0.16317
  11   29482.3    339.2   0.158396330   1.76872   0.58249  -1.19385  -0.06430
  12   30335.3    329.6   0.032385915   0.35147  -0.58285  -0.07020  -0.08262
  13   30538.7    327.5   0.011671386   0.12582  -0.33064   0.10235   0.07758
  14   30682.6    325.9   0.089538810   0.96072  -0.75521  -0.52709  -0.33547
  15   31862.2    313.9   0.002283027   0.02359  -0.10565  -0.08480  -0.07236
  16   32368.3    308.9   0.008896646   0.09049   0.14870   0.10582  -0.23912
  17   32775.5    305.1   0.001985979   0.01995  -0.12716  -0.05871   0.01822
  18   33401.4    299.4   0.362925720   3.57708  -0.97799  -1.43824  -0.74301
  19   33789.6    295.9   0.494128729   4.81430   1.54396   1.13479   1.06899
  20   34385.1    290.8   0.072092868   0.69024  -0.17207  -0.57196  -0.57749
  21   34486.3    290.0   0.008661876   0.08269   0.23772   0.16121   0.01367
  22   34584.4    289.1   0.035949040   0.34220  -0.34983  -0.42705  -0.19352
  23   35354.7    282.8   0.039645131   0.36916   0.35915   0.46345   0.15932
  24   35613.8    280.8   0.017071009   0.15780  -0.13733  -0.37173  -0.02751
  25   36280.4    275.6   0.034055392   0.30902   0.40720  -0.34381  -0.15813
  26   36584.1    273.3   0.028583857   0.25722  -0.26835  -0.02874   0.42940
  27   36731.7    272.2   0.057733651   0.51744  -0.39445  -0.53343  -0.27806
  28   37205.6    268.8   0.014969057   0.13245   0.23902   0.22320   0.15971
  29   37510.5    266.6   0.057309711   0.50298   0.68537  -0.02477  -0.18064
  30   37890.7    263.9   0.057069828   0.49585  -0.55183   0.31105   0.30755
  31   38298.8    261.1   0.047780629   0.41072   0.60918   0.19902   0.00229
  32   38699.4    258.4   0.187277846   1.59315  -0.82457   0.85772   0.42138
  33   39281.4    254.6   0.008672590   0.07268   0.17184  -0.18218   0.09984
  34   39536.5    252.9   0.048485118   0.40373  -0.50807   0.37114   0.08858
  35   39906.6    250.6   0.028437489   0.23460  -0.08992   0.39470   0.26593
  36   40221.9    248.6   0.096328882   0.78844   0.80478   0.37469  -0.01963

FINAL SINGLE POINT ENERGY     -7503.723572800891

DIPOLE MOMENT
-------------
                                X             Y             Z
Electronic contribution:    189.07070    -156.46225     -43.25135
Nuclear contribution   :   -190.43084     163.68115      46.45037
                        -----------------------------------------
Total Dipole Moment    :     -1.36013       7.21890       3.19903
                        -----------------------------------------
Magnitude (a.u.)       :      8.01226
Magnitude (Debye)      :     20.36555

Rotational constants in cm-1:     0.000514     0.000250     0.000174
Rotational constants in MHz :    15.423059     7.496216     5.227865

                             ****ORCA TERMINATED NORMALLY****
TOTAL RUN TIME: 0 days 0 hours 15 minutes 49 seconds 70 msec
