                         Program Version 4.2.0 -  RELEASE  -
|  1> # ORCA input file
|  2> # SCF done       -206.709999487370          0.000770151122
|  3> ! CAM-B3LYP def2-SVP def2/J RIJCOSX Grid4 TightSCF
|  4> %maxcore 5000
|  5> %tddft
|  6>     Mode sTDDFT
|  7>     Ethresh 5.0
|  8>     maxcore 5000
|  9> end
| 10>
| 11> %pal
| 12>   nprocs 6
| 13>   end
| 14> * xyz 0 1
| 15>    C        7.11454         4.43806        -4.17285
| 16>    C        7.63000         5.70223        -4.13211
| 17>    C        8.83809         6.04549        -3.48463
| 18>    N        9.81042         6.38269        -2.97803
| 19>    C        7.02218         6.84449        -4.69917
| 20>    N        6.59014         7.81803        -5.12585
| 21>    C        7.69283         3.25347        -3.55787
| 22>    C        6.79364         2.16553        -3.70065
| 23>    C        7.06467         0.91268        -3.20442
| 24>    C        8.28421         0.71796        -2.54886
| 25>    C        9.18025         1.80853        -2.41768
| 26>    C        8.90385         3.07636        -2.90978
| 27>    S       10.62877         1.34774        -1.57726
| 28>    C       10.02204        -0.27884        -1.41448
| 29>    C        8.79686        -0.46974        -1.96116
| 30>   Br       11.06170        -1.56993        -0.54051
| 31>    C        5.58618         2.61235        -4.41933
| 32>    O        4.55728         2.00161        -4.57268
| 33>    C        5.87340         4.02509        -4.82870
| 34>    C        5.10868         4.73529        -5.67212
| 35>    C        3.97554         4.16437        -6.40661
| 36>    N        4.20586         3.06507        -7.11901
| 37>    C        3.17954         2.56753        -7.78515
| 38>    C        1.92635         3.15686        -7.77780
| 39>    C        1.79505         4.34059        -7.04184
| 40>    N        2.83312         4.82825        -6.35727
| 41>    C        0.58853         5.13499        -6.96049
| 42>    C       -0.50204         4.97092        -7.72339
| 43>    N       -1.60063         5.78335        -7.62545
| 44>    C       -2.68861         5.74164        -8.42534
| 45>    S       -2.81101         4.58017        -9.70293
| 46>    C       -4.34448         5.26083       -10.15793
| 47>    N       -5.00343         4.66442       -11.24133
| 48>    O       -6.07343         5.12711       -11.58063
| 49>    O       -4.43604         3.71740       -11.75883
| 50>    C       -4.72879         6.31273        -9.37916
| 51>    C       -3.79418         6.61295        -8.36275
| 52>    C       -3.94310         7.63790        -7.38049
| 53>    C       -4.89938         8.60136        -7.39624
| 54>    C       -5.06324         9.57021        -6.38391
| 55>    S       -4.10473         9.58040        -4.95059
| 56>    C       -4.93308        10.95545        -4.27480
| 57>    C       -5.91511        11.41371        -5.16887
| 58>    C       -6.00256        10.62555        -6.35580
| 59>    C       -6.94098        10.94153        -7.34445
| 60>    C       -7.78344        12.02207        -7.15821
| 61>    C       -8.78377        12.44251        -8.13735
| 62>    O       -9.56389        13.34889        -7.99076
| 63>    C       -8.81408        11.65328        -9.48156
| 64>    F       -7.62548        11.69535       -10.11432
| 65>    F       -9.10280        10.35175        -9.30198
| 66>    F       -9.72042        12.14743       -10.31572
| 67>    C       -7.70133        12.79195        -5.96575
| 68>    C       -6.79623        12.49950        -4.99121
| 69>    C       -4.56975        11.55513        -3.05836
| 70>    C       -3.79422        11.07933        -2.03819
| 71>    C       -3.14964        12.04705        -1.11079
| 72>    O       -3.40433        13.22413        -1.00154
| 73>    C       -2.10395        11.27177        -0.41102
| 74>    C       -1.15372        11.70747         0.46628
| 75>    C       -0.23105        10.77764         0.99732
| 76>    C       -0.30941         9.41034         0.60276
| 77>    C        0.61836         8.49025         1.13030
| 78>    C        1.57626         8.90663         2.01173
| 79>    C        1.65110        10.25827         2.40402
| 80>    C        0.76696        11.17530         1.90798
| 81>    F        2.59987        10.63779         3.26934
| 82>    F        2.45621         8.02975         2.51200
| 83>    C       -1.31092         8.98624        -0.30074
| 84>    C       -2.19826         9.90319        -0.79525
| 85>    C       -3.34664         9.75389        -1.68580
| 86>    C       -4.03083         8.58358        -1.90304
| 87>    C       -5.31479         8.54471        -2.48221
| 88>    N       -6.37964         8.49979        -2.90959
| 89>    C       -3.56554         7.31605        -1.50498
| 90>    N       -3.20667         6.25793        -1.24075
| 91>    H        6.35780         0.10664        -3.32338
| 92>    H        9.61723         3.87386        -2.78517
| 93>    H        8.27553        -1.40938        -1.95049
| 94>    H        5.30580         5.77852        -5.87634
| 95>    H        3.37991         1.66571        -8.34869
| 96>    H        1.10232         2.72020        -8.31555
| 97>    H        0.63620         5.93928        -6.23938
| 98>    H       -0.57676         4.19927        -8.47520
| 99>    H       -1.56969         6.50539        -6.91533
|100>    H       -5.66032         6.82482        -9.53377
|101>    H       -3.24388         7.63844        -6.55321
|102>    H       -5.59360         8.65218        -8.22085
|103>    H       -6.98884        10.33247        -8.23106
|104>    H       -8.38507        13.61995        -5.86132
|105>    H       -6.75030        13.08900        -4.08974
|106>    H       -4.87607        12.59036        -2.93983
|107>    H       -1.10638        12.74680         0.75338
|108>    H        0.57236         7.45110         0.84404
|109>    H        0.83808        12.20609         2.21790
|110>    H       -1.34677         7.94664        -0.58567
|111> *
|112>
|113>                          ****END OF INPUT****

CARTESIAN COORDINATES (ANGSTROEM)
---------------------------------
  C      7.114540    4.438060   -4.172850
  C      7.630000    5.702230   -4.132110
  C      8.838090    6.045490   -3.484630
  N      9.810420    6.382690   -2.978030
  C      7.022180    6.844490   -4.699170
  N      6.590140    7.818030   -5.125850
  C      7.692830    3.253470   -3.557870
  C      6.793640    2.165530   -3.700650
  C      7.064670    0.912680   -3.204420
  C      8.284210    0.717960   -2.548860
  C      9.180250    1.808530   -2.417680
  C      8.903850    3.076360   -2.909780
  S     10.628770    1.347740   -1.577260
  C     10.022040   -0.278840   -1.414480
  C      8.796860   -0.469740   -1.961160
  Br    11.061700   -1.569930   -0.540510
  C      5.586180    2.612350   -4.419330
  O      4.557280    2.001610   -4.572680
  C      5.873400    4.025090   -4.828700
  C      5.108680    4.735290   -5.672120
  C      3.975540    4.164370   -6.406610
  N      4.205860    3.065070   -7.119010
  C      3.179540    2.567530   -7.785150
  C      1.926350    3.156860   -7.777800
  C      1.795050    4.340590   -7.041840
  N      2.833120    4.828250   -6.357270
  C      0.588530    5.134990   -6.960490
  C     -0.502040    4.970920   -7.723390
  N     -1.600630    5.783350   -7.625450
  C     -2.688610    5.741640   -8.425340
  S     -2.811010    4.580170   -9.702930
  C     -4.344480    5.260830  -10.157930
  N     -5.003430    4.664420  -11.241330
  O     -6.073430    5.127110  -11.580630
  O     -4.436040    3.717400  -11.758830
  C     -4.728790    6.312730   -9.379160
  C     -3.794180    6.612950   -8.362750
  C     -3.943100    7.637900   -7.380490
  C     -4.899380    8.601360   -7.396240
  C     -5.063240    9.570210   -6.383910
  S     -4.104730    9.580400   -4.950590
  C     -4.933080   10.955450   -4.274800
  C     -5.915110   11.413710   -5.168870
  C     -6.002560   10.625550   -6.355800
  C     -6.940980   10.941530   -7.344450
  C     -7.783440   12.022070   -7.158210
  C     -8.783770   12.442510   -8.137350
  O     -9.563890   13.348890   -7.990760
  C     -8.814080   11.653280   -9.481560
  F     -7.625480   11.695350  -10.114320
  F     -9.102800   10.351750   -9.301980
  F     -9.720420   12.147430  -10.315720
  C     -7.701330   12.791950   -5.965750
  C     -6.796230   12.499500   -4.991210
  C     -4.569750   11.555130   -3.058360
  C     -3.794220   11.079330   -2.038190
  C     -3.149640   12.047050   -1.110790
  O     -3.404330   13.224130   -1.001540
  C     -2.103950   11.271770   -0.411020
  C     -1.153720   11.707470    0.466280
  C     -0.231050   10.777640    0.997320
  C     -0.309410    9.410340    0.602760
  C      0.618360    8.490250    1.130300
  C      1.576260    8.906630    2.011730
  C      1.651100   10.258270    2.404020
  C      0.766960   11.175300    1.907980
  F      2.599870   10.637790    3.269340
  F      2.456210    8.029750    2.512000
  C     -1.310920    8.986240   -0.300740
  C     -2.198260    9.903190   -0.795250
  C     -3.346640    9.753890   -1.685800
  C     -4.030830    8.583580   -1.903040
  C     -5.314790    8.544710   -2.482210
  N     -6.379640    8.499790   -2.909590
  C     -3.565540    7.316050   -1.504980
  N     -3.206670    6.257930   -1.240750
  H      6.357800    0.106640   -3.323380
  H      9.617230    3.873860   -2.785170
  H      8.275530   -1.409380   -1.950490
  H      5.305800    5.778520   -5.876340
  H      3.379910    1.665710   -8.348690
  H      1.102320    2.720200   -8.315550
  H      0.636200    5.939280   -6.239380
  H     -0.576760    4.199270   -8.475200
  H     -1.569690    6.505390   -6.915330
  H     -5.660320    6.824820   -9.533770
  H     -3.243880    7.638440   -6.553210
  H     -5.593600    8.652180   -8.220850
  H     -6.988840   10.332470   -8.231060
  H     -8.385070   13.619950   -5.861320
  H     -6.750300   13.089000   -4.089740
  H     -4.876070   12.590360   -2.939830
  H     -1.106380   12.746800    0.753380
  H      0.572360    7.451100    0.844040
  H      0.838080   12.206090    2.217900
  H     -1.346770    7.946640   -0.585670

 Total Charge           Charge          ....    0
 Multiplicity           Mult            ....    1
 Number of Electrons    NEL             ....  568
 Basis Dimension        Dim             .... 1194

ORBITAL ENERGIES
----------------

  NO   OCC          E(Eh)            E(eV)
   0   2.0000    -482.891801    -13140.1539
   1   2.0000     -89.004407     -2421.9331
   2   2.0000     -88.996756     -2421.7248
   3   2.0000     -88.982553     -2421.3384
   4   2.0000     -62.569490     -1702.6024
   5   2.0000     -56.403449     -1534.8159
   6   2.0000     -56.400718     -1534.7416
   7   2.0000     -56.400693     -1534.7409
   8   2.0000     -24.815204      -675.2560
   9   2.0000     -24.814473      -675.2361
  10   2.0000     -24.809038      -675.0882
  11   2.0000     -24.799239      -674.8216
  12   2.0000     -24.798981      -674.8146
  13   2.0000     -19.249617      -523.8087
  14   2.0000     -19.249577      -523.8076
  15   2.0000     -19.244100      -523.6586
  16   2.0000     -19.224211      -523.1174
  17   2.0000     -19.216709      -522.9132
  18   2.0000     -14.661654      -398.9639
  19   2.0000     -14.509577      -394.8257
  20   2.0000     -14.425206      -392.5298
  21   2.0000     -14.425028      -392.5250
  22   2.0000     -14.422590      -392.4586
  23   2.0000     -14.420694      -392.4070
  24   2.0000     -14.418220      -392.3397
  25   2.0000     -14.417932      -392.3319
  26   2.0000     -10.524533      -286.3871
  27   2.0000     -10.395156      -282.8666
  28   2.0000     -10.393409      -282.8190
  29   2.0000     -10.382490      -282.5219
  30   2.0000     -10.382135      -282.5123
  31   2.0000     -10.374940      -282.3165
  32   2.0000     -10.368513      -282.1416
  33   2.0000     -10.366404      -282.0842
  34   2.0000     -10.360240      -281.9165
  35   2.0000     -10.358379      -281.8658
  36   2.0000     -10.358075      -281.8576
  37   2.0000     -10.354669      -281.7649
  38   2.0000     -10.352153      -281.6964
  39   2.0000     -10.351706      -281.6842
  40   2.0000     -10.346704      -281.5481
  41   2.0000     -10.346152      -281.5331
  42   2.0000     -10.345491      -281.5151
  43   2.0000     -10.333791      -281.1967
  44   2.0000     -10.331418      -281.1322
  45   2.0000     -10.330854      -281.1168
  46   2.0000     -10.329164      -281.0708
  47   2.0000     -10.328352      -281.0487
  48   2.0000     -10.327424      -281.0235
  49   2.0000     -10.327164      -281.0164
  50   2.0000     -10.327097      -281.0146
  51   2.0000     -10.323750      -280.9235
  52   2.0000     -10.321561      -280.8640
  53   2.0000     -10.320531      -280.8359
  54   2.0000     -10.320466      -280.8342
  55   2.0000     -10.318817      -280.7893
  56   2.0000     -10.318382      -280.7774
  57   2.0000     -10.317875      -280.7636
  58   2.0000     -10.317638      -280.7572
  59   2.0000     -10.316184      -280.7177
  60   2.0000     -10.314384      -280.6686
  61   2.0000     -10.314303      -280.6664
  62   2.0000     -10.312215      -280.6096
  63   2.0000     -10.311703      -280.5957
  64   2.0000     -10.311429      -280.5883
  65   2.0000     -10.310249      -280.5561
  66   2.0000     -10.309316      -280.5308
  67   2.0000     -10.308931      -280.5203
  68   2.0000     -10.304536      -280.4007
  69   2.0000     -10.304262      -280.3932
  70   2.0000     -10.303452      -280.3712
  71   2.0000     -10.302282      -280.3393
  72   2.0000     -10.302262      -280.3388
  73   2.0000     -10.301817      -280.3267
  74   2.0000     -10.301151      -280.3086
  75   2.0000     -10.300509      -280.2911
  76   2.0000     -10.300249      -280.2840
  77   2.0000     -10.300073      -280.2792
  78   2.0000     -10.299242      -280.2566
  79   2.0000     -10.295709      -280.1605
  80   2.0000      -8.798906      -239.4304
  81   2.0000      -8.099806      -220.4069
  82   2.0000      -8.091306      -220.1756
  83   2.0000      -8.078613      -219.8302
  84   2.0000      -6.635234      -180.5539
  85   2.0000      -6.620647      -180.1570
  86   2.0000      -6.620400      -180.1502
  87   2.0000      -6.069555      -165.1610
  88   2.0000      -6.065084      -165.0393
  89   2.0000      -6.061159      -164.9325
  90   2.0000      -6.060273      -164.9084
  91   2.0000      -6.056252      -164.7990
  92   2.0000      -6.054055      -164.7392
  93   2.0000      -6.048318      -164.5831
  94   2.0000      -6.044017      -164.4661
  95   2.0000      -6.039801      -164.3513
  96   2.0000      -2.751115       -74.8616
  97   2.0000      -2.746993       -74.7495
  98   2.0000      -2.746847       -74.7455
  99   2.0000      -2.735233       -74.4295
 100   2.0000      -2.735219       -74.4291
 101   2.0000      -1.402634       -38.1676
 102   2.0000      -1.331667       -36.2365
 103   2.0000      -1.322177       -35.9783
 104   2.0000      -1.307331       -35.5743
 105   2.0000      -1.305486       -35.5241
 106   2.0000      -1.304753       -35.5041
 107   2.0000      -1.160702       -31.5843
 108   2.0000      -1.151463       -31.3329
 109   2.0000      -1.140429       -31.0327
 110   2.0000      -1.132432       -30.8150
 111   2.0000      -1.116270       -30.3753
 112   2.0000      -1.096164       -29.8281
 113   2.0000      -1.032223       -28.0882
 114   2.0000      -1.031340       -28.0642
 115   2.0000      -1.023790       -27.8587
 116   2.0000      -1.022005       -27.8102
 117   2.0000      -1.021426       -27.7944
 118   2.0000      -1.006528       -27.3890
 119   2.0000      -1.003592       -27.3091
 120   2.0000      -0.998351       -27.1665
 121   2.0000      -0.998071       -27.1589
 122   2.0000      -0.993767       -27.0418
 123   2.0000      -0.983800       -26.7705
 124   2.0000      -0.967568       -26.3289
 125   2.0000      -0.951620       -25.8949
 126   2.0000      -0.950033       -25.8517
 127   2.0000      -0.935303       -25.4509
 128   2.0000      -0.931334       -25.3429
 129   2.0000      -0.920434       -25.0463
 130   2.0000      -0.916712       -24.9450
 131   2.0000      -0.908312       -24.7164
 132   2.0000      -0.899850       -24.4862
 133   2.0000      -0.894404       -24.3380
 134   2.0000      -0.894057       -24.3285
 135   2.0000      -0.892737       -24.2926
 136   2.0000      -0.882785       -24.0218
 137   2.0000      -0.875871       -23.8337
 138   2.0000      -0.869289       -23.6546
 139   2.0000      -0.864477       -23.5236
 140   2.0000      -0.851826       -23.1794
 141   2.0000      -0.842390       -22.9226
 142   2.0000      -0.837023       -22.7765
 143   2.0000      -0.834357       -22.7040
 144   2.0000      -0.818942       -22.2846
 145   2.0000      -0.811570       -22.0840
 146   2.0000      -0.795187       -21.6381
 147   2.0000      -0.790198       -21.5024
 148   2.0000      -0.770981       -20.9795
 149   2.0000      -0.768113       -20.9014
 150   2.0000      -0.766329       -20.8529
 151   2.0000      -0.755435       -20.5564
 152   2.0000      -0.750378       -20.4188
 153   2.0000      -0.744347       -20.2547
 154   2.0000      -0.741929       -20.1889
 155   2.0000      -0.734701       -19.9922
 156   2.0000      -0.726415       -19.7668
 157   2.0000      -0.719712       -19.5843
 158   2.0000      -0.714274       -19.4364
 159   2.0000      -0.705475       -19.1969
 160   2.0000      -0.698814       -19.0157
 161   2.0000      -0.695862       -18.9354
 162   2.0000      -0.688554       -18.7365
 163   2.0000      -0.685924       -18.6650
 164   2.0000      -0.685510       -18.6537
 165   2.0000      -0.685129       -18.6433
 166   2.0000      -0.676636       -18.4122
 167   2.0000      -0.669228       -18.2106
 168   2.0000      -0.664079       -18.0705
 169   2.0000      -0.659814       -17.9545
 170   2.0000      -0.656879       -17.8746
 171   2.0000      -0.648404       -17.6440
 172   2.0000      -0.644489       -17.5374
 173   2.0000      -0.643173       -17.5016
 174   2.0000      -0.639464       -17.4007
 175   2.0000      -0.638356       -17.3706
 176   2.0000      -0.632487       -17.2108
 177   2.0000      -0.627846       -17.0846
 178   2.0000      -0.623730       -16.9725
 179   2.0000      -0.617117       -16.7926
 180   2.0000      -0.614021       -16.7084
 181   2.0000      -0.610874       -16.6227
 182   2.0000      -0.605225       -16.4690
 183   2.0000      -0.601177       -16.3589
 184   2.0000      -0.596329       -16.2269
 185   2.0000      -0.594614       -16.1803
 186   2.0000      -0.588912       -16.0251
 187   2.0000      -0.586651       -15.9636
 188   2.0000      -0.586132       -15.9495
 189   2.0000      -0.580445       -15.7947
 190   2.0000      -0.577736       -15.7210
 191   2.0000      -0.573956       -15.6181
 192   2.0000      -0.566991       -15.4286
 193   2.0000      -0.562638       -15.3102
 194   2.0000      -0.562160       -15.2972
 195   2.0000      -0.560096       -15.2410
 196   2.0000      -0.558621       -15.2009
 197   2.0000      -0.556221       -15.1355
 198   2.0000      -0.551798       -15.0152
 199   2.0000      -0.549729       -14.9589
 200   2.0000      -0.548999       -14.9390
 201   2.0000      -0.548260       -14.9189
 202   2.0000      -0.547880       -14.9086
 203   2.0000      -0.543029       -14.7766
 204   2.0000      -0.542502       -14.7622
 205   2.0000      -0.539741       -14.6871
 206   2.0000      -0.538733       -14.6597
 207   2.0000      -0.537359       -14.6223
 208   2.0000      -0.535514       -14.5721
 209   2.0000      -0.534630       -14.5480
 210   2.0000      -0.529533       -14.4093
 211   2.0000      -0.528647       -14.3852
 212   2.0000      -0.521750       -14.1975
 213   2.0000      -0.520174       -14.1546
 214   2.0000      -0.517925       -14.0935
 215   2.0000      -0.517048       -14.0696
 216   2.0000      -0.516698       -14.0601
 217   2.0000      -0.515858       -14.0372
 218   2.0000      -0.512927       -13.9574
 219   2.0000      -0.511087       -13.9074
 220   2.0000      -0.508530       -13.8378
 221   2.0000      -0.507142       -13.8000
 222   2.0000      -0.502559       -13.6753
 223   2.0000      -0.501592       -13.6490
 224   2.0000      -0.499058       -13.5801
 225   2.0000      -0.498423       -13.5628
 226   2.0000      -0.497635       -13.5413
 227   2.0000      -0.497106       -13.5269
 228   2.0000      -0.492144       -13.3919
 229   2.0000      -0.490533       -13.3481
 230   2.0000      -0.486615       -13.2415
 231   2.0000      -0.484032       -13.1712
 232   2.0000      -0.479965       -13.0605
 233   2.0000      -0.475803       -12.9473
 234   2.0000      -0.468635       -12.7522
 235   2.0000      -0.466041       -12.6816
 236   2.0000      -0.465527       -12.6676
 237   2.0000      -0.463355       -12.6085
 238   2.0000      -0.457559       -12.4508
 239   2.0000      -0.456461       -12.4209
 240   2.0000      -0.455041       -12.3823
 241   2.0000      -0.453168       -12.3313
 242   2.0000      -0.452593       -12.3157
 243   2.0000      -0.451143       -12.2762
 244   2.0000      -0.449877       -12.2418
 245   2.0000      -0.448431       -12.2024
 246   2.0000      -0.447044       -12.1647
 247   2.0000      -0.445063       -12.1108
 248   2.0000      -0.441820       -12.0225
 249   2.0000      -0.436398       -11.8750
 250   2.0000      -0.432858       -11.7787
 251   2.0000      -0.430933       -11.7263
 252   2.0000      -0.429463       -11.6863
 253   2.0000      -0.427815       -11.6414
 254   2.0000      -0.423211       -11.5162
 255   2.0000      -0.419287       -11.4094
 256   2.0000      -0.418551       -11.3893
 257   2.0000      -0.412478       -11.2241
 258   2.0000      -0.402961       -10.9651
 259   2.0000      -0.396745       -10.7960
 260   2.0000      -0.396681       -10.7943
 261   2.0000      -0.391963       -10.6659
 262   2.0000      -0.391131       -10.6432
 263   2.0000      -0.388642       -10.5755
 264   2.0000      -0.388271       -10.5654
 265   2.0000      -0.380934       -10.3657
 266   2.0000      -0.379873       -10.3369
 267   2.0000      -0.378617       -10.3027
 268   2.0000      -0.374608       -10.1936
 269   2.0000      -0.364898        -9.9294
 270   2.0000      -0.359937        -9.7944
 271   2.0000      -0.352737        -9.5985
 272   2.0000      -0.345887        -9.4121
 273   2.0000      -0.344052        -9.3621
 274   2.0000      -0.343201        -9.3390
 275   2.0000      -0.336381        -9.1534
 276   2.0000      -0.333595        -9.0776
 277   2.0000      -0.329251        -8.9594
 278   2.0000      -0.322326        -8.7709
 279   2.0000      -0.318886        -8.6773
 280   2.0000      -0.303885        -8.2691
 281   2.0000      -0.300924        -8.1885
 282   2.0000      -0.294949        -8.0260
 283   2.0000      -0.258869        -7.0442
 284   0.0000      -0.116744        -3.1768
 285   0.0000      -0.095186        -2.5901
 286   0.0000      -0.076835        -2.0908
 287   0.0000      -0.072773        -1.9802
 288   0.0000      -0.061663        -1.6779

MULLIKEN ATOMIC CHARGES
-----------------------
   0 C :    0.302274
   1 C :   -0.339364
   2 C :   -0.188725
   3 N :    0.160713
   4 C :   -0.190411
   5 N :    0.166188
   6 C :    0.017851
   7 C :   -0.011897
   8 C :   -0.070183
   9 C :    0.119908
  10 C :   -0.087125
  11 C :   -0.022764
  12 S :    0.191389
  13 C :   -0.122110
  14 C :    0.038488
  15 Br:    0.030223
  16 C :    0.151887
  17 O :   -0.127432
  18 C :   -0.055873
  19 C :    0.022507
  20 C :   -0.041205
  21 N :   -0.071262
  22 C :    0.087726
  23 C :   -0.050313
  24 C :    0.032755
  25 N :   -0.070412
  26 C :    0.018792
  27 C :    0.083716
  28 N :   -0.024215
  29 C :   -0.096686
  30 S :    0.155326
  31 C :    0.002265
  32 N :    0.277968
  33 O :   -0.240862
  34 O :   -0.262977
  35 C :    0.017834
  36 C :    0.114240
  37 C :   -0.024643
  38 C :   -0.004111
  39 C :   -0.049154
  40 S :    0.162353
  41 C :   -0.120745
  42 C :    0.158135
  43 C :    0.110484
  44 C :   -0.016997
  45 C :   -0.038552
  46 C :    0.033294
  47 O :   -0.129173
  48 C :    0.484672
  49 F :   -0.172713
  50 F :   -0.170274
  51 F :   -0.128638
  52 C :    0.018927
  53 C :   -0.016919
  54 C :    0.014124
  55 C :   -0.136270
  56 C :    0.138103
  57 O :   -0.145530
  58 C :    0.013676
  59 C :   -0.081968
  60 C :    0.112234
  61 C :    0.113486
  62 C :   -0.106207
  63 C :    0.240526
  64 C :    0.239384
  65 C :   -0.104134
  66 F :   -0.170897
  67 F :   -0.171130
  68 C :   -0.085010
  69 C :    0.039250
  70 C :    0.249998
  71 C :   -0.336821
  72 C :   -0.219236
  73 N :    0.173027
  74 C :   -0.167754
  75 N :    0.143318
  76 H :   -0.006639
  77 H :   -0.003499
  78 H :   -0.000709
  79 H :    0.046947
  80 H :    0.010565
  81 H :   -0.006172
  82 H :   -0.003960
  83 H :    0.036472
  84 H :    0.142054
  85 H :    0.017854
  86 H :   -0.014459
  87 H :   -0.005204
  88 H :    0.001082
  89 H :    0.012721
  90 H :   -0.006500
  91 H :    0.023869
  92 H :   -0.008295
  93 H :    0.004129
  94 H :    0.000673
  95 H :   -0.007277
Sum of atomic charges:   -0.0000000

LOEWDIN ATOMIC CHARGES
----------------------
   0 C :    0.075531
   1 C :   -0.127837
   2 C :   -0.018014
   3 N :   -0.044100
   4 C :   -0.020186
   5 N :   -0.041513
   6 C :   -0.022104
   7 C :   -0.049718
   8 C :    0.023812
   9 C :   -0.028883
  10 C :   -0.142187
  11 C :   -0.007677
  12 S :    0.436058
  13 C :   -0.268749
  14 C :   -0.070264
  15 Br:    0.142641
  16 C :    0.086479
  17 O :   -0.122610
  18 C :   -0.059050
  19 C :    0.070498
  20 C :    0.024313
  21 N :   -0.078243
  22 C :    0.058137
  23 C :   -0.059433
  24 C :    0.038919
  25 N :   -0.085655
  26 C :   -0.068729
  27 C :    0.041158
  28 N :    0.048207
  29 C :   -0.085707
  30 S :    0.463106
  31 C :   -0.204681
  32 N :    0.273081
  33 O :   -0.207501
  34 O :   -0.228841
  35 C :    0.011541
  36 C :   -0.114048
  37 C :    0.004577
  38 C :   -0.050236
  39 C :   -0.118110
  40 S :    0.515089
  41 C :   -0.192991
  42 C :    0.001326
  43 C :   -0.054211
  44 C :    0.034968
  45 C :   -0.083193
  46 C :    0.040107
  47 O :   -0.095318
  48 C :    0.140902
  49 F :   -0.065107
  50 F :   -0.062015
  51 F :   -0.030078
  52 C :    0.027090
  53 C :   -0.010748
  54 C :    0.048119
  55 C :   -0.109486
  56 C :    0.081353
  57 O :   -0.146603
  58 C :   -0.053070
  59 C :    0.030141
  60 C :   -0.009526
  61 C :   -0.006109
  62 C :   -0.031125
  63 C :    0.066992
  64 C :    0.066963
  65 C :   -0.032440
  66 F :   -0.048475
  67 F :   -0.048845
  68 C :    0.010778
  69 C :   -0.020045
  70 C :    0.060583
  71 C :   -0.155289
  72 C :   -0.039585
  73 N :   -0.052237
  74 C :   -0.021166
  75 N :   -0.058706
  76 H :    0.042350
  77 H :    0.041711
  78 H :    0.039931
  79 H :    0.050901
  80 H :    0.029286
  81 H :    0.031397
  82 H :    0.037044
  83 H :    0.025500
  84 H :    0.099900
  85 H :    0.047482
  86 H :    0.018809
  87 H :    0.036927
  88 H :    0.027564
  89 H :    0.041489
  90 H :    0.036797
  91 H :    0.049864
  92 H :    0.040923
  93 H :    0.046532
  94 H :    0.045129
  95 H :    0.038434

  Mayer bond orders larger than 0.100000
B(  0-C ,  1-C ) :   1.6675 B(  0-C ,  6-C ) :   1.0210 B(  0-C , 18-C ) :   1.0191
B(  1-C ,  2-C ) :   1.1361 B(  1-C ,  4-C ) :   1.1411 B(  2-C ,  3-N ) :   2.9774
B(  4-C ,  5-N ) :   2.9820 B(  6-C ,  7-C ) :   1.2700 B(  6-C , 11-C ) :   1.3969
B(  7-C ,  8-C ) :   1.4192 B(  7-C , 16-C ) :   0.9362 B(  8-C ,  9-C ) :   1.2548
B(  8-C , 76-H ) :   1.0159 B(  9-C , 10-C ) :   1.2948 B(  9-C , 14-C ) :   1.1639
B( 10-C , 11-C ) :   1.3445 B( 10-C , 12-S ) :   1.0865 B( 11-C , 77-H ) :   0.9795
B( 12-S , 13-C ) :   1.0873 B( 13-C , 14-C ) :   1.6156 B( 13-C , 15-Br) :   1.0234
B( 14-C , 78-H ) :   1.0005 B( 16-C , 17-O ) :   2.2576 B( 16-C , 18-C ) :   0.9100
B( 18-C , 19-C ) :   1.8343 B( 19-C , 20-C ) :   0.9496 B( 19-C , 79-H ) :   0.9307
B( 20-C , 21-N ) :   1.5006 B( 20-C , 25-N ) :   1.5188 B( 21-N , 22-C ) :   1.5361
B( 22-C , 23-C ) :   1.3952 B( 22-C , 80-H ) :   0.9786 B( 23-C , 24-C ) :   1.3519
B( 23-C , 81-H ) :   0.9655 B( 24-C , 25-N ) :   1.4927 B( 24-C , 26-C ) :   1.0961
B( 26-C , 27-C ) :   1.6921 B( 26-C , 82-H ) :   0.9670 B( 27-C , 28-N ) :   1.1114
B( 27-C , 83-H ) :   0.9518 B( 28-N , 29-C ) :   1.2527 B( 28-N , 84-H ) :   0.9143
B( 29-C , 30-S ) :   1.1434 B( 29-C , 36-C ) :   1.3227 B( 30-S , 31-C ) :   1.0590
B( 31-C , 32-N ) :   0.9671 B( 31-C , 35-C ) :   1.5245 B( 32-N , 33-O ) :   1.5383
B( 32-N , 34-O ) :   1.5084 B( 33-O , 34-O ) :   0.2602 B( 35-C , 36-C ) :   1.2134
B( 35-C , 85-H ) :   0.9977 B( 36-C , 37-C ) :   1.1074 B( 37-C , 38-C ) :   1.6491
B( 37-C , 86-H ) :   0.9674 B( 38-C , 39-C ) :   1.1990 B( 38-C , 87-H ) :   0.9651
B( 39-C , 40-S ) :   1.2018 B( 39-C , 43-C ) :   1.2562 B( 40-S , 41-C ) :   1.0962
B( 41-C , 42-C ) :   1.2906 B( 41-C , 54-C ) :   1.2146 B( 42-C , 43-C ) :   1.2212
B( 42-C , 53-C ) :   1.2125 B( 43-C , 44-C ) :   1.2351 B( 44-C , 45-C ) :   1.4720
B( 44-C , 88-H ) :   0.9564 B( 45-C , 46-C ) :   0.9461 B( 45-C , 52-C ) :   1.2197
B( 46-C , 47-O ) :   2.2117 B( 46-C , 48-C ) :   0.8741 B( 48-C , 49-F ) :   1.1178
B( 48-C , 50-F ) :   1.1087 B( 48-C , 51-F ) :   1.2013 B( 52-C , 53-C ) :   1.5292
B( 52-C , 89-H ) :   0.9901 B( 53-C , 90-H ) :   0.9929 B( 54-C , 55-C ) :   1.5823
B( 54-C , 91-H ) :   0.9356 B( 55-C , 56-C ) :   0.9510 B( 55-C , 70-C ) :   1.0579
B( 56-C , 57-O ) :   2.2582 B( 56-C , 58-C ) :   0.9184 B( 58-C , 59-C ) :   1.4813
B( 58-C , 69-C ) :   1.2194 B( 59-C , 60-C ) :   1.1907 B( 59-C , 92-H ) :   1.0156
B( 60-C , 61-C ) :   1.2583 B( 60-C , 65-C ) :   1.1952 B( 61-C , 62-C ) :   1.1902
B( 61-C , 68-C ) :   1.2113 B( 62-C , 63-C ) :   1.4412 B( 62-C , 65-C ) :   0.1087
B( 62-C , 93-H ) :   1.0065 B( 63-C , 64-C ) :   1.1933 B( 63-C , 67-F ) :   1.1346
B( 64-C , 65-C ) :   1.4420 B( 64-C , 66-F ) :   1.1343 B( 65-C , 94-H ) :   1.0067
B( 68-C , 69-C ) :   1.4593 B( 68-C , 95-H ) :   0.9941 B( 69-C , 70-C ) :   1.0024
B( 70-C , 71-C ) :   1.6274 B( 71-C , 72-C ) :   1.1591 B( 71-C , 74-C ) :   1.1326
B( 72-C , 73-N ) :   3.0241 B( 74-C , 75-N ) :   2.9815

-----------------------------------------------------------------------------
         ABSORPTION SPECTRUM VIA TRANSITION ELECTRIC DIPOLE MOMENTS
-----------------------------------------------------------------------------
State   Energy  Wavelength   fosc         T2         TX        TY        TZ
        (cm-1)    (nm)                  (au**2)     (au)      (au)      (au)
-----------------------------------------------------------------------------
   0   14350.4    696.8   0.570037866  13.07723   0.20754  -1.48881  -3.28901
   1   22934.3    436.0   0.771573492  11.07560  -2.20665   2.38556  -0.71790
   2   23383.3    427.7   0.029167740   0.41065  -0.21165   0.60447  -0.02166
   3   25235.1    396.3   0.097392307   1.27056  -0.89901   0.46188  -0.49901
   4   25498.2    392.2   0.375516406   4.84835   1.88181  -0.02200   1.14309
   5   26191.5    381.8   0.121253748   1.52409  -0.99205  -0.06093  -0.73227
   6   27044.1    369.8   0.140333888   1.70831   0.88197   0.06681   0.96228
   7   27338.9    365.8   0.165746249   1.99590   0.79614   0.67485   0.95218
   8   27999.8    357.1   0.322180478   3.78808   0.68961  -1.67794   0.70500
   9   28578.4    349.9   0.036846608   0.42446   0.49485   0.12425   0.40515
  10   28691.9    348.5   0.060454256   0.69365   0.06725  -0.81370   0.16439
  11   30043.5    332.9   0.079742805   0.87381   0.40907  -0.71573   0.44067
  12   30544.0    327.4   0.122754557   1.32308   0.99202   0.17479   0.55536
  13   30727.9    325.4   0.267693888   2.86802  -1.32883   0.75448  -0.73005
  14   31678.2    315.7   0.027443474   0.28520   0.47304  -0.24053   0.05985
  15   31933.4    313.2   0.053921038   0.55589   0.71467  -0.20957   0.03496
  16   32144.8    311.1   0.179678483   1.84018   1.07833  -0.02445   0.82267
  17   32510.2    307.6   0.069749910   0.70632   0.66522  -0.26027   0.44279
  18   32580.8    306.9   0.393576235   3.97689  -1.21295  -0.99485  -1.23122
  19   32756.2    305.3   0.024870504   0.24996  -0.40640   0.07288  -0.28192
  20   33116.8    302.0   0.459922300   4.57206   1.62363   0.19788   1.37722
  21   33448.5    299.0   0.144676491   1.42396   1.12128  -0.39209  -0.11379
  22   33712.4    296.6   0.000186339   0.00182  -0.00261   0.01860  -0.03830
  23   33764.2    296.2   0.055233663   0.53855   0.50681  -0.19210   0.49476
  24   33940.9    294.6   0.019884246   0.19287  -0.29846  -0.13628  -0.29192
  25   34014.3    294.0   0.939037070   9.08860  -1.25541   2.59811  -0.87314
  26   34129.0    293.0   0.108759115   1.04910   0.96937   0.30859  -0.11913
  27   34687.9    288.3   0.087480184   0.83025  -0.85230   0.32196   0.01342
  28   34853.9    286.9   0.119647095   1.13013  -0.24416  -0.97228  -0.35381
  29   35272.2    283.5   0.028689498   0.26777  -0.31055  -0.19912  -0.36289
  30   35291.1    283.4   0.002830566   0.02640  -0.06273  -0.13894  -0.05627
  31   35717.5    280.0   0.026368237   0.24304   0.29563   0.39140   0.04948
  32   35885.9    278.7   0.027097169   0.24859  -0.32916  -0.35725  -0.11230
  33   36428.1    274.5   0.040030867   0.36177  -0.29442   0.47922   0.21317
  34   37717.7    265.1   0.003862866   0.03372  -0.00471   0.17300   0.06136
  35   37821.5    264.4   0.009946620   0.08658   0.02009   0.20149  -0.21349
  36   38086.6    262.6   0.346855515   2.99814  -0.83389  -1.21780  -0.90538
  37   38385.5    260.5   0.109403263   0.93829  -0.54374   0.63065  -0.49490
  38   38572.2    259.3   0.035045089   0.29911  -0.13686  -0.51399  -0.12726
  39   38833.8    257.5   0.020366082   0.17265  -0.27975   0.09617  -0.29179
  40   39200.2    255.1   0.005063567   0.04252  -0.16453   0.10746  -0.06250
  41   39277.3    254.6   0.072402701   0.60686  -0.71930   0.11055  -0.27794
  42   39605.7    252.5   0.064195440   0.53361   0.54239  -0.24135   0.42564
  43   39741.2    251.6   0.070843959   0.58686   0.34010  -0.47015   0.50016
  44   39886.7    250.7   0.510494003   4.21345   1.75520  -0.33558   1.01000
  45   40032.3    249.8   0.041133023   0.33826   0.34991   0.44956   0.11717
  46   40221.3    248.6   0.012002417   0.09824   0.16774  -0.26095   0.04483
  47   40317.1    248.0   0.028614481   0.23365  -0.37994   0.23112  -0.18942

FINAL SINGLE POINT ENERGY     -7147.012880918735

DIPOLE MOMENT
-------------
                                X             Y             Z
Electronic contribution:     96.24542     -68.78509      40.60543
Nuclear contribution   :    -94.35353      67.21937     -40.33747
                        -----------------------------------------
Total Dipole Moment    :      1.89190      -1.56572       0.26796
                        -----------------------------------------
Magnitude (a.u.)       :      2.47033
Magnitude (Debye)      :      6.27909

Rotational constants in cm-1:     0.000886     0.000256     0.000211
Rotational constants in MHz :    26.549325     7.663160     6.318272

                             ****ORCA TERMINATED NORMALLY****
TOTAL RUN TIME: 0 days 0 hours 19 minutes 19 seconds 500 msec
