                         Program Version 4.2.0 -  RELEASE  -
|  1> # ORCA input file
|  2> # SCF done       -196.116629302720          0.000977207857
|  3> ! CAM-B3LYP def2-SVP def2/J RIJCOSX Grid4 TightSCF
|  4> %maxcore 5000
|  5> %tddft
|  6>     Mode sTDDFT
|  7>     Ethresh 5.0
|  8>     maxcore 5000
|  9> end
| 10>
| 11> %pal
| 12>   nprocs 6
| 13>   end
| 14> * xyz 0 1
| 15>    C      -17.02116        -6.96736        -8.25317
| 16>    C      -16.16841        -7.74382        -7.50025
| 17>    C      -15.73387        -9.03095        -7.87304
| 18>    N      -15.34113       -10.08476        -8.10944
| 19>    C      -15.60440        -7.39130        -6.25878
| 20>    N      -15.09750        -7.19795        -5.24503
| 21>    C      -17.60271        -7.36133        -9.53520
| 22>    C      -18.44225        -6.31646        -9.99259
| 23>    C      -19.13001        -6.38373       -11.17849
| 24>    C      -18.98162        -7.53885       -11.95490
| 25>    C      -18.14174        -8.57704       -11.49022
| 26>    C      -17.44684        -8.50894       -10.28795
| 27>    S      -18.09769        -9.91065       -12.60363
| 28>    C      -19.19317        -9.06531       -13.66442
| 29>    C      -19.57409        -7.84811       -13.20995
| 30>   Br      -19.72940        -9.86960       -15.27215
| 31>    C      -18.42163        -5.21134        -9.01089
| 32>    O      -19.03564        -4.16524        -9.09064
| 33>    C      -17.50453        -5.64899        -7.94018
| 34>    C      -17.15404        -4.88339        -6.84425
| 35>    C      -17.62006        -3.60312        -6.57420
| 36>    C      -17.17716        -2.86748        -5.48626
| 37>    C      -17.54607        -1.55451        -5.13248
| 38>    C      -16.89964        -1.07270        -4.02496
| 39>    C      -15.99833        -1.99004        -3.45905
| 40>    S      -15.99678        -3.48661        -4.35342
| 41>    C      -15.14986        -1.82375        -2.36595
| 42>    C      -14.93721        -0.68364        -1.57362
| 43>    C      -13.97418        -0.85749        -0.61460
| 44>    C      -13.39601        -2.14117        -0.60830
| 45>    S      -14.12239        -3.13370        -1.84826
| 46>    C      -12.37141        -2.58414         0.21307
| 47>    C      -11.80911        -3.84955         0.21127
| 48>    S      -12.34346        -5.20643        -0.76804
| 49>    C      -11.10732        -6.31872        -0.16992
| 50>    C      -10.30527        -5.63236         0.77765
| 51>    C      -10.71976        -4.29706         0.97359
| 52>    O       -9.97974        -3.68376         1.90522
| 53>    C       -9.08977        -4.61867         2.32920
| 54>    N       -8.17494        -4.25771         3.34424
| 55>    O       -7.41213        -5.12855         3.71778
| 56>    O       -8.21798        -3.12239         3.76811
| 57>    C       -9.23833        -5.82376         1.68423
| 58>    C      -11.14992        -7.60807        -0.65615
| 59>    C      -10.23683        -8.65197        -0.54337
| 60>    C      -10.47833        -9.96262        -0.99204
| 61>    C       -9.41354       -10.81293        -0.84491
| 62>    C       -8.27523       -10.19542        -0.30491
| 63>    S       -8.60490        -8.52233         0.05873
| 64>    C       -7.01321       -10.75445        -0.10694
| 65>    C       -6.64109       -12.10063        -0.27033
| 66>    C       -5.31092       -12.33053        -0.05019
| 67>    C       -4.57688       -11.17255         0.27679
| 68>    S       -5.63528        -9.78387         0.33811
| 69>    C       -3.20563       -11.09429         0.44354
| 70>    C       -2.51555        -9.91292         0.68882
| 71>    C       -1.14913        -9.73083         0.69372
| 72>    C       -0.07406       -10.55638         0.21772
| 73>    C       -0.13312       -11.50155        -0.78196
| 74>    C        0.97623       -12.24930        -1.22190
| 75>    N        1.83773       -12.90608        -1.60380
| 76>    C       -1.27025       -11.75712        -1.57299
| 77>    N       -2.14551       -11.98289        -2.28224
| 78>    C        1.16175       -10.05184         0.81644
| 79>    C        0.87975        -8.82684         1.47181
| 80>    C       -0.56764        -8.54465         1.36594
| 81>    O       -1.16492        -7.57132         1.76863
| 82>    C        1.85085        -8.08195         2.09355
| 83>    C        3.16099        -8.57445         2.07869
| 84>    C        3.42866        -9.80566         1.43607
| 85>    C        2.44677       -10.55600         0.79854
| 86>    S        5.10905       -10.23257         1.54599
| 87>    C        5.42641        -8.76768         2.43718
| 88>    C        4.33156        -7.99879         2.64487
| 89>   Br        7.17296        -8.39400         3.00982
| 90>    H      -19.76164        -5.57055       -11.50011
| 91>    H      -16.81816        -9.32735        -9.98007
| 92>    H      -20.24411        -7.19359       -13.73680
| 93>    H      -16.44443        -5.30013        -6.13963
| 94>    H      -18.33892        -3.14971        -7.24109
| 95>    H      -18.26808        -1.00035        -5.70513
| 96>    H      -17.05186        -0.09062        -3.61483
| 97>    H      -15.47684         0.23286        -1.72874
| 98>    H      -13.66487        -0.09623         0.07925
| 99>    H      -11.94925        -1.87548         0.91357
|100>    H       -8.64706        -6.69483         1.87070
|101>    H      -12.02582        -7.84137        -1.25066
|102>    H      -11.42761       -10.24894        -1.40829
|103>    H       -9.42306       -11.84661        -1.13789
|104>    H       -7.34972       -12.86350        -0.53676
|105>    H       -4.83546       -13.29063        -0.13836
|106>    H       -2.66149       -12.02474         0.36617
|107>    H       -3.09518        -9.03762         0.96733
|108>    H        1.60977        -7.14774         2.57584
|109>    H        2.69893       -11.49024         0.32497
|110>    H        4.34613        -7.06407         3.17500
|111> *
|112>
|113>                          ****END OF INPUT****

CARTESIAN COORDINATES (ANGSTROEM)
---------------------------------
  C    -17.021160   -6.967360   -8.253170
  C    -16.168410   -7.743820   -7.500250
  C    -15.733870   -9.030950   -7.873040
  N    -15.341130  -10.084760   -8.109440
  C    -15.604400   -7.391300   -6.258780
  N    -15.097500   -7.197950   -5.245030
  C    -17.602710   -7.361330   -9.535200
  C    -18.442250   -6.316460   -9.992590
  C    -19.130010   -6.383730  -11.178490
  C    -18.981620   -7.538850  -11.954900
  C    -18.141740   -8.577040  -11.490220
  C    -17.446840   -8.508940  -10.287950
  S    -18.097690   -9.910650  -12.603630
  C    -19.193170   -9.065310  -13.664420
  C    -19.574090   -7.848110  -13.209950
  Br   -19.729400   -9.869600  -15.272150
  C    -18.421630   -5.211340   -9.010890
  O    -19.035640   -4.165240   -9.090640
  C    -17.504530   -5.648990   -7.940180
  C    -17.154040   -4.883390   -6.844250
  C    -17.620060   -3.603120   -6.574200
  C    -17.177160   -2.867480   -5.486260
  C    -17.546070   -1.554510   -5.132480
  C    -16.899640   -1.072700   -4.024960
  C    -15.998330   -1.990040   -3.459050
  S    -15.996780   -3.486610   -4.353420
  C    -15.149860   -1.823750   -2.365950
  C    -14.937210   -0.683640   -1.573620
  C    -13.974180   -0.857490   -0.614600
  C    -13.396010   -2.141170   -0.608300
  S    -14.122390   -3.133700   -1.848260
  C    -12.371410   -2.584140    0.213070
  C    -11.809110   -3.849550    0.211270
  S    -12.343460   -5.206430   -0.768040
  C    -11.107320   -6.318720   -0.169920
  C    -10.305270   -5.632360    0.777650
  C    -10.719760   -4.297060    0.973590
  O     -9.979740   -3.683760    1.905220
  C     -9.089770   -4.618670    2.329200
  N     -8.174940   -4.257710    3.344240
  O     -7.412130   -5.128550    3.717780
  O     -8.217980   -3.122390    3.768110
  C     -9.238330   -5.823760    1.684230
  C    -11.149920   -7.608070   -0.656150
  C    -10.236830   -8.651970   -0.543370
  C    -10.478330   -9.962620   -0.992040
  C     -9.413540  -10.812930   -0.844910
  C     -8.275230  -10.195420   -0.304910
  S     -8.604900   -8.522330    0.058730
  C     -7.013210  -10.754450   -0.106940
  C     -6.641090  -12.100630   -0.270330
  C     -5.310920  -12.330530   -0.050190
  C     -4.576880  -11.172550    0.276790
  S     -5.635280   -9.783870    0.338110
  C     -3.205630  -11.094290    0.443540
  C     -2.515550   -9.912920    0.688820
  C     -1.149130   -9.730830    0.693720
  C     -0.074060  -10.556380    0.217720
  C     -0.133120  -11.501550   -0.781960
  C      0.976230  -12.249300   -1.221900
  N      1.837730  -12.906080   -1.603800
  C     -1.270250  -11.757120   -1.572990
  N     -2.145510  -11.982890   -2.282240
  C      1.161750  -10.051840    0.816440
  C      0.879750   -8.826840    1.471810
  C     -0.567640   -8.544650    1.365940
  O     -1.164920   -7.571320    1.768630
  C      1.850850   -8.081950    2.093550
  C      3.160990   -8.574450    2.078690
  C      3.428660   -9.805660    1.436070
  C      2.446770  -10.556000    0.798540
  S      5.109050  -10.232570    1.545990
  C      5.426410   -8.767680    2.437180
  C      4.331560   -7.998790    2.644870
  Br     7.172960   -8.394000    3.009820
  H    -19.761640   -5.570550  -11.500110
  H    -16.818160   -9.327350   -9.980070
  H    -20.244110   -7.193590  -13.736800
  H    -16.444430   -5.300130   -6.139630
  H    -18.338920   -3.149710   -7.241090
  H    -18.268080   -1.000350   -5.705130
  H    -17.051860   -0.090620   -3.614830
  H    -15.476840    0.232860   -1.728740
  H    -13.664870   -0.096230    0.079250
  H    -11.949250   -1.875480    0.913570
  H     -8.647060   -6.694830    1.870700
  H    -12.025820   -7.841370   -1.250660
  H    -11.427610  -10.248940   -1.408290
  H     -9.423060  -11.846610   -1.137890
  H     -7.349720  -12.863500   -0.536760
  H     -4.835460  -13.290630   -0.138360
  H     -2.661490  -12.024740    0.366170
  H     -3.095180   -9.037620    0.967330
  H      1.609770   -7.147740    2.575840
  H      2.698930  -11.490240    0.324970
  H      4.346130   -7.064070    3.175000

 Total Charge           Charge          ....    0
 Multiplicity           Mult            ....    1
 Number of Electrons    NEL             ....  614
 Basis Dimension        Dim             .... 1219

ORBITAL ENERGIES
----------------

  NO   OCC          E(Eh)            E(eV)
   0   2.0000    -482.880099    -13139.8355
   1   2.0000    -482.880034    -13139.8337
   2   2.0000     -88.988027     -2421.4873
   3   2.0000     -88.978147     -2421.2185
   4   2.0000     -88.974443     -2421.1177
   5   2.0000     -88.969618     -2420.9864
   6   2.0000     -88.968675     -2420.9607
   7   2.0000     -88.968625     -2420.9594
   8   2.0000     -88.965277     -2420.8683
   9   2.0000     -62.557805     -1702.2844
  10   2.0000     -62.557722     -1702.2822
  11   2.0000     -56.391746     -1534.4974
  12   2.0000     -56.391665     -1534.4952
  13   2.0000     -56.389047     -1534.4240
  14   2.0000     -56.389012     -1534.4230
  15   2.0000     -56.388964     -1534.4217
  16   2.0000     -56.388929     -1534.4208
  17   2.0000     -19.331235      -526.0296
  18   2.0000     -19.250521      -523.8333
  19   2.0000     -19.248805      -523.7866
  20   2.0000     -19.205159      -522.5989
  21   2.0000     -19.204261      -522.5745
  22   2.0000     -14.663323      -399.0093
  23   2.0000     -14.407479      -392.0474
  24   2.0000     -14.406913      -392.0320
  25   2.0000     -14.405344      -391.9893
  26   2.0000     -14.403588      -391.9416
  27   2.0000     -10.397950      -282.9426
  28   2.0000     -10.372105      -282.2393
  29   2.0000     -10.355234      -281.7802
  30   2.0000     -10.354882      -281.7707
  31   2.0000     -10.351976      -281.6916
  32   2.0000     -10.351839      -281.6879
  33   2.0000     -10.345921      -281.5268
  34   2.0000     -10.341089      -281.3953
  35   2.0000     -10.340455      -281.3781
  36   2.0000     -10.340242      -281.3723
  37   2.0000     -10.337597      -281.3003
  38   2.0000     -10.335116      -281.2328
  39   2.0000     -10.333834      -281.1979
  40   2.0000     -10.332806      -281.1699
  41   2.0000     -10.332499      -281.1616
  42   2.0000     -10.332071      -281.1499
  43   2.0000     -10.330998      -281.1207
  44   2.0000     -10.329992      -281.0934
  45   2.0000     -10.328924      -281.0643
  46   2.0000     -10.327210      -281.0177
  47   2.0000     -10.324816      -280.9525
  48   2.0000     -10.320995      -280.8486
  49   2.0000     -10.319825      -280.8167
  50   2.0000     -10.318319      -280.7757
  51   2.0000     -10.318023      -280.7677
  52   2.0000     -10.317048      -280.7411
  53   2.0000     -10.311776      -280.5977
  54   2.0000     -10.311326      -280.5854
  55   2.0000     -10.310361      -280.5592
  56   2.0000     -10.310220      -280.5554
  57   2.0000     -10.310000      -280.5494
  58   2.0000     -10.309856      -280.5454
  59   2.0000     -10.309338      -280.5313
  60   2.0000     -10.308811      -280.5170
  61   2.0000     -10.308040      -280.4960
  62   2.0000     -10.307975      -280.4943
  63   2.0000     -10.306295      -280.4485
  64   2.0000     -10.302223      -280.3377
  65   2.0000     -10.301494      -280.3179
  66   2.0000     -10.300297      -280.2853
  67   2.0000     -10.299507      -280.2638
  68   2.0000     -10.299086      -280.2524
  69   2.0000     -10.298882      -280.2468
  70   2.0000     -10.298210      -280.2285
  71   2.0000     -10.297251      -280.2025
  72   2.0000     -10.295892      -280.1655
  73   2.0000     -10.293169      -280.0914
  74   2.0000     -10.293097      -280.0894
  75   2.0000     -10.291881      -280.0563
  76   2.0000     -10.290101      -280.0079
  77   2.0000     -10.290061      -280.0068
  78   2.0000     -10.286289      -279.9041
  79   2.0000     -10.283865      -279.8382
  80   2.0000     -10.282573      -279.8030
  81   2.0000     -10.282104      -279.7903
  82   2.0000     -10.281458      -279.7727
  83   2.0000      -8.787228      -239.1126
  84   2.0000      -8.787135      -239.1101
  85   2.0000      -8.082741      -219.9426
  86   2.0000      -8.074209      -219.7104
  87   2.0000      -8.070720      -219.6155
  88   2.0000      -8.065983      -219.4866
  89   2.0000      -8.064719      -219.4522
  90   2.0000      -8.064506      -219.4464
  91   2.0000      -8.061382      -219.3613
  92   2.0000      -6.623479      -180.2340
  93   2.0000      -6.623385      -180.2315
  94   2.0000      -6.608983      -179.8396
  95   2.0000      -6.608889      -179.8370
  96   2.0000      -6.608802      -179.8346
  97   2.0000      -6.608705      -179.8320
  98   2.0000      -6.052264      -164.6905
  99   2.0000      -6.048101      -164.5772
 100   2.0000      -6.044347      -164.4750
 101   2.0000      -6.043799      -164.4601
 102   2.0000      -6.040360      -164.3666
 103   2.0000      -6.039668      -164.3477
 104   2.0000      -6.036127      -164.2514
 105   2.0000      -6.035578      -164.2364
 106   2.0000      -6.035499      -164.2343
 107   2.0000      -6.034425      -164.2050
 108   2.0000      -6.034201      -164.1990
 109   2.0000      -6.031911      -164.1366
 110   2.0000      -6.031500      -164.1255
 111   2.0000      -6.030936      -164.1101
 112   2.0000      -6.030138      -164.0884
 113   2.0000      -6.029923      -164.0825
 114   2.0000      -6.027161      -164.0074
 115   2.0000      -6.026888      -164.0000
 116   2.0000      -6.025913      -163.9734
 117   2.0000      -6.025776      -163.9697
 118   2.0000      -6.022635      -163.8842
 119   2.0000      -2.739368       -74.5420
 120   2.0000      -2.739288       -74.5398
 121   2.0000      -2.735268       -74.4304
 122   2.0000      -2.735177       -74.4279
 123   2.0000      -2.735170       -74.4278
 124   2.0000      -2.735059       -74.4247
 125   2.0000      -2.723627       -74.1137
 126   2.0000      -2.723607       -74.1131
 127   2.0000      -2.723517       -74.1107
 128   2.0000      -2.723514       -74.1106
 129   2.0000      -1.334355       -36.3096
 130   2.0000      -1.252550       -34.0836
 131   2.0000      -1.150746       -31.3134
 132   2.0000      -1.118978       -30.4489
 133   2.0000      -1.118576       -30.4380
 134   2.0000      -1.024957       -27.8905
 135   2.0000      -1.022006       -27.8102
 136   2.0000      -1.014904       -27.6169
 137   2.0000      -1.013824       -27.5876
 138   2.0000      -1.013295       -27.5732
 139   2.0000      -1.005064       -27.3492
 140   2.0000      -1.004533       -27.3347
 141   2.0000      -0.999324       -27.1930
 142   2.0000      -0.995442       -27.0874
 143   2.0000      -0.984923       -26.8011
 144   2.0000      -0.984684       -26.7946
 145   2.0000      -0.980935       -26.6926
 146   2.0000      -0.979340       -26.6492
 147   2.0000      -0.952602       -25.9216
 148   2.0000      -0.936884       -25.4939
 149   2.0000      -0.935178       -25.4475
 150   2.0000      -0.926963       -25.2239
 151   2.0000      -0.919808       -25.0292
 152   2.0000      -0.909601       -24.7515
 153   2.0000      -0.909218       -24.7411
 154   2.0000      -0.900391       -24.5009
 155   2.0000      -0.899330       -24.4720
 156   2.0000      -0.892063       -24.2743
 157   2.0000      -0.881187       -23.9783
 158   2.0000      -0.878034       -23.8925
 159   2.0000      -0.877102       -23.8672
 160   2.0000      -0.871679       -23.7196
 161   2.0000      -0.869738       -23.6668
 162   2.0000      -0.868709       -23.6388
 163   2.0000      -0.856736       -23.3130
 164   2.0000      -0.846919       -23.0458
 165   2.0000      -0.844211       -22.9722
 166   2.0000      -0.841815       -22.9070
 167   2.0000      -0.827862       -22.5273
 168   2.0000      -0.821579       -22.3563
 169   2.0000      -0.820700       -22.3324
 170   2.0000      -0.808763       -22.0076
 171   2.0000      -0.803611       -21.8674
 172   2.0000      -0.787837       -21.4381
 173   2.0000      -0.774997       -21.0887
 174   2.0000      -0.761787       -20.7293
 175   2.0000      -0.752797       -20.4846
 176   2.0000      -0.749278       -20.3889
 177   2.0000      -0.739908       -20.1339
 178   2.0000      -0.735438       -20.0123
 179   2.0000      -0.718009       -19.5380
 180   2.0000      -0.711909       -19.3720
 181   2.0000      -0.702096       -19.1050
 182   2.0000      -0.694829       -18.9073
 183   2.0000      -0.690792       -18.7974
 184   2.0000      -0.686852       -18.6902
 185   2.0000      -0.682354       -18.5678
 186   2.0000      -0.681145       -18.5349
 187   2.0000      -0.675211       -18.3734
 188   2.0000      -0.663937       -18.0666
 189   2.0000      -0.662029       -18.0147
 190   2.0000      -0.658848       -17.9282
 191   2.0000      -0.651796       -17.7363
 192   2.0000      -0.649667       -17.6783
 193   2.0000      -0.649465       -17.6728
 194   2.0000      -0.647140       -17.6096
 195   2.0000      -0.639862       -17.4115
 196   2.0000      -0.638352       -17.3705
 197   2.0000      -0.637682       -17.3522
 198   2.0000      -0.628039       -17.0898
 199   2.0000      -0.625253       -17.0140
 200   2.0000      -0.620516       -16.8851
 201   2.0000      -0.615124       -16.7384
 202   2.0000      -0.614871       -16.7315
 203   2.0000      -0.614338       -16.7170
 204   2.0000      -0.608750       -16.5649
 205   2.0000      -0.595426       -16.2024
 206   2.0000      -0.591499       -16.0955
 207   2.0000      -0.590409       -16.0659
 208   2.0000      -0.587339       -15.9823
 209   2.0000      -0.586073       -15.9478
 210   2.0000      -0.586013       -15.9462
 211   2.0000      -0.577686       -15.7196
 212   2.0000      -0.573635       -15.6094
 213   2.0000      -0.564105       -15.3501
 214   2.0000      -0.556259       -15.1366
 215   2.0000      -0.552023       -15.0213
 216   2.0000      -0.544108       -14.8059
 217   2.0000      -0.539798       -14.6887
 218   2.0000      -0.536495       -14.5988
 219   2.0000      -0.534366       -14.5408
 220   2.0000      -0.533404       -14.5147
 221   2.0000      -0.530005       -14.4222
 222   2.0000      -0.529921       -14.4199
 223   2.0000      -0.528673       -14.3859
 224   2.0000      -0.524106       -14.2616
 225   2.0000      -0.522988       -14.2312
 226   2.0000      -0.522362       -14.2142
 227   2.0000      -0.521161       -14.1815
 228   2.0000      -0.520074       -14.1519
 229   2.0000      -0.516091       -14.0436
 230   2.0000      -0.515300       -14.0220
 231   2.0000      -0.509926       -13.8758
 232   2.0000      -0.508377       -13.8336
 233   2.0000      -0.503104       -13.6901
 234   2.0000      -0.500950       -13.6315
 235   2.0000      -0.500572       -13.6212
 236   2.0000      -0.499736       -13.5985
 237   2.0000      -0.496623       -13.5138
 238   2.0000      -0.495115       -13.4728
 239   2.0000      -0.491718       -13.3803
 240   2.0000      -0.489695       -13.3253
 241   2.0000      -0.488687       -13.2978
 242   2.0000      -0.486292       -13.2327
 243   2.0000      -0.485629       -13.2146
 244   2.0000      -0.484617       -13.1871
 245   2.0000      -0.483451       -13.1554
 246   2.0000      -0.483224       -13.1492
 247   2.0000      -0.479887       -13.0584
 248   2.0000      -0.477460       -12.9924
 249   2.0000      -0.473681       -12.8895
 250   2.0000      -0.463762       -12.6196
 251   2.0000      -0.463673       -12.6172
 252   2.0000      -0.461181       -12.5494
 253   2.0000      -0.459186       -12.4951
 254   2.0000      -0.454436       -12.3658
 255   2.0000      -0.452103       -12.3024
 256   2.0000      -0.450254       -12.2520
 257   2.0000      -0.447796       -12.1851
 258   2.0000      -0.443654       -12.0724
 259   2.0000      -0.443063       -12.0564
 260   2.0000      -0.440891       -11.9972
 261   2.0000      -0.439231       -11.9521
 262   2.0000      -0.438505       -11.9323
 263   2.0000      -0.435445       -11.8491
 264   2.0000      -0.434885       -11.8338
 265   2.0000      -0.433295       -11.7906
 266   2.0000      -0.432418       -11.7667
 267   2.0000      -0.430922       -11.7260
 268   2.0000      -0.427669       -11.6375
 269   2.0000      -0.424504       -11.5513
 270   2.0000      -0.418473       -11.3872
 271   2.0000      -0.417106       -11.3500
 272   2.0000      -0.416039       -11.3210
 273   2.0000      -0.414873       -11.2893
 274   2.0000      -0.412166       -11.2156
 275   2.0000      -0.411907       -11.2086
 276   2.0000      -0.401085       -10.9141
 277   2.0000      -0.399901       -10.8819
 278   2.0000      -0.399007       -10.8575
 279   2.0000      -0.398433       -10.8419
 280   2.0000      -0.396781       -10.7970
 281   2.0000      -0.387762       -10.5515
 282   2.0000      -0.383642       -10.4394
 283   2.0000      -0.381401       -10.3784
 284   2.0000      -0.378886       -10.3100
 285   2.0000      -0.377918       -10.2837
 286   2.0000      -0.373070       -10.1517
 287   2.0000      -0.369605       -10.0575
 288   2.0000      -0.369465       -10.0537
 289   2.0000      -0.360472        -9.8089
 290   2.0000      -0.359501        -9.7825
 291   2.0000      -0.358690        -9.7605
 292   2.0000      -0.351209        -9.5569
 293   2.0000      -0.347655        -9.4602
 294   2.0000      -0.343464        -9.3461
 295   2.0000      -0.336451        -9.1553
 296   2.0000      -0.331719        -9.0265
 297   2.0000      -0.325481        -8.8568
 298   2.0000      -0.324669        -8.8347
 299   2.0000      -0.311778        -8.4839
 300   2.0000      -0.307751        -8.3743
 301   2.0000      -0.307363        -8.3638
 302   2.0000      -0.289022        -7.8647
 303   2.0000      -0.286549        -7.7974
 304   2.0000      -0.283366        -7.7108
 305   2.0000      -0.248707        -6.7677
 306   2.0000      -0.214071        -5.8252
 307   0.0000      -0.140096        -3.8122
 308   0.0000      -0.102522        -2.7898
 309   0.0000      -0.076676        -2.0864
 310   0.0000      -0.062190        -1.6923
 311   0.0000      -0.057965        -1.5773

MULLIKEN ATOMIC CHARGES
-----------------------
   0 C :    0.329841
   1 C :   -0.370129
   2 C :   -0.190003
   3 N :    0.138605
   4 C :   -0.189498
   5 N :    0.124936
   6 C :    0.018365
   7 C :   -0.009160
   8 C :   -0.078920
   9 C :    0.120441
  10 C :   -0.093526
  11 C :   -0.027690
  12 S :    0.181149
  13 C :   -0.122732
  14 C :    0.035011
  15 Br:    0.016968
  16 C :    0.136840
  17 O :   -0.164044
  18 C :   -0.083543
  19 C :   -0.050661
  20 C :   -0.014773
  21 C :    0.003271
  22 C :    0.025545
  23 C :    0.041720
  24 C :   -0.044984
  25 S :    0.104098
  26 C :   -0.015763
  27 C :    0.023487
  28 C :    0.043550
  29 C :   -0.040512
  30 S :    0.093550
  31 C :    0.010008
  32 C :   -0.148486
  33 S :    0.140903
  34 C :   -0.122954
  35 C :    0.128480
  36 C :    0.172189
  37 O :   -0.165614
  38 C :    0.224177
  39 N :    0.279474
  40 O :   -0.244818
  41 O :   -0.231636
  42 C :   -0.089616
  43 C :    0.029274
  44 C :   -0.038408
  45 C :    0.039137
  46 C :    0.031666
  47 C :   -0.037146
  48 S :    0.105244
  49 C :   -0.049058
  50 C :    0.033509
  51 C :    0.049696
  52 C :   -0.022500
  53 S :    0.120122
  54 C :    0.003326
  55 C :    0.021925
  56 C :   -0.121477
  57 C :    0.284112
  58 C :   -0.341790
  59 C :   -0.177563
  60 N :    0.139395
  61 C :   -0.218687
  62 N :    0.157102
  63 C :    0.004984
  64 C :   -0.004054
  65 C :    0.135096
  66 O :   -0.147023
  67 C :   -0.072292
  68 C :    0.111011
  69 C :   -0.088027
  70 C :   -0.023590
  71 S :    0.181174
  72 C :   -0.126091
  73 C :    0.041567
  74 Br:    0.018271
  75 H :   -0.014909
  76 H :   -0.009922
  77 H :   -0.005055
  78 H :    0.016109
  79 H :    0.018747
  80 H :    0.002100
  81 H :   -0.004940
  82 H :   -0.005281
  83 H :    0.000943
  84 H :    0.016293
  85 H :    0.019943
  86 H :    0.010310
  87 H :    0.006780
  88 H :    0.000296
  89 H :    0.000021
  90 H :    0.006043
  91 H :    0.015265
  92 H :    0.018287
  93 H :   -0.011709
  94 H :   -0.006650
  95 H :   -0.005122
Sum of atomic charges:   -0.0000000

LOEWDIN ATOMIC CHARGES
----------------------
   0 C :    0.072418
   1 C :   -0.157901
   2 C :   -0.019392
   3 N :   -0.069576
   4 C :   -0.019413
   5 N :   -0.074469
   6 C :   -0.018072
   7 C :   -0.048949
   8 C :    0.017771
   9 C :   -0.035377
  10 C :   -0.145573
  11 C :   -0.013828
  12 S :    0.428665
  13 C :   -0.274293
  14 C :   -0.071042
  15 Br:    0.131562
  16 C :    0.081795
  17 O :   -0.157055
  18 C :   -0.103636
  19 C :    0.042646
  20 C :   -0.063717
  21 C :   -0.108380
  22 C :   -0.038206
  23 C :   -0.011961
  24 C :   -0.186728
  25 S :    0.416903
  26 C :   -0.154386
  27 C :   -0.040367
  28 C :   -0.015188
  29 C :   -0.161915
  30 S :    0.405580
  31 C :   -0.042068
  32 C :   -0.195706
  33 S :    0.456316
  34 C :   -0.151244
  35 C :   -0.080697
  36 C :    0.034262
  37 O :    0.022442
  38 C :    0.021964
  39 N :    0.271559
  40 O :   -0.205454
  41 O :   -0.193901
  42 C :   -0.014064
  43 C :   -0.062327
  44 C :   -0.149490
  45 C :   -0.018401
  46 C :   -0.029885
  47 C :   -0.162019
  48 S :    0.423637
  49 C :   -0.176367
  50 C :   -0.013364
  51 C :   -0.022506
  52 C :   -0.108694
  53 S :    0.411625
  54 C :   -0.052146
  55 C :    0.045924
  56 C :   -0.094842
  57 C :    0.067064
  58 C :   -0.150079
  59 C :   -0.020173
  60 N :   -0.060281
  61 C :   -0.023883
  62 N :   -0.060963
  63 C :   -0.016555
  64 C :   -0.051408
  65 C :    0.078159
  66 O :   -0.148371
  67 C :    0.020388
  68 C :   -0.035625
  69 C :   -0.144326
  70 C :   -0.015405
  71 S :    0.429071
  72 C :   -0.273983
  73 C :   -0.070048
  74 Br:    0.132673
  75 H :    0.039098
  76 H :    0.039966
  77 H :    0.037868
  78 H :    0.030175
  79 H :    0.039615
  80 H :    0.039477
  81 H :    0.035753
  82 H :    0.035614
  83 H :    0.039223
  84 H :    0.051445
  85 H :    0.032487
  86 H :    0.045674
  87 H :    0.041377
  88 H :    0.037816
  89 H :    0.037518
  90 H :    0.042110
  91 H :    0.040123
  92 H :    0.037110
  93 H :    0.040532
  94 H :    0.040039
  95 H :    0.038254

  Mayer bond orders larger than 0.100000
B(  0-C ,  1-C ) :   1.5714 B(  0-C ,  6-C ) :   0.9902 B(  0-C , 18-C ) :   1.1213
B(  1-C ,  2-C ) :   1.1516 B(  1-C ,  4-C ) :   1.1586 B(  2-C ,  3-N ) :   2.9620
B(  4-C ,  5-N ) :   2.9558 B(  6-C ,  7-C ) :   1.2761 B(  6-C , 11-C ) :   1.4191
B(  7-C ,  8-C ) :   1.4307 B(  7-C , 16-C ) :   0.9350 B(  8-C ,  9-C ) :   1.2378
B(  8-C , 75-H ) :   1.0166 B(  9-C , 10-C ) :   1.3152 B(  9-C , 14-C ) :   1.1617
B( 10-C , 11-C ) :   1.3199 B( 10-C , 12-S ) :   1.0849 B( 11-C , 76-H ) :   0.9796
B( 12-S , 13-C ) :   1.0853 B( 13-C , 14-C ) :   1.6189 B( 13-C , 15-Br) :   1.0148
B( 14-C , 77-H ) :   1.0003 B( 16-C , 17-O ) :   2.1885 B( 16-C , 18-C ) :   0.9634
B( 18-C , 19-C ) :   1.4701 B( 19-C , 20-C ) :   1.2724 B( 19-C , 78-H ) :   0.9414
B( 20-C , 21-C ) :   1.3947 B( 20-C , 79-H ) :   0.9799 B( 21-C , 22-C ) :   1.1996
B( 21-C , 25-S ) :   1.0845 B( 22-C , 23-C ) :   1.5098 B( 22-C , 80-H ) :   1.0026
B( 23-C , 24-C ) :   1.2468 B( 23-C , 81-H ) :   0.9957 B( 24-C , 25-S ) :   1.0614
B( 24-C , 26-C ) :   1.4093 B( 26-C , 27-C ) :   1.2400 B( 26-C , 30-S ) :   1.0830
B( 27-C , 28-C ) :   1.5237 B( 27-C , 82-H ) :   0.9942 B( 28-C , 29-C ) :   1.2010
B( 28-C , 83-H ) :   1.0008 B( 29-C , 30-S ) :   1.0506 B( 29-C , 31-C ) :   1.4464
B( 31-C , 32-C ) :   1.2879 B( 31-C , 84-H ) :   0.9771 B( 32-C , 33-S ) :   1.0656
B( 32-C , 36-C ) :   1.3383 B( 33-S , 34-C ) :   1.1195 B( 34-C , 35-C ) :   1.2118
B( 34-C , 43-C ) :   1.3226 B( 35-C , 36-C ) :   1.2917 B( 35-C , 42-C ) :   1.1219
B( 36-C , 37-O ) :   1.1651 B( 37-O , 38-C ) :   1.1179 B( 38-C , 39-N ) :   0.9235
B( 38-C , 42-C ) :   1.5471 B( 39-N , 40-O ) :   1.5282 B( 39-N , 41-O ) :   1.5038
B( 40-O , 41-O ) :   0.2798 B( 42-C , 85-H ) :   1.0066 B( 43-C , 44-C ) :   1.4721
B( 43-C , 86-H ) :   0.9403 B( 44-C , 45-C ) :   1.2086 B( 44-C , 48-S ) :   1.0568
B( 45-C , 46-C ) :   1.5190 B( 45-C , 87-H ) :   1.0004 B( 46-C , 47-C ) :   1.2414
B( 46-C , 88-H ) :   0.9937 B( 47-C , 48-S ) :   1.0775 B( 47-C , 49-C ) :   1.4130
B( 49-C , 50-C ) :   1.2375 B( 49-C , 53-S ) :   1.0634 B( 50-C , 51-C ) :   1.5294
B( 50-C , 89-H ) :   0.9949 B( 51-C , 52-C ) :   1.1917 B( 51-C , 90-H ) :   0.9999
B( 52-C , 53-S ) :   1.0779 B( 52-C , 54-C ) :   1.4975 B( 54-C , 55-C ) :   1.2120
B( 54-C , 91-H ) :   0.9609 B( 55-C , 56-C ) :   1.5426 B( 55-C , 92-H ) :   0.9416
B( 56-C , 57-C ) :   1.0865 B( 56-C , 65-C ) :   0.9566 B( 57-C , 58-C ) :   1.5963
B( 57-C , 63-C ) :   1.0059 B( 58-C , 59-C ) :   1.1334 B( 58-C , 61-C ) :   1.1669
B( 59-C , 60-N ) :   2.9757 B( 61-C , 62-N ) :   3.0104 B( 63-C , 64-C ) :   1.2744
B( 63-C , 70-C ) :   1.4228 B( 64-C , 65-C ) :   0.9183 B( 64-C , 67-C ) :   1.4325
B( 65-C , 66-O ) :   2.2580 B( 67-C , 68-C ) :   1.2464 B( 67-C , 93-H ) :   1.0159
B( 68-C , 69-C ) :   1.3146 B( 68-C , 73-C ) :   1.1615 B( 69-C , 70-C ) :   1.3188
B( 69-C , 71-S ) :   1.0836 B( 70-C , 94-H ) :   0.9816 B( 71-S , 72-C ) :   1.0858
B( 72-C , 73-C ) :   1.6216 B( 72-C , 74-Br) :   1.0158 B( 73-C , 95-H ) :   0.9995

-----------------------------------------------------------------------------
         ABSORPTION SPECTRUM VIA TRANSITION ELECTRIC DIPOLE MOMENTS
-----------------------------------------------------------------------------
State   Energy  Wavelength   fosc         T2         TX        TY        TZ
        (cm-1)    (nm)                  (au**2)     (au)      (au)      (au)
-----------------------------------------------------------------------------
   0    4742.9   2108.4   0.786217000  54.57207  -6.27345   2.46392  -3.02408
   1   11281.3    886.4   0.006575051   0.19187   0.26383   0.08800   0.33841
   2   12722.4    786.0   0.823757819  21.31594  -1.80276   2.72408   3.26273
   3   16612.9    601.9   0.147990184   2.93267  -1.50148  -0.60405  -0.55979
   4   19392.5    515.7   0.150535848   2.55553   1.51826   0.04559   0.49833
   5   20501.6    487.8   0.708775015  11.38140   0.56388   3.26227   0.64888
   6   20837.2    479.9   0.003825036   0.06043  -0.03374   0.22199  -0.10007
   7   21109.9    473.7   0.006427233   0.10023  -0.04922   0.29486   0.10425
   8   21666.8    461.5   0.240322809   3.65153  -1.36435  -0.37180  -1.28525
   9   22228.2    449.9   0.032825312   0.48616   0.15152   0.67362   0.09719
  10   23851.4    419.3   0.360145616   4.97096   1.09885   1.54683   1.17081
  11   24503.2    408.1   0.145313335   1.95236   0.19886  -1.24019  -0.61215
  12   25194.2    396.9   0.024743233   0.32332   0.42069   0.33851   0.17818
  13   25312.6    395.1   0.119062494   1.54851   1.04792   0.38016   0.55303
  14   25500.2    392.2   0.001930049   0.02492   0.15023  -0.00296   0.04838
  15   25977.9    384.9   0.012057618   0.15280   0.32275  -0.00573   0.22047
  16   26003.2    384.6   0.002351275   0.02977   0.07612   0.01356  -0.15424
  17   26998.2    370.4   0.042339444   0.51628  -0.65787   0.26872  -0.10619
  18   27488.7    363.8   0.109772856   1.31467  -0.93242   0.06055  -0.66452
  19   27739.4    360.5   0.037573410   0.44592  -0.39243   0.18803   0.50653
  20   28381.0    352.3   0.089899146   1.04281   0.95162   0.27056   0.25301
  21   28537.5    350.4   0.087636479   1.01098  -0.75815  -0.55643  -0.35577
  22   28702.3    348.4   0.070303106   0.80637   0.64164  -0.62146   0.09193
  23   29541.6    338.5   0.159306893   1.77532   0.60877   0.20246   1.16778
  24   29777.2    335.8   0.049801324   0.55060   0.04543   0.37835   0.63670
  25   30377.4    329.2   0.072432448   0.78498   0.77103   0.17930   0.39792
  26   30519.2    327.7   0.026829148   0.28941   0.51315  -0.07444  -0.14333
  27   30746.0    325.2   0.439401607   4.70488  -1.40648  -0.96514  -1.33985
  28   31347.1    319.0   0.020930051   0.21981  -0.39654   0.24998   0.00886
  29   31739.7    315.1   0.218660478   2.26800   0.64679   0.27253   1.33244
  30   31952.8    313.0   0.023574177   0.24289  -0.02164  -0.17528  -0.46010
  31   32147.5    311.1   0.223943212   2.29333  -1.13574  -0.49044  -0.87343
  32   32477.0    307.9   0.000081794   0.00083   0.01451  -0.00986  -0.02283
  33   32494.6    307.7   0.005201407   0.05270  -0.20847  -0.08965  -0.03463
  34   32916.4    303.8   0.003393871   0.03394  -0.15031  -0.01222   0.10583
  35   33077.8    302.3   0.020056984   0.19962  -0.00979   0.17923  -0.40915
  36   33270.0    300.6   0.019028441   0.18829   0.12575  -0.41527  -0.00498
  37   33320.3    300.1   0.017030808   0.16827   0.24182  -0.05261   0.32714
  38   34119.6    293.1   0.084738913   0.81763   0.55935   0.15281   0.69383
  39   34147.5    292.8   0.009424577   0.09086  -0.16239   0.24124   0.07935
  40   34372.8    290.9   0.286427097   2.74331  -0.86812   0.01820  -1.41044
  41   34792.6    287.4   0.004034030   0.03817  -0.17612  -0.01464  -0.08329
  42   34868.5    286.8   0.101196748   0.95545  -0.18442  -0.94849  -0.14766
  43   34925.0    286.3   0.005106589   0.04814  -0.00780   0.21923  -0.00367
  44   35140.3    284.6   0.051937940   0.48658  -0.47240  -0.27189  -0.43531
  45   35550.7    281.3   0.050710054   0.46959  -0.52069  -0.23128  -0.38077
  46   35849.3    278.9   0.210825658   1.93606   0.77802   0.51787   1.03081
  47   35945.0    278.2   0.005442619   0.04985   0.13753   0.08198   0.15560
  48   36334.7    275.2   0.011813725   0.10704   0.04523   0.24305   0.21429
  49   36526.8    273.8   0.002524643   0.02275  -0.01310   0.04782   0.14247
  50   36640.7    272.9   0.028343616   0.25466  -0.14200  -0.38288  -0.29648
  51   37000.3    270.3   0.000467590   0.00416   0.01901  -0.05390  -0.02990
  52   37100.1    269.5   0.020251656   0.17971  -0.21347   0.29621  -0.21540
  53   37558.8    266.2   0.050932823   0.44644   0.34313   0.13612   0.55693
  54   37794.6    264.6   0.007543799   0.06571  -0.07690   0.08010  -0.23104
  55   37950.5    263.5   0.019084891   0.16556  -0.36150   0.17832  -0.05546
  56   38247.2    261.5   0.073272405   0.63069   0.35602  -0.43091   0.56414
  57   38640.0    258.8   0.073611065   0.62716  -0.33868  -0.23482  -0.67625
  58   38706.4    258.4   0.159109251   1.35328  -0.55511   1.01117   0.15055
  59   39307.0    254.4   0.004320866   0.03619  -0.12592   0.12463  -0.06928
  60   39608.6    252.5   0.116949148   0.97204   0.59467  -0.78335   0.06907
  61   39712.8    251.8   0.043696999   0.36224  -0.09573   0.39281   0.44584
  62   39753.7    251.5   0.160147198   1.32623   0.19616   0.94029   0.63530
  63   40154.6    249.0   0.185373896   1.51981  -0.92961   0.34543  -0.73233
  64   40323.3    248.0   0.006272496   0.05121   0.20581  -0.05260   0.07801

FINAL SINGLE POINT ENERGY    -10727.120553309453

DIPOLE MOMENT
-------------
                                X             Y             Z
Electronic contribution:     75.08219     -41.89662     -65.63062
Nuclear contribution   :    -78.15211      44.03386      66.88082
                        -----------------------------------------
Total Dipole Moment    :     -3.06992       2.13724       1.25020
                        -----------------------------------------
Magnitude (a.u.)       :      3.94401
Magnitude (Debye)      :     10.02487

Rotational constants in cm-1:     0.000761     0.000140     0.000123
Rotational constants in MHz :    22.822993     4.183938     3.696427

                             ****ORCA TERMINATED NORMALLY****
TOTAL RUN TIME: 0 days 0 hours 10 minutes 48 seconds 475 msec
