                         Program Version 4.2.0 -  RELEASE  -
|  1> # ORCA input file
|  2> # SCF done       -186.676174765851          0.000889000717
|  3> ! CAM-B3LYP def2-SVP def2/J RIJCOSX Grid4 TightSCF
|  4> %maxcore 5000
|  5> %tddft
|  6>     Mode sTDDFT
|  7>     Ethresh 5.0
|  8>     maxcore 5000
|  9> end
| 10>
| 11> %pal
| 12>   nprocs 6
| 13>   end
| 14> * xyz 0 1
| 15>    C       -6.90116         8.20550         5.45880
| 16>    C       -7.54646         7.74704         6.57796
| 17>    C       -7.47879         8.36607         7.84257
| 18>    N       -7.46084         8.82844         8.89326
| 19>    C       -8.36332         6.59834         6.60046
| 20>    N       -9.03611         5.67021         6.66115
| 21>    C       -6.04934         9.39097         5.38743
| 22>    C       -5.57620         9.53925         4.05775
| 23>    C       -4.74394        10.56363         3.67629
| 24>    C       -4.35873        11.48832         4.65234
| 25>    C       -4.83677        11.33462         5.97538
| 26>    C       -5.67892        10.29745         6.36112
| 27>    S       -4.23753        12.58527         7.02022
| 28>    C       -3.36508        13.28950         5.68512
| 29>    C       -3.51314        12.62262         4.51553
| 30>   Br       -2.33834        14.83459         5.95944
| 31>    C       -6.11700         8.44867         3.23893
| 32>    O       -5.93058         8.25057         2.04103
| 33>    C       -6.93118         7.62594         4.13646
| 34>    C       -7.57064         6.49435         3.68716
| 35>    N       -7.46513         6.13645         2.40397
| 36>    C       -8.00371         5.04772         1.80100
| 37>    S       -8.93085         3.87657         2.68578
| 38>    C       -9.12589         2.96702         1.22367
| 39>    N       -9.86772         1.77805         1.28222
| 40>    O       -9.99902         1.14649         0.25098
| 41>    O      -10.32605         1.46970         2.36694
| 42>    C       -8.51800         3.53065         0.13516
| 43>    C       -7.86141         4.74012         0.44020
| 44>    C       -7.15651         5.57377        -0.49153
| 45>    C       -6.89630         5.25111        -1.77534
| 46>    C       -6.22142         6.10747        -2.68951
| 47>    S       -5.74922         7.72616        -2.23537
| 48>    C       -5.04142         8.00301        -3.79479
| 49>    C       -5.18502         6.91270        -4.61578
| 50>    C       -5.85545         5.83550        -3.99276
| 51>    C       -6.08718         4.53103        -4.68970
| 52>    C       -5.91593         4.67005        -6.19935
| 53>    C       -4.62903         5.42314        -6.53267
| 54>    O       -4.43456         5.33042        -7.92807
| 55>    C       -3.16854         5.73311        -8.38233
| 56>    C       -4.76120         6.87422        -6.05050
| 57>    C       -4.45364         9.30228        -4.08278
| 58>    C       -3.17870         9.53173        -4.39003
| 59>    C       -2.11554         8.47941        -4.42127
| 60>    C       -2.67033        10.92033        -4.70852
| 61>    N       -3.69719        11.91486        -4.88984
| 62>    C       -4.39559        12.04441        -6.02481
| 63>    C       -4.47865        11.10689        -7.01419
| 64>    C       -5.18647        11.28703        -8.21422
| 65>    C       -5.58650        12.43987        -8.84378
| 66>    C       -5.17582        13.81675        -8.74757
| 67>    C       -3.95606        14.29951        -8.32819
| 68>    C       -3.59075        15.65841        -8.35718
| 69>    N       -3.24424        16.75349        -8.33079
| 70>    C       -2.90261        13.48994        -7.87308
| 71>    N       -2.00613        12.87403        -7.49999
| 72>    C       -6.18438        14.62457        -9.43324
| 73>    C       -7.07450        13.75728       -10.11236
| 74>    C       -6.68921        12.35780        -9.82963
| 75>    O       -7.19429        11.35064       -10.27656
| 76>    C       -8.11657        14.21951       -10.87688
| 77>    C       -8.29714        15.60466       -10.96496
| 78>    C       -7.41256        16.46171       -10.27013
| 79>    C       -6.35120        15.99366        -9.50412
| 80>    S       -7.82699        18.13359       -10.50309
| 81>    C       -9.16165        17.66409       -11.52214
| 82>    C       -9.29326        16.32590       -11.67925
| 83>   Br      -10.25777        18.98601       -12.27796
| 84>    H       -4.40024        10.64868         2.65741
| 85>    H       -6.01443        10.22324         7.38186
| 86>    H       -3.04485        12.91707         3.59424
| 87>    H       -8.16550         5.86401         4.33548
| 88>    H       -6.88068         6.78250         1.84065
| 89>    H       -8.56493         3.07941        -0.83839
| 90>    H       -6.81302         6.53516        -0.13316
| 91>    H       -7.19516         4.29065        -2.16905
| 92>    H       -7.08832         4.15568        -4.46866
| 93>    H       -5.36995         3.79720        -4.30611
| 94>    H       -6.75550         5.21852        -6.62813
| 95>    H       -5.88477         3.68668        -6.66803
| 96>    H       -3.77823         4.94694        -6.01232
| 97>    H       -3.11137         5.43593        -9.42762
| 98>    H       -2.36808         5.23646        -7.81955
| 99>    H       -3.02976         6.81813        -8.31395
|100>    H       -5.51869         7.36969        -6.66686
|101>    H       -3.82347         7.41248        -6.18317
|102>    H       -5.13999        10.13689        -4.00259
|103>    H       -2.49856         7.52663        -4.06741
|104>    H       -1.28302         8.77977        -3.78588
|105>    H       -1.72220         8.35421        -5.43019
|106>    H       -2.06942        10.87807        -5.62618
|107>    H       -2.01214        11.25027        -3.89967
|108>    H       -3.78689        12.62836        -4.18618
|109>    H       -4.98471        12.94976        -6.10161
|110>    H       -4.04806        10.13235        -6.84508
|111>    H       -5.52871        10.38175        -8.70713
|112>    H       -8.77308        13.53601       -11.39201
|113>    H       -5.70659        16.68640        -8.98890
|114>    H      -10.06075        15.86392       -12.27298
|115> *
|116>
|117>                          ****END OF INPUT****

CARTESIAN COORDINATES (ANGSTROEM)
---------------------------------
  C     -6.901160    8.205500    5.458800
  C     -7.546460    7.747040    6.577960
  C     -7.478790    8.366070    7.842570
  N     -7.460840    8.828440    8.893260
  C     -8.363320    6.598340    6.600460
  N     -9.036110    5.670210    6.661150
  C     -6.049340    9.390970    5.387430
  C     -5.576200    9.539250    4.057750
  C     -4.743940   10.563630    3.676290
  C     -4.358730   11.488320    4.652340
  C     -4.836770   11.334620    5.975380
  C     -5.678920   10.297450    6.361120
  S     -4.237530   12.585270    7.020220
  C     -3.365080   13.289500    5.685120
  C     -3.513140   12.622620    4.515530
  Br    -2.338340   14.834590    5.959440
  C     -6.117000    8.448670    3.238930
  O     -5.930580    8.250570    2.041030
  C     -6.931180    7.625940    4.136460
  C     -7.570640    6.494350    3.687160
  N     -7.465130    6.136450    2.403970
  C     -8.003710    5.047720    1.801000
  S     -8.930850    3.876570    2.685780
  C     -9.125890    2.967020    1.223670
  N     -9.867720    1.778050    1.282220
  O     -9.999020    1.146490    0.250980
  O    -10.326050    1.469700    2.366940
  C     -8.518000    3.530650    0.135160
  C     -7.861410    4.740120    0.440200
  C     -7.156510    5.573770   -0.491530
  C     -6.896300    5.251110   -1.775340
  C     -6.221420    6.107470   -2.689510
  S     -5.749220    7.726160   -2.235370
  C     -5.041420    8.003010   -3.794790
  C     -5.185020    6.912700   -4.615780
  C     -5.855450    5.835500   -3.992760
  C     -6.087180    4.531030   -4.689700
  C     -5.915930    4.670050   -6.199350
  C     -4.629030    5.423140   -6.532670
  O     -4.434560    5.330420   -7.928070
  C     -3.168540    5.733110   -8.382330
  C     -4.761200    6.874220   -6.050500
  C     -4.453640    9.302280   -4.082780
  C     -3.178700    9.531730   -4.390030
  C     -2.115540    8.479410   -4.421270
  C     -2.670330   10.920330   -4.708520
  N     -3.697190   11.914860   -4.889840
  C     -4.395590   12.044410   -6.024810
  C     -4.478650   11.106890   -7.014190
  C     -5.186470   11.287030   -8.214220
  C     -5.586500   12.439870   -8.843780
  C     -5.175820   13.816750   -8.747570
  C     -3.956060   14.299510   -8.328190
  C     -3.590750   15.658410   -8.357180
  N     -3.244240   16.753490   -8.330790
  C     -2.902610   13.489940   -7.873080
  N     -2.006130   12.874030   -7.499990
  C     -6.184380   14.624570   -9.433240
  C     -7.074500   13.757280  -10.112360
  C     -6.689210   12.357800   -9.829630
  O     -7.194290   11.350640  -10.276560
  C     -8.116570   14.219510  -10.876880
  C     -8.297140   15.604660  -10.964960
  C     -7.412560   16.461710  -10.270130
  C     -6.351200   15.993660   -9.504120
  S     -7.826990   18.133590  -10.503090
  C     -9.161650   17.664090  -11.522140
  C     -9.293260   16.325900  -11.679250
  Br   -10.257770   18.986010  -12.277960
  H     -4.400240   10.648680    2.657410
  H     -6.014430   10.223240    7.381860
  H     -3.044850   12.917070    3.594240
  H     -8.165500    5.864010    4.335480
  H     -6.880680    6.782500    1.840650
  H     -8.564930    3.079410   -0.838390
  H     -6.813020    6.535160   -0.133160
  H     -7.195160    4.290650   -2.169050
  H     -7.088320    4.155680   -4.468660
  H     -5.369950    3.797200   -4.306110
  H     -6.755500    5.218520   -6.628130
  H     -5.884770    3.686680   -6.668030
  H     -3.778230    4.946940   -6.012320
  H     -3.111370    5.435930   -9.427620
  H     -2.368080    5.236460   -7.819550
  H     -3.029760    6.818130   -8.313950
  H     -5.518690    7.369690   -6.666860
  H     -3.823470    7.412480   -6.183170
  H     -5.139990   10.136890   -4.002590
  H     -2.498560    7.526630   -4.067410
  H     -1.283020    8.779770   -3.785880
  H     -1.722200    8.354210   -5.430190
  H     -2.069420   10.878070   -5.626180
  H     -2.012140   11.250270   -3.899670
  H     -3.786890   12.628360   -4.186180
  H     -4.984710   12.949760   -6.101610
  H     -4.048060   10.132350   -6.845080
  H     -5.528710   10.381750   -8.707130
  H     -8.773080   13.536010  -11.392010
  H     -5.706590   16.686400   -8.988900
  H    -10.060750   15.863920  -12.272980

 Total Charge           Charge          ....    0
 Multiplicity           Mult            ....    1
 Number of Electrons    NEL             ....  560
 Basis Dimension        Dim             .... 1173

ORBITAL ENERGIES
----------------

  NO   OCC          E(Eh)            E(eV)
   0   2.0000    -482.892880    -13140.1833
   1   2.0000    -482.882328    -13139.8962
   2   2.0000     -88.992289     -2421.6033
   3   2.0000     -88.984029     -2421.3785
   4   2.0000     -88.971251     -2421.0308
   5   2.0000     -88.954139     -2420.5652
   6   2.0000     -62.570589     -1702.6323
   7   2.0000     -62.560046     -1702.3454
   8   2.0000     -56.404550     -1534.8458
   9   2.0000     -56.401817     -1534.7715
  10   2.0000     -56.401786     -1534.7706
  11   2.0000     -56.393993     -1534.5586
  12   2.0000     -56.391286     -1534.4849
  13   2.0000     -56.391250     -1534.4839
  14   2.0000     -19.242212      -523.6072
  15   2.0000     -19.241137      -523.5780
  16   2.0000     -19.238642      -523.5101
  17   2.0000     -19.212930      -522.8104
  18   2.0000     -19.202328      -522.5219
  19   2.0000     -14.653458      -398.7409
  20   2.0000     -14.500134      -394.5687
  21   2.0000     -14.473209      -393.8360
  22   2.0000     -14.423784      -392.4911
  23   2.0000     -14.419721      -392.3806
  24   2.0000     -14.413851      -392.2208
  25   2.0000     -14.407822      -392.0568
  26   2.0000     -10.385072      -282.5922
  27   2.0000     -10.374537      -282.3055
  28   2.0000     -10.372896      -282.2609
  29   2.0000     -10.367010      -282.1007
  30   2.0000     -10.354441      -281.7587
  31   2.0000     -10.353876      -281.7433
  32   2.0000     -10.351417      -281.6764
  33   2.0000     -10.350716      -281.6573
  34   2.0000     -10.350671      -281.6561
  35   2.0000     -10.347117      -281.5594
  36   2.0000     -10.336319      -281.2655
  37   2.0000     -10.334284      -281.2102
  38   2.0000     -10.330396      -281.1044
  39   2.0000     -10.330128      -281.0971
  40   2.0000     -10.326107      -280.9877
  41   2.0000     -10.322879      -280.8998
  42   2.0000     -10.320213      -280.8273
  43   2.0000     -10.320126      -280.8249
  44   2.0000     -10.317676      -280.7582
  45   2.0000     -10.317191      -280.7450
  46   2.0000     -10.316438      -280.7246
  47   2.0000     -10.314386      -280.6687
  48   2.0000     -10.314197      -280.6636
  49   2.0000     -10.312507      -280.6176
  50   2.0000     -10.312476      -280.6167
  51   2.0000     -10.310746      -280.5697
  52   2.0000     -10.310505      -280.5631
  53   2.0000     -10.309431      -280.5339
  54   2.0000     -10.305249      -280.4201
  55   2.0000     -10.304146      -280.3901
  56   2.0000     -10.303669      -280.3771
  57   2.0000     -10.303003      -280.3590
  58   2.0000     -10.301847      -280.3275
  59   2.0000     -10.301653      -280.3222
  60   2.0000     -10.300240      -280.2838
  61   2.0000     -10.299377      -280.2603
  62   2.0000     -10.298678      -280.2413
  63   2.0000     -10.296654      -280.1862
  64   2.0000     -10.294904      -280.1386
  65   2.0000     -10.293170      -280.0914
  66   2.0000     -10.292584      -280.0754
  67   2.0000     -10.284989      -279.8688
  68   2.0000     -10.284545      -279.8567
  69   2.0000     -10.282090      -279.7899
  70   2.0000     -10.280542      -279.7478
  71   2.0000     -10.280041      -279.7341
  72   2.0000     -10.279308      -279.7142
  73   2.0000     -10.278621      -279.6955
  74   2.0000     -10.274235      -279.5762
  75   2.0000     -10.273210      -279.5483
  76   2.0000     -10.265355      -279.3345
  77   2.0000      -8.800021      -239.4608
  78   2.0000      -8.789470      -239.1736
  79   2.0000      -8.087491      -220.0718
  80   2.0000      -8.080031      -219.8688
  81   2.0000      -8.067247      -219.5209
  82   2.0000      -8.049733      -219.0444
  83   2.0000      -6.636367      -180.5847
  84   2.0000      -6.625754      -180.2959
  85   2.0000      -6.621732      -180.1865
  86   2.0000      -6.621525      -180.1809
  87   2.0000      -6.611207      -179.9001
  88   2.0000      -6.611024      -179.8951
  89   2.0000      -6.057106      -164.8222
  90   2.0000      -6.052809      -164.7053
  91   2.0000      -6.049701      -164.6207
  92   2.0000      -6.048963      -164.6007
  93   2.0000      -6.045419      -164.5042
  94   2.0000      -6.041275      -164.3914
  95   2.0000      -6.036952      -164.2738
  96   2.0000      -6.032667      -164.1572
  97   2.0000      -6.028459      -164.0427
  98   2.0000      -6.018943      -163.7838
  99   2.0000      -6.014967      -163.6756
 100   2.0000      -6.011869      -163.5913
 101   2.0000      -2.752207       -74.8914
 102   2.0000      -2.748123       -74.7802
 103   2.0000      -2.747986       -74.7765
 104   2.0000      -2.741609       -74.6030
 105   2.0000      -2.737536       -74.4921
 106   2.0000      -2.737428       -74.4892
 107   2.0000      -2.736339       -74.4596
 108   2.0000      -2.736328       -74.4593
 109   2.0000      -2.725849       -74.1741
 110   2.0000      -2.725836       -74.1738
 111   2.0000      -1.323529       -36.0150
 112   2.0000      -1.153314       -31.3833
 113   2.0000      -1.142686       -31.0941
 114   2.0000      -1.117307       -30.4035
 115   2.0000      -1.115965       -30.3669
 116   2.0000      -1.107497       -30.1365
 117   2.0000      -1.069859       -29.1124
 118   2.0000      -1.031736       -28.0750
 119   2.0000      -1.020911       -27.7804
 120   2.0000      -1.017204       -27.6795
 121   2.0000      -1.013488       -27.5784
 122   2.0000      -1.008803       -27.4509
 123   2.0000      -1.001229       -27.2448
 124   2.0000      -0.997619       -27.1466
 125   2.0000      -0.992968       -27.0200
 126   2.0000      -0.990061       -26.9409
 127   2.0000      -0.982506       -26.7353
 128   2.0000      -0.950442       -25.8628
 129   2.0000      -0.938094       -25.5268
 130   2.0000      -0.931764       -25.3546
 131   2.0000      -0.925414       -25.1818
 132   2.0000      -0.917250       -24.9597
 133   2.0000      -0.914158       -24.8755
 134   2.0000      -0.907482       -24.6938
 135   2.0000      -0.902805       -24.5666
 136   2.0000      -0.901990       -24.5444
 137   2.0000      -0.894957       -24.3530
 138   2.0000      -0.887923       -24.1616
 139   2.0000      -0.880447       -23.9582
 140   2.0000      -0.874450       -23.7950
 141   2.0000      -0.868712       -23.6388
 142   2.0000      -0.856518       -23.3070
 143   2.0000      -0.843917       -22.9641
 144   2.0000      -0.838578       -22.8189
 145   2.0000      -0.832666       -22.6580
 146   2.0000      -0.829079       -22.5604
 147   2.0000      -0.823482       -22.4081
 148   2.0000      -0.813333       -22.1319
 149   2.0000      -0.802554       -21.8386
 150   2.0000      -0.799032       -21.7428
 151   2.0000      -0.779443       -21.2097
 152   2.0000      -0.770724       -20.9725
 153   2.0000      -0.765234       -20.8231
 154   2.0000      -0.764336       -20.7986
 155   2.0000      -0.751174       -20.4405
 156   2.0000      -0.747361       -20.3367
 157   2.0000      -0.736854       -20.0508
 158   2.0000      -0.721359       -19.6292
 159   2.0000      -0.713153       -19.4059
 160   2.0000      -0.709764       -19.3137
 161   2.0000      -0.701146       -19.0791
 162   2.0000      -0.698516       -19.0076
 163   2.0000      -0.688640       -18.7389
 164   2.0000      -0.682781       -18.5794
 165   2.0000      -0.680655       -18.5216
 166   2.0000      -0.673526       -18.3276
 167   2.0000      -0.666081       -18.1250
 168   2.0000      -0.661227       -17.9929
 169   2.0000      -0.657417       -17.8892
 170   2.0000      -0.655604       -17.8399
 171   2.0000      -0.643737       -17.5170
 172   2.0000      -0.640483       -17.4284
 173   2.0000      -0.638773       -17.3819
 174   2.0000      -0.634839       -17.2749
 175   2.0000      -0.631257       -17.1774
 176   2.0000      -0.627602       -17.0779
 177   2.0000      -0.623996       -16.9798
 178   2.0000      -0.617304       -16.7977
 179   2.0000      -0.611457       -16.6386
 180   2.0000      -0.609611       -16.5884
 181   2.0000      -0.601490       -16.3674
 182   2.0000      -0.597414       -16.2565
 183   2.0000      -0.590626       -16.0718
 184   2.0000      -0.587804       -15.9950
 185   2.0000      -0.581957       -15.8359
 186   2.0000      -0.576902       -15.6983
 187   2.0000      -0.572823       -15.5873
 188   2.0000      -0.569151       -15.4874
 189   2.0000      -0.567305       -15.4371
 190   2.0000      -0.563765       -15.3408
 191   2.0000      -0.562711       -15.3122
 192   2.0000      -0.556838       -15.1523
 193   2.0000      -0.554454       -15.0875
 194   2.0000      -0.548626       -14.9289
 195   2.0000      -0.545225       -14.8363
 196   2.0000      -0.543811       -14.7978
 197   2.0000      -0.542903       -14.7731
 198   2.0000      -0.540174       -14.6989
 199   2.0000      -0.537694       -14.6314
 200   2.0000      -0.536284       -14.5930
 201   2.0000      -0.532742       -14.4966
 202   2.0000      -0.531909       -14.4740
 203   2.0000      -0.526872       -14.3369
 204   2.0000      -0.526216       -14.3191
 205   2.0000      -0.523651       -14.2493
 206   2.0000      -0.522622       -14.2213
 207   2.0000      -0.516765       -14.0619
 208   2.0000      -0.512992       -13.9592
 209   2.0000      -0.508447       -13.8355
 210   2.0000      -0.506439       -13.7809
 211   2.0000      -0.504782       -13.7358
 212   2.0000      -0.503056       -13.6889
 213   2.0000      -0.502102       -13.6629
 214   2.0000      -0.497755       -13.5446
 215   2.0000      -0.495270       -13.4770
 216   2.0000      -0.493440       -13.4272
 217   2.0000      -0.489935       -13.3318
 218   2.0000      -0.488226       -13.2853
 219   2.0000      -0.485086       -13.1999
 220   2.0000      -0.483631       -13.1603
 221   2.0000      -0.479552       -13.0493
 222   2.0000      -0.478857       -13.0304
 223   2.0000      -0.477118       -12.9830
 224   2.0000      -0.473375       -12.8812
 225   2.0000      -0.471840       -12.8394
 226   2.0000      -0.467969       -12.7341
 227   2.0000      -0.463980       -12.6255
 228   2.0000      -0.459419       -12.5014
 229   2.0000      -0.458187       -12.4679
 230   2.0000      -0.457200       -12.4411
 231   2.0000      -0.456569       -12.4239
 232   2.0000      -0.454158       -12.3583
 233   2.0000      -0.452337       -12.3087
 234   2.0000      -0.449688       -12.2366
 235   2.0000      -0.448357       -12.2004
 236   2.0000      -0.447483       -12.1766
 237   2.0000      -0.444425       -12.0934
 238   2.0000      -0.442923       -12.0525
 239   2.0000      -0.440749       -11.9934
 240   2.0000      -0.439024       -11.9465
 241   2.0000      -0.436790       -11.8857
 242   2.0000      -0.433771       -11.8035
 243   2.0000      -0.433595       -11.7987
 244   2.0000      -0.433014       -11.7829
 245   2.0000      -0.423508       -11.5242
 246   2.0000      -0.419912       -11.4264
 247   2.0000      -0.418427       -11.3860
 248   2.0000      -0.416651       -11.3376
 249   2.0000      -0.416327       -11.3288
 250   2.0000      -0.414624       -11.2825
 251   2.0000      -0.405486       -11.0338
 252   2.0000      -0.404847       -11.0164
 253   2.0000      -0.402925       -10.9641
 254   2.0000      -0.402044       -10.9402
 255   2.0000      -0.397053       -10.8044
 256   2.0000      -0.388941       -10.5836
 257   2.0000      -0.383680       -10.4405
 258   2.0000      -0.382304       -10.4030
 259   2.0000      -0.381695       -10.3865
 260   2.0000      -0.380957       -10.3664
 261   2.0000      -0.378815       -10.3081
 262   2.0000      -0.372027       -10.1234
 263   2.0000      -0.371788       -10.1169
 264   2.0000      -0.370659       -10.0862
 265   2.0000      -0.361557        -9.8385
 266   2.0000      -0.355885        -9.6841
 267   2.0000      -0.346623        -9.4321
 268   2.0000      -0.345616        -9.4047
 269   2.0000      -0.332699        -9.0532
 270   2.0000      -0.330325        -8.9886
 271   2.0000      -0.326276        -8.8784
 272   2.0000      -0.324215        -8.8223
 273   2.0000      -0.312579        -8.5057
 274   2.0000      -0.310047        -8.4368
 275   2.0000      -0.303577        -8.2607
 276   2.0000      -0.294717        -8.0196
 277   2.0000      -0.290277        -7.8988
 278   2.0000      -0.268861        -7.3161
 279   2.0000      -0.255039        -6.9400
 280   0.0000      -0.093042        -2.5318
 281   0.0000      -0.077764        -2.1161
 282   0.0000      -0.074728        -2.0334
 283   0.0000      -0.049150        -1.3374
 284   0.0000      -0.045529        -1.2389

MULLIKEN ATOMIC CHARGES
-----------------------
   0 C :    0.331458
   1 C :   -0.343168
   2 C :   -0.185681
   3 N :    0.151043
   4 C :   -0.197189
   5 N :    0.147235
   6 C :    0.007627
   7 C :   -0.007035
   8 C :   -0.068931
   9 C :    0.117606
  10 C :   -0.092447
  11 C :   -0.017951
  12 S :    0.193637
  13 C :   -0.124991
  14 C :    0.039129
  15 Br:    0.027747
  16 C :    0.167169
  17 O :   -0.223499
  18 C :   -0.134577
  19 C :    0.026838
  20 N :   -0.004018
  21 C :   -0.129455
  22 S :    0.176840
  23 C :    0.008279
  24 N :    0.273988
  25 O :   -0.246931
  26 O :   -0.254440
  27 C :   -0.002117
  28 C :    0.150289
  29 C :   -0.066163
  30 C :    0.010026
  31 C :   -0.108326
  32 S :    0.106253
  33 C :   -0.162399
  34 C :   -0.051639
  35 C :   -0.101686
  36 C :    0.121266
  37 C :    0.074469
  38 C :    0.059376
  39 O :   -0.370148
  40 C :    0.193866
  41 C :    0.202174
  42 C :   -0.009224
  43 C :   -0.238687
  44 C :    0.102015
  45 C :    0.195583
  46 N :   -0.119569
  47 C :    0.088420
  48 C :   -0.046681
  49 C :    0.062067
  50 C :   -0.155589
  51 C :    0.274845
  52 C :   -0.371874
  53 C :   -0.173380
  54 N :    0.137215
  55 C :   -0.196057
  56 N :    0.143754
  57 C :   -0.008575
  58 C :    0.009561
  59 C :    0.126935
  60 O :   -0.155235
  61 C :   -0.074651
  62 C :    0.113120
  63 C :   -0.092719
  64 C :   -0.021860
  65 S :    0.178923
  66 C :   -0.125444
  67 C :    0.039944
  68 Br:    0.017886
  69 H :   -0.013385
  70 H :   -0.004621
  71 H :   -0.005608
  72 H :    0.047222
  73 H :    0.185351
  74 H :    0.011295
  75 H :   -0.000634
  76 H :   -0.016086
  77 H :    0.016589
  78 H :    0.019270
  79 H :    0.008813
  80 H :    0.006844
  81 H :   -0.019044
  82 H :    0.031105
  83 H :   -0.004759
  84 H :    0.005181
  85 H :    0.018540
  86 H :   -0.018789
  87 H :    0.000308
  88 H :    0.034363
  89 H :    0.022633
  90 H :    0.031091
  91 H :    0.048604
  92 H :    0.032778
  93 H :    0.137820
  94 H :    0.034126
  95 H :   -0.004366
  96 H :    0.023858
  97 H :   -0.011342
  98 H :   -0.007725
  99 H :   -0.003681
Sum of atomic charges:   -0.0000000

LOEWDIN ATOMIC CHARGES
----------------------
   0 C :    0.078502
   1 C :   -0.148298
   2 C :   -0.020009
   3 N :   -0.053263
   4 C :   -0.020831
   5 N :   -0.052015
   6 C :   -0.017591
   7 C :   -0.051298
   8 C :    0.022627
   9 C :   -0.034387
  10 C :   -0.143870
  11 C :   -0.006833
  12 S :    0.438985
  13 C :   -0.271311
  14 C :   -0.071170
  15 Br:    0.139877
  16 C :    0.095722
  17 O :   -0.177988
  18 C :   -0.148526
  19 C :    0.111754
  20 N :    0.082308
  21 C :   -0.119888
  22 S :    0.470766
  23 C :   -0.198790
  24 N :    0.273096
  25 O :   -0.213467
  26 O :   -0.220791
  27 C :    0.001272
  28 C :   -0.079047
  29 C :   -0.050298
  30 C :   -0.019116
  31 C :   -0.183318
  32 S :    0.425874
  33 C :   -0.171219
  34 C :   -0.064494
  35 C :   -0.049262
  36 C :   -0.025904
  37 C :   -0.026715
  38 C :    0.066028
  39 O :   -0.167487
  40 C :    0.067103
  41 C :   -0.034984
  42 C :   -0.071096
  43 C :   -0.031290
  44 C :   -0.048183
  45 C :    0.042500
  46 N :    0.045938
  47 C :    0.100658
  48 C :   -0.127433
  49 C :    0.083265
  50 C :   -0.135733
  51 C :    0.070531
  52 C :   -0.172701
  53 C :   -0.023885
  54 N :   -0.069843
  55 C :   -0.008778
  56 N :   -0.070301
  57 C :   -0.020147
  58 C :   -0.050370
  59 C :    0.079866
  60 O :   -0.156467
  61 C :    0.019515
  62 C :   -0.035388
  63 C :   -0.146020
  64 C :   -0.015209
  65 S :    0.427111
  66 C :   -0.273869
  67 C :   -0.070402
  68 Br:    0.132344
  69 H :    0.040184
  70 H :    0.042293
  71 H :    0.037908
  72 H :    0.036513
  73 H :    0.085569
  74 H :    0.044380
  75 H :    0.021413
  76 H :    0.031041
  77 H :    0.032306
  78 H :    0.034234
  79 H :    0.026961
  80 H :    0.029075
  81 H :    0.003248
  82 H :    0.025379
  83 H :    0.005434
  84 H :    0.002874
  85 H :    0.037630
  86 H :    0.024093
  87 H :    0.025761
  88 H :    0.036374
  89 H :    0.036246
  90 H :    0.034524
  91 H :    0.039659
  92 H :    0.039871
  93 H :    0.089668
  94 H :    0.036988
  95 H :    0.030758
  96 H :    0.045166
  97 H :    0.040349
  98 H :    0.039302
  99 H :    0.038445

  Mayer bond orders larger than 0.100000
B(  0-C ,  1-C ) :   1.6269 B(  0-C ,  6-C ) :   1.0011 B(  0-C , 18-C ) :   1.1005
B(  1-C ,  2-C ) :   1.1431 B(  1-C ,  4-C ) :   1.1480 B(  2-C ,  3-N ) :   2.9680
B(  4-C ,  5-N ) :   2.9558 B(  6-C ,  7-C ) :   1.2737 B(  6-C , 11-C ) :   1.4260
B(  7-C ,  8-C ) :   1.4255 B(  7-C , 16-C ) :   0.9806 B(  8-C ,  9-C ) :   1.2404
B(  8-C , 69-H ) :   1.0175 B(  9-C , 10-C ) :   1.3112 B(  9-C , 14-C ) :   1.1614
B( 10-C , 11-C ) :   1.3194 B( 10-C , 12-S ) :   1.0900 B( 11-C , 70-H ) :   0.9796
B( 12-S , 13-C ) :   1.0896 B( 13-C , 14-C ) :   1.6176 B( 13-C , 15-Br) :   1.0210
B( 14-C , 71-H ) :   1.0001 B( 16-C , 17-O ) :   2.0311 B( 16-C , 18-C ) :   1.0091
B( 17-O , 73-H ) :   0.1408 B( 18-C , 19-C ) :   1.4405 B( 19-C , 20-N ) :   1.3517
B( 19-C , 72-H ) :   0.9314 B( 20-N , 21-C ) :   1.1896 B( 20-N , 73-H ) :   0.8223
B( 21-C , 22-S ) :   1.1295 B( 21-C , 28-C ) :   1.3763 B( 22-S , 23-C ) :   1.0855
B( 23-C , 24-N ) :   0.9616 B( 23-C , 27-C ) :   1.5036 B( 24-N , 25-O ) :   1.5346
B( 24-N , 26-O ) :   1.5184 B( 25-O , 26-O ) :   0.2629 B( 27-C , 28-C ) :   1.2149
B( 27-C , 74-H ) :   1.0002 B( 28-C , 29-C ) :   1.0741 B( 29-C , 30-C ) :   1.7067
B( 29-C , 75-H ) :   0.9671 B( 30-C , 31-C ) :   1.1451 B( 30-C , 76-H ) :   0.9699
B( 31-C , 32-S ) :   1.1008 B( 31-C , 33-C ) :   0.1035 B( 31-C , 35-C ) :   1.5200
B( 32-S , 33-C ) :   1.1305 B( 33-C , 34-C ) :   1.5847 B( 33-C , 42-C ) :   0.9782
B( 34-C , 35-C ) :   1.2785 B( 34-C , 41-C ) :   1.0380 B( 35-C , 36-C ) :   1.0440
B( 36-C , 37-C ) :   1.0785 B( 36-C , 77-H ) :   0.9109 B( 36-C , 78-H ) :   0.9121
B( 37-C , 38-C ) :   1.0303 B( 37-C , 79-H ) :   0.9384 B( 37-C , 80-H ) :   0.9269
B( 38-C , 39-O ) :   1.0424 B( 38-C , 41-C ) :   1.0371 B( 38-C , 81-H ) :   0.9367
B( 39-O , 40-C ) :   0.9946 B( 40-C , 82-H ) :   0.9821 B( 40-C , 83-H ) :   0.9618
B( 40-C , 84-H ) :   0.9658 B( 41-C , 85-H ) :   0.8880 B( 41-C , 86-H ) :   0.8965
B( 42-C , 43-C ) :   1.9120 B( 42-C , 87-H ) :   0.9408 B( 43-C , 44-C ) :   1.0939
B( 43-C , 45-C ) :   0.9855 B( 44-C , 88-H ) :   0.9431 B( 44-C , 89-H ) :   0.9485
B( 44-C , 90-H ) :   0.9401 B( 45-C , 46-N ) :   1.0219 B( 45-C , 91-H ) :   0.9229
B( 45-C , 92-H ) :   0.9334 B( 46-N , 47-C ) :   1.3261 B( 46-N , 93-H ) :   0.9362
B( 47-C , 48-C ) :   1.5020 B( 47-C , 94-H ) :   0.9592 B( 48-C , 49-C ) :   1.2769
B( 48-C , 95-H ) :   0.9483 B( 49-C , 50-C ) :   1.5345 B( 49-C , 96-H ) :   0.9340
B( 50-C , 51-C ) :   1.0913 B( 50-C , 59-C ) :   0.9687 B( 51-C , 52-C ) :   1.5846
B( 51-C , 57-C ) :   1.0034 B( 52-C , 53-C ) :   1.1271 B( 52-C , 55-C ) :   1.1853
B( 53-C , 54-N ) :   2.9820 B( 55-C , 56-N ) :   2.9727 B( 57-C , 58-C ) :   1.2810
B( 57-C , 64-C ) :   1.4204 B( 58-C , 59-C ) :   0.9148 B( 58-C , 61-C ) :   1.4316
B( 59-C , 60-O ) :   2.2545 B( 61-C , 62-C ) :   1.2453 B( 61-C , 97-H ) :   1.0165
B( 62-C , 63-C ) :   1.3159 B( 62-C , 67-C ) :   1.1619 B( 63-C , 64-C ) :   1.3234
B( 63-C , 65-S ) :   1.0809 B( 64-C , 98-H ) :   0.9826 B( 65-S , 66-C ) :   1.0866
B( 66-C , 67-C ) :   1.6199 B( 66-C , 68-Br) :   1.0150 B( 67-C , 99-H ) :   0.9999

-----------------------------------------------------------------------------
         ABSORPTION SPECTRUM VIA TRANSITION ELECTRIC DIPOLE MOMENTS
-----------------------------------------------------------------------------
State   Energy  Wavelength   fosc         T2         TX        TY        TZ
        (cm-1)    (nm)                  (au**2)     (au)      (au)      (au)
-----------------------------------------------------------------------------
   0   20004.2    499.9   0.704561692  11.59510   0.41549   1.59521   2.97956
   1   22132.0    451.8   0.360353778   5.36024  -0.05586  -1.86711   1.36785
   2   23323.2    428.8   0.037716120   0.53237   0.37800   0.61377   0.11303
   3   27221.1    367.4   0.135101740   1.63392   0.29852   0.22769  -1.22187
   4   27495.9    363.7   0.238841576   2.85968   0.20416  -0.26956  -1.65691
   5   28213.5    354.4   0.383773679   4.47810   1.12719   1.72733  -0.47316
   6   28428.6    351.8   0.061920576   0.71706   0.27148  -0.78589  -0.16042
   7   29571.4    338.2   0.369272820   4.11103  -1.14197  -1.66356  -0.19870
   8   30072.0    332.5   0.041900642   0.45871   0.43968  -0.33583   0.39065
   9   30184.8    331.3   0.473308326   5.16216   0.66896  -1.79123   1.22726
  10   30231.2    330.8   0.229182900   2.49576   1.42711   0.22758   0.63823
  11   31323.4    319.3   0.146740336   1.54226  -0.67497   0.51859  -0.90429
  12   31525.9    317.2   0.042500272   0.44381   0.28339  -0.25258   0.54745
  13   31705.7    315.4   0.428995403   4.45442  -1.25078  -1.69691   0.10241
  14   32169.9    310.8   0.343548957   3.51572  -1.27770   0.49528  -1.27980
  15   32886.7    304.1   0.429857720   4.30309  -1.48677  -1.06714   0.97663
  16   33523.0    298.3   0.000050913   0.00050   0.00808  -0.01625   0.01306
  17   33779.3    296.0   0.000051726   0.00050  -0.01502   0.00590   0.01561
  18   34296.9    291.6   0.587601210   5.64031   1.34637   1.35933  -1.40707
  19   34616.3    288.9   0.000491122   0.00467   0.03399  -0.04223  -0.04162
  20   34730.8    287.9   0.015879909   0.15052   0.03186  -0.23563  -0.30657
  21   35008.4    285.6   0.360633387   3.39132   1.62118  -0.14167   0.86200
  22   35050.9    285.3   0.028676607   0.26934  -0.48361   0.03327  -0.18536
  23   36178.0    276.4   0.000091054   0.00083   0.01955   0.01687   0.01271
  24   36690.5    272.6   0.000009276   0.00008  -0.00350   0.00072   0.00839
  25   36782.7    271.9   0.000037957   0.00034   0.01390   0.00080   0.01208
  26   37053.6    269.9   0.029546866   0.26252   0.34511   0.22089  -0.30761
  27   37611.0    265.9   0.001306131   0.01143   0.06430  -0.02043  -0.08295
  28   38238.8    261.5   0.175993149   1.51519   0.20600   0.72744   0.97138
  29   38466.2    260.0   0.000503678   0.00431   0.04680   0.02967  -0.03522
  30   38607.9    259.0   0.002416871   0.02061  -0.03279  -0.12206  -0.06808
  31   38730.8    258.2   0.051834059   0.44059  -0.34975  -0.55860  -0.07894
  32   40252.4    248.4   0.032309588   0.26425  -0.06226  -0.03220   0.50925

FINAL SINGLE POINT ENERGY     -9458.079094288927

DIPOLE MOMENT
-------------
                                X             Y             Z
Electronic contribution:    -33.86711     179.66423      42.00750
Nuclear contribution   :     35.75862    -178.03360     -42.73042
                        -----------------------------------------
Total Dipole Moment    :      1.89151       1.63063      -0.72292
                        -----------------------------------------
Magnitude (a.u.)       :      2.59988
Magnitude (Debye)      :      6.60837

Rotational constants in cm-1:     0.000686     0.000265     0.000220
Rotational constants in MHz :    20.568189     7.948980     6.595163

                             ****ORCA TERMINATED NORMALLY****
TOTAL RUN TIME: 0 days 0 hours 9 minutes 37 seconds 154 msec
