                         Program Version 4.2.0 -  RELEASE  -
|  1> # ORCA input file
|  2> # SCF done       -153.316607948710          0.000893927799
|  3> ! CAM-B3LYP def2-SVP def2/J RIJCOSX Grid4 TightSCF
|  4> %maxcore 5000
|  5> %tddft
|  6>     Mode sTDDFT
|  7>     Ethresh 5.0
|  8>     maxcore 5000
|  9> end
| 10>
| 11> %pal
| 12>   nprocs 6
| 13>   end
| 14> * xyz 0 1
| 15>    C       -4.35191        -1.20056        -2.72140
| 16>    C       -3.07697        -1.49171        -3.12303
| 17>    C       -2.76278        -2.35630        -4.19461
| 18>    N       -2.44446        -3.05388        -5.04815
| 19>    C       -1.89809        -0.97910        -2.53859
| 20>    N       -0.89486        -0.60797        -2.12320
| 21>    C       -5.57500        -1.68723        -3.34179
| 22>    C       -6.69086        -1.11379        -2.68033
| 23>    C       -7.98864        -1.38128        -3.04731
| 24>    C       -8.19721        -2.25435        -4.11902
| 25>    C       -7.07694        -2.82583        -4.77214
| 26>    C       -5.76621        -2.55659        -4.40113
| 27>    S       -7.55954        -3.88030        -6.06400
| 28>    C       -9.23553        -3.54520        -5.71757
| 29>    C       -9.42628        -2.68669        -4.68697
| 30>   Br      -10.57282        -4.36042        -6.74683
| 31>    C       -6.22490        -0.24027        -1.59547
| 32>    O       -6.90881         0.33906        -0.77973
| 33>    C       -4.73457        -0.30408        -1.63766
| 34>    C       -3.91423         0.27305        -0.73165
| 35>    C       -4.30734         1.26274         0.22745
| 36>    C       -5.19060         2.32852         0.16465
| 37>    C       -6.00178         2.71263        -1.01890
| 38>    O       -5.53389         2.73284        -2.12468
| 39>    O       -7.27191         3.05560        -0.79187
| 40>    C       -5.01375         2.97620         1.42428
| 41>    N       -4.12580         2.32370         2.13904
| 42>    O       -3.68268         1.28633         1.41691
| 43>    C       -5.61522         4.21157         1.92958
| 44>    C       -5.64232         4.47837         3.24407
| 45>    C       -6.11641         5.11176         0.96908
| 46>    C       -6.52183         5.89515         0.13652
| 47>    C       -7.01009         6.78127        -0.81330
| 48>    C       -7.10766         8.11928        -0.58826
| 49>    C       -7.61889         9.03327        -1.52766
| 50>    C       -7.67830        10.38811        -1.33083
| 51>    C       -8.20826        11.35839        -2.21930
| 52>    C       -8.12427        12.63822        -1.76677
| 53>    C       -7.51143        12.75920        -0.49688
| 54>    S       -7.06529        11.18241         0.11439
| 55>    C       -7.24762        13.91664         0.20692
| 56>    C       -7.55915        15.24692        -0.15973
| 57>    C       -7.14215        16.17802         0.73841
| 58>    C       -6.46885        15.64055         1.86773
| 59>    S       -6.40936        13.89153         1.74729
| 60>    C       -5.92596        16.36549         2.89347
| 61>    C       -5.22691        15.87504         4.01058
| 62>    S       -4.91286        14.18146         4.35337
| 63>    C       -4.04763        14.50468         5.80159
| 64>    C       -3.98549        15.85814         6.03876
| 65>    C       -4.65154        16.61631         5.02932
| 66>    O       -4.57281        17.93832         5.28656
| 67>    C       -3.86555        18.03305         6.44545
| 68>    N       -3.62300        19.32827         6.96187
| 69>    O       -2.98928        19.38677         7.99903
| 70>    O       -4.05890        20.27710         6.34675
| 71>    C       -3.48037        16.82189         6.95433
| 72>    H       -8.81584        -0.92614        -2.52571
| 73>    H       -4.94856        -3.01850        -4.92841
| 74>    H      -10.39344        -2.37109        -4.34079
| 75>    H       -2.86777         0.00219        -0.68168
| 76>    H       -7.54712         2.89548         0.12050
| 77>    H       -5.23860         3.77621         3.95045
| 78>    H       -6.06559         5.39493         3.61606
| 79>    H       -7.30951         6.35336        -1.76169
| 80>    H       -6.77451         8.51741         0.36237
| 81>    H       -7.99324         8.64800        -2.46733
| 82>    H       -8.63558        11.07378        -3.16468
| 83>    H       -8.47599        13.49667        -2.31015
| 84>    H       -8.07986        15.47755        -1.07156
| 85>    H       -7.28668        17.23832         0.63093
| 86>    H       -6.02482        17.44238         2.85286
| 87>    H       -3.64471        13.69691         6.37577
| 88>    H       -2.91859        16.66567         7.85172
| 89> *
| 90>
| 91>                          ****END OF INPUT****

CARTESIAN COORDINATES (ANGSTROEM)
---------------------------------
  C     -4.351910   -1.200560   -2.721400
  C     -3.076970   -1.491710   -3.123030
  C     -2.762780   -2.356300   -4.194610
  N     -2.444460   -3.053880   -5.048150
  C     -1.898090   -0.979100   -2.538590
  N     -0.894860   -0.607970   -2.123200
  C     -5.575000   -1.687230   -3.341790
  C     -6.690860   -1.113790   -2.680330
  C     -7.988640   -1.381280   -3.047310
  C     -8.197210   -2.254350   -4.119020
  C     -7.076940   -2.825830   -4.772140
  C     -5.766210   -2.556590   -4.401130
  S     -7.559540   -3.880300   -6.064000
  C     -9.235530   -3.545200   -5.717570
  C     -9.426280   -2.686690   -4.686970
  Br   -10.572820   -4.360420   -6.746830
  C     -6.224900   -0.240270   -1.595470
  O     -6.908810    0.339060   -0.779730
  C     -4.734570   -0.304080   -1.637660
  C     -3.914230    0.273050   -0.731650
  C     -4.307340    1.262740    0.227450
  C     -5.190600    2.328520    0.164650
  C     -6.001780    2.712630   -1.018900
  O     -5.533890    2.732840   -2.124680
  O     -7.271910    3.055600   -0.791870
  C     -5.013750    2.976200    1.424280
  N     -4.125800    2.323700    2.139040
  O     -3.682680    1.286330    1.416910
  C     -5.615220    4.211570    1.929580
  C     -5.642320    4.478370    3.244070
  C     -6.116410    5.111760    0.969080
  C     -6.521830    5.895150    0.136520
  C     -7.010090    6.781270   -0.813300
  C     -7.107660    8.119280   -0.588260
  C     -7.618890    9.033270   -1.527660
  C     -7.678300   10.388110   -1.330830
  C     -8.208260   11.358390   -2.219300
  C     -8.124270   12.638220   -1.766770
  C     -7.511430   12.759200   -0.496880
  S     -7.065290   11.182410    0.114390
  C     -7.247620   13.916640    0.206920
  C     -7.559150   15.246920   -0.159730
  C     -7.142150   16.178020    0.738410
  C     -6.468850   15.640550    1.867730
  S     -6.409360   13.891530    1.747290
  C     -5.925960   16.365490    2.893470
  C     -5.226910   15.875040    4.010580
  S     -4.912860   14.181460    4.353370
  C     -4.047630   14.504680    5.801590
  C     -3.985490   15.858140    6.038760
  C     -4.651540   16.616310    5.029320
  O     -4.572810   17.938320    5.286560
  C     -3.865550   18.033050    6.445450
  N     -3.623000   19.328270    6.961870
  O     -2.989280   19.386770    7.999030
  O     -4.058900   20.277100    6.346750
  C     -3.480370   16.821890    6.954330
  H     -8.815840   -0.926140   -2.525710
  H     -4.948560   -3.018500   -4.928410
  H    -10.393440   -2.371090   -4.340790
  H     -2.867770    0.002190   -0.681680
  H     -7.547120    2.895480    0.120500
  H     -5.238600    3.776210    3.950450
  H     -6.065590    5.394930    3.616060
  H     -7.309510    6.353360   -1.761690
  H     -6.774510    8.517410    0.362370
  H     -7.993240    8.648000   -2.467330
  H     -8.635580   11.073780   -3.164680
  H     -8.475990   13.496670   -2.310150
  H     -8.079860   15.477550   -1.071560
  H     -7.286680   17.238320    0.630930
  H     -6.024820   17.442380    2.852860
  H     -3.644710   13.696910    6.375770
  H     -2.918590   16.665670    7.851720

 Total Charge           Charge          ....    0
 Multiplicity           Mult            ....    1
 Number of Electrons    NEL             ....  446
 Basis Dimension        Dim             ....  917

ORBITAL ENERGIES
----------------

  NO   OCC          E(Eh)            E(eV)
   0   2.0000    -482.892324    -13140.1682
   1   2.0000     -88.983780     -2421.3718
   2   2.0000     -88.977844     -2421.2102
   3   2.0000     -88.952853     -2420.5302
   4   2.0000     -88.949816     -2420.4475
   5   2.0000     -62.570006     -1702.6164
   6   2.0000     -56.403970     -1534.8301
   7   2.0000     -56.401230     -1534.7555
   8   2.0000     -56.401207     -1534.7549
   9   2.0000     -19.331891      -526.0475
  10   2.0000     -19.310458      -525.4643
  11   2.0000     -19.260668      -524.1094
  12   2.0000     -19.244160      -523.6602
  13   2.0000     -19.241862      -523.5977
  14   2.0000     -19.232375      -523.3395
  15   2.0000     -19.201145      -522.4897
  16   2.0000     -14.655770      -398.8038
  17   2.0000     -14.471674      -393.7943
  18   2.0000     -14.425784      -392.5455
  19   2.0000     -14.425307      -392.5325
  20   2.0000     -10.412689      -283.3437
  21   2.0000     -10.387704      -282.6638
  22   2.0000     -10.383248      -282.5425
  23   2.0000     -10.367095      -282.1030
  24   2.0000     -10.366156      -282.0774
  25   2.0000     -10.356342      -281.8104
  26   2.0000     -10.352714      -281.7117
  27   2.0000     -10.347677      -281.5746
  28   2.0000     -10.335290      -281.2375
  29   2.0000     -10.333209      -281.1809
  30   2.0000     -10.332627      -281.1651
  31   2.0000     -10.327576      -281.0276
  32   2.0000     -10.326810      -281.0068
  33   2.0000     -10.320027      -280.8222
  34   2.0000     -10.319529      -280.8087
  35   2.0000     -10.319292      -280.8022
  36   2.0000     -10.317437      -280.7517
  37   2.0000     -10.317138      -280.7436
  38   2.0000     -10.316938      -280.7382
  39   2.0000     -10.314986      -280.6851
  40   2.0000     -10.314569      -280.6737
  41   2.0000     -10.314533      -280.6727
  42   2.0000     -10.314523      -280.6724
  43   2.0000     -10.313660      -280.6490
  44   2.0000     -10.313233      -280.6373
  45   2.0000     -10.311334      -280.5857
  46   2.0000     -10.307564      -280.4831
  47   2.0000     -10.304319      -280.3948
  48   2.0000     -10.303419      -280.3703
  49   2.0000     -10.299253      -280.2569
  50   2.0000     -10.295562      -280.1565
  51   2.0000     -10.295150      -280.1453
  52   2.0000     -10.292554      -280.0746
  53   2.0000     -10.291222      -280.0384
  54   2.0000     -10.290687      -280.0238
  55   2.0000     -10.289644      -279.9955
  56   2.0000     -10.287763      -279.9443
  57   2.0000     -10.286192      -279.9015
  58   2.0000     -10.282849      -279.8105
  59   2.0000     -10.277938      -279.6769
  60   2.0000     -10.272080      -279.5175
  61   2.0000      -8.799414      -239.4442
  62   2.0000      -8.079790      -219.8623
  63   2.0000      -8.072345      -219.6597
  64   2.0000      -8.049065      -219.0262
  65   2.0000      -8.046132      -218.9464
  66   2.0000      -6.635764      -180.5683
  67   2.0000      -6.621149      -180.1706
  68   2.0000      -6.620888      -180.1635
  69   2.0000      -6.049451      -164.6139
  70   2.0000      -6.045193      -164.4981
  71   2.0000      -6.041683      -164.4026
  72   2.0000      -6.041028      -164.3847
  73   2.0000      -6.037246      -164.2818
  74   2.0000      -6.034791      -164.2150
  75   2.0000      -6.018856      -163.7814
  76   2.0000      -6.015855      -163.6997
  77   2.0000      -6.014757      -163.6699
  78   2.0000      -6.011912      -163.5924
  79   2.0000      -6.009900      -163.5377
  80   2.0000      -6.006978      -163.4582
  81   2.0000      -2.751627       -74.8756
  82   2.0000      -2.747510       -74.7636
  83   2.0000      -2.747373       -74.7598
  84   2.0000      -2.735728       -74.4429
  85   2.0000      -2.735715       -74.4426
  86   2.0000      -1.327195       -36.1148
  87   2.0000      -1.272207       -34.6185
  88   2.0000      -1.230358       -33.4798
  89   2.0000      -1.186348       -32.2822
  90   2.0000      -1.147975       -31.2380
  91   2.0000      -1.143530       -31.1170
  92   2.0000      -1.099869       -29.9290
  93   2.0000      -1.033080       -28.1115
  94   2.0000      -1.022845       -27.8330
  95   2.0000      -1.003853       -27.3162
  96   2.0000      -1.003773       -27.3140
  97   2.0000      -1.001004       -27.2387
  98   2.0000      -0.996290       -27.1104
  99   2.0000      -0.990536       -26.9539
 100   2.0000      -0.978283       -26.6204
 101   2.0000      -0.955887       -26.0110
 102   2.0000      -0.938178       -25.5291
 103   2.0000      -0.936403       -25.4808
 104   2.0000      -0.918898       -25.0045
 105   2.0000      -0.918292       -24.9880
 106   2.0000      -0.903602       -24.5883
 107   2.0000      -0.898768       -24.4567
 108   2.0000      -0.895427       -24.3658
 109   2.0000      -0.894222       -24.3330
 110   2.0000      -0.882812       -24.0225
 111   2.0000      -0.865682       -23.5564
 112   2.0000      -0.857922       -23.3452
 113   2.0000      -0.852930       -23.2094
 114   2.0000      -0.838627       -22.8202
 115   2.0000      -0.836438       -22.7606
 116   2.0000      -0.827448       -22.5160
 117   2.0000      -0.811876       -22.0923
 118   2.0000      -0.792441       -21.5634
 119   2.0000      -0.787880       -21.4393
 120   2.0000      -0.777446       -21.1554
 121   2.0000      -0.771461       -20.9925
 122   2.0000      -0.759695       -20.6724
 123   2.0000      -0.747804       -20.3488
 124   2.0000      -0.733388       -19.9565
 125   2.0000      -0.720049       -19.5935
 126   2.0000      -0.709514       -19.3069
 127   2.0000      -0.708034       -19.2666
 128   2.0000      -0.702105       -19.1053
 129   2.0000      -0.701238       -19.0816
 130   2.0000      -0.689355       -18.7583
 131   2.0000      -0.677217       -18.4280
 132   2.0000      -0.673844       -18.3362
 133   2.0000      -0.668257       -18.1842
 134   2.0000      -0.658893       -17.9294
 135   2.0000      -0.650511       -17.7013
 136   2.0000      -0.647606       -17.6223
 137   2.0000      -0.640919       -17.4403
 138   2.0000      -0.639022       -17.3887
 139   2.0000      -0.635176       -17.2840
 140   2.0000      -0.629725       -17.1357
 141   2.0000      -0.625711       -17.0265
 142   2.0000      -0.622170       -16.9301
 143   2.0000      -0.616561       -16.7775
 144   2.0000      -0.606329       -16.4990
 145   2.0000      -0.602463       -16.3939
 146   2.0000      -0.602104       -16.3841
 147   2.0000      -0.591932       -16.1073
 148   2.0000      -0.589189       -16.0327
 149   2.0000      -0.585366       -15.9286
 150   2.0000      -0.582673       -15.8553
 151   2.0000      -0.568222       -15.4621
 152   2.0000      -0.567270       -15.4362
 153   2.0000      -0.562730       -15.3127
 154   2.0000      -0.556659       -15.1475
 155   2.0000      -0.555630       -15.1194
 156   2.0000      -0.551178       -14.9983
 157   2.0000      -0.549847       -14.9621
 158   2.0000      -0.544159       -14.8073
 159   2.0000      -0.536453       -14.5976
 160   2.0000      -0.534701       -14.5500
 161   2.0000      -0.533694       -14.5225
 162   2.0000      -0.529695       -14.4137
 163   2.0000      -0.523287       -14.2394
 164   2.0000      -0.521276       -14.1846
 165   2.0000      -0.519868       -14.1463
 166   2.0000      -0.516510       -14.0550
 167   2.0000      -0.508963       -13.8496
 168   2.0000      -0.508259       -13.8304
 169   2.0000      -0.503994       -13.7144
 170   2.0000      -0.501421       -13.6444
 171   2.0000      -0.499533       -13.5930
 172   2.0000      -0.497022       -13.5247
 173   2.0000      -0.495804       -13.4915
 174   2.0000      -0.484638       -13.1877
 175   2.0000      -0.483192       -13.1483
 176   2.0000      -0.480321       -13.0702
 177   2.0000      -0.477786       -13.0012
 178   2.0000      -0.472249       -12.8506
 179   2.0000      -0.467714       -12.7272
 180   2.0000      -0.465513       -12.6672
 181   2.0000      -0.463539       -12.6135
 182   2.0000      -0.462205       -12.5772
 183   2.0000      -0.457505       -12.4493
 184   2.0000      -0.457295       -12.4436
 185   2.0000      -0.455543       -12.3960
 186   2.0000      -0.453218       -12.3327
 187   2.0000      -0.452470       -12.3123
 188   2.0000      -0.447898       -12.1879
 189   2.0000      -0.446233       -12.1426
 190   2.0000      -0.437007       -11.8916
 191   2.0000      -0.434710       -11.8291
 192   2.0000      -0.433892       -11.8068
 193   2.0000      -0.430558       -11.7161
 194   2.0000      -0.426181       -11.5970
 195   2.0000      -0.420717       -11.4483
 196   2.0000      -0.418040       -11.3754
 197   2.0000      -0.409769       -11.1504
 198   2.0000      -0.403789       -10.9877
 199   2.0000      -0.399613       -10.8740
 200   2.0000      -0.397978       -10.8295
 201   2.0000      -0.395348       -10.7580
 202   2.0000      -0.389864       -10.6087
 203   2.0000      -0.388804       -10.5799
 204   2.0000      -0.387121       -10.5341
 205   2.0000      -0.381500       -10.3812
 206   2.0000      -0.380091       -10.3428
 207   2.0000      -0.372487       -10.1359
 208   2.0000      -0.371695       -10.1143
 209   2.0000      -0.365633        -9.9494
 210   2.0000      -0.353674        -9.6240
 211   2.0000      -0.352186        -9.5835
 212   2.0000      -0.351333        -9.5603
 213   2.0000      -0.344641        -9.3782
 214   2.0000      -0.334665        -9.1067
 215   2.0000      -0.332454        -9.0465
 216   2.0000      -0.324507        -8.8303
 217   2.0000      -0.319088        -8.6828
 218   2.0000      -0.315520        -8.5857
 219   2.0000      -0.304243        -8.2789
 220   2.0000      -0.301299        -8.1988
 221   2.0000      -0.272805        -7.4234
 222   2.0000      -0.215989        -5.8774
 223   0.0000      -0.103811        -2.8248
 224   0.0000      -0.088556        -2.4097
 225   0.0000      -0.072866        -1.9828
 226   0.0000      -0.061447        -1.6721
 227   0.0000      -0.033021        -0.8985

MULLIKEN ATOMIC CHARGES
-----------------------
   0 C :    0.298199
   1 C :   -0.328608
   2 C :   -0.187450
   3 N :    0.157417
   4 C :   -0.194639
   5 N :    0.176309
   6 C :    0.022137
   7 C :   -0.017122
   8 C :   -0.057983
   9 C :    0.116511
  10 C :   -0.088251
  11 C :   -0.016551
  12 S :    0.193640
  13 C :   -0.123009
  14 C :    0.040689
  15 Br:    0.031381
  16 C :    0.164308
  17 O :   -0.161857
  18 C :   -0.029298
  19 C :   -0.041121
  20 C :    0.172758
  21 C :   -0.108046
  22 C :    0.175743
  23 O :   -0.181059
  24 O :   -0.143131
  25 C :   -0.008931
  26 N :    0.018623
  27 O :   -0.149694
  28 C :   -0.076524
  29 C :    0.035062
  30 C :   -0.027150
  31 C :    0.038995
  32 C :   -0.112668
  33 C :    0.030880
  34 C :   -0.023209
  35 C :   -0.009527
  36 C :    0.038048
  37 C :    0.031222
  38 C :   -0.052122
  39 S :    0.078356
  40 C :   -0.035876
  41 C :    0.028765
  42 C :    0.039637
  43 C :   -0.028186
  44 S :    0.064570
  45 C :   -0.010047
  46 C :   -0.194463
  47 S :    0.143837
  48 C :   -0.127386
  49 C :    0.122734
  50 C :    0.195198
  51 O :   -0.184320
  52 C :    0.233971
  53 N :    0.274435
  54 O :   -0.249678
  55 O :   -0.230629
  56 C :   -0.069735
  57 H :   -0.006493
  58 H :   -0.005007
  59 H :   -0.001218
  60 H :    0.047714
  61 H :    0.193071
  62 H :    0.040131
  63 H :    0.027569
  64 H :    0.031546
  65 H :    0.013382
  66 H :   -0.009792
  67 H :   -0.009786
  68 H :   -0.010352
  69 H :   -0.012421
  70 H :   -0.006694
  71 H :    0.006711
  72 H :    0.033230
  73 H :    0.013257
Sum of atomic charges:   -0.0000000

LOEWDIN ATOMIC CHARGES
----------------------
   0 C :    0.073684
   1 C :   -0.121924
   2 C :   -0.016712
   3 N :   -0.041862
   4 C :   -0.022502
   5 N :   -0.034647
   6 C :   -0.017757
   7 C :   -0.049069
   8 C :    0.029438
   9 C :   -0.029809
  10 C :   -0.140284
  11 C :   -0.007104
  12 S :    0.438863
  13 C :   -0.268747
  14 C :   -0.069087
  15 Br:    0.143150
  16 C :    0.095961
  17 O :   -0.135865
  18 C :   -0.051815
  19 C :    0.055030
  20 C :    0.050125
  21 C :   -0.105140
  22 C :    0.075556
  23 O :   -0.160420
  24 O :   -0.005198
  25 C :   -0.023747
  26 N :   -0.021171
  27 O :    0.049753
  28 C :   -0.063608
  29 C :    0.021516
  30 C :   -0.063112
  31 C :   -0.009779
  32 C :   -0.045016
  33 C :   -0.000036
  34 C :   -0.060364
  35 C :   -0.134766
  36 C :   -0.032384
  37 C :   -0.026077
  38 C :   -0.177648
  39 S :    0.370721
  40 C :   -0.174312
  41 C :   -0.035217
  42 C :   -0.027250
  43 C :   -0.152558
  44 S :    0.363896
  45 C :   -0.066695
  46 C :   -0.204825
  47 S :    0.475083
  48 C :   -0.188534
  49 C :   -0.084447
  50 C :    0.020675
  51 O :    0.001410
  52 C :    0.025195
  53 N :    0.272114
  54 O :   -0.210564
  55 O :   -0.192159
  56 C :   -0.008462
  57 H :    0.042994
  58 H :    0.041944
  59 H :    0.039897
  60 H :    0.056600
  61 H :    0.100092
  62 H :    0.033879
  63 H :    0.033433
  64 H :    0.045709
  65 H :    0.029043
  66 H :    0.034783
  67 H :    0.034934
  68 H :    0.033129
  69 H :    0.032720
  70 H :    0.035818
  71 H :    0.046979
  72 H :    0.029304
  73 H :    0.047242

  Mayer bond orders larger than 0.100000
B(  0-C ,  1-C ) :   1.6633 B(  0-C ,  6-C ) :   1.0190 B(  0-C , 18-C ) :   1.0464
B(  1-C ,  2-C ) :   1.1416 B(  1-C ,  4-C ) :   1.1375 B(  2-C ,  3-N ) :   2.9691
B(  4-C ,  5-N ) :   2.9832 B(  6-C ,  7-C ) :   1.2650 B(  6-C , 11-C ) :   1.4014
B(  7-C ,  8-C ) :   1.4168 B(  7-C , 16-C ) :   0.9539 B(  8-C ,  9-C ) :   1.2550
B(  8-C , 57-H ) :   1.0158 B(  9-C , 10-C ) :   1.2939 B(  9-C , 14-C ) :   1.1631
B( 10-C , 11-C ) :   1.3400 B( 10-C , 12-S ) :   1.0906 B( 11-C , 58-H ) :   0.9791
B( 12-S , 13-C ) :   1.0863 B( 13-C , 14-C ) :   1.6163 B( 13-C , 15-Br) :   1.0231
B( 14-C , 59-H ) :   1.0012 B( 16-C , 17-O ) :   2.1842 B( 16-C , 18-C ) :   0.9261
B( 18-C , 19-C ) :   1.7027 B( 19-C , 20-C ) :   1.0742 B( 19-C , 60-H ) :   0.9309
B( 20-C , 21-C ) :   1.5368 B( 20-C , 26-N ) :   0.1041 B( 20-C , 27-O ) :   1.1679
B( 21-C , 22-C ) :   0.8735 B( 21-C , 25-C ) :   1.2310 B( 22-C , 23-O ) :   2.1851
B( 22-C , 24-O ) :   1.2341 B( 24-O , 61-H ) :   0.9452 B( 25-C , 26-N ) :   1.6965
B( 25-C , 28-C ) :   1.0159 B( 26-N , 27-O ) :   1.0263 B( 28-C , 29-C ) :   1.9499
B( 28-C , 30-C ) :   0.8779 B( 29-C , 62-H ) :   0.9326 B( 29-C , 63-H ) :   0.9360
B( 30-C , 31-C ) :   2.2468 B( 31-C , 32-C ) :   0.9950 B( 32-C , 33-C ) :   1.6546
B( 32-C , 64-H ) :   0.9652 B( 33-C , 34-C ) :   1.1582 B( 33-C , 65-H ) :   0.9751
B( 34-C , 35-C ) :   1.5719 B( 34-C , 66-H ) :   0.9802 B( 35-C , 36-C ) :   1.1398
B( 35-C , 39-S ) :   1.0337 B( 36-C , 37-C ) :   1.5955 B( 36-C , 67-H ) :   0.9990
B( 37-C , 38-C ) :   1.1831 B( 37-C , 68-H ) :   0.9936 B( 38-C , 39-S ) :   1.0442
B( 38-C , 40-C ) :   1.5221 B( 40-C , 41-C ) :   1.1794 B( 40-C , 44-S ) :   1.0407
B( 41-C , 42-C ) :   1.6004 B( 41-C , 69-H ) :   0.9923 B( 42-C , 43-C ) :   1.1365
B( 42-C , 70-H ) :   1.0004 B( 43-C , 44-S ) :   1.0325 B( 43-C , 45-C ) :   1.5744
B( 45-C , 46-C ) :   1.1733 B( 45-C , 71-H ) :   0.9736 B( 46-C , 47-S ) :   1.1076
B( 46-C , 48-C ) :   0.1088 B( 46-C , 50-C ) :   1.4414 B( 47-S , 48-C ) :   1.1895
B( 48-C , 49-C ) :   1.4163 B( 48-C , 72-H ) :   0.9753 B( 49-C , 50-C ) :   1.2308
B( 49-C , 56-C ) :   1.0613 B( 50-C , 51-O ) :   1.1238 B( 51-O , 52-C ) :   1.1214
B( 52-C , 53-N ) :   0.9161 B( 52-C , 56-C ) :   1.5782 B( 53-N , 54-O ) :   1.5328
B( 53-N , 55-O ) :   1.5148 B( 54-O , 55-O ) :   0.2801 B( 56-C , 73-H ) :   1.0251

-----------------------------------------------------------------------------
         ABSORPTION SPECTRUM VIA TRANSITION ELECTRIC DIPOLE MOMENTS
-----------------------------------------------------------------------------
State   Energy  Wavelength   fosc         T2         TX        TY        TZ
        (cm-1)    (nm)                  (au**2)     (au)      (au)      (au)
-----------------------------------------------------------------------------
   0   14689.6    680.8   1.049195486  23.51371   0.82347   4.22594   2.23093
   1   15378.0    650.3   0.250060248   5.35330   0.58345   1.89272   1.19603
   2   19743.2    506.5   0.183988789   3.06796  -0.19686   1.73986  -0.04588
   3   22193.6    450.6   0.000443624   0.00658   0.05481  -0.01576   0.05769
   4   24127.1    414.5   0.076454373   1.04321  -0.06350   1.01260   0.11758
   5   25617.2    390.4   0.172516664   2.21705  -0.86442   1.09030   0.53016
   6   26329.5    379.8   0.087471148   1.09370  -0.70598  -0.73487  -0.23507
   7   26513.5    377.2   0.174782062   2.17022  -0.94176  -0.82612  -0.77513
   8   27637.2    361.8   0.882841919  10.51633   1.42286  -1.51674   2.48823
   9   28814.0    347.1   0.005129246   0.05860   0.08734   0.13287   0.18254
  10   29748.8    336.1   0.136488375   1.51043   0.21823  -0.80738  -0.90053
  11   30885.7    323.8   0.071531092   0.76245  -0.76968  -0.00641  -0.41232
  12   30933.1    323.3   0.103507207   1.10160   0.13212  -0.36725   0.97430
  13   31610.8    316.3   0.002336874   0.02434  -0.06036  -0.06190  -0.12986
  14   32002.5    312.5   0.485634367   4.99576   1.82669   0.70910   1.07525
  15   32043.2    312.1   0.020525938   0.21088  -0.06985  -0.32615  -0.31565
  16   32244.3    310.1   0.242770049   2.47867  -0.94758  -1.08447  -0.63615
  17   32409.7    308.5   0.286288982   2.90807  -1.62545   0.30250  -0.41770
  18   32595.2    306.8   0.066352915   0.67016  -0.64822  -0.12318   0.48457
  19   32809.6    304.8   0.000009716   0.00010  -0.00320  -0.00645   0.00676
  20   33722.3    296.5   0.048187782   0.47043   0.15740   0.42833   0.51204
  21   34047.1    293.7   0.137833360   1.33275   0.24702   0.75694   0.83593
  22   34490.3    289.9   0.013779771   0.13153  -0.06844  -0.13467  -0.32971
  23   35571.0    281.1   0.121174322   1.12148  -0.30549  -0.67914  -0.75294
  24   35981.6    277.9   0.008193220   0.07496  -0.18906   0.04419  -0.19305
  25   36298.5    275.5   0.007919864   0.07183  -0.25256  -0.03543  -0.08238
  26   36560.4    273.5   0.312272993   2.81189  -0.38605  -1.38428  -0.86408
  27   36806.3    271.7   0.250234042   2.23820   0.56424  -0.88387  -1.06706
  28   36854.1    271.3   0.009034407   0.08070   0.10247   0.26360   0.02678
  29   37873.0    264.0   0.049258956   0.42818  -0.04174  -0.61336  -0.22412
  30   38013.3    263.1   0.134169709   1.16197   0.11232   1.07202   0.01153
  31   38799.0    257.7   0.010047487   0.08525   0.26107  -0.08738  -0.09726
  32   39179.9    255.2   0.013434103   0.11288   0.05247  -0.32372   0.07303
  33   39442.2    253.5   0.024904959   0.20787  -0.22438   0.36864   0.14709
  34   39533.6    252.9   0.038046208   0.31683  -0.02340   0.52081   0.21221
  35   39732.4    251.7   0.113001035   0.93630  -0.14304   0.50007   0.81595
  36   39928.7    250.4   0.056709108   0.46757  -0.01437   0.58975   0.34576

FINAL SINGLE POINT ENERGY     -6481.213889476583

DIPOLE MOMENT
-------------
                                X             Y             Z
Electronic contribution:    -36.67743    -128.08586     -68.65586
Nuclear contribution   :     33.28907     127.20930      67.98036
                        -----------------------------------------
Total Dipole Moment    :     -3.38837      -0.87655      -0.67550
                        -----------------------------------------
Magnitude (a.u.)       :      3.56450
Magnitude (Debye)      :      9.06025

Rotational constants in cm-1:     0.002431     0.000238     0.000223
Rotational constants in MHz :    72.882440     7.127017     6.697013

                             ****ORCA TERMINATED NORMALLY****
TOTAL RUN TIME: 0 days 0 hours 6 minutes 24 seconds 398 msec
