                         Program Version 4.2.0 -  RELEASE  -
|  1> # ORCA input file
|  2> # SCF done       -168.031948317453          0.000965852584
|  3> ! CAM-B3LYP def2-SVP def2/J RIJCOSX Grid4 TightSCF
|  4> %maxcore 5000
|  5> %tddft
|  6>     Mode sTDDFT
|  7>     Ethresh 5.0
|  8>     maxcore 5000
|  9> end
| 10>
| 11> %pal
| 12>   nprocs 6
| 13>   end
| 14> * xyz 0 1
| 15>    C       -3.61890        -2.10421         0.59880
| 16>    C       -3.07960        -1.00695         1.22153
| 17>    C       -1.84456        -1.01164         1.90077
| 18>    N       -0.84573        -0.95540         2.46432
| 19>    C       -3.70117         0.25663         1.30350
| 20>    N       -4.15459         1.30403         1.43196
| 21>    C       -3.05759        -3.45059         0.61167
| 22>    C       -3.98296        -4.32979        -0.00080
| 23>    C       -3.74581        -5.67521        -0.13715
| 24>    C       -2.53596        -6.17791         0.35461
| 25>    C       -1.61609        -5.29086         0.96075
| 26>    C       -1.85678        -3.92911         1.10002
| 27>    S       -0.18160        -6.11900         1.48774
| 28>    C       -0.83065        -7.62543         0.89709
| 29>    C       -2.05663        -7.51669         0.33311
| 30>   Br        0.17396        -9.19927         1.07604
| 31>    C       -5.16617        -3.56636        -0.44973
| 32>    O       -6.12446        -4.01562        -1.04519
| 33>    C       -4.88544        -2.16012        -0.09870
| 34>    C       -5.59574        -1.07407        -0.54073
| 35>    C       -6.86372        -1.05534        -1.15608
| 36>    S       -7.12440         0.18406        -2.36685
| 37>    C       -8.64363        -0.49101        -2.77645
| 38>    C       -8.98055        -1.56914        -2.01700
| 39>    C      -10.26447        -2.31462        -2.16173
| 40>    C       -7.98298        -1.88606        -1.04691
| 41>    C       -8.20984        -2.86238        -0.02454
| 42>    C       -7.71157        -2.81632         1.23390
| 43>    C       -7.99201        -3.81016         2.20414
| 44>    C       -7.49188        -3.78610         3.46571
| 45>    C       -7.73836        -4.77191         4.46541
| 46>    C       -7.15327        -4.66809         5.73407
| 47>    N       -7.30606        -5.51779         6.72752
| 48>    C       -8.07247        -6.60548         6.60895
| 49>    C       -8.74222        -6.84089         5.37329
| 50>    C       -8.57146        -5.91388         4.28752
| 51>    N       -9.26557        -6.28700         3.21520
| 52>    S      -10.04777        -7.65919         3.54374
| 53>    N       -9.54476        -7.84978         5.06427
| 54>    C       -8.16999        -7.46108         7.72041
| 55>    C       -7.48504        -7.17727         8.87701
| 56>    C       -7.47387        -7.92800        10.07770
| 57>    C       -6.69659        -7.38920        11.05663
| 58>    C       -6.06108        -6.18839        10.66574
| 59>    S       -6.47903        -5.76110         9.00833
| 60>    C       -5.22914        -5.39917        11.43488
| 61>    C       -4.85795        -5.57592        12.78971
| 62>    C       -4.05333        -4.59267        13.27077
| 63>    C       -3.75330        -3.57105        12.32777
| 64>    S       -4.49741        -3.95127        10.78924
| 65>    C       -2.92037        -2.50739        12.55715
| 66>    C       -2.63008        -1.43382        11.67795
| 67>    C       -3.48788        -0.81100        10.79319
| 68>    C       -3.06369         0.21069         9.80401
| 69>    C       -1.73171         0.65999         9.69720
| 70>    C       -0.76709         0.26964        10.55591
| 71>    S       -0.97582        -0.86859        11.83330
| 72>    N       -4.06705         0.67613         9.09093
| 73>    C       -5.18567         0.06436         9.56814
| 74>    C       -4.88009        -0.85386        10.60152
| 75>    S       -6.31007        -1.54502        11.26449
| 76>    C       -7.30257        -0.63494        10.13997
| 77>    C       -6.55650         0.16783         9.30741
| 78>    C       -8.72567        -0.81692        10.20354
| 79>    C       -9.61606        -0.20524         9.42402
| 80>    H       -4.47021        -6.32038        -0.60890
| 81>    H       -1.12240        -3.29243         1.56454
| 82>    H       -2.60148        -8.34425        -0.08323
| 83>    H       -5.09762        -0.11087        -0.51444
| 84>    H       -9.21735        -0.04766        -3.56747
| 85>    H      -10.85431        -1.89829        -2.97412
| 86>    H      -10.84424        -2.25591        -1.24153
| 87>    H      -10.06713        -3.36447        -2.37399
| 88>    H       -8.89592        -3.65898        -0.27674
| 89>    H       -7.07724        -1.99096         1.53301
| 90>    H       -8.62764        -4.63303         1.91019
| 91>    H       -6.84808        -2.96711         3.76526
| 92>    H       -6.51006        -3.82527         5.95373
| 93>    H       -8.78828        -8.34139         7.64560
| 94>    H       -8.04146        -8.83687        10.17476
| 95>    H       -6.56772        -7.82235        12.03266
| 96>    H       -5.20158        -6.41455        13.36788
| 97>    H       -3.67626        -4.54793        14.27716
| 98>    H       -2.34097        -2.53888        13.47244
| 99>    H       -1.50741         1.37767         8.92282
|100>    H        0.24201         0.64449        10.50987
|101>    H       -6.97831         0.80468         8.55312
|102>    H       -9.06217        -1.51634        10.95848
|103>    H       -9.32393         0.49653         8.66252
|104>    H      -10.67034        -0.39147         9.52820
|105> *
|106>
|107>                          ****END OF INPUT****

CARTESIAN COORDINATES (ANGSTROEM)
---------------------------------
  C     -3.618900   -2.104210    0.598800
  C     -3.079600   -1.006950    1.221530
  C     -1.844560   -1.011640    1.900770
  N     -0.845730   -0.955400    2.464320
  C     -3.701170    0.256630    1.303500
  N     -4.154590    1.304030    1.431960
  C     -3.057590   -3.450590    0.611670
  C     -3.982960   -4.329790   -0.000800
  C     -3.745810   -5.675210   -0.137150
  C     -2.535960   -6.177910    0.354610
  C     -1.616090   -5.290860    0.960750
  C     -1.856780   -3.929110    1.100020
  S     -0.181600   -6.119000    1.487740
  C     -0.830650   -7.625430    0.897090
  C     -2.056630   -7.516690    0.333110
  Br     0.173960   -9.199270    1.076040
  C     -5.166170   -3.566360   -0.449730
  O     -6.124460   -4.015620   -1.045190
  C     -4.885440   -2.160120   -0.098700
  C     -5.595740   -1.074070   -0.540730
  C     -6.863720   -1.055340   -1.156080
  S     -7.124400    0.184060   -2.366850
  C     -8.643630   -0.491010   -2.776450
  C     -8.980550   -1.569140   -2.017000
  C    -10.264470   -2.314620   -2.161730
  C     -7.982980   -1.886060   -1.046910
  C     -8.209840   -2.862380   -0.024540
  C     -7.711570   -2.816320    1.233900
  C     -7.992010   -3.810160    2.204140
  C     -7.491880   -3.786100    3.465710
  C     -7.738360   -4.771910    4.465410
  C     -7.153270   -4.668090    5.734070
  N     -7.306060   -5.517790    6.727520
  C     -8.072470   -6.605480    6.608950
  C     -8.742220   -6.840890    5.373290
  C     -8.571460   -5.913880    4.287520
  N     -9.265570   -6.287000    3.215200
  S    -10.047770   -7.659190    3.543740
  N     -9.544760   -7.849780    5.064270
  C     -8.169990   -7.461080    7.720410
  C     -7.485040   -7.177270    8.877010
  C     -7.473870   -7.928000   10.077700
  C     -6.696590   -7.389200   11.056630
  C     -6.061080   -6.188390   10.665740
  S     -6.479030   -5.761100    9.008330
  C     -5.229140   -5.399170   11.434880
  C     -4.857950   -5.575920   12.789710
  C     -4.053330   -4.592670   13.270770
  C     -3.753300   -3.571050   12.327770
  S     -4.497410   -3.951270   10.789240
  C     -2.920370   -2.507390   12.557150
  C     -2.630080   -1.433820   11.677950
  C     -3.487880   -0.811000   10.793190
  C     -3.063690    0.210690    9.804010
  C     -1.731710    0.659990    9.697200
  C     -0.767090    0.269640   10.555910
  S     -0.975820   -0.868590   11.833300
  N     -4.067050    0.676130    9.090930
  C     -5.185670    0.064360    9.568140
  C     -4.880090   -0.853860   10.601520
  S     -6.310070   -1.545020   11.264490
  C     -7.302570   -0.634940   10.139970
  C     -6.556500    0.167830    9.307410
  C     -8.725670   -0.816920   10.203540
  C     -9.616060   -0.205240    9.424020
  H     -4.470210   -6.320380   -0.608900
  H     -1.122400   -3.292430    1.564540
  H     -2.601480   -8.344250   -0.083230
  H     -5.097620   -0.110870   -0.514440
  H     -9.217350   -0.047660   -3.567470
  H    -10.854310   -1.898290   -2.974120
  H    -10.844240   -2.255910   -1.241530
  H    -10.067130   -3.364470   -2.373990
  H     -8.895920   -3.658980   -0.276740
  H     -7.077240   -1.990960    1.533010
  H     -8.627640   -4.633030    1.910190
  H     -6.848080   -2.967110    3.765260
  H     -6.510060   -3.825270    5.953730
  H     -8.788280   -8.341390    7.645600
  H     -8.041460   -8.836870   10.174760
  H     -6.567720   -7.822350   12.032660
  H     -5.201580   -6.414550   13.367880
  H     -3.676260   -4.547930   14.277160
  H     -2.340970   -2.538880   13.472440
  H     -1.507410    1.377670    8.922820
  H      0.242010    0.644490   10.509870
  H     -6.978310    0.804680    8.553120
  H     -9.062170   -1.516340   10.958480
  H     -9.323930    0.496530    8.662520
  H    -10.670340   -0.391470    9.528200

 Total Charge           Charge          ....    0
 Multiplicity           Mult            ....    1
 Number of Electrons    NEL             ....  522
 Basis Dimension        Dim             .... 1081

ORBITAL ENERGIES
----------------

  NO   OCC          E(Eh)            E(eV)
   0   2.0000    -482.880724    -13139.8525
   1   2.0000     -89.023480     -2422.4520
   2   2.0000     -88.968966     -2420.9686
   3   2.0000     -88.960435     -2420.7365
   4   2.0000     -88.956835     -2420.6386
   5   2.0000     -88.950977     -2420.4791
   6   2.0000     -88.945335     -2420.3256
   7   2.0000     -88.939011     -2420.1535
   8   2.0000     -62.558430     -1702.3014
   9   2.0000     -56.392372     -1534.5145
  10   2.0000     -56.389673     -1534.4410
  11   2.0000     -56.389635     -1534.4400
  12   2.0000     -19.205554      -522.6097
  13   2.0000     -14.443866      -393.0376
  14   2.0000     -14.436959      -392.8496
  15   2.0000     -14.407929      -392.0597
  16   2.0000     -14.405824      -392.0024
  17   2.0000     -14.405529      -391.9944
  18   2.0000     -14.365105      -390.8944
  19   2.0000     -10.354509      -281.7605
  20   2.0000     -10.352749      -281.7126
  21   2.0000     -10.331804      -281.1427
  22   2.0000     -10.331206      -281.1264
  23   2.0000     -10.324733      -280.9503
  24   2.0000     -10.324475      -280.9433
  25   2.0000     -10.322352      -280.8855
  26   2.0000     -10.321707      -280.8679
  27   2.0000     -10.320144      -280.8254
  28   2.0000     -10.317790      -280.7613
  29   2.0000     -10.317725      -280.7596
  30   2.0000     -10.314752      -280.6787
  31   2.0000     -10.311485      -280.5898
  32   2.0000     -10.309131      -280.5257
  33   2.0000     -10.308702      -280.5140
  34   2.0000     -10.308635      -280.5122
  35   2.0000     -10.303295      -280.3669
  36   2.0000     -10.302905      -280.3563
  37   2.0000     -10.302798      -280.3534
  38   2.0000     -10.300077      -280.2794
  39   2.0000     -10.299822      -280.2724
  40   2.0000     -10.298969      -280.2492
  41   2.0000     -10.297531      -280.2101
  42   2.0000     -10.295433      -280.1530
  43   2.0000     -10.293416      -280.0981
  44   2.0000     -10.293071      -280.0887
  45   2.0000     -10.292342      -280.0689
  46   2.0000     -10.291661      -280.0503
  47   2.0000     -10.291073      -280.0343
  48   2.0000     -10.290757      -280.0257
  49   2.0000     -10.290416      -280.0164
  50   2.0000     -10.287222      -279.9295
  51   2.0000     -10.286448      -279.9085
  52   2.0000     -10.284717      -279.8614
  53   2.0000     -10.284457      -279.8543
  54   2.0000     -10.283454      -279.8270
  55   2.0000     -10.282427      -279.7991
  56   2.0000     -10.282327      -279.7963
  57   2.0000     -10.275004      -279.5971
  58   2.0000     -10.274229      -279.5760
  59   2.0000     -10.273242      -279.5491
  60   2.0000     -10.272222      -279.5214
  61   2.0000     -10.271761      -279.5088
  62   2.0000     -10.270141      -279.4647
  63   2.0000     -10.269180      -279.4386
  64   2.0000     -10.267742      -279.3995
  65   2.0000     -10.264655      -279.3155
  66   2.0000     -10.261983      -279.2428
  67   2.0000     -10.253855      -279.0216
  68   2.0000     -10.251282      -278.9516
  69   2.0000      -8.787852      -239.1296
  70   2.0000      -8.115458      -220.8328
  71   2.0000      -8.064922      -219.4577
  72   2.0000      -8.056112      -219.2179
  73   2.0000      -8.052914      -219.1309
  74   2.0000      -8.046623      -218.9597
  75   2.0000      -8.038576      -218.7408
  76   2.0000      -8.033215      -218.5949
  77   2.0000      -6.624126      -180.2516
  78   2.0000      -6.609590      -179.8561
  79   2.0000      -6.609416      -179.8514
  80   2.0000      -6.086805      -165.6304
  81   2.0000      -6.078942      -165.4164
  82   2.0000      -6.077651      -165.3813
  83   2.0000      -6.034616      -164.2103
  84   2.0000      -6.030344      -164.0940
  85   2.0000      -6.026156      -163.9800
  86   2.0000      -6.025644      -163.9661
  87   2.0000      -6.022191      -163.8721
  88   2.0000      -6.021165      -163.8442
  89   2.0000      -6.017986      -163.7577
  90   2.0000      -6.017952      -163.7568
  91   2.0000      -6.016322      -163.7125
  92   2.0000      -6.015092      -163.6790
  93   2.0000      -6.012052      -163.5963
  94   2.0000      -6.008670      -163.5042
  95   2.0000      -6.007749      -163.4792
  96   2.0000      -6.003782      -163.3712
  97   2.0000      -6.002589      -163.3387
  98   2.0000      -5.999857      -163.2644
  99   2.0000      -5.998585      -163.2298
 100   2.0000      -5.995301      -163.1404
 101   2.0000      -2.739987       -74.5588
 102   2.0000      -2.735951       -74.4490
 103   2.0000      -2.735771       -74.4441
 104   2.0000      -2.724240       -74.1303
 105   2.0000      -2.724226       -74.1300
 106   2.0000      -1.124669       -30.6038
 107   2.0000      -1.119497       -30.4631
 108   2.0000      -1.044194       -28.4140
 109   2.0000      -1.032545       -28.0970
 110   2.0000      -1.014793       -27.6139
 111   2.0000      -1.004838       -27.3430
 112   2.0000      -0.999346       -27.1936
 113   2.0000      -0.990079       -26.9414
 114   2.0000      -0.984462       -26.7886
 115   2.0000      -0.980723       -26.6868
 116   2.0000      -0.980056       -26.6687
 117   2.0000      -0.976336       -26.5675
 118   2.0000      -0.958195       -26.0738
 119   2.0000      -0.943637       -25.6777
 120   2.0000      -0.935248       -25.4494
 121   2.0000      -0.916401       -24.9366
 122   2.0000      -0.902853       -24.5679
 123   2.0000      -0.900901       -24.5148
 124   2.0000      -0.897145       -24.4126
 125   2.0000      -0.894131       -24.3306
 126   2.0000      -0.889988       -24.2178
 127   2.0000      -0.878078       -23.8937
 128   2.0000      -0.871659       -23.7190
 129   2.0000      -0.867399       -23.6031
 130   2.0000      -0.861074       -23.4310
 131   2.0000      -0.854235       -23.2449
 132   2.0000      -0.846380       -23.0312
 133   2.0000      -0.840541       -22.8723
 134   2.0000      -0.840072       -22.8595
 135   2.0000      -0.826049       -22.4779
 136   2.0000      -0.822036       -22.3687
 137   2.0000      -0.821148       -22.3446
 138   2.0000      -0.804762       -21.8987
 139   2.0000      -0.791444       -21.5363
 140   2.0000      -0.787534       -21.4299
 141   2.0000      -0.779202       -21.2032
 142   2.0000      -0.768924       -20.9235
 143   2.0000      -0.754974       -20.5439
 144   2.0000      -0.752001       -20.4630
 145   2.0000      -0.743667       -20.2362
 146   2.0000      -0.733323       -19.9547
 147   2.0000      -0.717695       -19.5295
 148   2.0000      -0.714171       -19.4336
 149   2.0000      -0.704918       -19.1818
 150   2.0000      -0.700020       -19.0485
 151   2.0000      -0.691885       -18.8271
 152   2.0000      -0.683407       -18.5965
 153   2.0000      -0.676164       -18.3994
 154   2.0000      -0.671573       -18.2744
 155   2.0000      -0.663316       -18.0497
 156   2.0000      -0.657253       -17.8848
 157   2.0000      -0.652390       -17.7524
 158   2.0000      -0.650439       -17.6994
 159   2.0000      -0.641763       -17.4633
 160   2.0000      -0.639355       -17.3977
 161   2.0000      -0.627550       -17.0765
 162   2.0000      -0.622578       -16.9412
 163   2.0000      -0.620379       -16.8814
 164   2.0000      -0.615923       -16.7601
 165   2.0000      -0.610415       -16.6102
 166   2.0000      -0.604746       -16.4560
 167   2.0000      -0.599136       -16.3033
 168   2.0000      -0.591118       -16.0851
 169   2.0000      -0.589577       -16.0432
 170   2.0000      -0.584493       -15.9049
 171   2.0000      -0.583693       -15.8831
 172   2.0000      -0.578696       -15.7471
 173   2.0000      -0.572344       -15.5743
 174   2.0000      -0.561682       -15.2841
 175   2.0000      -0.551206       -14.9991
 176   2.0000      -0.550943       -14.9919
 177   2.0000      -0.548536       -14.9264
 178   2.0000      -0.546796       -14.8791
 179   2.0000      -0.540928       -14.7194
 180   2.0000      -0.538253       -14.6466
 181   2.0000      -0.535479       -14.5711
 182   2.0000      -0.532329       -14.4854
 183   2.0000      -0.527939       -14.3659
 184   2.0000      -0.524247       -14.2655
 185   2.0000      -0.522444       -14.2164
 186   2.0000      -0.518316       -14.1041
 187   2.0000      -0.517691       -14.0871
 188   2.0000      -0.512627       -13.9493
 189   2.0000      -0.510480       -13.8909
 190   2.0000      -0.504824       -13.7370
 191   2.0000      -0.504547       -13.7294
 192   2.0000      -0.502876       -13.6840
 193   2.0000      -0.501791       -13.6544
 194   2.0000      -0.498355       -13.5609
 195   2.0000      -0.495884       -13.4937
 196   2.0000      -0.494028       -13.4432
 197   2.0000      -0.490278       -13.3411
 198   2.0000      -0.488209       -13.2849
 199   2.0000      -0.486670       -13.2430
 200   2.0000      -0.485240       -13.2040
 201   2.0000      -0.484893       -13.1946
 202   2.0000      -0.480321       -13.0702
 203   2.0000      -0.475381       -12.9358
 204   2.0000      -0.468529       -12.7493
 205   2.0000      -0.467162       -12.7121
 206   2.0000      -0.466279       -12.6881
 207   2.0000      -0.463896       -12.6232
 208   2.0000      -0.463202       -12.6044
 209   2.0000      -0.457301       -12.4438
 210   2.0000      -0.453254       -12.3337
 211   2.0000      -0.452015       -12.2999
 212   2.0000      -0.450010       -12.2454
 213   2.0000      -0.446892       -12.1606
 214   2.0000      -0.446209       -12.1420
 215   2.0000      -0.441577       -12.0159
 216   2.0000      -0.439747       -11.9661
 217   2.0000      -0.439627       -11.9629
 218   2.0000      -0.435010       -11.8372
 219   2.0000      -0.434550       -11.8247
 220   2.0000      -0.433750       -11.8029
 221   2.0000      -0.431177       -11.7329
 222   2.0000      -0.430620       -11.7178
 223   2.0000      -0.426246       -11.5987
 224   2.0000      -0.419885       -11.4256
 225   2.0000      -0.419064       -11.4033
 226   2.0000      -0.417803       -11.3690
 227   2.0000      -0.416330       -11.3289
 228   2.0000      -0.414148       -11.2695
 229   2.0000      -0.412721       -11.2307
 230   2.0000      -0.409706       -11.1487
 231   2.0000      -0.405296       -11.0287
 232   2.0000      -0.400639       -10.9019
 233   2.0000      -0.399461       -10.8699
 234   2.0000      -0.395926       -10.7737
 235   2.0000      -0.395232       -10.7548
 236   2.0000      -0.393657       -10.7120
 237   2.0000      -0.380945       -10.3660
 238   2.0000      -0.375159       -10.2086
 239   2.0000      -0.370836       -10.0910
 240   2.0000      -0.370058       -10.0698
 241   2.0000      -0.365099        -9.9348
 242   2.0000      -0.359490        -9.7822
 243   2.0000      -0.354084        -9.6351
 244   2.0000      -0.347599        -9.4587
 245   2.0000      -0.340310        -9.2603
 246   2.0000      -0.336878        -9.1669
 247   2.0000      -0.328458        -8.9378
 248   2.0000      -0.323745        -8.8095
 249   2.0000      -0.317877        -8.6499
 250   2.0000      -0.317306        -8.6343
 251   2.0000      -0.314441        -8.5564
 252   2.0000      -0.310776        -8.4566
 253   2.0000      -0.308267        -8.3884
 254   2.0000      -0.300608        -8.1800
 255   2.0000      -0.288473        -7.8497
 256   2.0000      -0.278835        -7.5875
 257   2.0000      -0.259213        -7.0535
 258   2.0000      -0.255165        -6.9434
 259   2.0000      -0.240747        -6.5511
 260   2.0000      -0.216633        -5.8949
 261   0.0000      -0.102969        -2.8019
 262   0.0000      -0.082143        -2.2352
 263   0.0000      -0.058680        -1.5968
 264   0.0000      -0.050667        -1.3787
 265   0.0000      -0.022164        -0.6031

MULLIKEN ATOMIC CHARGES
-----------------------
   0 C :    0.307209
   1 C :   -0.350766
   2 C :   -0.183872
   3 N :    0.146161
   4 C :   -0.212515
   5 N :    0.164218
   6 C :    0.015419
   7 C :   -0.016880
   8 C :   -0.075025
   9 C :    0.116995
  10 C :   -0.091316
  11 C :   -0.023733
  12 S :    0.181969
  13 C :   -0.123945
  14 C :    0.040542
  15 Br:    0.017361
  16 C :    0.161953
  17 O :   -0.147825
  18 C :   -0.117536
  19 C :    0.016122
  20 C :   -0.191397
  21 S :    0.134314
  22 C :   -0.105854
  23 C :   -0.094768
  24 C :    0.115200
  25 C :    0.192025
  26 C :   -0.024279
  27 C :    0.032848
  28 C :    0.011091
  29 C :   -0.032535
  30 C :    0.029644
  31 C :   -0.008137
  32 N :   -0.136577
  33 C :    0.042925
  34 C :    0.008826
  35 C :    0.079418
  36 N :   -0.292566
  37 S :    0.500615
  38 N :   -0.255244
  39 C :   -0.072303
  40 C :    0.019129
  41 C :    0.033103
  42 C :    0.030061
  43 C :   -0.034018
  44 S :    0.150834
  45 C :   -0.063029
  46 C :    0.037440
  47 C :    0.045940
  48 C :   -0.037960
  49 S :    0.141325
  50 C :   -0.011301
  51 C :   -0.167613
  52 C :    0.072731
  53 C :   -0.024943
  54 C :    0.058212
  55 C :   -0.089793
  56 S :    0.126649
  57 N :   -0.065282
  58 C :    0.085238
  59 C :   -0.157903
  60 S :    0.140247
  61 C :   -0.085865
  62 C :   -0.062067
  63 C :    0.046861
  64 C :   -0.025005
  65 H :   -0.015434
  66 H :   -0.006837
  67 H :   -0.006673
  68 H :    0.026660
  69 H :    0.023737
  70 H :    0.008795
  71 H :    0.034084
  72 H :    0.038786
  73 H :   -0.013832
  74 H :    0.004127
  75 H :    0.007785
  76 H :   -0.022476
  77 H :    0.004252
  78 H :   -0.011948
  79 H :   -0.010283
  80 H :   -0.015545
  81 H :   -0.010370
  82 H :   -0.007256
  83 H :    0.005101
  84 H :   -0.001258
  85 H :    0.049220
  86 H :   -0.028642
  87 H :   -0.014225
  88 H :    0.019439
  89 H :    0.022022
Sum of atomic charges:    0.0000000

LOEWDIN ATOMIC CHARGES
----------------------
   0 C :    0.075952
   1 C :   -0.146973
   2 C :   -0.018295
   3 N :   -0.058393
   4 C :   -0.027031
   5 N :   -0.053880
   6 C :   -0.021629
   7 C :   -0.045544
   8 C :    0.018129
   9 C :   -0.033710
  10 C :   -0.145944
  11 C :   -0.010800
  12 S :    0.429139
  13 C :   -0.273444
  14 C :   -0.070781
  15 Br:    0.132139
  16 C :    0.080420
  17 O :   -0.133290
  18 C :   -0.105721
  19 C :    0.049975
  20 C :   -0.183059
  21 S :    0.446349
  22 C :   -0.167925
  23 C :   -0.056374
  24 C :   -0.043916
  25 C :   -0.010391
  26 C :   -0.013468
  27 C :   -0.003900
  28 C :   -0.019968
  29 C :   -0.017542
  30 C :   -0.067857
  31 C :    0.032735
  32 N :   -0.098764
  33 C :    0.008978
  34 C :   -0.063844
  35 C :   -0.030625
  36 N :   -0.285538
  37 S :    0.633100
  38 N :   -0.271399
  39 C :   -0.069983
  40 C :   -0.116394
  41 C :   -0.032543
  42 C :   -0.024318
  43 C :   -0.187330
  44 S :    0.444704
  45 C :   -0.164594
  46 C :   -0.026940
  47 C :   -0.025519
  48 C :   -0.139298
  49 S :    0.430174
  50 C :   -0.085930
  51 C :   -0.143236
  52 C :   -0.077642
  53 C :    0.005842
  54 C :   -0.036166
  55 C :   -0.177508
  56 S :    0.441952
  57 N :   -0.121401
  58 C :   -0.025959
  59 C :   -0.244428
  60 S :    0.421872
  61 C :   -0.159668
  62 C :   -0.060603
  63 C :   -0.041809
  64 C :   -0.042854
  65 H :    0.039116
  66 H :    0.040667
  67 H :    0.037634
  68 H :    0.044321
  69 H :    0.025474
  70 H :    0.033171
  71 H :    0.038624
  72 H :    0.038822
  73 H :    0.030731
  74 H :    0.028628
  75 H :    0.028245
  76 H :    0.029825
  77 H :    0.027441
  78 H :    0.037210
  79 H :    0.034315
  80 H :    0.029395
  81 H :    0.033526
  82 H :    0.035406
  83 H :    0.034699
  84 H :    0.046677
  85 H :    0.033027
  86 H :    0.031665
  87 H :    0.026586
  88 H :    0.022573
  89 H :    0.024890

  Mayer bond orders larger than 0.100000
B(  0-C ,  1-C ) :   1.6275 B(  0-C ,  6-C ) :   1.0019 B(  0-C , 18-C ) :   1.0748
B(  1-C ,  2-C ) :   1.1422 B(  1-C ,  4-C ) :   1.1465 B(  2-C ,  3-N ) :   2.9703
B(  4-C ,  5-N ) :   2.9952 B(  6-C ,  7-C ) :   1.2750 B(  6-C , 11-C ) :   1.4108
B(  7-C ,  8-C ) :   1.4316 B(  7-C , 16-C ) :   0.9390 B(  8-C ,  9-C ) :   1.2384
B(  8-C , 65-H ) :   1.0167 B(  9-C , 10-C ) :   1.3131 B(  9-C , 14-C ) :   1.1629
B( 10-C , 11-C ) :   1.3260 B( 10-C , 12-S ) :   1.0822 B( 11-C , 66-H ) :   0.9800
B( 12-S , 13-C ) :   1.0874 B( 13-C , 14-C ) :   1.6188 B( 13-C , 15-Br) :   1.0146
B( 14-C , 67-H ) :   1.0000 B( 16-C , 17-O ) :   2.1964 B( 16-C , 18-C ) :   0.9623
B( 18-C , 19-C ) :   1.5691 B( 19-C , 20-C ) :   1.2085 B( 19-C , 68-H ) :   0.9301
B( 20-C , 21-S ) :   1.1055 B( 20-C , 25-C ) :   1.3906 B( 21-S , 22-C ) :   1.1702
B( 22-C , 23-C ) :   1.5588 B( 22-C , 69-H ) :   0.9665 B( 23-C , 24-C ) :   1.0968
B( 23-C , 25-C ) :   1.2576 B( 24-C , 70-H ) :   0.9496 B( 24-C , 71-H ) :   0.9423
B( 24-C , 72-H ) :   0.9437 B( 25-C , 26-C ) :   1.0887 B( 26-C , 27-C ) :   1.6693
B( 26-C , 73-H ) :   0.9530 B( 27-C , 28-C ) :   1.1391 B( 27-C , 74-H ) :   0.9802
B( 28-C , 29-C ) :   1.6089 B( 28-C , 75-H ) :   0.9676 B( 29-C , 30-C ) :   1.1190
B( 29-C , 76-H ) :   0.9763 B( 30-C , 31-C ) :   1.3884 B( 30-C , 35-C ) :   1.1609
B( 31-C , 32-N ) :   1.4445 B( 31-C , 77-H ) :   0.9790 B( 32-N , 33-C ) :   1.4796
B( 32-N , 44-S ) :   0.1215 B( 33-C , 34-C ) :   1.0979 B( 33-C , 39-C ) :   1.2409
B( 34-C , 35-C ) :   1.1899 B( 34-C , 38-N ) :   1.5990 B( 35-C , 36-N ) :   1.5200
B( 36-N , 37-S ) :   1.2406 B( 36-N , 38-N ) :   0.1427 B( 37-S , 38-N ) :   1.2589
B( 39-C , 40-C ) :   1.4736 B( 39-C , 78-H ) :   0.9886 B( 40-C , 41-C ) :   1.1423
B( 40-C , 44-S ) :   1.0973 B( 41-C , 42-C ) :   1.5783 B( 41-C , 79-H ) :   1.0019
B( 42-C , 43-C ) :   1.1852 B( 42-C , 80-H ) :   0.9956 B( 43-C , 44-S ) :   0.9837
B( 43-C , 45-C ) :   1.5177 B( 45-C , 46-C ) :   1.1740 B( 45-C , 49-S ) :   1.0553
B( 46-C , 47-C ) :   1.6059 B( 46-C , 81-H ) :   0.9926 B( 47-C , 48-C ) :   1.1247
B( 47-C , 82-H ) :   0.9968 B( 48-C , 49-S ) :   1.0685 B( 48-C , 50-C ) :   1.6134
B( 50-C , 51-C ) :   1.1334 B( 50-C , 83-H ) :   0.9448 B( 51-C , 52-C ) :   1.4458
B( 51-C , 56-S ) :   1.0943 B( 52-C , 53-C ) :   1.0251 B( 52-C , 59-C ) :   1.2587
B( 53-C , 54-C ) :   1.1929 B( 53-C , 57-N ) :   1.6575 B( 54-C , 55-C ) :   1.6279
B( 54-C , 84-H ) :   0.9762 B( 55-C , 56-S ) :   1.1105 B( 55-C , 85-H ) :   0.9417
B( 57-N , 58-C ) :   1.3145 B( 58-C , 59-C ) :   1.3472 B( 58-C , 62-C ) :   1.2402
B( 59-C , 60-S ) :   1.0496 B( 60-S , 61-C ) :   1.1113 B( 61-C , 62-C ) :   1.4775
B( 61-C , 63-C ) :   1.0951 B( 62-C , 86-H ) :   1.0139 B( 63-C , 64-C ) :   1.9439
B( 63-C , 87-H ) :   0.9537 B( 64-C , 88-H ) :   0.9539 B( 64-C , 89-H ) :   0.9504

-----------------------------------------------------------------------------
         ABSORPTION SPECTRUM VIA TRANSITION ELECTRIC DIPOLE MOMENTS
-----------------------------------------------------------------------------
State   Energy  Wavelength   fosc         T2         TX        TY        TZ
        (cm-1)    (nm)                  (au**2)     (au)      (au)      (au)
-----------------------------------------------------------------------------
   0   10429.8    958.8   0.575109534  18.15315   1.22050   1.52841   3.78517
   1   14894.3    671.4   0.346651584   7.66211  -0.63390  -1.50285   2.23645
   2   16335.0    612.2   0.228986286   4.61495  -1.77881  -0.88863  -0.81311
   3   17790.8    562.1   0.027906619   0.51640  -0.64425   0.26625  -0.17451
   4   19517.5    512.4   0.196171780   3.30893   1.55395   0.13694   0.93564
   5   20155.5    496.1   0.387525129   6.32967  -1.20429  -2.05104   0.82011
   6   21526.1    464.6   0.045612003   0.69757   0.47610  -0.66595  -0.16556
   7   22215.4    450.1   0.109528954   1.62312   0.49030  -0.84718   0.81549
   8   23593.0    423.9   0.241725616   3.37299  -1.00750   0.97636  -1.18518
   9   24998.0    400.0   0.040013964   0.52697  -0.37220  -0.03361  -0.62234
  10   25158.3    397.5   0.002005007   0.02624   0.00800  -0.08243  -0.13921
  11   26212.8    381.5   0.105593291   1.32617   0.65409  -0.48728   0.81295
  12   26672.6    374.9   0.037154397   0.45858  -0.28396  -0.42439   0.44480
  13   26819.7    372.9   0.030023283   0.36854   0.28250  -0.35535   0.40306
  14   26990.3    370.5   0.086653648   1.05695   0.75146  -0.67864   0.17807
  15   27430.8    364.6   0.153366891   1.84064   0.70482  -0.39492   1.08991
  16   27666.8    361.4   0.086034859   1.02374   0.04784  -0.97671  -0.25977
  17   28039.3    356.6   0.098386391   1.15517  -0.17709  -1.00005  -0.35172
  18   28716.1    348.2   0.180361652   2.06773   1.06035  -0.55257   0.79879
  19   28884.1    346.2   0.009157426   0.10437  -0.27523   0.01799  -0.16822
  20   28984.5    345.0   0.015476325   0.17578  -0.22126   0.04424  -0.35337
  21   29444.9    339.6   0.012968079   0.14499  -0.28597   0.17416   0.18133
  22   29564.3    338.2   0.010267060   0.11433  -0.25357   0.04231   0.21963
  23   30015.0    333.2   0.026735620   0.29324  -0.06622  -0.47346   0.25436
  24   30220.5    330.9   0.025438339   0.27712  -0.23436   0.42505  -0.20378
  25   30599.2    326.8   0.055003215   0.59177  -0.13513  -0.73921  -0.16457
  26   31166.9    320.9   0.205875141   2.17463   0.76016  -1.24693  -0.20484
  27   31736.2    315.1   0.559277414   5.80161   0.62117  -1.82890   1.43905
  28   32260.8    310.0   0.151224235   1.54320  -1.13764   0.17813  -0.46608
  29   32498.8    307.7   0.123033042   1.24632   1.05061   0.32800  -0.18698
  30   32807.3    304.8   0.089009774   0.89319   0.22499  -0.89762  -0.19196
  31   33245.8    300.8   0.280261334   2.77525   0.20342  -1.63745   0.22940
  32   33490.8    298.6   0.017822296   0.17519   0.38106   0.02879  -0.17075
  33   33795.4    295.9   0.119285925   1.16200   0.72336   0.79691   0.06073
  34   34101.7    293.2   0.096217442   0.92887   0.88959  -0.32860   0.17180
  35   34192.2    292.5   0.007475672   0.07198   0.18560  -0.07932   0.17675
  36   34528.4    289.6   0.119218041   1.13669  -0.23591  -1.00121   0.28038
  37   34600.6    289.0   0.046775073   0.44505  -0.02130   0.47651   0.46641
  38   35064.3    285.2   0.094800263   0.89006  -0.28550  -0.27951  -0.85465
  39   35160.8    284.4   0.007993987   0.07485   0.19986  -0.03534  -0.18346
  40   35458.1    282.0   0.000272285   0.00253   0.02420  -0.04273   0.01081
  41   36339.5    275.2   0.008437189   0.07644   0.17939  -0.08224  -0.19363
  42   36591.3    273.3   0.146996689   1.32253   1.14987  -0.00901  -0.01592
  43   36779.3    271.9   0.153827147   1.37691  -0.99809  -0.55482   0.27000
  44   36887.5    271.1   0.084220345   0.75165  -0.30491   0.70519  -0.40173
  45   37387.3    267.5   0.051687330   0.45513   0.53128  -0.41546   0.01609
  46   37472.5    266.9   0.009008236   0.07914  -0.12810  -0.18564  -0.16813
  47   37481.1    266.8   0.622961089   5.47173   2.28208   0.17350   0.48345
  48   37876.3    264.0   0.045289381   0.39365  -0.50644   0.26107  -0.26269
  49   38147.5    262.1   0.064907272   0.56015   0.02622  -0.57054   0.48367
  50   38327.0    260.9   0.031498602   0.27056   0.45976   0.24322   0.00495
  51   38376.5    260.6   0.246534189   2.11489  -1.35054  -0.31352  -0.43891
  52   38724.4    258.2   0.004677628   0.03977  -0.05706  -0.15755   0.10812
  53   38891.0    257.1   0.049916935   0.42255   0.54954  -0.00679   0.34714
  54   38913.9    257.0   0.013210011   0.11176  -0.20794   0.23013  -0.12474
  55   39487.2    253.2   0.260697266   2.17348   0.31748  -0.95598   1.07647
  56   39622.0    252.4   0.044691169   0.37133  -0.07564  -0.42390   0.43118
  57   39749.3    251.6   0.010315481   0.08543   0.17977   0.16948  -0.15619
  58   40046.0    249.7   0.078131615   0.64231   0.55818  -0.14020   0.55776
  59   40269.1    248.3   0.020386961   0.16667   0.39026  -0.09697  -0.07044

FINAL SINGLE POINT ENERGY     -7681.430865822607

DIPOLE MOMENT
-------------
                                X             Y             Z
Electronic contribution:     83.33130     -68.01664     -41.72467
Nuclear contribution   :    -84.68373      64.87160      42.32583
                        -----------------------------------------
Total Dipole Moment    :     -1.35243      -3.14504       0.60117
                        -----------------------------------------
Magnitude (a.u.)       :      3.47588
Magnitude (Debye)      :      8.83499

Rotational constants in cm-1:     0.000878     0.000493     0.000467
Rotational constants in MHz :    26.330062    14.791373    14.014029

                             ****ORCA TERMINATED NORMALLY****
TOTAL RUN TIME: 0 days 0 hours 8 minutes 36 seconds 552 msec
