                         Program Version 4.2.0 -  RELEASE  -
|  1> # ORCA input file
|  2> # SCF done       -162.020068248734          0.000806504529
|  3> ! CAM-B3LYP def2-SVP def2/J RIJCOSX Grid4 TightSCF
|  4> %maxcore 5000
|  5> %tddft
|  6>     Mode sTDDFT
|  7>     Ethresh 5.0
|  8>     maxcore 5000
|  9> end
| 10>
| 11> %pal
| 12>   nprocs 6
| 13>   end
| 14> * xyz 0 1
| 15>    C      -12.79012        -0.89470         7.22782
| 16>    C      -13.25190        -1.03415         8.51438
| 17>    C      -13.61843        -2.26529         9.09131
| 18>    N      -13.92217        -3.24355         9.61183
| 19>    C      -13.45961         0.03829         9.40425
| 20>    N      -13.67625         0.86731        10.16979
| 21>    C      -12.66898        -1.95582         6.24196
| 22>    C      -12.31109        -1.37961         4.99726
| 23>    C      -12.11732        -2.13022         3.86350
| 24>    C      -12.27913        -3.51651         3.96170
| 25>    C      -12.63251        -4.08299         5.20954
| 26>    C      -12.83361        -3.32477         6.35560
| 27>    S      -12.76729        -5.81312         5.11003
| 28>    C      -12.35396        -5.75143         3.41661
| 29>    C      -12.12731        -4.50155         2.94786
| 30>   Br      -12.25670        -7.34366         2.42873
| 31>    C      -12.17463         0.08107         5.15169
| 32>    O      -11.84644         0.86342         4.27930
| 33>    C      -12.41944         0.35329         6.58647
| 34>    C      -12.08229         1.51479         7.21845
| 35>    C      -11.76412         2.74414         6.56605
| 36>    C      -12.44834         3.32919         5.56402
| 37>    C      -13.77002         2.85921         5.05894
| 38>    C      -11.84390         4.48138         4.81222
| 39>    N      -11.41080         3.94983         3.52773
| 40>    C      -12.18147         4.06120         2.38945
| 41>    C      -12.96844         5.09458         2.06271
| 42>    N      -13.65305         5.17909         0.84310
| 43>    C      -14.39941         4.15135         0.29168
| 44>    C      -14.73658         2.96294         0.86791
| 45>    S      -15.72392         1.99415        -0.15679
| 46>    C      -15.69334         3.18723        -1.39074
| 47>    C      -14.94521         4.27215        -1.03538
| 48>    N      -14.68189         5.38140        -1.81707
| 49>    C      -15.32495         5.71123        -2.96453
| 50>    C      -14.89176         6.68856        -3.80466
| 51>    C      -15.52226         7.11979        -4.98976
| 52>    C      -16.74197         6.76909        -5.51433
| 53>    C      -17.27608         7.26340        -6.73064
| 54>    C      -18.52488         6.81076        -7.03471
| 55>    C      -19.06430         5.92976        -6.07498
| 56>    S      -17.91327         5.68089        -4.77853
| 57>    C      -20.30397         5.31930        -6.06340
| 58>    C      -21.33019         5.40436        -7.02812
| 59>    C      -22.44697         4.69339        -6.70779
| 60>    C      -22.37722         4.00532        -5.47027
| 61>    S      -20.80778         4.29597        -4.73508
| 62>    C      -23.37765         3.24522        -4.92161
| 63>    C      -23.38289         2.55861        -3.68874
| 64>    C      -22.38901         2.44757        -2.71533
| 65>    C      -22.88781         1.66074        -1.64544
| 66>    C      -22.31588         1.26443        -0.45883
| 67>    C      -23.09207         0.47987         0.41255
| 68>    C      -22.81946        -0.06357         1.65645
| 69>    C      -23.96954        -0.78142         2.12094
| 70>    C      -24.95405        -0.68174         1.15766
| 71>    C      -24.45171         0.09922         0.06807
| 72>    C      -25.02313         0.48681        -1.11217
| 73>    C      -24.24666         1.27742        -1.98912
| 74>    C      -24.53006         1.82293        -3.22306
| 75>    C      -24.01694        -1.46547         3.39153
| 76>    C      -25.06548        -2.12501         3.87692
| 77>    H      -11.84677        -1.66519         2.92832
| 78>    H      -13.09581        -3.80156         7.28529
| 79>    H      -11.86166        -4.28177         1.92994
| 80>    H      -11.95556         1.49940         8.29459
| 81>    H      -10.90709         3.27062         6.97266
| 82>    H      -14.22291         2.14114         5.73723
| 83>    H      -13.64720         2.37685         4.08798
| 84>    H      -14.44266         3.70621         4.92909
| 85>    H      -10.97002         4.87950         5.33770
| 86>    H      -12.55839         5.28803         4.65431
| 87>    H      -11.01224         3.02511         3.63831
| 88>    H      -12.06028         3.25361         1.68146
| 89>    H      -13.07547         5.96179         2.69846
| 90>    H      -13.99072         6.10364         0.61804
| 91>    H      -14.48079         2.60450         1.84257
| 92>    H      -16.20845         3.00466        -2.31093
| 93>    H      -13.85120         5.90730        -1.57756
| 94>    H      -16.21894         5.14523        -3.16220
| 95>    H      -13.96020         7.18526        -3.56010
| 96>    H      -14.97138         7.84631        -5.57427
| 97>    H      -16.71545         7.94652        -7.34491
| 98>    H      -19.07316         7.09427        -7.91525
| 99>    H      -21.21835         5.98452        -7.92673
|100>    H      -23.32946         4.64269        -7.32174
|101>    H      -24.28619         3.17354        -5.50803
|102>    H      -21.40619         2.87603        -2.74777
|103>    H      -21.30545         1.54413        -0.19606
|104>    H      -21.89674         0.02960         2.20182
|105>    H      -25.93813        -1.10971         1.19655
|106>    H      -26.03375         0.20805        -1.37741
|107>    H      -25.45379         1.72935        -3.76687
|108>    H      -23.10417        -1.41455         3.97294
|109>    H      -25.99305        -2.20064         3.33592
|110>    H      -25.03094        -2.61308         4.83555
|111> *
|112>
|113>                          ****END OF INPUT****

CARTESIAN COORDINATES (ANGSTROEM)
---------------------------------
  C    -12.790120   -0.894700    7.227820
  C    -13.251900   -1.034150    8.514380
  C    -13.618430   -2.265290    9.091310
  N    -13.922170   -3.243550    9.611830
  C    -13.459610    0.038290    9.404250
  N    -13.676250    0.867310   10.169790
  C    -12.668980   -1.955820    6.241960
  C    -12.311090   -1.379610    4.997260
  C    -12.117320   -2.130220    3.863500
  C    -12.279130   -3.516510    3.961700
  C    -12.632510   -4.082990    5.209540
  C    -12.833610   -3.324770    6.355600
  S    -12.767290   -5.813120    5.110030
  C    -12.353960   -5.751430    3.416610
  C    -12.127310   -4.501550    2.947860
  Br   -12.256700   -7.343660    2.428730
  C    -12.174630    0.081070    5.151690
  O    -11.846440    0.863420    4.279300
  C    -12.419440    0.353290    6.586470
  C    -12.082290    1.514790    7.218450
  C    -11.764120    2.744140    6.566050
  C    -12.448340    3.329190    5.564020
  C    -13.770020    2.859210    5.058940
  C    -11.843900    4.481380    4.812220
  N    -11.410800    3.949830    3.527730
  C    -12.181470    4.061200    2.389450
  C    -12.968440    5.094580    2.062710
  N    -13.653050    5.179090    0.843100
  C    -14.399410    4.151350    0.291680
  C    -14.736580    2.962940    0.867910
  S    -15.723920    1.994150   -0.156790
  C    -15.693340    3.187230   -1.390740
  C    -14.945210    4.272150   -1.035380
  N    -14.681890    5.381400   -1.817070
  C    -15.324950    5.711230   -2.964530
  C    -14.891760    6.688560   -3.804660
  C    -15.522260    7.119790   -4.989760
  C    -16.741970    6.769090   -5.514330
  C    -17.276080    7.263400   -6.730640
  C    -18.524880    6.810760   -7.034710
  C    -19.064300    5.929760   -6.074980
  S    -17.913270    5.680890   -4.778530
  C    -20.303970    5.319300   -6.063400
  C    -21.330190    5.404360   -7.028120
  C    -22.446970    4.693390   -6.707790
  C    -22.377220    4.005320   -5.470270
  S    -20.807780    4.295970   -4.735080
  C    -23.377650    3.245220   -4.921610
  C    -23.382890    2.558610   -3.688740
  C    -22.389010    2.447570   -2.715330
  C    -22.887810    1.660740   -1.645440
  C    -22.315880    1.264430   -0.458830
  C    -23.092070    0.479870    0.412550
  C    -22.819460   -0.063570    1.656450
  C    -23.969540   -0.781420    2.120940
  C    -24.954050   -0.681740    1.157660
  C    -24.451710    0.099220    0.068070
  C    -25.023130    0.486810   -1.112170
  C    -24.246660    1.277420   -1.989120
  C    -24.530060    1.822930   -3.223060
  C    -24.016940   -1.465470    3.391530
  C    -25.065480   -2.125010    3.876920
  H    -11.846770   -1.665190    2.928320
  H    -13.095810   -3.801560    7.285290
  H    -11.861660   -4.281770    1.929940
  H    -11.955560    1.499400    8.294590
  H    -10.907090    3.270620    6.972660
  H    -14.222910    2.141140    5.737230
  H    -13.647200    2.376850    4.087980
  H    -14.442660    3.706210    4.929090
  H    -10.970020    4.879500    5.337700
  H    -12.558390    5.288030    4.654310
  H    -11.012240    3.025110    3.638310
  H    -12.060280    3.253610    1.681460
  H    -13.075470    5.961790    2.698460
  H    -13.990720    6.103640    0.618040
  H    -14.480790    2.604500    1.842570
  H    -16.208450    3.004660   -2.310930
  H    -13.851200    5.907300   -1.577560
  H    -16.218940    5.145230   -3.162200
  H    -13.960200    7.185260   -3.560100
  H    -14.971380    7.846310   -5.574270
  H    -16.715450    7.946520   -7.344910
  H    -19.073160    7.094270   -7.915250
  H    -21.218350    5.984520   -7.926730
  H    -23.329460    4.642690   -7.321740
  H    -24.286190    3.173540   -5.508030
  H    -21.406190    2.876030   -2.747770
  H    -21.305450    1.544130   -0.196060
  H    -21.896740    0.029600    2.201820
  H    -25.938130   -1.109710    1.196550
  H    -26.033750    0.208050   -1.377410
  H    -25.453790    1.729350   -3.766870
  H    -23.104170   -1.414550    3.972940
  H    -25.993050   -2.200640    3.335920
  H    -25.030940   -2.613080    4.835550

 Total Charge           Charge          ....    0
 Multiplicity           Mult            ....    1
 Number of Electrons    NEL             ....  482
 Basis Dimension        Dim             .... 1072

ORBITAL ENERGIES
----------------

  NO   OCC          E(Eh)            E(eV)
   0   2.0000    -482.889073    -13140.0797
   1   2.0000     -88.980311     -2421.2774
   2   2.0000     -88.938684     -2420.1446
   3   2.0000     -88.931628     -2419.9526
   4   2.0000     -88.928265     -2419.8611
   5   2.0000     -62.566796     -1702.5291
   6   2.0000     -56.400757     -1534.7426
   7   2.0000     -56.398021     -1534.6682
   8   2.0000     -56.397991     -1534.6674
   9   2.0000     -19.226688      -523.1848
  10   2.0000     -14.448089      -393.1525
  11   2.0000     -14.425250      -392.5310
  12   2.0000     -14.420151      -392.3923
  13   2.0000     -14.418742      -392.3539
  14   2.0000     -14.414051      -392.2263
  15   2.0000     -10.376971      -282.3717
  16   2.0000     -10.363589      -282.0076
  17   2.0000     -10.347735      -281.5762
  18   2.0000     -10.345927      -281.5270
  19   2.0000     -10.331059      -281.1224
  20   2.0000     -10.322486      -280.8891
  21   2.0000     -10.321289      -280.8565
  22   2.0000     -10.321248      -280.8554
  23   2.0000     -10.313637      -280.6483
  24   2.0000     -10.313201      -280.6365
  25   2.0000     -10.311459      -280.5891
  26   2.0000     -10.311033      -280.5775
  27   2.0000     -10.308550      -280.5099
  28   2.0000     -10.307317      -280.4764
  29   2.0000     -10.306953      -280.4664
  30   2.0000     -10.304625      -280.4031
  31   2.0000     -10.304100      -280.3888
  32   2.0000     -10.303598      -280.3752
  33   2.0000     -10.301082      -280.3067
  34   2.0000     -10.298940      -280.2484
  35   2.0000     -10.294680      -280.1325
  36   2.0000     -10.289757      -279.9985
  37   2.0000     -10.289725      -279.9977
  38   2.0000     -10.288502      -279.9644
  39   2.0000     -10.287065      -279.9253
  40   2.0000     -10.285457      -279.8815
  41   2.0000     -10.282994      -279.8145
  42   2.0000     -10.282778      -279.8086
  43   2.0000     -10.281862      -279.7837
  44   2.0000     -10.276035      -279.6251
  45   2.0000     -10.273298      -279.5507
  46   2.0000     -10.270899      -279.4854
  47   2.0000     -10.270726      -279.4807
  48   2.0000     -10.270434      -279.4727
  49   2.0000     -10.270031      -279.4618
  50   2.0000     -10.268832      -279.4291
  51   2.0000     -10.268417      -279.4178
  52   2.0000     -10.267294      -279.3873
  53   2.0000     -10.266479      -279.3651
  54   2.0000     -10.260962      -279.2150
  55   2.0000     -10.260327      -279.1977
  56   2.0000     -10.259612      -279.1782
  57   2.0000     -10.257288      -279.1150
  58   2.0000     -10.256838      -279.1028
  59   2.0000     -10.255754      -279.0733
  60   2.0000     -10.254188      -279.0306
  61   2.0000     -10.253513      -279.0123
  62   2.0000     -10.252545      -278.9859
  63   2.0000     -10.251508      -278.9577
  64   2.0000     -10.251034      -278.9448
  65   2.0000     -10.248505      -278.8760
  66   2.0000      -8.796230      -239.3576
  67   2.0000      -8.076259      -219.7662
  68   2.0000      -8.034387      -218.6268
  69   2.0000      -8.027282      -218.4335
  70   2.0000      -8.024052      -218.3456
  71   2.0000      -6.632584      -180.4818
  72   2.0000      -6.617947      -180.0835
  73   2.0000      -6.617718      -180.0773
  74   2.0000      -6.045948      -164.5186
  75   2.0000      -6.041679      -164.4024
  76   2.0000      -6.037477      -164.2881
  77   2.0000      -6.003941      -163.3756
  78   2.0000      -5.999649      -163.2588
  79   2.0000      -5.997035      -163.1876
  80   2.0000      -5.996278      -163.1670
  81   2.0000      -5.993812      -163.0999
  82   2.0000      -5.993027      -163.0786
  83   2.0000      -5.989742      -162.9892
  84   2.0000      -5.988317      -162.9504
  85   2.0000      -5.985056      -162.8617
  86   2.0000      -2.748422       -74.7884
  87   2.0000      -2.744350       -74.6776
  88   2.0000      -2.744180       -74.6729
  89   2.0000      -2.732549       -74.3564
  90   2.0000      -2.732528       -74.3559
  91   2.0000      -1.139477       -31.0068
  92   2.0000      -1.056418       -28.7466
  93   2.0000      -1.028064       -27.9750
  94   2.0000      -1.025491       -27.9050
  95   2.0000      -1.017403       -27.6849
  96   2.0000      -1.012367       -27.5479
  97   2.0000      -0.997375       -27.1399
  98   2.0000      -0.994908       -27.0728
  99   2.0000      -0.977675       -26.6039
 100   2.0000      -0.973039       -26.4777
 101   2.0000      -0.955983       -26.0136
 102   2.0000      -0.952059       -25.9068
 103   2.0000      -0.949379       -25.8339
 104   2.0000      -0.945977       -25.7414
 105   2.0000      -0.926448       -25.2099
 106   2.0000      -0.913181       -24.8489
 107   2.0000      -0.891579       -24.2611
 108   2.0000      -0.890433       -24.2299
 109   2.0000      -0.889780       -24.2121
 110   2.0000      -0.883235       -24.0340
 111   2.0000      -0.859818       -23.3969
 112   2.0000      -0.858141       -23.3512
 113   2.0000      -0.850287       -23.1375
 114   2.0000      -0.841881       -22.9088
 115   2.0000      -0.834668       -22.7125
 116   2.0000      -0.832336       -22.6490
 117   2.0000      -0.826291       -22.4845
 118   2.0000      -0.818734       -22.2789
 119   2.0000      -0.805518       -21.9193
 120   2.0000      -0.801420       -21.8078
 121   2.0000      -0.798133       -21.7183
 122   2.0000      -0.794469       -21.6186
 123   2.0000      -0.783670       -21.3247
 124   2.0000      -0.773191       -21.0396
 125   2.0000      -0.768538       -20.9130
 126   2.0000      -0.765507       -20.8305
 127   2.0000      -0.749411       -20.3925
 128   2.0000      -0.748016       -20.3546
 129   2.0000      -0.734372       -19.9833
 130   2.0000      -0.724889       -19.7252
 131   2.0000      -0.707912       -19.2633
 132   2.0000      -0.699473       -19.0336
 133   2.0000      -0.696469       -18.9519
 134   2.0000      -0.682743       -18.5784
 135   2.0000      -0.680323       -18.5125
 136   2.0000      -0.667951       -18.1759
 137   2.0000      -0.663486       -18.0544
 138   2.0000      -0.662279       -18.0215
 139   2.0000      -0.656557       -17.8658
 140   2.0000      -0.651278       -17.7222
 141   2.0000      -0.644193       -17.5294
 142   2.0000      -0.637155       -17.3379
 143   2.0000      -0.628298       -17.0969
 144   2.0000      -0.626597       -17.0506
 145   2.0000      -0.625734       -17.0271
 146   2.0000      -0.618745       -16.8369
 147   2.0000      -0.612087       -16.6557
 148   2.0000      -0.611188       -16.6313
 149   2.0000      -0.606792       -16.5116
 150   2.0000      -0.604448       -16.4479
 151   2.0000      -0.599856       -16.3229
 152   2.0000      -0.596819       -16.2403
 153   2.0000      -0.591189       -16.0871
 154   2.0000      -0.578662       -15.7462
 155   2.0000      -0.578051       -15.7296
 156   2.0000      -0.567536       -15.4434
 157   2.0000      -0.565779       -15.3956
 158   2.0000      -0.563738       -15.3401
 159   2.0000      -0.558823       -15.2064
 160   2.0000      -0.557048       -15.1580
 161   2.0000      -0.554355       -15.0848
 162   2.0000      -0.546884       -14.8815
 163   2.0000      -0.544227       -14.8092
 164   2.0000      -0.544153       -14.8071
 165   2.0000      -0.540274       -14.7016
 166   2.0000      -0.530019       -14.4225
 167   2.0000      -0.528577       -14.3833
 168   2.0000      -0.522908       -14.2290
 169   2.0000      -0.519623       -14.1397
 170   2.0000      -0.518166       -14.1000
 171   2.0000      -0.515315       -14.0224
 172   2.0000      -0.513497       -13.9730
 173   2.0000      -0.511956       -13.9310
 174   2.0000      -0.506092       -13.7715
 175   2.0000      -0.505400       -13.7526
 176   2.0000      -0.498634       -13.5685
 177   2.0000      -0.496326       -13.5057
 178   2.0000      -0.493880       -13.4392
 179   2.0000      -0.489831       -13.3290
 180   2.0000      -0.486433       -13.2365
 181   2.0000      -0.483074       -13.1451
 182   2.0000      -0.482352       -13.1255
 183   2.0000      -0.480955       -13.0874
 184   2.0000      -0.479245       -13.0409
 185   2.0000      -0.477151       -12.9839
 186   2.0000      -0.473805       -12.8929
 187   2.0000      -0.469753       -12.7826
 188   2.0000      -0.465169       -12.6579
 189   2.0000      -0.464263       -12.6332
 190   2.0000      -0.462530       -12.5861
 191   2.0000      -0.455901       -12.4057
 192   2.0000      -0.455452       -12.3935
 193   2.0000      -0.454498       -12.3675
 194   2.0000      -0.452919       -12.3245
 195   2.0000      -0.452664       -12.3176
 196   2.0000      -0.451459       -12.2848
 197   2.0000      -0.449611       -12.2345
 198   2.0000      -0.448432       -12.2025
 199   2.0000      -0.446558       -12.1515
 200   2.0000      -0.445680       -12.1276
 201   2.0000      -0.443489       -12.0679
 202   2.0000      -0.440577       -11.9887
 203   2.0000      -0.436011       -11.8645
 204   2.0000      -0.434036       -11.8107
 205   2.0000      -0.431095       -11.7307
 206   2.0000      -0.430609       -11.7175
 207   2.0000      -0.427509       -11.6331
 208   2.0000      -0.423226       -11.5166
 209   2.0000      -0.418492       -11.3877
 210   2.0000      -0.415083       -11.2950
 211   2.0000      -0.412876       -11.2349
 212   2.0000      -0.412795       -11.2327
 213   2.0000      -0.412225       -11.2172
 214   2.0000      -0.410953       -11.1826
 215   2.0000      -0.405772       -11.0416
 216   2.0000      -0.394280       -10.7289
 217   2.0000      -0.392517       -10.6809
 218   2.0000      -0.390284       -10.6202
 219   2.0000      -0.383661       -10.4399
 220   2.0000      -0.378365       -10.2958
 221   2.0000      -0.378331       -10.2949
 222   2.0000      -0.376096       -10.2341
 223   2.0000      -0.371924       -10.1206
 224   2.0000      -0.360132        -9.7997
 225   2.0000      -0.353753        -9.6261
 226   2.0000      -0.347202        -9.4479
 227   2.0000      -0.346047        -9.4164
 228   2.0000      -0.324073        -8.8185
 229   2.0000      -0.321356        -8.7446
 230   2.0000      -0.313940        -8.5427
 231   2.0000      -0.307955        -8.3799
 232   2.0000      -0.307018        -8.3544
 233   2.0000      -0.297403        -8.0927
 234   2.0000      -0.291252        -7.9254
 235   2.0000      -0.289177        -7.8689
 236   2.0000      -0.260302        -7.0832
 237   2.0000      -0.255812        -6.9610
 238   2.0000      -0.233961        -6.3664
 239   2.0000      -0.224571        -6.1109
 240   2.0000      -0.185693        -5.0530
 241   0.0000      -0.091152        -2.4804
 242   0.0000      -0.085284        -2.3207
 243   0.0000      -0.064376        -1.7518
 244   0.0000      -0.052644        -1.4325
 245   0.0000      -0.012846        -0.3496

MULLIKEN ATOMIC CHARGES
-----------------------
   0 C :    0.288448
   1 C :   -0.330506
   2 C :   -0.180311
   3 N :    0.150920
   4 C :   -0.211873
   5 N :    0.166816
   6 C :    0.015814
   7 C :   -0.010186
   8 C :   -0.069216
   9 C :    0.115080
  10 C :   -0.089107
  11 C :   -0.018671
  12 S :    0.189820
  13 C :   -0.125233
  14 C :    0.042415
  15 Br:    0.028800
  16 C :    0.152026
  17 O :   -0.174255
  18 C :   -0.108210
  19 C :   -0.000601
  20 C :   -0.003650
  21 C :   -0.198516
  22 C :    0.107532
  23 C :    0.215182
  24 N :   -0.184199
  25 C :    0.027172
  26 C :   -0.020351
  27 N :   -0.108674
  28 C :    0.158470
  29 C :   -0.211561
  30 S :    0.097542
  31 C :   -0.208235
  32 C :    0.102291
  33 N :   -0.049809
  34 C :    0.056258
  35 C :   -0.028769
  36 C :   -0.002708
  37 C :   -0.032899
  38 C :    0.034812
  39 C :    0.016694
  40 C :   -0.030972
  41 S :    0.022439
  42 C :   -0.037659
  43 C :    0.023144
  44 C :    0.030146
  45 C :   -0.016045
  46 S :    0.043210
  47 C :   -0.027622
  48 C :    0.063827
  49 C :   -0.049305
  50 C :    0.055553
  51 C :   -0.007560
  52 C :    0.060556
  53 C :   -0.033758
  54 C :    0.062810
  55 C :   -0.030428
  56 C :    0.049549
  57 C :   -0.003707
  58 C :    0.058160
  59 C :   -0.035157
  60 C :    0.005609
  61 C :   -0.015944
  62 H :   -0.011264
  63 H :   -0.004154
  64 H :   -0.001032
  65 H :    0.041346
  66 H :    0.002649
  67 H :    0.021501
  68 H :    0.064546
  69 H :    0.020984
  70 H :    0.006322
  71 H :    0.019520
  72 H :    0.127937
  73 H :    0.019307
  74 H :   -0.012894
  75 H :    0.118270
  76 H :   -0.021232
  77 H :    0.016183
  78 H :    0.112941
  79 H :    0.030034
  80 H :   -0.032029
  81 H :   -0.018658
  82 H :   -0.019861
  83 H :   -0.021948
  84 H :   -0.021267
  85 H :   -0.020575
  86 H :   -0.033448
  87 H :   -0.018101
  88 H :   -0.028876
  89 H :   -0.028224
  90 H :   -0.035541
  91 H :   -0.030265
  92 H :   -0.027218
  93 H :   -0.023605
  94 H :    0.006654
  95 H :    0.016600
Sum of atomic charges:   -0.0000000

LOEWDIN ATOMIC CHARGES
----------------------
   0 C :    0.075437
   1 C :   -0.136568
   2 C :   -0.018149
   3 N :   -0.050115
   4 C :   -0.025474
   5 N :   -0.047373
   6 C :   -0.022077
   7 C :   -0.050814
   8 C :    0.022598
   9 C :   -0.031478
  10 C :   -0.142889
  11 C :   -0.007601
  12 S :    0.435336
  13 C :   -0.269326
  14 C :   -0.069982
  15 Br:    0.140267
  16 C :    0.092702
  17 O :   -0.154728
  18 C :   -0.098683
  19 C :    0.081096
  20 C :   -0.075021
  21 C :    0.029812
  22 C :   -0.051546
  23 C :    0.050525
  24 N :   -0.032872
  25 C :   -0.011688
  26 C :   -0.068017
  27 N :   -0.025511
  28 C :   -0.028299
  29 C :   -0.243173
  30 S :    0.418823
  31 C :   -0.233792
  32 C :   -0.035265
  33 N :    0.034094
  34 C :    0.042948
  35 C :   -0.116338
  36 C :   -0.045980
  37 C :   -0.170403
  38 C :   -0.028526
  39 C :   -0.054870
  40 C :   -0.174387
  41 S :    0.361868
  42 C :   -0.190140
  43 C :   -0.042246
  44 C :   -0.038881
  45 C :   -0.148551
  46 S :    0.373470
  47 C :   -0.062605
  48 C :   -0.064754
  49 C :   -0.014835
  50 C :   -0.054682
  51 C :    0.060160
  52 C :   -0.065065
  53 C :    0.031623
  54 C :   -0.062205
  55 C :    0.011839
  56 C :   -0.056376
  57 C :    0.068857
  58 C :   -0.066544
  59 C :    0.043958
  60 C :   -0.024777
  61 C :   -0.049902
  62 H :    0.040676
  63 H :    0.041699
  64 H :    0.039742
  65 H :    0.046162
  66 H :    0.035561
  67 H :    0.031922
  68 H :    0.039572
  69 H :    0.035712
  70 H :    0.023882
  71 H :    0.027525
  72 H :    0.069361
  73 H :    0.029463
  74 H :    0.012046
  75 H :    0.072349
  76 H :    0.013876
  77 H :    0.021109
  78 H :    0.079331
  79 H :    0.013608
  80 H :    0.022427
  81 H :    0.033362
  82 H :    0.030268
  83 H :    0.028563
  84 H :    0.028917
  85 H :    0.029834
  86 H :    0.029564
  87 H :    0.010363
  88 H :    0.033226
  89 H :    0.022926
  90 H :    0.020885
  91 H :    0.032676
  92 H :    0.023468
  93 H :    0.026104
  94 H :    0.018248
  95 H :    0.022669

  Mayer bond orders larger than 0.100000
B(  0-C ,  1-C ) :   1.6546 B(  0-C ,  6-C ) :   1.0191 B(  0-C , 18-C ) :   1.0416
B(  1-C ,  2-C ) :   1.1364 B(  1-C ,  4-C ) :   1.1447 B(  2-C ,  3-N ) :   2.9725
B(  4-C ,  5-N ) :   3.0029 B(  6-C ,  7-C ) :   1.2673 B(  6-C , 11-C ) :   1.4081
B(  7-C ,  8-C ) :   1.4214 B(  7-C , 16-C ) :   0.9546 B(  8-C ,  9-C ) :   1.2488
B(  8-C , 62-H ) :   1.0162 B(  9-C , 10-C ) :   1.3032 B(  9-C , 14-C ) :   1.1644
B( 10-C , 11-C ) :   1.3318 B( 10-C , 12-S ) :   1.0863 B( 11-C , 63-H ) :   0.9811
B( 12-S , 13-C ) :   1.0879 B( 13-C , 14-C ) :   1.6171 B( 13-C , 15-Br) :   1.0221
B( 14-C , 64-H ) :   0.9999 B( 16-C , 17-O ) :   2.1346 B( 16-C , 18-C ) :   0.9606
B( 18-C , 19-C ) :   1.6473 B( 19-C , 20-C ) :   1.1190 B( 19-C , 65-H ) :   0.9432
B( 20-C , 21-C ) :   1.7593 B( 20-C , 66-H ) :   0.9355 B( 21-C , 22-C ) :   1.1003
B( 21-C , 23-C ) :   1.0518 B( 22-C , 67-H ) :   0.9367 B( 22-C , 68-H ) :   0.9186
B( 22-C , 69-H ) :   0.9402 B( 23-C , 24-N ) :   1.0267 B( 23-C , 70-H ) :   0.9372
B( 23-C , 71-H ) :   0.9335 B( 24-N , 25-C ) :   1.1424 B( 24-N , 72-H ) :   0.9330
B( 25-C , 26-C ) :   1.7853 B( 25-C , 73-H ) :   0.9643 B( 26-C , 27-N ) :   1.0519
B( 26-C , 74-H ) :   0.9654 B( 27-N , 28-C ) :   1.1170 B( 27-N , 75-H ) :   0.9212
B( 28-C , 29-C ) :   1.5152 B( 28-C , 32-C ) :   1.2476 B( 29-C , 30-S ) :   1.1319
B( 29-C , 76-H ) :   0.9797 B( 30-S , 31-C ) :   1.1411 B( 31-C , 32-C ) :   1.5257
B( 31-C , 77-H ) :   0.9743 B( 32-C , 33-N ) :   1.1047 B( 33-N , 34-C ) :   1.1935
B( 33-N , 78-H ) :   0.9149 B( 34-C , 35-C ) :   1.5823 B( 34-C , 79-H ) :   0.9527
B( 35-C , 36-C ) :   1.2238 B( 35-C , 80-H ) :   0.9618 B( 36-C , 37-C ) :   1.5795
B( 36-C , 81-H ) :   0.9602 B( 37-C , 38-C ) :   1.1581 B( 37-C , 41-S ) :   1.0151
B( 38-C , 39-C ) :   1.5816 B( 38-C , 82-H ) :   0.9975 B( 39-C , 40-C ) :   1.1920
B( 39-C , 83-H ) :   0.9927 B( 40-C , 41-S ) :   1.0407 B( 40-C , 42-C ) :   1.5058
B( 42-C , 43-C ) :   1.1906 B( 42-C , 46-S ) :   1.0303 B( 43-C , 44-C ) :   1.5845
B( 43-C , 84-H ) :   0.9927 B( 44-C , 45-C ) :   1.1459 B( 44-C , 85-H ) :   0.9981
B( 45-C , 46-S ) :   1.0338 B( 45-C , 47-C ) :   1.5704 B( 47-C , 48-C ) :   1.1351
B( 47-C , 86-H ) :   0.9682 B( 48-C , 49-C ) :   1.4478 B( 48-C , 59-C ) :   1.1207
B( 49-C , 50-C ) :   1.1283 B( 49-C , 87-H ) :   0.9949 B( 50-C , 51-C ) :   1.4431
B( 50-C , 58-C ) :   1.1308 B( 51-C , 52-C ) :   1.1308 B( 51-C , 88-H ) :   1.0045
B( 52-C , 53-C ) :   1.4224 B( 52-C , 56-C ) :   1.1295 B( 53-C , 54-C ) :   1.1440
B( 53-C , 89-H ) :   1.0123 B( 54-C , 55-C ) :   1.5165 B( 54-C , 60-C ) :   1.0752
B( 55-C , 56-C ) :   1.0995 B( 55-C , 90-H ) :   1.0102 B( 56-C , 57-C ) :   1.4626
B( 57-C , 58-C ) :   1.1177 B( 57-C , 91-H ) :   1.0042 B( 58-C , 59-C ) :   1.4351
B( 59-C , 92-H ) :   1.0154 B( 60-C , 61-C ) :   1.9468 B( 60-C , 93-H ) :   0.9650
B( 61-C , 94-H ) :   0.9521 B( 61-C , 95-H ) :   0.9486

-----------------------------------------------------------------------------
         ABSORPTION SPECTRUM VIA TRANSITION ELECTRIC DIPOLE MOMENTS
-----------------------------------------------------------------------------
State   Energy  Wavelength   fosc         T2         TX        TY        TZ
        (cm-1)    (nm)                  (au**2)     (au)      (au)      (au)
-----------------------------------------------------------------------------
   0    5893.2   1696.9   0.030266514   1.69078   0.90216   0.71045  -0.61005
   1   12646.1    790.8   0.012873160   0.33512  -0.32656   0.27142  -0.39347
   2   13694.7    730.2   0.267832032   6.43851  -2.20794  -1.13014   0.53505
   3   15023.7    665.6   0.229938064   5.03860   2.17564   0.16735   0.52647
   4   15319.8    652.8   0.530360957  11.39713  -2.60894  -1.92360   0.94358
   5   17829.8    560.9   0.000131553   0.00243  -0.02718   0.03617  -0.01954
   6   19790.3    505.3   0.007073284   0.11766  -0.02674   0.29793  -0.16789
   7   20475.0    488.4   0.059724251   0.96029   0.11841   0.54907  -0.80299
   8   22272.3    449.0   0.131113227   1.93802   0.28232   0.71437  -1.16103
   9   22480.8    444.8   0.001755083   0.02570   0.04710   0.14909  -0.03543
  10   23414.0    427.1   0.132166050   1.85831   0.27918  -0.62213   1.18039
  11   24554.7    407.3   0.172462405   2.31225  -0.23832  -0.86611   1.22691
  12   26214.7    381.5   0.491793874   6.17610  -0.16549  -1.47863   1.99057
  13   26572.9    376.3   0.226228825   2.80275   0.23525   1.54555  -0.59891
  14   27412.7    364.8   0.916558685  11.00737  -0.19665   1.68555  -2.85090
  15   27460.7    364.2   0.299085801   3.58559  -0.10807   0.99521  -1.60732
  16   27839.9    359.2   0.063304692   0.74859  -0.06908   0.64972   0.56717
  17   27984.8    357.3   0.094740391   1.11452   0.09635  -0.84279  -0.62844
  18   28217.0    354.4   0.014424057   0.16829  -0.05008   0.29787   0.27758
  19   28784.7    347.4   0.242625579   2.77492  -0.35849   1.00100   1.28234
  20   29068.3    344.0   0.001642173   0.01860  -0.11059  -0.07979   0.00140
  21   29520.6    338.7   0.046491321   0.51847  -0.35864   0.27163  -0.56219
  22   29637.2    337.4   0.179469070   1.99355   0.57412  -0.44875   1.20936
  23   29994.7    333.4   0.020254704   0.22231  -0.08477  -0.44441   0.13275
  24   30303.8    330.0   0.023959965   0.26029   0.18379  -0.14191  -0.45428
  25   31246.4    320.0   0.138288422   1.45701  -0.24842   0.54447  -1.04826
  26   32058.6    311.9   0.001738736   0.01786  -0.00236   0.10487  -0.08278
  27   32387.9    308.8   0.054649505   0.55549  -0.32585   0.17318  -0.64755
  28   32728.6    305.5   0.020294349   0.20414  -0.30695   0.33080  -0.02225
  29   32777.1    305.1   0.000922754   0.00927   0.06100   0.07434   0.00450
  30   33292.8    300.4   0.080517123   0.79619   0.88412  -0.01695   0.11931
  31   33413.7    299.3   0.624715816   6.15508  -0.16038   1.04294   2.24536
  32   33686.6    296.9   0.002672657   0.02612  -0.01510   0.11404   0.11352
  33   33915.3    294.9   0.050592873   0.49110   0.26683  -0.40942  -0.50227
  34   34006.3    294.1   0.056596783   0.54791  -0.41122  -0.57193  -0.22739
  35   34445.3    290.3   0.003663633   0.03502  -0.13366  -0.12373   0.04289
  36   34476.6    290.1   0.012977433   0.12392   0.08717   0.33724  -0.05088
  37   34743.3    287.8   0.184793838   1.75102   0.18225   1.24666  -0.40454
  38   35439.2    282.2   0.007302141   0.06783  -0.14867  -0.21184   0.02918
  39   35954.0    278.1   0.327091503   2.99501   0.09959  -1.68055  -0.40106
  40   36181.4    276.4   0.034879850   0.31737   0.23497  -0.12012   0.49772
  41   36370.5    274.9   0.091880990   0.83167  -0.33050  -0.06997  -0.84708
  42   36972.1    270.5   0.010251537   0.09128   0.09344  -0.12414   0.25912
  43   37323.8    267.9   0.035325752   0.31159   0.01985   0.26951  -0.48843
  44   37834.6    264.3   0.149799667   1.30346   0.77314   0.76317  -0.35112
  45   38028.3    263.0   0.077962698   0.67493  -0.01321  -0.37845   0.72906
  46   38351.9    260.7   0.000788415   0.00677  -0.03483  -0.05420   0.05115
  47   38600.5    259.1   0.038253961   0.32626   0.42999   0.02099   0.37540
  48   38922.5    256.9   0.200615803   1.69683   0.22505   1.10797  -0.64698
  49   39329.4    254.3   0.010025560   0.08392   0.11159   0.00373   0.26731
  50   39571.6    252.7   0.007105155   0.05911  -0.08838   0.05293  -0.22022
  51   39590.1    252.6   0.067579116   0.56196   0.37015  -0.12493   0.63980
  52   39827.9    251.1   0.023650776   0.19549  -0.17686  -0.02565  -0.40442
  53   40159.2    249.0   0.000033448   0.00027   0.01295   0.00896  -0.00512
  54   40241.3    248.5   0.000603302   0.00494   0.06200   0.02693   0.01916
  55   40289.1    248.2   0.024402993   0.19940   0.30085   0.32169  -0.07353

FINAL SINGLE POINT ENERGY     -6475.933752246798

DIPOLE MOMENT
-------------
                                X             Y             Z
Electronic contribution:     65.71108    -131.60864      27.92249
Nuclear contribution   :    -63.94864     132.26616     -29.37252
                        -----------------------------------------
Total Dipole Moment    :      1.76243       0.65752      -1.45004
                        -----------------------------------------
Magnitude (a.u.)       :      2.37510
Magnitude (Debye)      :      6.03703

Rotational constants in cm-1:     0.000911     0.000385     0.000332
Rotational constants in MHz :    27.297813    11.545166     9.950370

                             ****ORCA TERMINATED NORMALLY****
TOTAL RUN TIME: 0 days 0 hours 9 minutes 55 seconds 8 msec
