                         Program Version 4.2.0 -  RELEASE  -
|  1> # ORCA input file
|  2> # SCF done       -185.018123926512          0.000512478894
|  3> ! CAM-B3LYP def2-SVP def2/J RIJCOSX Grid4 TightSCF
|  4> %maxcore 5000
|  5> %tddft
|  6>     Mode sTDDFT
|  7>     Ethresh 5.0
|  8>     maxcore 5000
|  9> end
| 10>
| 11> %pal
| 12>   nprocs 6
| 13>   end
| 14> * xyz 0 1
| 15>    C       -5.92980        -0.65215         2.03416
| 16>    C       -5.14559        -1.62591         1.46477
| 17>    C       -4.78418        -2.82721         2.10704
| 18>    N       -4.45481        -3.82446         2.57222
| 19>    C       -4.60244        -1.58986         0.16459
| 20>    N       -4.12511        -1.65001        -0.87886
| 21>    C       -6.51567        -0.72351         3.37046
| 22>    C       -7.31694         0.42501         3.57680
| 23>    C       -7.99894         0.65265         4.74645
| 24>    C       -7.88034        -0.29674         5.76729
| 25>    C       -7.07529        -1.43948         5.55359
| 26>    C       -6.38927        -1.67219         4.36769
| 27>    S       -7.05829        -2.47936         6.94672
| 28>    C       -8.11897        -1.37820         7.78472
| 29>    C       -8.46964        -0.28884         7.06163
| 30>   Br       -8.66149        -1.76930         9.53779
| 31>    C       -7.26076         1.28342         2.37359
| 32>    O       -7.85206         2.33325         2.21837
| 33>    C       -6.34306         0.59885         1.43867
| 34>    C       -5.91348         1.11511         0.24025
| 35>    C       -6.29585         2.35652        -0.29140
| 36>    C       -5.73264         2.84172        -1.43863
| 37>    C       -6.01255         4.10102        -1.99305
| 38>    O       -6.94253         4.93939        -1.46169
| 39>    C       -6.93383         6.09364        -2.16921
| 40>    C       -5.98253         6.00234        -3.18643
| 41>    C       -5.39946         4.73022        -3.08384
| 42>    O       -4.43629         4.20363        -3.85847
| 43>    O       -5.63861         6.91475        -4.13468
| 44>    C       -7.79866         7.16684        -1.84535
| 45>    C       -8.82266         7.07569        -0.95529
| 46>    C       -9.69963         8.13107        -0.58777
| 47>    C       -9.42542         9.45040        -0.77900
| 48>    C      -10.21078        10.58807        -0.48579
| 49>    S       -9.48100        12.12331        -0.94930
| 50>    C      -10.88945        12.98445        -0.45704
| 51>    C      -11.22753        14.33922        -0.38770
| 52>    C      -12.47316        14.51865         0.15835
| 53>    C      -13.13083        15.81703         0.35068
| 54>    O      -12.59945        16.85427         0.05465
| 55>    O      -14.37071        15.79418         0.87096
| 56>    S      -13.23389        12.99996         0.59369
| 57>    C      -11.87297        12.11484         0.01180
| 58>    C      -11.50949        10.74303         0.02379
| 59>    C      -12.32940         9.68744         0.52974
| 60>    C      -13.68105         9.57424         0.37546
| 61>    C      -14.51088         8.56186         0.93331
| 62>    C      -15.81659         8.63227         0.55900
| 63>    C      -16.10604         9.69727        -0.32242
| 64>    S      -14.64567        10.60168        -0.67415
| 65>    C      -17.31444        10.07124        -0.87181
| 66>    C      -18.58072         9.45868        -0.73101
| 67>    C      -19.57479        10.09130        -1.41107
| 68>    C      -19.16534        11.24528        -2.13025
| 69>    S      -17.43714        11.48076        -1.89846
| 70>    C      -19.98672        12.03998        -2.88498
| 71>    C      -19.67332        13.20625        -3.61704
| 72>    C      -20.59620        13.92607        -4.38192
| 73>    C      -19.93945        15.03391        -4.97291
| 74>    C      -20.38798        16.03423        -5.80707
| 75>    C      -19.46038        17.00348        -6.22122
| 76>    C      -19.59377        18.11448        -7.04321
| 77>    C      -18.33101        18.77853        -7.14049
| 78>    C      -17.41775        18.07473        -6.37595
| 79>    C      -18.07729        16.95407        -5.78166
| 80>    C      -17.62549        15.96220        -4.95418
| 81>    C      -18.55473        14.98315        -4.53974
| 82>    C      -18.40664        13.87783        -3.72564
| 83>    C      -18.03505        19.97262        -7.89522
| 84>    C      -18.90298        20.65556        -8.63660
| 85>    H       -8.60198         1.53819         4.87266
| 86>    H       -5.78640        -2.55768         4.25667
| 87>    H       -9.11511         0.49014         7.42441
| 88>    H       -5.19660         0.54572        -0.33758
| 89>    H       -7.02564         2.95081         0.23692
| 90>    H       -4.98946         2.26370        -1.97135
| 91>    H       -4.19109         4.85392        -4.53037
| 92>    H       -6.16983         7.71134        -4.03107
| 93>    H       -7.62439         8.08950        -2.38235
| 94>    H       -9.01145         6.10697        -0.51364
| 95>    H      -10.62192         7.83189        -0.11669
| 96>    H       -8.46654         9.70112        -1.21624
| 97>    H      -10.60863        15.15490        -0.71157
| 98>    H      -14.68561        14.89886         1.05591
| 99>    H      -11.83230         8.90280         1.08184
|100>    H      -14.10815         7.82103         1.60130
|101>    H      -16.57996         7.95356         0.89564
|102>    H      -18.71897         8.57268        -0.13770
|103>    H      -20.60142         9.76887        -1.42075
|104>    H      -21.02465        11.73035        -2.92719
|105>    H      -21.63506        13.68013        -4.50465
|106>    H      -21.41667        16.07935        -6.13610
|107>    H      -20.49938        18.42782        -7.52952
|108>    H      -16.38017        18.32064        -6.24198
|109>    H      -16.59853        15.91727        -4.62055
|110>    H      -17.49468        13.57270        -3.24833
|111>    H      -17.00837        20.31025        -7.82650
|112>    H      -19.93325        20.35984        -8.73581
|113>    H      -18.60969        21.54104        -9.17317
|114> *
|115>
|116>                          ****END OF INPUT****

CARTESIAN COORDINATES (ANGSTROEM)
---------------------------------
  C     -5.929800   -0.652150    2.034160
  C     -5.145590   -1.625910    1.464770
  C     -4.784180   -2.827210    2.107040
  N     -4.454810   -3.824460    2.572220
  C     -4.602440   -1.589860    0.164590
  N     -4.125110   -1.650010   -0.878860
  C     -6.515670   -0.723510    3.370460
  C     -7.316940    0.425010    3.576800
  C     -7.998940    0.652650    4.746450
  C     -7.880340   -0.296740    5.767290
  C     -7.075290   -1.439480    5.553590
  C     -6.389270   -1.672190    4.367690
  S     -7.058290   -2.479360    6.946720
  C     -8.118970   -1.378200    7.784720
  C     -8.469640   -0.288840    7.061630
  Br    -8.661490   -1.769300    9.537790
  C     -7.260760    1.283420    2.373590
  O     -7.852060    2.333250    2.218370
  C     -6.343060    0.598850    1.438670
  C     -5.913480    1.115110    0.240250
  C     -6.295850    2.356520   -0.291400
  C     -5.732640    2.841720   -1.438630
  C     -6.012550    4.101020   -1.993050
  O     -6.942530    4.939390   -1.461690
  C     -6.933830    6.093640   -2.169210
  C     -5.982530    6.002340   -3.186430
  C     -5.399460    4.730220   -3.083840
  O     -4.436290    4.203630   -3.858470
  O     -5.638610    6.914750   -4.134680
  C     -7.798660    7.166840   -1.845350
  C     -8.822660    7.075690   -0.955290
  C     -9.699630    8.131070   -0.587770
  C     -9.425420    9.450400   -0.779000
  C    -10.210780   10.588070   -0.485790
  S     -9.481000   12.123310   -0.949300
  C    -10.889450   12.984450   -0.457040
  C    -11.227530   14.339220   -0.387700
  C    -12.473160   14.518650    0.158350
  C    -13.130830   15.817030    0.350680
  O    -12.599450   16.854270    0.054650
  O    -14.370710   15.794180    0.870960
  S    -13.233890   12.999960    0.593690
  C    -11.872970   12.114840    0.011800
  C    -11.509490   10.743030    0.023790
  C    -12.329400    9.687440    0.529740
  C    -13.681050    9.574240    0.375460
  C    -14.510880    8.561860    0.933310
  C    -15.816590    8.632270    0.559000
  C    -16.106040    9.697270   -0.322420
  S    -14.645670   10.601680   -0.674150
  C    -17.314440   10.071240   -0.871810
  C    -18.580720    9.458680   -0.731010
  C    -19.574790   10.091300   -1.411070
  C    -19.165340   11.245280   -2.130250
  S    -17.437140   11.480760   -1.898460
  C    -19.986720   12.039980   -2.884980
  C    -19.673320   13.206250   -3.617040
  C    -20.596200   13.926070   -4.381920
  C    -19.939450   15.033910   -4.972910
  C    -20.387980   16.034230   -5.807070
  C    -19.460380   17.003480   -6.221220
  C    -19.593770   18.114480   -7.043210
  C    -18.331010   18.778530   -7.140490
  C    -17.417750   18.074730   -6.375950
  C    -18.077290   16.954070   -5.781660
  C    -17.625490   15.962200   -4.954180
  C    -18.554730   14.983150   -4.539740
  C    -18.406640   13.877830   -3.725640
  C    -18.035050   19.972620   -7.895220
  C    -18.902980   20.655560   -8.636600
  H     -8.601980    1.538190    4.872660
  H     -5.786400   -2.557680    4.256670
  H     -9.115110    0.490140    7.424410
  H     -5.196600    0.545720   -0.337580
  H     -7.025640    2.950810    0.236920
  H     -4.989460    2.263700   -1.971350
  H     -4.191090    4.853920   -4.530370
  H     -6.169830    7.711340   -4.031070
  H     -7.624390    8.089500   -2.382350
  H     -9.011450    6.106970   -0.513640
  H    -10.621920    7.831890   -0.116690
  H     -8.466540    9.701120   -1.216240
  H    -10.608630   15.154900   -0.711570
  H    -14.685610   14.898860    1.055910
  H    -11.832300    8.902800    1.081840
  H    -14.108150    7.821030    1.601300
  H    -16.579960    7.953560    0.895640
  H    -18.718970    8.572680   -0.137700
  H    -20.601420    9.768870   -1.420750
  H    -21.024650   11.730350   -2.927190
  H    -21.635060   13.680130   -4.504650
  H    -21.416670   16.079350   -6.136100
  H    -20.499380   18.427820   -7.529520
  H    -16.380170   18.320640   -6.241980
  H    -16.598530   15.917270   -4.620550
  H    -17.494680   13.572700   -3.248330
  H    -17.008370   20.310250   -7.826500
  H    -19.933250   20.359840   -8.735810
  H    -18.609690   21.541040   -9.173170

 Total Charge           Charge          ....    0
 Multiplicity           Mult            ....    1
 Number of Electrons    NEL             ....  542
 Basis Dimension        Dim             .... 1163

ORBITAL ENERGIES
----------------

  NO   OCC          E(Eh)            E(eV)
   0   2.0000    -482.879755    -13139.8261
   1   2.0000     -88.970334     -2421.0059
   2   2.0000     -88.967776     -2420.9363
   3   2.0000     -88.964013     -2420.8339
   4   2.0000     -88.947716     -2420.3904
   5   2.0000     -88.945603     -2420.3329
   6   2.0000     -62.557448     -1702.2747
   7   2.0000     -56.391388     -1534.4877
   8   2.0000     -56.388692     -1534.4143
   9   2.0000     -56.388654     -1534.4133
  10   2.0000     -19.298330      -525.1343
  11   2.0000     -19.278622      -524.5980
  12   2.0000     -19.274180      -524.4771
  13   2.0000     -19.256393      -523.9931
  14   2.0000     -19.203253      -522.5471
  15   2.0000     -19.191092      -522.2162
  16   2.0000     -14.403745      -391.9458
  17   2.0000     -14.402204      -391.9039
  18   2.0000     -10.401643      -283.0431
  19   2.0000     -10.356153      -281.8052
  20   2.0000     -10.353927      -281.7447
  21   2.0000     -10.351575      -281.6807
  22   2.0000     -10.350824      -281.6602
  23   2.0000     -10.350139      -281.6416
  24   2.0000     -10.338118      -281.3145
  25   2.0000     -10.328171      -281.0438
  26   2.0000     -10.326727      -281.0045
  27   2.0000     -10.316402      -280.7236
  28   2.0000     -10.316394      -280.7233
  29   2.0000     -10.315810      -280.7075
  30   2.0000     -10.314408      -280.6693
  31   2.0000     -10.312601      -280.6201
  32   2.0000     -10.308333      -280.5040
  33   2.0000     -10.308282      -280.5026
  34   2.0000     -10.307450      -280.4800
  35   2.0000     -10.307344      -280.4771
  36   2.0000     -10.306100      -280.4432
  37   2.0000     -10.306013      -280.4409
  38   2.0000     -10.305789      -280.4348
  39   2.0000     -10.302003      -280.3317
  40   2.0000     -10.301660      -280.3224
  41   2.0000     -10.301655      -280.3223
  42   2.0000     -10.300741      -280.2974
  43   2.0000     -10.298550      -280.2378
  44   2.0000     -10.297839      -280.2184
  45   2.0000     -10.297160      -280.2000
  46   2.0000     -10.295740      -280.1613
  47   2.0000     -10.295216      -280.1471
  48   2.0000     -10.294572      -280.1295
  49   2.0000     -10.291850      -280.0555
  50   2.0000     -10.291289      -280.0402
  51   2.0000     -10.291173      -280.0370
  52   2.0000     -10.289960      -280.0041
  53   2.0000     -10.289783      -279.9992
  54   2.0000     -10.289666      -279.9960
  55   2.0000     -10.287381      -279.9339
  56   2.0000     -10.287258      -279.9305
  57   2.0000     -10.286238      -279.9028
  58   2.0000     -10.285295      -279.8771
  59   2.0000     -10.284732      -279.8618
  60   2.0000     -10.282043      -279.7886
  61   2.0000     -10.281132      -279.7638
  62   2.0000     -10.279784      -279.7271
  63   2.0000     -10.279734      -279.7258
  64   2.0000     -10.277136      -279.6551
  65   2.0000     -10.275827      -279.6195
  66   2.0000     -10.271169      -279.4927
  67   2.0000     -10.270943      -279.4866
  68   2.0000     -10.270601      -279.4773
  69   2.0000     -10.269232      -279.4400
  70   2.0000     -10.268877      -279.4303
  71   2.0000     -10.267817      -279.4015
  72   2.0000     -10.267705      -279.3985
  73   2.0000     -10.259476      -279.1745
  74   2.0000      -8.786863      -239.1027
  75   2.0000      -8.065225      -219.4659
  76   2.0000      -8.063699      -219.4244
  77   2.0000      -8.059658      -219.3144
  78   2.0000      -8.043684      -218.8798
  79   2.0000      -8.041897      -218.8312
  80   2.0000      -6.623101      -180.2237
  81   2.0000      -6.608618      -179.8296
  82   2.0000      -6.608445      -179.8249
  83   2.0000      -6.034711      -164.2128
  84   2.0000      -6.033395      -164.1770
  85   2.0000      -6.030597      -164.1009
  86   2.0000      -6.029126      -164.0609
  87   2.0000      -6.029064      -164.0592
  88   2.0000      -6.026992      -164.0028
  89   2.0000      -6.025227      -163.9548
  90   2.0000      -6.024938      -163.9469
  91   2.0000      -6.021204      -163.8453
  92   2.0000      -6.013463      -163.6346
  93   2.0000      -6.011650      -163.5853
  94   2.0000      -6.009429      -163.5249
  95   2.0000      -6.007561      -163.4741
  96   2.0000      -6.004556      -163.3923
  97   2.0000      -6.002734      -163.3427
  98   2.0000      -2.739015       -74.5324
  99   2.0000      -2.734909       -74.4207
 100   2.0000      -2.734766       -74.4168
 101   2.0000      -2.723257       -74.1036
 102   2.0000      -2.723250       -74.1034
 103   2.0000      -1.220119       -33.2011
 104   2.0000      -1.178332       -32.0641
 105   2.0000      -1.174805       -31.9681
 106   2.0000      -1.158897       -31.5352
 107   2.0000      -1.117049       -30.3964
 108   2.0000      -1.091178       -29.6925
 109   2.0000      -1.017203       -27.6795
 110   2.0000      -1.012750       -27.5583
 111   2.0000      -1.002396       -27.2766
 112   2.0000      -0.997170       -27.1344
 113   2.0000      -0.990200       -26.9447
 114   2.0000      -0.981998       -26.7215
 115   2.0000      -0.977910       -26.6103
 116   2.0000      -0.975158       -26.5354
 117   2.0000      -0.963450       -26.2168
 118   2.0000      -0.957297       -26.0494
 119   2.0000      -0.936161       -25.4742
 120   2.0000      -0.930728       -25.3264
 121   2.0000      -0.915114       -24.9015
 122   2.0000      -0.906618       -24.6703
 123   2.0000      -0.902914       -24.5695
 124   2.0000      -0.898456       -24.4482
 125   2.0000      -0.897966       -24.4349
 126   2.0000      -0.888094       -24.1663
 127   2.0000      -0.876561       -23.8524
 128   2.0000      -0.876280       -23.8448
 129   2.0000      -0.869832       -23.6693
 130   2.0000      -0.867046       -23.5935
 131   2.0000      -0.857464       -23.3328
 132   2.0000      -0.848053       -23.0767
 133   2.0000      -0.844384       -22.9769
 134   2.0000      -0.842523       -22.9262
 135   2.0000      -0.825614       -22.4661
 136   2.0000      -0.823460       -22.4075
 137   2.0000      -0.819546       -22.3010
 138   2.0000      -0.816599       -22.2208
 139   2.0000      -0.801089       -21.7987
 140   2.0000      -0.797017       -21.6879
 141   2.0000      -0.789720       -21.4894
 142   2.0000      -0.772597       -21.0234
 143   2.0000      -0.761965       -20.7341
 144   2.0000      -0.752254       -20.4699
 145   2.0000      -0.748188       -20.3592
 146   2.0000      -0.745121       -20.2758
 147   2.0000      -0.732584       -19.9346
 148   2.0000      -0.727231       -19.7890
 149   2.0000      -0.719325       -19.5738
 150   2.0000      -0.708248       -19.2724
 151   2.0000      -0.702653       -19.1202
 152   2.0000      -0.700335       -19.0571
 153   2.0000      -0.683510       -18.5993
 154   2.0000      -0.682475       -18.5711
 155   2.0000      -0.681663       -18.5490
 156   2.0000      -0.676167       -18.3994
 157   2.0000      -0.671932       -18.2842
 158   2.0000      -0.666109       -18.1257
 159   2.0000      -0.653874       -17.7928
 160   2.0000      -0.653146       -17.7730
 161   2.0000      -0.649154       -17.6644
 162   2.0000      -0.646677       -17.5970
 163   2.0000      -0.644512       -17.5381
 164   2.0000      -0.639194       -17.3933
 165   2.0000      -0.628314       -17.0973
 166   2.0000      -0.624446       -16.9920
 167   2.0000      -0.617953       -16.8153
 168   2.0000      -0.615539       -16.7497
 169   2.0000      -0.611364       -16.6361
 170   2.0000      -0.609909       -16.5965
 171   2.0000      -0.605071       -16.4648
 172   2.0000      -0.599675       -16.3180
 173   2.0000      -0.596307       -16.2263
 174   2.0000      -0.595530       -16.2052
 175   2.0000      -0.585360       -15.9285
 176   2.0000      -0.582711       -15.8564
 177   2.0000      -0.580951       -15.8085
 178   2.0000      -0.579870       -15.7791
 179   2.0000      -0.574043       -15.6205
 180   2.0000      -0.564770       -15.3682
 181   2.0000      -0.558213       -15.1898
 182   2.0000      -0.554599       -15.0914
 183   2.0000      -0.550806       -14.9882
 184   2.0000      -0.544218       -14.8089
 185   2.0000      -0.538575       -14.6554
 186   2.0000      -0.537394       -14.6232
 187   2.0000      -0.535589       -14.5741
 188   2.0000      -0.530859       -14.4454
 189   2.0000      -0.528621       -14.3845
 190   2.0000      -0.527605       -14.3569
 191   2.0000      -0.526463       -14.3258
 192   2.0000      -0.521539       -14.1918
 193   2.0000      -0.517983       -14.0950
 194   2.0000      -0.514565       -14.0020
 195   2.0000      -0.512120       -13.9355
 196   2.0000      -0.508849       -13.8465
 197   2.0000      -0.507255       -13.8031
 198   2.0000      -0.502769       -13.6810
 199   2.0000      -0.501922       -13.6580
 200   2.0000      -0.501224       -13.6390
 201   2.0000      -0.499517       -13.5925
 202   2.0000      -0.498550       -13.5662
 203   2.0000      -0.498322       -13.5600
 204   2.0000      -0.496799       -13.5186
 205   2.0000      -0.496017       -13.4973
 206   2.0000      -0.495139       -13.4734
 207   2.0000      -0.492840       -13.4109
 208   2.0000      -0.490113       -13.3367
 209   2.0000      -0.486667       -13.2429
 210   2.0000      -0.483422       -13.1546
 211   2.0000      -0.482390       -13.1265
 212   2.0000      -0.481289       -13.0965
 213   2.0000      -0.476913       -12.9775
 214   2.0000      -0.474605       -12.9147
 215   2.0000      -0.472586       -12.8597
 216   2.0000      -0.468216       -12.7408
 217   2.0000      -0.464266       -12.6333
 218   2.0000      -0.463162       -12.6033
 219   2.0000      -0.459386       -12.5005
 220   2.0000      -0.457503       -12.4493
 221   2.0000      -0.456273       -12.4158
 222   2.0000      -0.454221       -12.3600
 223   2.0000      -0.451885       -12.2964
 224   2.0000      -0.450479       -12.2582
 225   2.0000      -0.448187       -12.1958
 226   2.0000      -0.445940       -12.1346
 227   2.0000      -0.441100       -12.0030
 228   2.0000      -0.439003       -11.9459
 229   2.0000      -0.437546       -11.9062
 230   2.0000      -0.437364       -11.9013
 231   2.0000      -0.433943       -11.8082
 232   2.0000      -0.432315       -11.7639
 233   2.0000      -0.429635       -11.6910
 234   2.0000      -0.428509       -11.6603
 235   2.0000      -0.427408       -11.6304
 236   2.0000      -0.425502       -11.5785
 237   2.0000      -0.422598       -11.4995
 238   2.0000      -0.418601       -11.3907
 239   2.0000      -0.415407       -11.3038
 240   2.0000      -0.412630       -11.2282
 241   2.0000      -0.411878       -11.2078
 242   2.0000      -0.408690       -11.1210
 243   2.0000      -0.404314       -11.0019
 244   2.0000      -0.399189       -10.8625
 245   2.0000      -0.396169       -10.7803
 246   2.0000      -0.395754       -10.7690
 247   2.0000      -0.387922       -10.5559
 248   2.0000      -0.383353       -10.4316
 249   2.0000      -0.378786       -10.3073
 250   2.0000      -0.370265       -10.0754
 251   2.0000      -0.369646       -10.0586
 252   2.0000      -0.369192       -10.0462
 253   2.0000      -0.362780        -9.8717
 254   2.0000      -0.352723        -9.5981
 255   2.0000      -0.348225        -9.4757
 256   2.0000      -0.341678        -9.2975
 257   2.0000      -0.340721        -9.2715
 258   2.0000      -0.326462        -8.8835
 259   2.0000      -0.325826        -8.8662
 260   2.0000      -0.323098        -8.7919
 261   2.0000      -0.312602        -8.5063
 262   2.0000      -0.306452        -8.3390
 263   2.0000      -0.304347        -8.2817
 264   2.0000      -0.296265        -8.0618
 265   2.0000      -0.285699        -7.7743
 266   2.0000      -0.275379        -7.4934
 267   2.0000      -0.271544        -7.3891
 268   2.0000      -0.257495        -7.0068
 269   2.0000      -0.237549        -6.4640
 270   2.0000      -0.210027        -5.7151
 271   0.0000      -0.100503        -2.7348
 272   0.0000      -0.094234        -2.5642
 273   0.0000      -0.074203        -2.0192
 274   0.0000      -0.057777        -1.5722
 275   0.0000      -0.045687        -1.2432

MULLIKEN ATOMIC CHARGES
-----------------------
   0 C :    0.330751
   1 C :   -0.363215
   2 C :   -0.185740
   3 N :    0.139726
   4 C :   -0.193771
   5 N :    0.140235
   6 C :    0.011664
   7 C :   -0.009520
   8 C :   -0.078336
   9 C :    0.118460
  10 C :   -0.092607
  11 C :   -0.022742
  12 S :    0.181454
  13 C :   -0.123478
  14 C :    0.038172
  15 Br:    0.016496
  16 C :    0.140179
  17 O :   -0.161497
  18 C :   -0.070776
  19 C :   -0.038361
  20 C :   -0.004606
  21 C :   -0.005103
  22 C :    0.086353
  23 O :   -0.213705
  24 C :    0.121144
  25 C :    0.074409
  26 C :    0.107011
  27 O :   -0.159059
  28 O :   -0.197353
  29 C :   -0.060908
  30 C :    0.026111
  31 C :   -0.006124
  32 C :    0.054967
  33 C :   -0.122132
  34 S :    0.131233
  35 C :   -0.003848
  36 C :   -0.001062
  37 C :   -0.177686
  38 C :    0.176169
  39 O :   -0.176217
  40 O :   -0.161286
  41 S :    0.127517
  42 C :   -0.100304
  43 C :    0.105819
  44 C :   -0.097820
  45 C :   -0.027357
  46 C :    0.024019
  47 C :    0.041162
  48 C :   -0.071049
  49 S :    0.077372
  50 C :   -0.020877
  51 C :    0.020550
  52 C :    0.041082
  53 C :   -0.028417
  54 S :    0.040868
  55 C :   -0.004201
  56 C :    0.055776
  57 C :   -0.035276
  58 C :    0.064803
  59 C :    0.003763
  60 C :    0.043260
  61 C :   -0.015267
  62 C :    0.060161
  63 C :   -0.022870
  64 C :    0.057969
  65 C :    0.005184
  66 C :    0.038273
  67 C :   -0.026436
  68 C :    0.012952
  69 C :   -0.026183
  70 H :   -0.016161
  71 H :   -0.008683
  72 H :   -0.006507
  73 H :    0.009119
  74 H :    0.028257
  75 H :    0.025503
  76 H :    0.199938
  77 H :    0.193975
  78 H :   -0.028674
  79 H :    0.014525
  80 H :   -0.009558
  81 H :   -0.020046
  82 H :    0.007569
  83 H :    0.180215
  84 H :    0.006462
  85 H :   -0.012431
  86 H :   -0.012554
  87 H :   -0.014476
  88 H :   -0.011153
  89 H :   -0.021233
  90 H :   -0.027800
  91 H :   -0.024320
  92 H :   -0.022768
  93 H :   -0.022712
  94 H :   -0.019952
  95 H :   -0.007884
  96 H :   -0.017550
  97 H :    0.007508
  98 H :    0.021516
Sum of atomic charges:   -0.0000000

LOEWDIN ATOMIC CHARGES
----------------------
   0 C :    0.076229
   1 C :   -0.151391
   2 C :   -0.018325
   3 N :   -0.064266
   4 C :   -0.020798
   5 N :   -0.061891
   6 C :   -0.019281
   7 C :   -0.048747
   8 C :    0.017419
   9 C :   -0.034878
  10 C :   -0.145158
  11 C :   -0.012100
  12 S :    0.428527
  13 C :   -0.273772
  14 C :   -0.071414
  15 Br:    0.131256
  16 C :    0.082594
  17 O :   -0.155120
  18 C :   -0.110209
  19 C :    0.067326
  20 C :   -0.043040
  21 C :    0.024093
  22 C :   -0.008762
  23 O :    0.009650
  24 C :    0.013660
  25 C :   -0.025583
  26 C :    0.019697
  27 O :   -0.030529
  28 O :   -0.059689
  29 C :   -0.056100
  30 C :   -0.001837
  31 C :   -0.032334
  32 C :   -0.033485
  33 C :   -0.150946
  34 S :    0.424462
  35 C :   -0.202677
  36 C :   -0.023452
  37 C :   -0.232952
  38 C :    0.061898
  39 O :   -0.164002
  40 O :   -0.035348
  41 S :    0.424045
  42 C :   -0.193782
  43 C :   -0.067598
  44 C :   -0.084935
  45 C :   -0.138329
  46 C :   -0.045211
  47 C :   -0.023576
  48 C :   -0.196777
  49 S :    0.366175
  50 C :   -0.164888
  51 C :   -0.046936
  52 C :   -0.019238
  53 C :   -0.162022
  54 S :    0.372632
  55 C :   -0.031282
  56 C :   -0.068209
  57 C :    0.018199
  58 C :   -0.062141
  59 C :    0.077302
  60 C :   -0.064725
  61 C :    0.052517
  62 C :   -0.059614
  63 C :    0.020838
  64 C :   -0.058648
  65 C :    0.074218
  66 C :   -0.061372
  67 C :    0.028070
  68 C :   -0.020796
  69 C :   -0.053598
  70 H :    0.038574
  71 H :    0.040382
  72 H :    0.037476
  73 H :    0.040795
  74 H :    0.034223
  75 H :    0.048676
  76 H :    0.109204
  77 H :    0.100212
  78 H :    0.023326
  79 H :    0.039142
  80 H :    0.030055
  81 H :    0.023003
  82 H :    0.043777
  83 H :    0.077748
  84 H :    0.032981
  85 H :    0.032588
  86 H :    0.032910
  87 H :    0.031473
  88 H :    0.033987
  89 H :    0.036277
  90 H :    0.023799
  91 H :    0.035225
  92 H :    0.025596
  93 H :    0.026133
  94 H :    0.037268
  95 H :    0.013611
  96 H :    0.030056
  97 H :    0.017532
  98 H :    0.024929

  Mayer bond orders larger than 0.100000
B(  0-C ,  1-C ) :   1.6013 B(  0-C ,  6-C ) :   0.9943 B(  0-C , 18-C ) :   1.0935
B(  1-C ,  2-C ) :   1.1452 B(  1-C ,  4-C ) :   1.1532 B(  2-C ,  3-N ) :   2.9642
B(  4-C ,  5-N ) :   2.9638 B(  6-C ,  7-C ) :   1.2803 B(  6-C , 11-C ) :   1.4134
B(  7-C ,  8-C ) :   1.4276 B(  7-C , 16-C ) :   0.9356 B(  8-C ,  9-C ) :   1.2419
B(  8-C , 70-H ) :   1.0159 B(  9-C , 10-C ) :   1.3140 B(  9-C , 14-C ) :   1.1606
B( 10-C , 11-C ) :   1.3261 B( 10-C , 12-S ) :   1.0827 B( 11-C , 71-H ) :   0.9788
B( 12-S , 13-C ) :   1.0860 B( 13-C , 14-C ) :   1.6198 B( 13-C , 15-Br) :   1.0148
B( 14-C , 72-H ) :   1.0002 B( 16-C , 17-O ) :   2.1970 B( 16-C , 18-C ) :   0.9605
B( 18-C , 19-C ) :   1.4747 B( 19-C , 20-C ) :   1.2054 B( 19-C , 73-H ) :   0.9616
B( 20-C , 21-C ) :   1.4634 B( 20-C , 74-H ) :   0.9941 B( 21-C , 22-C ) :   1.2091
B( 21-C , 75-H ) :   0.9762 B( 22-C , 23-O ) :   1.1022 B( 22-C , 24-C ) :   0.1057
B( 22-C , 26-C ) :   1.3283 B( 23-O , 24-C ) :   1.1427 B( 24-C , 25-C ) :   1.2863
B( 24-C , 29-C ) :   1.1687 B( 25-C , 26-C ) :   1.2573 B( 25-C , 28-O ) :   1.2293
B( 26-C , 27-O ) :   1.2965 B( 27-O , 76-H ) :   0.9492 B( 28-O , 77-H ) :   0.9568
B( 29-C , 30-C ) :   1.6608 B( 29-C , 78-H ) :   0.9476 B( 30-C , 31-C ) :   1.1361
B( 30-C , 79-H ) :   0.9780 B( 31-C , 32-C ) :   1.6623 B( 31-C , 80-H ) :   0.9690
B( 32-C , 33-C ) :   1.1818 B( 32-C , 81-H ) :   0.9325 B( 33-C , 34-S ) :   1.0965
B( 33-C , 43-C ) :   1.4356 B( 34-S , 35-C ) :   1.0633 B( 35-C , 36-C ) :   1.2306
B( 35-C , 42-C ) :   1.4303 B( 36-C , 37-C ) :   1.5536 B( 36-C , 82-H ) :   1.0127
B( 37-C , 38-C ) :   0.9435 B( 37-C , 41-S ) :   1.0718 B( 38-C , 39-O ) :   2.2001
B( 38-C , 40-O ) :   1.2359 B( 40-O , 83-H ) :   0.9498 B( 41-S , 42-C ) :   1.1117
B( 42-C , 43-C ) :   1.2373 B( 43-C , 44-C ) :   1.0794 B( 44-C , 45-C ) :   1.6342
B( 44-C , 84-H ) :   0.9529 B( 45-C , 46-C ) :   1.1238 B( 45-C , 49-S ) :   1.0427
B( 46-C , 47-C ) :   1.6057 B( 46-C , 85-H ) :   0.9982 B( 47-C , 48-C ) :   1.1817
B( 47-C , 86-H ) :   0.9928 B( 48-C , 49-S ) :   1.0273 B( 48-C , 50-C ) :   1.5189
B( 50-C , 51-C ) :   1.1818 B( 50-C , 54-S ) :   1.0499 B( 51-C , 52-C ) :   1.5938
B( 51-C , 87-H ) :   0.9939 B( 52-C , 53-C ) :   1.1400 B( 52-C , 88-H ) :   0.9992
B( 53-C , 54-S ) :   1.0113 B( 53-C , 55-C ) :   1.5814 B( 55-C , 56-C ) :   1.1343
B( 55-C , 89-H ) :   0.9697 B( 56-C , 57-C ) :   1.4238 B( 56-C , 67-C ) :   1.1380
B( 57-C , 58-C ) :   1.1250 B( 57-C , 90-H ) :   1.0194 B( 58-C , 59-C ) :   1.4117
B( 58-C , 66-C ) :   1.1339 B( 59-C , 60-C ) :   1.1533 B( 59-C , 91-H ) :   1.0045
B( 60-C , 61-C ) :   1.4122 B( 60-C , 64-C ) :   1.1271 B( 61-C , 62-C ) :   1.1614
B( 61-C , 92-H ) :   1.0079 B( 62-C , 63-C ) :   1.4916 B( 62-C , 68-C ) :   1.0835
B( 63-C , 64-C ) :   1.0912 B( 63-C , 93-H ) :   1.0176 B( 64-C , 65-C ) :   1.4609
B( 65-C , 66-C ) :   1.1262 B( 65-C , 94-H ) :   1.0046 B( 66-C , 67-C ) :   1.4570
B( 67-C , 95-H ) :   0.9902 B( 68-C , 69-C ) :   1.9339 B( 68-C , 96-H ) :   0.9668
B( 69-C , 97-H ) :   0.9530 B( 69-C , 98-H ) :   0.9497

-----------------------------------------------------------------------------
         ABSORPTION SPECTRUM VIA TRANSITION ELECTRIC DIPOLE MOMENTS
-----------------------------------------------------------------------------
State   Energy  Wavelength   fosc         T2         TX        TY        TZ
        (cm-1)    (nm)                  (au**2)     (au)      (au)      (au)
-----------------------------------------------------------------------------
   0    6853.0   1459.2   0.019927021   0.95727   0.60119  -0.61163   0.47092
   1   12736.1    785.2   1.512576336  39.09819   4.21795  -4.19072   1.93519
   2   15960.8    626.5   0.052970543   1.09259   0.81356  -0.58734   0.29282
   3   17063.1    586.1   0.437632173   8.44357   0.44093   2.86622  -0.18422
   4   17894.4    558.8   0.849901016  15.63603  -2.15196   2.61862  -2.03665
   5   21529.5    464.5   0.101131800   1.54642   0.10731   0.35617  -1.18661
   6   22043.2    453.7   0.099512471   1.48620  -0.07471   0.59950  -1.05888
   7   22505.6    444.3   0.191634840   2.80324   0.13050  -1.27060   1.08248
   8   23270.5    429.7   0.334546048   4.73288  -1.04285  -0.92223   1.67178
   9   24660.6    405.5   0.075564362   1.00876   0.19475   0.81446  -0.55452
  10   25001.9    400.0   0.308344297   4.06011  -0.88873  -1.37272   1.17725
  11   26445.6    378.1   0.088360336   1.09997   0.18516  -0.79973  -0.65277
  12   27014.2    370.2   0.196292183   2.39214   0.62017  -1.35623  -0.41008
  13   27381.9    365.2   0.037222892   0.44753  -0.48470  -0.43645   0.14870
  14   27612.1    362.2   0.115054684   1.37177  -0.25967  -0.06001   1.14050
  15   27772.5    360.1   0.241317386   2.86055  -1.09326  -0.94641   0.87729
  16   28238.6    354.1   0.160599384   1.87231  -0.32109   0.36936   1.27780
  17   28250.0    354.0   0.168098000   1.95893  -0.38697   0.31730   1.30710
  18   29190.9    342.6   0.341147217   3.84742   0.95682  -1.67312  -0.36413
  19   29580.7    338.1   0.168096795   1.87080  -1.04561  -0.82742   0.30476
  20   30032.3    333.0   0.139725857   1.53166   0.45664   0.56224  -1.00351
  21   30208.2    331.0   0.005425374   0.05913  -0.07360  -0.18723   0.13659
  22   30505.8    327.8   0.068226281   0.73628  -0.14153   0.84528  -0.04198
  23   31402.1    318.5   0.628678593   6.59092  -1.11166  -1.93032   1.27632
  24   31889.4    313.6   0.050461770   0.52094  -0.12480  -0.65865   0.26748
  25   32159.1    311.0   0.007362152   0.07537  -0.09858   0.14477   0.21140
  26   32260.8    310.0   0.038427775   0.39214   0.10104   0.61771   0.01937
  27   32351.4    309.1   0.009816323   0.09989   0.03073   0.30791  -0.06432
  28   32640.9    306.4   0.033092433   0.33377   0.18664  -0.43833  -0.32680
  29   32834.5    304.6   0.020025636   0.20078   0.20155   0.35260  -0.18932
  30   33292.4    300.4   0.544250743   5.38183   1.15337  -0.64763  -1.90582
  31   33556.3    298.0   0.040964187   0.40189  -0.41816  -0.19410   0.43515
  32   33804.3    295.8   0.018803127   0.18312   0.01733   0.36904   0.21593
  33   33900.3    295.0   0.240047232   2.33114  -0.00254   1.23371  -0.89949
  34   34623.5    288.8   0.155407901   1.47767   0.42614   0.63933  -0.94198
  35   34738.3    287.9   0.048850966   0.46296   0.46539   0.03706  -0.49497
  36   35055.1    285.3   0.039616554   0.37205  -0.21398  -0.45869   0.34039
  37   35450.4    282.1   0.001002587   0.00931   0.05694  -0.05257  -0.05748
  38   35809.8    279.3   0.029109489   0.26761  -0.36664   0.21143   0.29747
  39   36191.0    276.3   0.066575703   0.60561  -0.51236   0.15621   0.56453
  40   36438.4    274.4   0.034456420   0.31131   0.11100   0.14909  -0.52608
  41   36935.9    270.7   0.011478619   0.10231   0.26002  -0.12208   0.14069
  42   37107.1    269.5   0.056373148   0.50014  -0.12900  -0.57742   0.38741
  43   37177.6    269.0   0.011267417   0.09977   0.23582  -0.20612  -0.04095
  44   37453.9    267.0   0.002060631   0.01811   0.08101   0.08326  -0.06796
  45   37517.8    266.5   0.006269621   0.05501   0.03460  -0.11927   0.19898
  46   37991.4    263.2   0.085183458   0.73815   0.48752   0.58347  -0.40004
  47   38184.9    261.9   0.044756680   0.38587   0.37763   0.13334  -0.47486
  48   38236.8    261.5   0.017523419   0.15087   0.27542   0.10157  -0.25437
  49   38735.9    258.2   0.175561842   1.49208  -0.41032   1.13485  -0.18933
  50   38839.2    257.5   0.024478630   0.20749   0.35789  -0.21856   0.17785
  51   38990.4    256.5   0.020396198   0.17221  -0.40381   0.04040  -0.08672
  52   39148.2    255.4   0.007823050   0.06579   0.21595   0.10446   0.09077
  53   39320.3    254.3   0.026038495   0.21801   0.05996   0.45799   0.06824
  54   39560.3    252.8   0.036235790   0.30155  -0.47346  -0.19880   0.19458
  55   39931.2    250.4   0.173724745   1.43227   0.21483  -1.08014   0.46841
  56   40133.3    249.2   0.109923451   0.90170   0.04753   0.79861  -0.51153
  57   40287.9    248.2   0.028659009   0.23419   0.42201   0.20142  -0.12461

FINAL SINGLE POINT ENERGY     -7272.981307839663

DIPOLE MOMENT
-------------
                                X             Y             Z
Electronic contribution:     71.03304    -153.69763     142.98494
Nuclear contribution   :    -74.06235     156.15801    -144.31633
                        -----------------------------------------
Total Dipole Moment    :     -3.02931       2.46039      -1.33140
                        -----------------------------------------
Magnitude (a.u.)       :      4.12345
Magnitude (Debye)      :     10.48098

Rotational constants in cm-1:     0.001118     0.000190     0.000177
Rotational constants in MHz :    33.516537     5.700824     5.301053

                             ****ORCA TERMINATED NORMALLY****
TOTAL RUN TIME: 0 days 0 hours 10 minutes 55 seconds 216 msec
