                         Program Version 4.2.0 -  RELEASE  -
|  1> # ORCA input file
|  2> # SCF done       -199.565981823960          0.000720918973
|  3> ! CAM-B3LYP def2-SVP def2/J RIJCOSX Grid4 TightSCF
|  4> %maxcore 5000
|  5> %tddft
|  6>     Mode sTDDFT
|  7>     Ethresh 5.0
|  8>     maxcore 5000
|  9> end
| 10>
| 11> %pal
| 12>   nprocs 6
| 13>   end
| 14> * xyz 0 1
| 15>    C       -7.69761        -1.51329        -5.16278
| 16>    C       -6.52157        -2.20732        -5.26813
| 17>    C       -6.36146        -3.36727        -6.05537
| 18>    N       -6.17480        -4.31009        -6.68265
| 19>    C       -5.33537        -1.90559        -4.56377
| 20>    N       -4.35117        -1.74664        -3.99532
| 21>    C       -8.96936        -1.89756        -5.76508
| 22>    C       -9.98418        -1.04148        -5.26836
| 23>    C      -11.30271        -1.16000        -5.63655
| 24>    C      -11.63596        -2.16850        -6.54623
| 25>    C      -10.61543        -3.01513        -7.04318
| 26>    C       -9.28295        -2.89813        -6.66539
| 27>    S      -11.24494        -4.18658        -8.15964
| 28>    C      -12.84833        -3.53452        -7.94702
| 29>    C      -12.91121        -2.49227        -7.08417
| 30>   Br      -14.28601        -4.28891        -8.88457
| 31>    C       -9.38329        -0.06229        -4.34972
| 32>    O       -9.97378         0.79956        -3.72322
| 33>    C       -7.93610        -0.32271        -4.36586
| 34>    C       -6.97386         0.49425        -3.83563
| 35>    C       -7.12402         1.65363        -3.05302
| 36>    S       -8.59223         2.29471        -2.37253
| 37>    C       -7.73659         3.58330        -1.57739
| 38>    C       -6.36287         3.53840        -1.86137
| 39>    C       -6.02642         2.44789        -2.68098
| 40>    C       -4.71167         2.19942        -3.11788
| 41>    N       -3.64404         2.01486        -3.49166
| 42>    C       -5.39343         4.45253        -1.41581
| 43>    N       -4.57858         5.18389        -1.07211
| 44>    C       -8.47848         4.49476        -0.79706
| 45>    C       -7.95316         5.51689        -0.06028
| 46>    C       -8.68234         6.42662         0.72685
| 47>    S       -7.85066         7.25903         1.99866
| 48>    C       -9.30245         7.96880         2.63858
| 49>    C      -10.40801         7.64351         1.80802
| 50>    C      -10.04740         6.79164         0.71864
| 51>    C      -10.99126         6.48615        -0.27631
| 52>    C      -12.27154         6.94917        -0.14758
| 53>    F      -13.17993         6.67565        -1.09776
| 54>    C      -12.64419         7.74248         0.95176
| 55>    F      -13.91091         8.17729         1.04840
| 56>    C      -11.72894         8.11287         1.90004
| 57>    C       -9.19734         8.72274         3.81434
| 58>    C      -10.23961         9.09978         4.62648
| 59>    C      -10.14458         9.90441         5.75889
| 60>    C      -11.26730        10.23678         6.49578
| 61>    C      -11.37751        11.03061         7.65640
| 62>    C      -12.65467        11.15685         8.13280
| 63>    C      -13.61281        10.46530         7.36740
| 64>    S      -12.85307         9.66147         6.02190
| 65>    C      -14.97804        10.29826         7.54916
| 66>    C      -15.84711        10.72222         8.57201
| 67>    C      -17.11250        10.21992         8.45111
| 68>    C      -17.29588         9.35207         7.34692
| 69>    S      -15.83274         9.28843         6.40976
| 70>    C      -18.45633         8.67802         7.00348
| 71>    C      -18.64908         7.74300         5.98661
| 72>    C      -17.76791         6.96196         5.25837
| 73>    C      -18.21259         6.45249         3.93234
| 74>    O      -19.33444         6.49732         3.47865
| 75>    C      -16.99404         5.92205         3.28321
| 76>    C      -16.82640         5.42649         2.02372
| 77>    C      -15.54436         4.98130         1.62220
| 78>    C      -14.45451         5.08391         2.53335
| 79>    C      -13.17933         4.64668         2.12640
| 80>    C      -13.02080         4.11713         0.87656
| 81>    C      -14.07867         3.99808        -0.03166
| 82>    C      -15.32019         4.43390         0.34333
| 83>    F      -11.79291         3.70518         0.48588
| 84>    C      -14.65834         5.60500         3.83291
| 85>    C      -15.91272         5.99948         4.20580
| 86>    C      -16.42450         6.51827         5.47257
| 87>    C      -15.76341         6.42585         6.68024
| 88>    C      -16.37959         6.67369         7.91938
| 89>    N      -16.85055         6.86262         8.94991
| 90>    C      -14.42149         6.03000         6.82051
| 91>    N      -13.31660         5.76623         6.99500
| 92>    H      -12.05256        -0.49533        -5.23718
| 93>    H       -8.54271        -3.56525        -7.07418
| 94>    H      -13.81849        -1.97196        -6.83714
| 95>    H       -5.93859         0.25164        -4.05150
| 96>    H       -9.53832         4.29262        -0.75545
| 97>    H       -6.87747         5.61727        -0.00388
| 98>    H      -10.72125         5.92692        -1.15496
| 99>    H      -12.04757         8.78865         2.67354
|100>    H       -8.19174         8.98870         4.11597
|101>    H      -11.22705         8.72433         4.40492
|102>    H       -9.18625        10.29641         6.06932
|103>    H      -10.51463        11.48167         8.11394
|104>    H      -12.92366        11.71846         9.00937
|105>    H      -15.52012        11.36065         9.37284
|106>    H      -17.90868        10.40916         9.14849
|107>    H      -19.33892         8.96886         7.55946
|108>    H      -19.67771         7.63235         5.65194
|109>    H      -17.65929         5.36768         1.33938
|110>    H      -12.33892         4.72328         2.79929
|111>    H      -13.89213         3.57864        -1.00721
|112>    H      -16.14953         4.36309        -0.34368
|113>    H      -13.81388         5.67599         4.49987
|114> *
|115>
|116>                          ****END OF INPUT****

CARTESIAN COORDINATES (ANGSTROEM)
---------------------------------
  C     -7.697610   -1.513290   -5.162780
  C     -6.521570   -2.207320   -5.268130
  C     -6.361460   -3.367270   -6.055370
  N     -6.174800   -4.310090   -6.682650
  C     -5.335370   -1.905590   -4.563770
  N     -4.351170   -1.746640   -3.995320
  C     -8.969360   -1.897560   -5.765080
  C     -9.984180   -1.041480   -5.268360
  C    -11.302710   -1.160000   -5.636550
  C    -11.635960   -2.168500   -6.546230
  C    -10.615430   -3.015130   -7.043180
  C     -9.282950   -2.898130   -6.665390
  S    -11.244940   -4.186580   -8.159640
  C    -12.848330   -3.534520   -7.947020
  C    -12.911210   -2.492270   -7.084170
  Br   -14.286010   -4.288910   -8.884570
  C     -9.383290   -0.062290   -4.349720
  O     -9.973780    0.799560   -3.723220
  C     -7.936100   -0.322710   -4.365860
  C     -6.973860    0.494250   -3.835630
  C     -7.124020    1.653630   -3.053020
  S     -8.592230    2.294710   -2.372530
  C     -7.736590    3.583300   -1.577390
  C     -6.362870    3.538400   -1.861370
  C     -6.026420    2.447890   -2.680980
  C     -4.711670    2.199420   -3.117880
  N     -3.644040    2.014860   -3.491660
  C     -5.393430    4.452530   -1.415810
  N     -4.578580    5.183890   -1.072110
  C     -8.478480    4.494760   -0.797060
  C     -7.953160    5.516890   -0.060280
  C     -8.682340    6.426620    0.726850
  S     -7.850660    7.259030    1.998660
  C     -9.302450    7.968800    2.638580
  C    -10.408010    7.643510    1.808020
  C    -10.047400    6.791640    0.718640
  C    -10.991260    6.486150   -0.276310
  C    -12.271540    6.949170   -0.147580
  F    -13.179930    6.675650   -1.097760
  C    -12.644190    7.742480    0.951760
  F    -13.910910    8.177290    1.048400
  C    -11.728940    8.112870    1.900040
  C     -9.197340    8.722740    3.814340
  C    -10.239610    9.099780    4.626480
  C    -10.144580    9.904410    5.758890
  C    -11.267300   10.236780    6.495780
  C    -11.377510   11.030610    7.656400
  C    -12.654670   11.156850    8.132800
  C    -13.612810   10.465300    7.367400
  S    -12.853070    9.661470    6.021900
  C    -14.978040   10.298260    7.549160
  C    -15.847110   10.722220    8.572010
  C    -17.112500   10.219920    8.451110
  C    -17.295880    9.352070    7.346920
  S    -15.832740    9.288430    6.409760
  C    -18.456330    8.678020    7.003480
  C    -18.649080    7.743000    5.986610
  C    -17.767910    6.961960    5.258370
  C    -18.212590    6.452490    3.932340
  O    -19.334440    6.497320    3.478650
  C    -16.994040    5.922050    3.283210
  C    -16.826400    5.426490    2.023720
  C    -15.544360    4.981300    1.622200
  C    -14.454510    5.083910    2.533350
  C    -13.179330    4.646680    2.126400
  C    -13.020800    4.117130    0.876560
  C    -14.078670    3.998080   -0.031660
  C    -15.320190    4.433900    0.343330
  F    -11.792910    3.705180    0.485880
  C    -14.658340    5.605000    3.832910
  C    -15.912720    5.999480    4.205800
  C    -16.424500    6.518270    5.472570
  C    -15.763410    6.425850    6.680240
  C    -16.379590    6.673690    7.919380
  N    -16.850550    6.862620    8.949910
  C    -14.421490    6.030000    6.820510
  N    -13.316600    5.766230    6.995000
  H    -12.052560   -0.495330   -5.237180
  H     -8.542710   -3.565250   -7.074180
  H    -13.818490   -1.971960   -6.837140
  H     -5.938590    0.251640   -4.051500
  H     -9.538320    4.292620   -0.755450
  H     -6.877470    5.617270   -0.003880
  H    -10.721250    5.926920   -1.154960
  H    -12.047570    8.788650    2.673540
  H     -8.191740    8.988700    4.115970
  H    -11.227050    8.724330    4.404920
  H     -9.186250   10.296410    6.069320
  H    -10.514630   11.481670    8.113940
  H    -12.923660   11.718460    9.009370
  H    -15.520120   11.360650    9.372840
  H    -17.908680   10.409160    9.148490
  H    -19.338920    8.968860    7.559460
  H    -19.677710    7.632350    5.651940
  H    -17.659290    5.367680    1.339380
  H    -12.338920    4.723280    2.799290
  H    -13.892130    3.578640   -1.007210
  H    -16.149530    4.363090   -0.343680
  H    -13.813880    5.675990    4.499870

 Total Charge           Charge          ....    0
 Multiplicity           Mult            ....    1
 Number of Electrons    NEL             ....  582
 Basis Dimension        Dim             .... 1226

ORBITAL ENERGIES
----------------

  NO   OCC          E(Eh)            E(eV)
   0   2.0000    -482.891784    -13140.1535
   1   2.0000     -88.992922     -2421.6205
   2   2.0000     -88.991210     -2421.5739
   3   2.0000     -88.983242     -2421.3571
   4   2.0000     -88.968945     -2420.9681
   5   2.0000     -88.967313     -2420.9237
   6   2.0000     -62.569475     -1702.6020
   7   2.0000     -56.403438     -1534.8156
   8   2.0000     -56.400700     -1534.7411
   9   2.0000     -56.400674     -1534.7404
  10   2.0000     -24.804676      -674.9696
  11   2.0000     -24.802489      -674.9100
  12   2.0000     -24.793683      -674.6704
  13   2.0000     -19.237102      -523.4682
  14   2.0000     -19.201778      -522.5070
  15   2.0000     -14.423385      -392.4803
  16   2.0000     -14.422703      -392.4617
  17   2.0000     -14.422597      -392.4588
  18   2.0000     -14.420970      -392.4145
  19   2.0000     -14.404491      -391.9661
  20   2.0000     -14.402648      -391.9160
  21   2.0000     -10.385318      -282.5989
  22   2.0000     -10.384745      -282.5833
  23   2.0000     -10.384675      -282.5814
  24   2.0000     -10.367412      -282.1116
  25   2.0000     -10.366252      -282.0801
  26   2.0000     -10.352556      -281.7074
  27   2.0000     -10.352411      -281.7034
  28   2.0000     -10.350280      -281.6454
  29   2.0000     -10.348542      -281.5981
  30   2.0000     -10.345348      -281.5112
  31   2.0000     -10.345108      -281.5047
  32   2.0000     -10.341292      -281.4009
  33   2.0000     -10.337763      -281.3048
  34   2.0000     -10.337288      -281.2919
  35   2.0000     -10.336461      -281.2694
  36   2.0000     -10.334496      -281.2159
  37   2.0000     -10.332903      -281.1726
  38   2.0000     -10.330151      -281.0977
  39   2.0000     -10.328721      -281.0588
  40   2.0000     -10.327883      -281.0360
  41   2.0000     -10.324765      -280.9511
  42   2.0000     -10.324738      -280.9504
  43   2.0000     -10.322735      -280.8959
  44   2.0000     -10.322073      -280.8779
  45   2.0000     -10.321352      -280.8583
  46   2.0000     -10.319858      -280.8176
  47   2.0000     -10.318092      -280.7695
  48   2.0000     -10.317851      -280.7630
  49   2.0000     -10.317806      -280.7618
  50   2.0000     -10.316985      -280.7394
  51   2.0000     -10.316365      -280.7226
  52   2.0000     -10.315181      -280.6904
  53   2.0000     -10.314510      -280.6721
  54   2.0000     -10.314222      -280.6643
  55   2.0000     -10.313029      -280.6318
  56   2.0000     -10.311978      -280.6032
  57   2.0000     -10.311680      -280.5951
  58   2.0000     -10.309889      -280.5463
  59   2.0000     -10.308924      -280.5201
  60   2.0000     -10.308172      -280.4996
  61   2.0000     -10.306969      -280.4669
  62   2.0000     -10.306758      -280.4611
  63   2.0000     -10.304585      -280.4020
  64   2.0000     -10.304005      -280.3862
  65   2.0000     -10.303762      -280.3796
  66   2.0000     -10.303328      -280.3678
  67   2.0000     -10.302567      -280.3471
  68   2.0000     -10.299444      -280.2621
  69   2.0000     -10.298126      -280.2262
  70   2.0000     -10.295275      -280.1487
  71   2.0000     -10.294489      -280.1273
  72   2.0000     -10.293812      -280.1089
  73   2.0000     -10.292648      -280.0772
  74   2.0000     -10.290985      -280.0319
  75   2.0000     -10.290339      -280.0144
  76   2.0000     -10.287637      -279.9408
  77   2.0000     -10.287216      -279.9294
  78   2.0000     -10.287199      -279.9289
  79   2.0000     -10.282236      -279.7939
  80   2.0000     -10.279725      -279.7255
  81   2.0000      -8.798892      -239.4300
  82   2.0000      -8.086542      -220.0460
  83   2.0000      -8.086093      -220.0338
  84   2.0000      -8.079255      -219.8477
  85   2.0000      -8.065175      -219.4646
  86   2.0000      -8.062543      -219.3929
  87   2.0000      -6.635248      -180.5543
  88   2.0000      -6.620619      -180.1562
  89   2.0000      -6.620363      -180.1492
  90   2.0000      -6.055436      -164.7768
  91   2.0000      -6.055394      -164.7756
  92   2.0000      -6.051438      -164.6680
  93   2.0000      -6.050925      -164.6540
  94   2.0000      -6.049365      -164.6116
  95   2.0000      -6.048941      -164.6001
  96   2.0000      -6.048405      -164.5855
  97   2.0000      -6.044647      -164.4832
  98   2.0000      -6.040482      -164.3699
  99   2.0000      -6.034811      -164.2156
 100   2.0000      -6.032001      -164.1391
 101   2.0000      -6.030770      -164.1056
 102   2.0000      -6.027749      -164.0234
 103   2.0000      -6.026258      -163.9828
 104   2.0000      -6.024276      -163.9289
 105   2.0000      -2.751099       -74.8612
 106   2.0000      -2.746979       -74.7491
 107   2.0000      -2.746873       -74.7462
 108   2.0000      -2.735203       -74.4287
 109   2.0000      -2.735191       -74.4283
 110   2.0000      -1.324724       -36.0476
 111   2.0000      -1.309778       -35.6409
 112   2.0000      -1.304875       -35.5075
 113   2.0000      -1.152237       -31.3540
 114   2.0000      -1.116414       -30.3792
 115   2.0000      -1.037655       -28.2360
 116   2.0000      -1.031799       -28.0767
 117   2.0000      -1.025610       -27.9083
 118   2.0000      -1.020431       -27.7673
 119   2.0000      -1.019972       -27.7549
 120   2.0000      -1.007504       -27.4156
 121   2.0000      -1.004015       -27.3206
 122   2.0000      -1.000524       -27.2256
 123   2.0000      -0.999688       -27.2029
 124   2.0000      -0.998309       -27.1654
 125   2.0000      -0.994216       -27.0540
 126   2.0000      -0.990914       -26.9641
 127   2.0000      -0.981869       -26.7180
 128   2.0000      -0.967444       -26.3255
 129   2.0000      -0.964431       -26.2435
 130   2.0000      -0.953992       -25.9594
 131   2.0000      -0.945614       -25.7315
 132   2.0000      -0.932525       -25.3753
 133   2.0000      -0.921639       -25.0791
 134   2.0000      -0.917237       -24.9593
 135   2.0000      -0.915887       -24.9226
 136   2.0000      -0.905665       -24.6444
 137   2.0000      -0.899018       -24.4635
 138   2.0000      -0.894682       -24.3455
 139   2.0000      -0.890894       -24.2425
 140   2.0000      -0.885636       -24.0994
 141   2.0000      -0.879101       -23.9215
 142   2.0000      -0.874119       -23.7860
 143   2.0000      -0.872409       -23.7394
 144   2.0000      -0.866609       -23.5816
 145   2.0000      -0.856663       -23.3110
 146   2.0000      -0.847646       -23.0656
 147   2.0000      -0.843090       -22.9416
 148   2.0000      -0.838171       -22.8078
 149   2.0000      -0.836202       -22.7542
 150   2.0000      -0.828092       -22.5335
 151   2.0000      -0.820704       -22.3325
 152   2.0000      -0.803542       -21.8655
 153   2.0000      -0.787361       -21.4252
 154   2.0000      -0.781401       -21.2630
 155   2.0000      -0.770408       -20.9639
 156   2.0000      -0.760210       -20.6864
 157   2.0000      -0.754805       -20.5393
 158   2.0000      -0.750765       -20.4293
 159   2.0000      -0.745225       -20.2786
 160   2.0000      -0.733467       -19.9587
 161   2.0000      -0.725417       -19.7396
 162   2.0000      -0.718621       -19.5547
 163   2.0000      -0.711928       -19.3726
 164   2.0000      -0.704670       -19.1751
 165   2.0000      -0.702623       -19.1194
 166   2.0000      -0.700499       -19.0615
 167   2.0000      -0.695665       -18.9300
 168   2.0000      -0.688420       -18.7329
 169   2.0000      -0.682592       -18.5743
 170   2.0000      -0.680552       -18.5188
 171   2.0000      -0.669070       -18.2063
 172   2.0000      -0.668249       -18.1840
 173   2.0000      -0.662275       -18.0214
 174   2.0000      -0.657485       -17.8911
 175   2.0000      -0.651558       -17.7298
 176   2.0000      -0.647515       -17.6198
 177   2.0000      -0.640565       -17.4307
 178   2.0000      -0.637038       -17.3347
 179   2.0000      -0.633476       -17.2378
 180   2.0000      -0.627437       -17.0734
 181   2.0000      -0.627222       -17.0676
 182   2.0000      -0.626085       -17.0366
 183   2.0000      -0.623411       -16.9639
 184   2.0000      -0.615100       -16.7377
 185   2.0000      -0.614970       -16.7342
 186   2.0000      -0.602415       -16.3925
 187   2.0000      -0.601206       -16.3597
 188   2.0000      -0.594958       -16.1896
 189   2.0000      -0.588800       -16.0221
 190   2.0000      -0.586206       -15.9515
 191   2.0000      -0.583309       -15.8726
 192   2.0000      -0.580636       -15.7999
 193   2.0000      -0.571467       -15.5504
 194   2.0000      -0.569213       -15.4891
 195   2.0000      -0.563675       -15.3384
 196   2.0000      -0.562582       -15.3086
 197   2.0000      -0.560645       -15.2559
 198   2.0000      -0.560031       -15.2392
 199   2.0000      -0.556371       -15.1396
 200   2.0000      -0.554851       -15.0983
 201   2.0000      -0.552125       -15.0241
 202   2.0000      -0.550487       -14.9795
 203   2.0000      -0.549460       -14.9516
 204   2.0000      -0.546313       -14.8659
 205   2.0000      -0.542016       -14.7490
 206   2.0000      -0.538129       -14.6432
 207   2.0000      -0.536502       -14.5990
 208   2.0000      -0.531380       -14.4596
 209   2.0000      -0.530916       -14.4469
 210   2.0000      -0.526924       -14.3383
 211   2.0000      -0.525093       -14.2885
 212   2.0000      -0.523038       -14.2326
 213   2.0000      -0.521084       -14.1794
 214   2.0000      -0.518657       -14.1134
 215   2.0000      -0.517978       -14.0949
 216   2.0000      -0.516999       -14.0682
 217   2.0000      -0.515912       -14.0387
 218   2.0000      -0.511631       -13.9222
 219   2.0000      -0.510726       -13.8976
 220   2.0000      -0.505890       -13.7660
 221   2.0000      -0.505226       -13.7479
 222   2.0000      -0.501292       -13.6408
 223   2.0000      -0.500376       -13.6159
 224   2.0000      -0.498826       -13.5737
 225   2.0000      -0.498016       -13.5517
 226   2.0000      -0.492174       -13.3927
 227   2.0000      -0.489318       -13.3150
 228   2.0000      -0.485489       -13.2108
 229   2.0000      -0.483248       -13.1498
 230   2.0000      -0.481658       -13.1066
 231   2.0000      -0.476315       -12.9612
 232   2.0000      -0.472804       -12.8656
 233   2.0000      -0.471728       -12.8364
 234   2.0000      -0.470776       -12.8105
 235   2.0000      -0.468456       -12.7473
 236   2.0000      -0.464173       -12.6308
 237   2.0000      -0.459178       -12.4949
 238   2.0000      -0.456650       -12.4261
 239   2.0000      -0.455743       -12.4014
 240   2.0000      -0.454831       -12.3766
 241   2.0000      -0.453586       -12.3427
 242   2.0000      -0.452506       -12.3133
 243   2.0000      -0.450984       -12.2719
 244   2.0000      -0.449748       -12.2383
 245   2.0000      -0.449401       -12.2288
 246   2.0000      -0.448276       -12.1982
 247   2.0000      -0.445896       -12.1334
 248   2.0000      -0.445868       -12.1327
 249   2.0000      -0.444028       -12.0826
 250   2.0000      -0.442712       -12.0468
 251   2.0000      -0.442201       -12.0329
 252   2.0000      -0.440484       -11.9862
 253   2.0000      -0.435812       -11.8590
 254   2.0000      -0.434274       -11.8172
 255   2.0000      -0.432490       -11.7687
 256   2.0000      -0.432130       -11.7589
 257   2.0000      -0.428988       -11.6734
 258   2.0000      -0.427297       -11.6273
 259   2.0000      -0.425215       -11.5707
 260   2.0000      -0.424366       -11.5476
 261   2.0000      -0.421459       -11.4685
 262   2.0000      -0.417390       -11.3578
 263   2.0000      -0.416379       -11.3302
 264   2.0000      -0.414259       -11.2726
 265   2.0000      -0.412154       -11.2153
 266   2.0000      -0.408595       -11.1184
 267   2.0000      -0.404786       -11.0148
 268   2.0000      -0.398476       -10.8431
 269   2.0000      -0.395117       -10.7517
 270   2.0000      -0.389457       -10.5977
 271   2.0000      -0.381040       -10.3686
 272   2.0000      -0.376335       -10.2406
 273   2.0000      -0.375230       -10.2105
 274   2.0000      -0.366530        -9.9738
 275   2.0000      -0.358135        -9.7454
 276   2.0000      -0.355611        -9.6767
 277   2.0000      -0.350179        -9.5288
 278   2.0000      -0.348242        -9.4761
 279   2.0000      -0.343783        -9.3548
 280   2.0000      -0.336170        -9.1477
 281   2.0000      -0.333247        -9.0681
 282   2.0000      -0.325368        -8.8537
 283   2.0000      -0.324599        -8.8328
 284   2.0000      -0.315758        -8.5922
 285   2.0000      -0.303496        -8.2585
 286   2.0000      -0.300969        -8.1898
 287   2.0000      -0.298128        -8.1125
 288   2.0000      -0.286223        -7.7885
 289   2.0000      -0.265228        -7.2172
 290   2.0000      -0.227514        -6.1910
 291   0.0000      -0.128282        -3.4907
 292   0.0000      -0.105481        -2.8703
 293   0.0000      -0.080721        -2.1965
 294   0.0000      -0.072333        -1.9683
 295   0.0000      -0.057396        -1.5618

MULLIKEN ATOMIC CHARGES
-----------------------
   0 C :    0.300571
   1 C :   -0.329032
   2 C :   -0.182194
   3 N :    0.154298
   4 C :   -0.207151
   5 N :    0.179220
   6 C :    0.016341
   7 C :   -0.012102
   8 C :   -0.066180
   9 C :    0.115901
  10 C :   -0.090169
  11 C :   -0.017859
  12 S :    0.193115
  13 C :   -0.123065
  14 C :    0.039494
  15 Br:    0.030051
  16 C :    0.165957
  17 O :   -0.180627
  18 C :   -0.083589
  19 C :   -0.067106
  20 C :   -0.068356
  21 S :    0.231030
  22 C :   -0.078099
  23 C :   -0.030847
  24 C :   -0.005178
  25 C :   -0.246026
  26 N :    0.232770
  27 C :   -0.239766
  28 N :    0.194953
  29 C :    0.011131
  30 C :    0.051389
  31 C :   -0.133003
  32 S :    0.200563
  33 C :   -0.124488
  34 C :    0.141902
  35 C :    0.119852
  36 C :   -0.101832
  37 C :    0.215655
  38 F :   -0.174923
  39 C :    0.253823
  40 F :   -0.170623
  41 C :   -0.137539
  42 C :    0.056914
  43 C :   -0.031047
  44 C :    0.029564
  45 C :   -0.030026
  46 C :    0.054374
  47 C :    0.025517
  48 C :   -0.005564
  49 S :    0.072558
  50 C :   -0.054958
  51 C :    0.040204
  52 C :    0.065798
  53 C :   -0.050231
  54 S :    0.109981
  55 C :    0.010971
  56 C :    0.022934
  57 C :   -0.146924
  58 C :    0.136632
  59 O :   -0.150851
  60 C :    0.022604
  61 C :   -0.088183
  62 C :    0.105755
  63 C :    0.111719
  64 C :   -0.121893
  65 C :    0.306984
  66 C :   -0.019994
  67 C :   -0.015687
  68 F :   -0.199266
  69 C :   -0.115927
  70 C :    0.051982
  71 C :    0.276647
  72 C :   -0.350042
  73 C :   -0.205955
  74 N :    0.158603
  75 C :   -0.173994
  76 N :    0.135495
  77 H :   -0.009400
  78 H :   -0.003638
  79 H :   -0.002197
  80 H :    0.043418
  81 H :   -0.008087
  82 H :    0.008813
  83 H :   -0.007723
  84 H :   -0.010379
  85 H :   -0.004534
  86 H :    0.025983
  87 H :   -0.003444
  88 H :   -0.000268
  89 H :   -0.001756
  90 H :   -0.008070
  91 H :   -0.003024
  92 H :    0.000319
  93 H :    0.025254
  94 H :   -0.015415
  95 H :   -0.005806
  96 H :   -0.004793
  97 H :   -0.011404
  98 H :   -0.016802
Sum of atomic charges:   -0.0000000

LOEWDIN ATOMIC CHARGES
----------------------
   0 C :    0.070831
   1 C :   -0.128693
   2 C :   -0.017419
   3 N :   -0.045544
   4 C :   -0.029963
   5 N :   -0.029836
   6 C :   -0.018360
   7 C :   -0.052945
   8 C :    0.024541
   9 C :   -0.032231
  10 C :   -0.141596
  11 C :   -0.008072
  12 S :    0.438607
  13 C :   -0.269768
  14 C :   -0.070175
  15 Br:    0.141862
  16 C :    0.087400
  17 O :   -0.165851
  18 C :   -0.090359
  19 C :    0.051689
  20 C :   -0.166681
  21 S :    0.546762
  22 C :   -0.125855
  23 C :   -0.098173
  24 C :   -0.045543
  25 C :   -0.037353
  26 N :   -0.009674
  27 C :   -0.030694
  28 N :   -0.040181
  29 C :   -0.062418
  30 C :   -0.006583
  31 C :   -0.173842
  32 S :    0.508846
  33 C :   -0.165018
  34 C :   -0.038675
  35 C :   -0.034208
  36 C :   -0.031486
  37 C :    0.063530
  38 F :   -0.047340
  39 C :    0.071440
  40 F :   -0.048239
  41 C :   -0.040838
  42 C :   -0.026080
  43 C :   -0.036349
  44 C :   -0.020952
  45 C :   -0.147661
  46 C :   -0.010191
  47 C :   -0.033145
  48 C :   -0.142984
  49 S :    0.400228
  50 C :   -0.190837
  51 C :   -0.020607
  52 C :   -0.025903
  53 C :   -0.117286
  54 S :    0.467337
  55 C :   -0.065592
  56 C :    0.035806
  57 C :   -0.111513
  58 C :    0.082161
  59 O :   -0.150351
  60 C :   -0.054932
  61 C :    0.031048
  62 C :   -0.020279
  63 C :    0.000413
  64 C :   -0.047372
  65 C :    0.083373
  66 C :   -0.043639
  67 C :    0.006557
  68 F :   -0.073007
  69 C :   -0.004556
  70 C :   -0.008561
  71 C :    0.033896
  72 C :   -0.164585
  73 C :   -0.023698
  74 N :   -0.059457
  75 C :   -0.020888
  76 N :   -0.072274
  77 H :    0.041421
  78 H :    0.042173
  79 H :    0.039354
  80 H :    0.057275
  81 H :    0.029567
  82 H :    0.040440
  83 H :    0.041691
  84 H :    0.039877
  85 H :    0.034346
  86 H :    0.020496
  87 H :    0.038196
  88 H :    0.039017
  89 H :    0.037324
  90 H :    0.035542
  91 H :    0.038373
  92 H :    0.041163
  93 H :    0.046040
  94 H :    0.038103
  95 H :    0.040357
  96 H :    0.038921
  97 H :    0.035121
  98 H :    0.035186

  Mayer bond orders larger than 0.100000
B(  0-C ,  1-C ) :   1.6543 B(  0-C ,  6-C ) :   1.0049 B(  0-C , 18-C ) :   1.0529
B(  1-C ,  2-C ) :   1.1391 B(  1-C ,  4-C ) :   1.1395 B(  2-C ,  3-N ) :   2.9718
B(  4-C ,  5-N ) :   2.9920 B(  6-C ,  7-C ) :   1.2715 B(  6-C , 11-C ) :   1.4143
B(  7-C ,  8-C ) :   1.4180 B(  7-C , 16-C ) :   0.9630 B(  8-C ,  9-C ) :   1.2505
B(  8-C , 77-H ) :   1.0162 B(  9-C , 10-C ) :   1.3010 B(  9-C , 14-C ) :   1.1634
B( 10-C , 11-C ) :   1.3294 B( 10-C , 12-S ) :   1.0901 B( 11-C , 78-H ) :   0.9802
B( 12-S , 13-C ) :   1.0871 B( 13-C , 14-C ) :   1.6171 B( 13-C , 15-Br) :   1.0224
B( 14-C , 79-H ) :   1.0005 B( 16-C , 17-O ) :   2.1269 B( 16-C , 18-C ) :   0.9718
B( 18-C , 19-C ) :   1.5586 B( 19-C , 20-C ) :   1.2551 B( 19-C , 80-H ) :   0.9359
B( 20-C , 21-S ) :   1.0995 B( 20-C , 24-C ) :   1.3841 B( 21-S , 22-C ) :   1.1303
B( 22-C , 23-C ) :   1.3617 B( 22-C , 29-C ) :   1.2122 B( 23-C , 24-C ) :   1.4096
B( 23-C , 27-C ) :   1.1512 B( 24-C , 25-C ) :   1.1439 B( 25-C , 26-N ) :   2.9940
B( 27-C , 28-N ) :   2.9458 B( 29-C , 30-C ) :   1.6067 B( 29-C , 81-H ) :   0.9325
B( 30-C , 31-C ) :   1.2124 B( 30-C , 82-H ) :   0.9316 B( 31-C , 32-S ) :   1.1600
B( 31-C , 35-C ) :   1.2816 B( 32-S , 33-C ) :   1.1581 B( 33-C , 34-C ) :   1.2673
B( 33-C , 42-C ) :   1.2118 B( 34-C , 35-C ) :   1.2497 B( 34-C , 41-C ) :   1.1717
B( 35-C , 36-C ) :   1.1871 B( 36-C , 37-C ) :   1.4747 B( 36-C , 41-C ) :   0.1074
B( 36-C , 83-H ) :   0.9982 B( 37-C , 38-F ) :   1.1082 B( 37-C , 39-C ) :   1.1884
B( 39-C , 40-F ) :   1.1331 B( 39-C , 41-C ) :   1.4839 B( 41-C , 84-H ) :   0.9934
B( 42-C , 43-C ) :   1.5542 B( 42-C , 85-H ) :   0.9582 B( 43-C , 44-C ) :   1.2176
B( 43-C , 86-H ) :   0.9607 B( 44-C , 45-C ) :   1.5006 B( 44-C , 87-H ) :   0.9884
B( 45-C , 46-C ) :   1.1747 B( 45-C , 49-S ) :   1.0421 B( 46-C , 47-C ) :   1.5497
B( 46-C , 88-H ) :   0.9997 B( 47-C , 48-C ) :   1.2173 B( 47-C , 89-H ) :   0.9968
B( 48-C , 49-S ) :   1.0900 B( 48-C , 50-C ) :   1.4367 B( 50-C , 51-C ) :   1.2214
B( 50-C , 54-S ) :   1.0493 B( 51-C , 52-C ) :   1.5529 B( 51-C , 90-H ) :   0.9930
B( 52-C , 53-C ) :   1.1818 B( 52-C , 91-H ) :   0.9955 B( 53-C , 54-S ) :   1.1223
B( 53-C , 55-C ) :   1.4263 B( 55-C , 56-C ) :   1.3423 B( 55-C , 92-H ) :   0.9556
B( 56-C , 57-C ) :   1.4556 B( 56-C , 93-H ) :   0.9301 B( 57-C , 58-C ) :   0.9593
B( 57-C , 71-C ) :   1.1402 B( 58-C , 59-O ) :   2.2572 B( 58-C , 60-C ) :   0.9104
B( 60-C , 61-C ) :   1.4823 B( 60-C , 70-C ) :   1.2187 B( 61-C , 62-C ) :   1.1768
B( 61-C , 94-H ) :   1.0153 B( 62-C , 63-C ) :   1.2665 B( 62-C , 67-C ) :   1.2418
B( 63-C , 64-C ) :   1.1968 B( 63-C , 69-C ) :   1.1864 B( 64-C , 65-C ) :   1.4391
B( 64-C , 95-H ) :   1.0092 B( 65-C , 66-C ) :   1.2701 B( 65-C , 68-F ) :   1.0286
B( 66-C , 67-C ) :   1.4481 B( 66-C , 96-H ) :   0.9934 B( 67-C , 97-H ) :   0.9962
B( 69-C , 70-C ) :   1.4713 B( 69-C , 98-H ) :   0.9969 B( 70-C , 71-C ) :   0.9930
B( 71-C , 72-C ) :   1.5470 B( 72-C , 73-C ) :   1.1755 B( 72-C , 75-C ) :   1.1470
B( 73-C , 74-N ) :   2.9941 B( 75-C , 76-N ) :   2.9617

-----------------------------------------------------------------------------
         ABSORPTION SPECTRUM VIA TRANSITION ELECTRIC DIPOLE MOMENTS
-----------------------------------------------------------------------------
State   Energy  Wavelength   fosc         T2         TX        TY        TZ
        (cm-1)    (nm)                  (au**2)     (au)      (au)      (au)
-----------------------------------------------------------------------------
   0    8369.1   1194.9   0.704055779  27.69504  -3.81022   1.47604   3.31640
   1   14725.9    679.1   0.507716428  11.35049  -0.25313  -2.86366  -1.75666
   2   16384.3    610.3   0.988372506  19.85954  -0.25502  -3.59050  -2.62732
   3   19181.5    521.3   0.207688123   3.56455   0.55287  -1.20742  -1.34202
   4   19638.0    509.2   0.159217004   2.66912  -0.42760   1.22434   0.99361
   5   21945.7    455.7   0.059431026   0.89154   0.73205   0.30692   0.51131
   6   22925.6    436.2   0.058104118   0.83437  -0.54027  -0.65770  -0.33154
   7   23086.4    433.2   0.019844183   0.28298   0.11839  -0.22010   0.46959
   8   23636.1    423.1   0.015734564   0.21916   0.06840   0.35230   0.30060
   9   24059.1    415.6   0.016236643   0.22217  -0.46666  -0.06029  -0.02774
  10   25218.8    396.5   0.069536200   0.90774  -0.82302   0.10501  -0.46836
  11   25984.1    384.9   0.134054209   1.69843   1.27096   0.17945  -0.22559
  12   26578.5    376.2   0.116340716   1.44104   0.09572   0.83793   0.85426
  13   26865.5    372.2   0.020940577   0.25661  -0.47068  -0.17710   0.06084
  14   27160.4    368.2   0.018751179   0.22728  -0.14571  -0.21732  -0.39853
  15   27529.7    363.2   0.101542469   1.21429  -0.27086   0.82056   0.68381
  16   27670.9    361.4   0.043545474   0.51808   0.37452  -0.49903  -0.35887
  17   28134.2    355.4   0.078722974   0.92117   0.56068  -0.62272  -0.46801
  18   28705.7    348.4   0.008511089   0.09761   0.12418   0.24587  -0.14744
  19   28787.7    347.4   0.006453976   0.07381   0.08751  -0.20983  -0.14873
  20   29184.1    342.7   0.093000431   1.04909  -0.83331   0.51563   0.29800
  21   29687.4    336.8   0.111788123   1.23965  -0.95874  -0.41794  -0.38183
  22   30121.8    332.0   0.011353271   0.12408  -0.11127  -0.22028  -0.25136
  23   30381.5    329.1   0.008280567   0.08973  -0.04353  -0.20461  -0.21440
  24   30548.9    327.3   0.179247129   1.93167  -1.06355  -0.68696  -0.57326
  25   30963.6    323.0   0.212947978   2.26411  -1.40360   0.05158  -0.53979
  26   31625.7    316.2   0.173217467   1.80313   0.27284  -0.39896  -1.25280
  27   31705.7    315.4   0.386738927   4.01566  -1.89436  -0.07190  -0.64953
  28   31971.4    312.8   0.130942111   1.34832  -0.20442   0.62606   0.95634
  29   32302.7    309.6   0.067905925   0.69206  -0.05176  -0.00858  -0.83025
  30   32444.9    308.2   0.123112774   1.24920  -0.69096   0.46826   0.74331
  31   32944.7    303.5   0.149274079   1.49168   1.09064   0.23584   0.49655
  32   32977.1    303.2   0.058726941   0.58627   0.46710   0.22260   0.56440
  33   33146.3    301.7   0.257252673   2.55505  -1.56941  -0.03884   0.30085
  34   33455.6    298.9   0.088491962   0.87078   0.71546   0.22219   0.55636
  35   33829.9    295.6   0.052011000   0.50614   0.68459  -0.07397  -0.17889
  36   34153.4    292.8   0.039100616   0.37690   0.53922   0.16383   0.24351
  37   34271.9    291.8   0.385223097   3.70040  -1.32566   0.67304   1.22067
  38   34432.0    290.4   0.086362156   0.82573   0.81653   0.11824   0.38083
  39   34746.2    287.8   0.024699828   0.23402   0.42398   0.01254  -0.23261
  40   35093.4    285.0   0.004771994   0.04477   0.05072   0.15555  -0.13416
  41   35398.6    282.5   0.008662139   0.08056   0.15795  -0.18968  -0.14012
  42   35644.1    280.6   0.004157734   0.03840  -0.05331  -0.18832   0.00971
  43   35828.5    279.1   0.171816301   1.57874   0.62930   0.22882   1.06319
  44   36013.6    277.7   0.021014492   0.19210   0.26877  -0.25386  -0.23541
  45   36112.0    276.9   0.162677138   1.48303  -0.80522  -0.62461  -0.66673
  46   36350.7    275.1   0.041681701   0.37749   0.47549   0.30385   0.24306
  47   36532.6    273.7   0.075308619   0.67864  -0.77002   0.28037   0.08432
  48   36666.5    272.7   0.025156182   0.22587  -0.16393  -0.01516  -0.44583
  49   36968.1    270.5   0.253220210   2.25500  -0.84960  -0.34968  -1.18782
  50   37201.0    268.8   0.071148881   0.62964   0.11870  -0.50064  -0.60408
  51   37560.1    266.2   0.101055006   0.88574   0.83686  -0.42523  -0.06773
  52   37607.0    265.9   0.020346073   0.17811  -0.06372   0.25484   0.33031
  53   37773.9    264.7   0.060215814   0.52480   0.13030  -0.45863  -0.54542
  54   38266.7    261.3   0.097179804   0.83605  -0.76121   0.39283   0.31983
  55   38655.8    258.7   0.077408118   0.65925   0.12463  -0.72202  -0.34986
  56   38812.7    257.6   0.020623610   0.17493  -0.34710   0.00582   0.23328
  57   38848.2    257.4   0.013730730   0.11636  -0.31442  -0.13216   0.00591
  58   39425.2    253.6   0.033837239   0.28255  -0.13362   0.42844   0.28484
  59   39645.8    252.2   0.050087570   0.41592  -0.25330  -0.39675  -0.44085
  60   39826.0    251.1   0.114910953   0.94988  -0.61596  -0.46267  -0.59700
  61   40126.8    249.2   0.054334252   0.44577   0.35067  -0.54044  -0.17531
  62   40212.9    248.7   0.004498239   0.03683  -0.17540  -0.05739   0.05262

FINAL SINGLE POINT ENERGY     -7638.403522695374

DIPOLE MOMENT
-------------
                                X             Y             Z
Electronic contribution:    -11.34587    -109.49340    -126.00757
Nuclear contribution   :      8.95062     112.68072     126.36603
                        -----------------------------------------
Total Dipole Moment    :     -2.39525       3.18733       0.35847
                        -----------------------------------------
Magnitude (a.u.)       :      4.00309
Magnitude (Debye)      :     10.17506

Rotational constants in cm-1:     0.001116     0.000268     0.000225
Rotational constants in MHz :    33.468244     8.020825     6.735531

                             ****ORCA TERMINATED NORMALLY****
TOTAL RUN TIME: 0 days 0 hours 12 minutes 36 seconds 411 msec
