                         Program Version 4.2.0 -  RELEASE  -
|  1> # ORCA input file
|  2> # SCF done       -174.828598186548          0.000328317300
|  3> ! CAM-B3LYP def2-SVP def2/J RIJCOSX Grid4 TightSCF
|  4> %maxcore 5000
|  5> %tddft
|  6>     Mode sTDDFT
|  7>     Ethresh 5.0
|  8>     maxcore 5000
|  9> end
| 10>
| 11> %pal
| 12>   nprocs 6
| 13>   end
| 14> * xyz 0 1
| 15>    C       -1.41227         3.52426        -0.59840
| 16>    C       -0.49886         3.44869         0.42271
| 17>    C        0.86860         3.75190         0.27633
| 18>    N        1.98851         4.00132         0.21905
| 19>    C       -0.79318         3.06346         1.74581
| 20>    N       -0.94089         2.73922         2.83811
| 21>    C       -1.10884         3.86482        -1.98391
| 22>    C       -2.30275         3.77881        -2.73815
| 23>    C       -2.36595         4.07915        -4.07380
| 24>    C       -1.18851         4.50215        -4.69832
| 25>    C        0.00049         4.59231        -3.94060
| 26>    C        0.06530         4.27410        -2.58902
| 27>    S        1.32151         5.19563        -4.89885
| 28>    C        0.25996         5.33470        -6.27299
| 29>    C       -1.00920         4.93089        -6.04154
| 30>   Br        0.90840         6.03889        -7.88457
| 31>    C       -3.42259         3.41263        -1.84985
| 32>    O       -4.58772         3.32953        -2.18174
| 33>    C       -2.83883         3.28730        -0.50109
| 34>    C       -3.56304         3.27486         0.66200
| 35>    C       -4.96803         3.17198         0.76637
| 36>    S       -5.73373         4.33475         1.83939
| 37>    C       -7.29908         3.94703         1.19965
| 38>    C       -7.23556         2.86834         0.34071
| 39>    C       -5.92454         2.41269         0.10965
| 40>    C       -5.65063         1.18438        -0.69045
| 41>    C       -6.89872         0.31275        -0.77608
| 42>    C       -8.07732         1.15696        -1.28723
| 43>    N       -9.26776         0.39532        -1.62355
| 44>    C       -8.44649         2.19351        -0.22408
| 45>    C       -8.39445         4.85795         1.41928
| 46>    C       -8.92874         5.49462         0.35317
| 47>    C       -9.90551         6.51951         0.36297
| 48>    C      -10.02283         7.38868        -0.68638
| 49>    C      -10.95456         8.44695        -0.86901
| 50>    C      -10.76018         9.17662        -1.99860
| 51>    C       -9.63902         8.76651        -2.76449
| 52>    S       -8.88117         7.37179        -2.02678
| 53>    C       -9.10607         9.33745        -3.89604
| 54>    C       -9.60647        10.42204        -4.66522
| 55>    C       -8.83889        10.74580        -5.73240
| 56>    C       -7.65439         9.95458        -5.86695
| 57>    S       -7.59956         8.75414        -4.57579
| 58>    C       -6.68473        10.05985        -6.80113
| 59>    C       -5.48962         9.19298        -6.81201
| 60>    S       -5.92320         7.49935        -7.50912
| 61>    C       -4.58237         7.54717        -8.74041
| 62>    C       -3.53242         8.51265        -8.18658
| 63>    C       -4.33650         9.71113        -7.66164
| 64>    C       -2.60884         8.91527        -9.35494
| 65>    O       -2.73983         9.95507        -9.95532
| 66>    N       -1.71198         7.96856        -9.68791
| 67>    N       -2.79113         7.85537        -7.12812
| 68>    C       -1.63212         8.37804        -6.62734
| 69>    C       -1.19852         8.20982        -5.35538
| 70>    C        0.09539         8.52052        -4.84680
| 71>    C        0.27576         8.19433        -3.54627
| 72>    C       -0.86834         7.63299        -2.91318
| 73>    S       -2.19575         7.51578        -4.05727
| 74>    C       -0.98502         7.24504        -1.60602
| 75>    C        0.04595         7.21586        -0.62344
| 76>    C       -0.35948         6.82443         0.60255
| 77>    C       -1.76111         6.53115         0.70202
| 78>    S       -2.50934         6.72316        -0.89424
| 79>    C       -2.45040         6.18465         1.79651
| 80>    H       -3.29853         4.02128        -4.61225
| 81>    H        0.99328         4.37338        -2.05104
| 82>    H       -1.79602         4.95192        -6.77306
| 83>    H       -3.04734         3.53630         1.57869
| 84>    H       -4.80934         0.63586        -0.26028
| 85>    H       -5.36533         1.48853        -1.70215
| 86>    H       -7.14384        -0.09796         0.20763
| 87>    H       -6.71375        -0.52284        -1.45568
| 88>    H       -7.76188         1.67847        -2.19805
| 89>    H       -9.57479        -0.15033        -0.82429
| 90>    H       -9.07569        -0.24875        -2.38260
| 91>    H       -8.97684         1.68729         0.59071
| 92>    H       -9.13812         2.92197        -0.64650
| 93>    H       -8.65528         5.13250         2.43168
| 94>    H       -8.50976         5.26688        -0.62104
| 95>    H      -10.53795         6.65126         1.22932
| 96>    H      -11.74086         8.62499        -0.15641
| 97>    H      -11.37208        10.01015        -2.29487
| 98>    H      -10.52579        10.91664        -4.40576
| 99>    H       -9.05985        11.53163        -6.43267
|100>    H       -6.80133        10.77292        -7.60381
|101>    H       -5.17559         8.98023        -5.78523
|102>    H       -4.97882         7.91049        -9.68880
|103>    H       -4.19705         6.53762        -8.86840
|104>    H       -4.71029        10.27071        -8.52083
|105>    H       -3.69690        10.37249        -7.07497
|106>    H       -1.56207         7.15166        -9.12225
|107>    H       -1.06120         8.15820       -10.43262
|108>    H       -3.39170         7.43246        -6.42718
|109>    H       -0.99943         8.89365        -7.33636
|110>    H        0.84672         8.95996        -5.47933
|111>    H        1.19034         8.35323        -3.00420
|112>    H        1.05988         7.47844        -0.86756
|113>    H        0.27986         6.73838         1.46332
|114>    H       -1.95281         6.07243         2.74383
|115>    H       -3.51328         6.02849         1.77153
|116> *
|117>
|118>                          ****END OF INPUT****

CARTESIAN COORDINATES (ANGSTROEM)
---------------------------------
  C     -1.412270    3.524260   -0.598400
  C     -0.498860    3.448690    0.422710
  C      0.868600    3.751900    0.276330
  N      1.988510    4.001320    0.219050
  C     -0.793180    3.063460    1.745810
  N     -0.940890    2.739220    2.838110
  C     -1.108840    3.864820   -1.983910
  C     -2.302750    3.778810   -2.738150
  C     -2.365950    4.079150   -4.073800
  C     -1.188510    4.502150   -4.698320
  C      0.000490    4.592310   -3.940600
  C      0.065300    4.274100   -2.589020
  S      1.321510    5.195630   -4.898850
  C      0.259960    5.334700   -6.272990
  C     -1.009200    4.930890   -6.041540
  Br     0.908400    6.038890   -7.884570
  C     -3.422590    3.412630   -1.849850
  O     -4.587720    3.329530   -2.181740
  C     -2.838830    3.287300   -0.501090
  C     -3.563040    3.274860    0.662000
  C     -4.968030    3.171980    0.766370
  S     -5.733730    4.334750    1.839390
  C     -7.299080    3.947030    1.199650
  C     -7.235560    2.868340    0.340710
  C     -5.924540    2.412690    0.109650
  C     -5.650630    1.184380   -0.690450
  C     -6.898720    0.312750   -0.776080
  C     -8.077320    1.156960   -1.287230
  N     -9.267760    0.395320   -1.623550
  C     -8.446490    2.193510   -0.224080
  C     -8.394450    4.857950    1.419280
  C     -8.928740    5.494620    0.353170
  C     -9.905510    6.519510    0.362970
  C    -10.022830    7.388680   -0.686380
  C    -10.954560    8.446950   -0.869010
  C    -10.760180    9.176620   -1.998600
  C     -9.639020    8.766510   -2.764490
  S     -8.881170    7.371790   -2.026780
  C     -9.106070    9.337450   -3.896040
  C     -9.606470   10.422040   -4.665220
  C     -8.838890   10.745800   -5.732400
  C     -7.654390    9.954580   -5.866950
  S     -7.599560    8.754140   -4.575790
  C     -6.684730   10.059850   -6.801130
  C     -5.489620    9.192980   -6.812010
  S     -5.923200    7.499350   -7.509120
  C     -4.582370    7.547170   -8.740410
  C     -3.532420    8.512650   -8.186580
  C     -4.336500    9.711130   -7.661640
  C     -2.608840    8.915270   -9.354940
  O     -2.739830    9.955070   -9.955320
  N     -1.711980    7.968560   -9.687910
  N     -2.791130    7.855370   -7.128120
  C     -1.632120    8.378040   -6.627340
  C     -1.198520    8.209820   -5.355380
  C      0.095390    8.520520   -4.846800
  C      0.275760    8.194330   -3.546270
  C     -0.868340    7.632990   -2.913180
  S     -2.195750    7.515780   -4.057270
  C     -0.985020    7.245040   -1.606020
  C      0.045950    7.215860   -0.623440
  C     -0.359480    6.824430    0.602550
  C     -1.761110    6.531150    0.702020
  S     -2.509340    6.723160   -0.894240
  C     -2.450400    6.184650    1.796510
  H     -3.298530    4.021280   -4.612250
  H      0.993280    4.373380   -2.051040
  H     -1.796020    4.951920   -6.773060
  H     -3.047340    3.536300    1.578690
  H     -4.809340    0.635860   -0.260280
  H     -5.365330    1.488530   -1.702150
  H     -7.143840   -0.097960    0.207630
  H     -6.713750   -0.522840   -1.455680
  H     -7.761880    1.678470   -2.198050
  H     -9.574790   -0.150330   -0.824290
  H     -9.075690   -0.248750   -2.382600
  H     -8.976840    1.687290    0.590710
  H     -9.138120    2.921970   -0.646500
  H     -8.655280    5.132500    2.431680
  H     -8.509760    5.266880   -0.621040
  H    -10.537950    6.651260    1.229320
  H    -11.740860    8.624990   -0.156410
  H    -11.372080   10.010150   -2.294870
  H    -10.525790   10.916640   -4.405760
  H     -9.059850   11.531630   -6.432670
  H     -6.801330   10.772920   -7.603810
  H     -5.175590    8.980230   -5.785230
  H     -4.978820    7.910490   -9.688800
  H     -4.197050    6.537620   -8.868400
  H     -4.710290   10.270710   -8.520830
  H     -3.696900   10.372490   -7.074970
  H     -1.562070    7.151660   -9.122250
  H     -1.061200    8.158200  -10.432620
  H     -3.391700    7.432460   -6.427180
  H     -0.999430    8.893650   -7.336360
  H      0.846720    8.959960   -5.479330
  H      1.190340    8.353230   -3.004200
  H      1.059880    7.478440   -0.867560
  H      0.279860    6.738380    1.463320
  H     -1.952810    6.072430    2.743830
  H     -3.513280    6.028490    1.771530

 Total Charge           Charge          ....    0
 Multiplicity           Mult            ....    1
 Number of Electrons    NEL             ....  534
 Basis Dimension        Dim             .... 1136

ORBITAL ENERGIES
----------------

  NO   OCC          E(Eh)            E(eV)
   0   2.0000    -482.892766    -13140.1802
   1   2.0000     -88.969278     -2420.9771
   2   2.0000     -88.948569     -2420.4136
   3   2.0000     -88.941162     -2420.2121
   4   2.0000     -88.939221     -2420.1592
   5   2.0000     -88.939142     -2420.1571
   6   2.0000     -88.930524     -2419.9226
   7   2.0000     -88.914570     -2419.4885
   8   2.0000     -62.570036     -1702.6172
   9   2.0000     -56.403915     -1534.8286
  10   2.0000     -56.401406     -1534.7603
  11   2.0000     -56.401241     -1534.7558
  12   2.0000     -19.202519      -522.5271
  13   2.0000     -19.191311      -522.2221
  14   2.0000     -14.443813      -393.0361
  15   2.0000     -14.439652      -392.9229
  16   2.0000     -14.404091      -391.9552
  17   2.0000     -14.402061      -391.9000
  18   2.0000     -14.372677      -391.1004
  19   2.0000     -10.382275      -282.5161
  20   2.0000     -10.353924      -281.7446
  21   2.0000     -10.351557      -281.6802
  22   2.0000     -10.334311      -281.2109
  23   2.0000     -10.326931      -281.0101
  24   2.0000     -10.326026      -280.9854
  25   2.0000     -10.318490      -280.7804
  26   2.0000     -10.314909      -280.6829
  27   2.0000     -10.310189      -280.5545
  28   2.0000     -10.308047      -280.4962
  29   2.0000     -10.307965      -280.4940
  30   2.0000     -10.307749      -280.4881
  31   2.0000     -10.307057      -280.4693
  32   2.0000     -10.306644      -280.4580
  33   2.0000     -10.305772      -280.4343
  34   2.0000     -10.304310      -280.3945
  35   2.0000     -10.304135      -280.3898
  36   2.0000     -10.303830      -280.3815
  37   2.0000     -10.299159      -280.2544
  38   2.0000     -10.296788      -280.1899
  39   2.0000     -10.295823      -280.1636
  40   2.0000     -10.294764      -280.1348
  41   2.0000     -10.294243      -280.1206
  42   2.0000     -10.293719      -280.1063
  43   2.0000     -10.293095      -280.0894
  44   2.0000     -10.292781      -280.0808
  45   2.0000     -10.291526      -280.0466
  46   2.0000     -10.289808      -279.9999
  47   2.0000     -10.288561      -279.9660
  48   2.0000     -10.286542      -279.9110
  49   2.0000     -10.285788      -279.8905
  50   2.0000     -10.284462      -279.8544
  51   2.0000     -10.282605      -279.8039
  52   2.0000     -10.281497      -279.7737
  53   2.0000     -10.281163      -279.7647
  54   2.0000     -10.278960      -279.7047
  55   2.0000     -10.278836      -279.7014
  56   2.0000     -10.278755      -279.6991
  57   2.0000     -10.277903      -279.6760
  58   2.0000     -10.277867      -279.6750
  59   2.0000     -10.277753      -279.6719
  60   2.0000     -10.276700      -279.6432
  61   2.0000     -10.275209      -279.6027
  62   2.0000     -10.275002      -279.5970
  63   2.0000     -10.270645      -279.4785
  64   2.0000     -10.268691      -279.4253
  65   2.0000     -10.257481      -279.1202
  66   2.0000     -10.255324      -279.0616
  67   2.0000     -10.254234      -279.0319
  68   2.0000     -10.251606      -278.9604
  69   2.0000      -8.799316      -239.4416
  70   2.0000      -8.064644      -219.4501
  71   2.0000      -8.044094      -218.8909
  72   2.0000      -8.037422      -218.7094
  73   2.0000      -8.035712      -218.6628
  74   2.0000      -8.034180      -218.6212
  75   2.0000      -8.025925      -218.3965
  76   2.0000      -8.010362      -217.9730
  77   2.0000      -6.635153      -180.5517
  78   2.0000      -6.621291      -180.1745
  79   2.0000      -6.621121      -180.1699
  80   2.0000      -6.034397      -164.2043
  81   2.0000      -6.030149      -164.0887
  82   2.0000      -6.025843      -163.9715
  83   2.0000      -6.013497      -163.6356
  84   2.0000      -6.009276      -163.5207
  85   2.0000      -6.007178      -163.4636
  86   2.0000      -6.006061      -163.4332
  87   2.0000      -6.005467      -163.4171
  88   2.0000      -6.004149      -163.3812
  89   2.0000      -6.003219      -163.3559
  90   2.0000      -6.001491      -163.3089
  91   2.0000      -6.000215      -163.2742
  92   2.0000      -5.998195      -163.2192
  93   2.0000      -5.996438      -163.1714
  94   2.0000      -5.995797      -163.1539
  95   2.0000      -5.994829      -163.1276
  96   2.0000      -5.991952      -163.0493
  97   2.0000      -5.986550      -162.9023
  98   2.0000      -5.980903      -162.7487
  99   2.0000      -5.976979      -162.6419
 100   2.0000      -5.969522      -162.4390
 101   2.0000      -2.751173       -74.8632
 102   2.0000      -2.747226       -74.7558
 103   2.0000      -2.747075       -74.7517
 104   2.0000      -2.736073       -74.4523
 105   2.0000      -2.736048       -74.4516
 106   2.0000      -1.133047       -30.8318
 107   2.0000      -1.117530       -30.4095
 108   2.0000      -1.054246       -28.6875
 109   2.0000      -1.012912       -27.5627
 110   2.0000      -1.002755       -27.2864
 111   2.0000      -0.996769       -27.1235
 112   2.0000      -0.993265       -27.0281
 113   2.0000      -0.986957       -26.8565
 114   2.0000      -0.981913       -26.7192
 115   2.0000      -0.980604       -26.6836
 116   2.0000      -0.977479       -26.5985
 117   2.0000      -0.971633       -26.4395
 118   2.0000      -0.961678       -26.1686
 119   2.0000      -0.958252       -26.0754
 120   2.0000      -0.941863       -25.6294
 121   2.0000      -0.935653       -25.4604
 122   2.0000      -0.911326       -24.7984
 123   2.0000      -0.902199       -24.5501
 124   2.0000      -0.893780       -24.3210
 125   2.0000      -0.889421       -24.2024
 126   2.0000      -0.881374       -23.9834
 127   2.0000      -0.876103       -23.8400
 128   2.0000      -0.869947       -23.6725
 129   2.0000      -0.864613       -23.5273
 130   2.0000      -0.853412       -23.2225
 131   2.0000      -0.839631       -22.8475
 132   2.0000      -0.836048       -22.7500
 133   2.0000      -0.834775       -22.7154
 134   2.0000      -0.828145       -22.5350
 135   2.0000      -0.824474       -22.4351
 136   2.0000      -0.819625       -22.3031
 137   2.0000      -0.815938       -22.2028
 138   2.0000      -0.813331       -22.1319
 139   2.0000      -0.807998       -21.9868
 140   2.0000      -0.800142       -21.7730
 141   2.0000      -0.786981       -21.4149
 142   2.0000      -0.773308       -21.0428
 143   2.0000      -0.766891       -20.8682
 144   2.0000      -0.748555       -20.3692
 145   2.0000      -0.743627       -20.2351
 146   2.0000      -0.727222       -19.7887
 147   2.0000      -0.716204       -19.4889
 148   2.0000      -0.711640       -19.3647
 149   2.0000      -0.701666       -19.0933
 150   2.0000      -0.697409       -18.9775
 151   2.0000      -0.689216       -18.7545
 152   2.0000      -0.679019       -18.4770
 153   2.0000      -0.675337       -18.3769
 154   2.0000      -0.672251       -18.2929
 155   2.0000      -0.668530       -18.1916
 156   2.0000      -0.664765       -18.0892
 157   2.0000      -0.656440       -17.8626
 158   2.0000      -0.649702       -17.6793
 159   2.0000      -0.648895       -17.6573
 160   2.0000      -0.643358       -17.5067
 161   2.0000      -0.633347       -17.2343
 162   2.0000      -0.630348       -17.1527
 163   2.0000      -0.627221       -17.0675
 164   2.0000      -0.618329       -16.8256
 165   2.0000      -0.615321       -16.7437
 166   2.0000      -0.613774       -16.7016
 167   2.0000      -0.610954       -16.6249
 168   2.0000      -0.608220       -16.5505
 169   2.0000      -0.605419       -16.4743
 170   2.0000      -0.604143       -16.4396
 171   2.0000      -0.596130       -16.2215
 172   2.0000      -0.587193       -15.9783
 173   2.0000      -0.586396       -15.9567
 174   2.0000      -0.577722       -15.7206
 175   2.0000      -0.571815       -15.5599
 176   2.0000      -0.569941       -15.5089
 177   2.0000      -0.561147       -15.2696
 178   2.0000      -0.556061       -15.1312
 179   2.0000      -0.553691       -15.0667
 180   2.0000      -0.545120       -14.8335
 181   2.0000      -0.539712       -14.6863
 182   2.0000      -0.535948       -14.5839
 183   2.0000      -0.531556       -14.4644
 184   2.0000      -0.529556       -14.4100
 185   2.0000      -0.527973       -14.3669
 186   2.0000      -0.525693       -14.3048
 187   2.0000      -0.520186       -14.1550
 188   2.0000      -0.518120       -14.0988
 189   2.0000      -0.515705       -14.0330
 190   2.0000      -0.514602       -14.0030
 191   2.0000      -0.511225       -13.9111
 192   2.0000      -0.507377       -13.8064
 193   2.0000      -0.506269       -13.7763
 194   2.0000      -0.504693       -13.7334
 195   2.0000      -0.501781       -13.6541
 196   2.0000      -0.498583       -13.5671
 197   2.0000      -0.496211       -13.5026
 198   2.0000      -0.494598       -13.4587
 199   2.0000      -0.493466       -13.4279
 200   2.0000      -0.490924       -13.3587
 201   2.0000      -0.489128       -13.3098
 202   2.0000      -0.485889       -13.2217
 203   2.0000      -0.484605       -13.1868
 204   2.0000      -0.482217       -13.1218
 205   2.0000      -0.481238       -13.0952
 206   2.0000      -0.475413       -12.9366
 207   2.0000      -0.473697       -12.8899
 208   2.0000      -0.472045       -12.8450
 209   2.0000      -0.470269       -12.7967
 210   2.0000      -0.468564       -12.7503
 211   2.0000      -0.466120       -12.6838
 212   2.0000      -0.463945       -12.6246
 213   2.0000      -0.461963       -12.5707
 214   2.0000      -0.459820       -12.5123
 215   2.0000      -0.452196       -12.3049
 216   2.0000      -0.451420       -12.2838
 217   2.0000      -0.450165       -12.2496
 218   2.0000      -0.448767       -12.2116
 219   2.0000      -0.447870       -12.1872
 220   2.0000      -0.445970       -12.1355
 221   2.0000      -0.438671       -11.9368
 222   2.0000      -0.438408       -11.9297
 223   2.0000      -0.436777       -11.8853
 224   2.0000      -0.433126       -11.7859
 225   2.0000      -0.430053       -11.7023
 226   2.0000      -0.428605       -11.6629
 227   2.0000      -0.421304       -11.4643
 228   2.0000      -0.418736       -11.3944
 229   2.0000      -0.417033       -11.3480
 230   2.0000      -0.416393       -11.3306
 231   2.0000      -0.415113       -11.2958
 232   2.0000      -0.414226       -11.2717
 233   2.0000      -0.411224       -11.1900
 234   2.0000      -0.408807       -11.1242
 235   2.0000      -0.408230       -11.1085
 236   2.0000      -0.402687       -10.9577
 237   2.0000      -0.398437       -10.8420
 238   2.0000      -0.397274       -10.8104
 239   2.0000      -0.396389       -10.7863
 240   2.0000      -0.392579       -10.6826
 241   2.0000      -0.389217       -10.5911
 242   2.0000      -0.388459       -10.5705
 243   2.0000      -0.386845       -10.5266
 244   2.0000      -0.382593       -10.4109
 245   2.0000      -0.381528       -10.3819
 246   2.0000      -0.373595       -10.1660
 247   2.0000      -0.357853        -9.7377
 248   2.0000      -0.354779        -9.6540
 249   2.0000      -0.353203        -9.6111
 250   2.0000      -0.337451        -9.1825
 251   2.0000      -0.335560        -9.1311
 252   2.0000      -0.332828        -9.0567
 253   2.0000      -0.326501        -8.8845
 254   2.0000      -0.324802        -8.8383
 255   2.0000      -0.322634        -8.7793
 256   2.0000      -0.321143        -8.7387
 257   2.0000      -0.304212        -8.2780
 258   2.0000      -0.301447        -8.2028
 259   2.0000      -0.300029        -8.1642
 260   2.0000      -0.296955        -8.0806
 261   2.0000      -0.294265        -8.0074
 262   2.0000      -0.290130        -7.8948
 263   2.0000      -0.276729        -7.5302
 264   2.0000      -0.262167        -7.1339
 265   2.0000      -0.217590        -5.9209
 266   2.0000      -0.209667        -5.7053
 267   0.0000      -0.079349        -2.1592
 268   0.0000      -0.064934        -1.7670
 269   0.0000      -0.048555        -1.3212
 270   0.0000      -0.036252        -0.9865
 271   0.0000      -0.006185        -0.1683

MULLIKEN ATOMIC CHARGES
-----------------------
   0 C :    0.315407
   1 C :   -0.350720
   2 C :   -0.195215
   3 N :    0.142498
   4 C :   -0.206159
   5 N :    0.157487
   6 C :    0.014815
   7 C :    0.002851
   8 C :   -0.085576
   9 C :    0.146367
  10 C :   -0.086830
  11 C :   -0.013373
  12 S :    0.171143
  13 C :   -0.121686
  14 C :    0.046989
  15 Br:   -0.005693
  16 C :    0.146540
  17 O :   -0.163377
  18 C :   -0.084129
  19 C :   -0.014346
  20 C :   -0.173219
  21 S :    0.124653
  22 C :   -0.130722
  23 C :   -0.077419
  24 C :   -0.000468
  25 C :    0.145486
  26 C :    0.052425
  27 C :   -0.079963
  28 N :   -0.166572
  29 C :    0.197455
  30 C :   -0.015498
  31 C :    0.019487
  32 C :   -0.016077
  33 C :   -0.018708
  34 C :    0.036829
  35 C :    0.035582
  36 C :   -0.054765
  37 S :    0.071308
  38 C :   -0.048557
  39 C :    0.029146
  40 C :    0.048056
  41 C :    0.004993
  42 S :    0.073544
  43 C :   -0.023405
  44 C :   -0.174119
  45 S :   -0.051137
  46 C :    0.049213
  47 C :   -0.254625
  48 C :    0.222040
  49 C :    0.038824
  50 O :   -0.192689
  51 N :   -0.061995
  52 N :   -0.143875
  53 C :    0.009116
  54 C :   -0.038987
  55 C :    0.048006
  56 C :    0.024626
  57 C :   -0.045987
  58 S :    0.034297
  59 C :   -0.073060
  60 C :    0.018542
  61 C :    0.063046
  62 C :   -0.080854
  63 S :    0.063137
  64 C :   -0.046362
  65 H :   -0.021300
  66 H :   -0.014575
  67 H :   -0.021678
  68 H :    0.035419
  69 H :    0.005100
  70 H :    0.034878
  71 H :   -0.012486
  72 H :   -0.015678
  73 H :    0.004939
  74 H :    0.084383
  75 H :    0.086567
  76 H :   -0.001715
  77 H :    0.010914
  78 H :    0.003011
  79 H :    0.034008
  80 H :   -0.011173
  81 H :   -0.010816
  82 H :   -0.012337
  83 H :   -0.013444
  84 H :   -0.010834
  85 H :   -0.006295
  86 H :    0.056164
  87 H :    0.061347
  88 H :    0.040562
  89 H :    0.027801
  90 H :    0.027873
  91 H :    0.127686
  92 H :    0.130090
  93 H :    0.126205
  94 H :    0.009449
  95 H :   -0.018638
  96 H :   -0.019915
  97 H :   -0.012074
  98 H :   -0.005426
  99 H :    0.025907
 100 H :    0.018343
Sum of atomic charges:   -0.0000000

LOEWDIN ATOMIC CHARGES
----------------------
   0 C :    0.080129
   1 C :   -0.145948
   2 C :   -0.014016
   3 N :   -0.069114
   4 C :   -0.022962
   5 N :   -0.061806
   6 C :   -0.021245
   7 C :   -0.049225
   8 C :    0.016050
   9 C :   -0.039136
  10 C :   -0.143420
  11 C :   -0.007691
  12 S :    0.433463
  13 C :   -0.276302
  14 C :   -0.068414
  15 Br:    0.130717
  16 C :    0.083763
  17 O :   -0.141211
  18 C :   -0.101039
  19 C :    0.048722
  20 C :   -0.182836
  21 S :    0.439789
  22 C :   -0.153064
  23 C :   -0.059894
  24 C :   -0.004804
  25 C :   -0.031386
  26 C :   -0.042772
  27 C :    0.012108
  28 N :   -0.103371
  29 C :   -0.022060
  30 C :   -0.051878
  31 C :   -0.011450
  32 C :   -0.066109
  33 C :   -0.131223
  34 C :   -0.035872
  35 C :   -0.024655
  36 C :   -0.181182
  37 S :    0.372840
  38 C :   -0.173760
  39 C :   -0.030606
  40 C :   -0.026704
  41 C :   -0.142084
  42 S :    0.364560
  43 C :   -0.072147
  44 C :   -0.120058
  45 S :    0.208503
  46 C :   -0.119581
  47 C :   -0.040475
  48 C :   -0.023173
  49 C :    0.053887
  50 O :   -0.197965
  51 N :    0.007569
  52 N :   -0.016212
  53 C :   -0.004992
  54 C :   -0.204929
  55 C :   -0.025406
  56 C :   -0.055402
  57 C :   -0.168789
  58 S :    0.347863
  59 C :   -0.195317
  60 C :   -0.025670
  61 C :   -0.037169
  62 C :   -0.139749
  63 S :    0.355733
  64 C :   -0.095139
  65 H :    0.036586
  66 H :    0.037812
  67 H :    0.029851
  68 H :    0.042385
  69 H :    0.031238
  70 H :    0.036091
  71 H :    0.015249
  72 H :    0.017722
  73 H :    0.023052
  74 H :    0.049073
  75 H :    0.051738
  76 H :    0.029359
  77 H :    0.034052
  78 H :    0.029060
  79 H :    0.027647
  80 H :    0.032689
  81 H :    0.033819
  82 H :    0.032134
  83 H :    0.032242
  84 H :    0.034071
  85 H :    0.029646
  86 H :    0.016854
  87 H :    0.029071
  88 H :    0.021403
  89 H :    0.034561
  90 H :    0.036755
  91 H :    0.061267
  92 H :    0.082316
  93 H :    0.059732
  94 H :    0.027330
  95 H :    0.030885
  96 H :    0.029200
  97 H :    0.032311
  98 H :    0.035277
  99 H :    0.030775
 100 H :    0.010465

  Mayer bond orders larger than 0.100000
B(  0-C ,  1-C ) :   1.6303 B(  0-C ,  6-C ) :   1.0077 B(  0-C , 18-C ) :   1.0699
B(  1-C ,  2-C ) :   1.1468 B(  1-C ,  4-C ) :   1.1458 B(  2-C ,  3-N ) :   2.9597
B(  4-C ,  5-N ) :   2.9833 B(  6-C ,  7-C ) :   1.2691 B(  6-C , 11-C ) :   1.4169
B(  7-C ,  8-C ) :   1.4359 B(  7-C , 16-C ) :   0.9463 B(  8-C ,  9-C ) :   1.2200
B(  8-C , 65-H ) :   1.0188 B(  9-C , 10-C ) :   1.3301 B(  9-C , 14-C ) :   1.1650
B( 10-C , 11-C ) :   1.3172 B( 10-C , 12-S ) :   1.0820 B( 11-C , 66-H ) :   0.9814
B( 12-S , 13-C ) :   1.0920 B( 13-C , 14-C ) :   1.6022 B( 13-C , 15-Br) :   1.0014
B( 14-C , 67-H ) :   0.9987 B( 16-C , 17-O ) :   2.1518 B( 16-C , 18-C ) :   0.9676
B( 18-C , 19-C ) :   1.6026 B( 19-C , 20-C ) :   1.1809 B( 19-C , 68-H ) :   0.9187
B( 20-C , 21-S ) :   1.0959 B( 20-C , 24-C ) :   1.4564 B( 21-S , 22-C ) :   1.1410
B( 22-C , 23-C ) :   1.5173 B( 22-C , 30-C ) :   1.0241 B( 23-C , 24-C ) :   1.3162
B( 23-C , 29-C ) :   1.0209 B( 24-C , 25-C ) :   1.0640 B( 25-C , 26-C ) :   1.0818
B( 25-C , 69-H ) :   0.9150 B( 25-C , 70-H ) :   0.8727 B( 26-C , 27-C ) :   1.0259
B( 26-C , 71-H ) :   0.9289 B( 26-C , 72-H ) :   0.9288 B( 27-C , 28-N ) :   1.1002
B( 27-C , 29-C ) :   1.0511 B( 27-C , 73-H ) :   0.9280 B( 28-N , 74-H ) :   0.9693
B( 28-N , 75-H ) :   0.9702 B( 29-C , 76-H ) :   0.9060 B( 29-C , 77-H ) :   0.9062
B( 30-C , 31-C ) :   1.7399 B( 30-C , 78-H ) :   0.9649 B( 31-C , 32-C ) :   1.1320
B( 31-C , 79-H ) :   0.9532 B( 32-C , 33-C ) :   1.6134 B( 32-C , 80-H ) :   0.9813
B( 33-C , 34-C ) :   1.1239 B( 33-C , 37-S ) :   1.0357 B( 34-C , 35-C ) :   1.6186
B( 34-C , 81-H ) :   0.9974 B( 35-C , 36-C ) :   1.1665 B( 35-C , 82-H ) :   0.9937
B( 36-C , 37-S ) :   1.0401 B( 36-C , 38-C ) :   1.5516 B( 38-C , 39-C ) :   1.1583
B( 38-C , 42-S ) :   1.0413 B( 39-C , 40-C ) :   1.6415 B( 39-C , 83-H ) :   0.9934
B( 40-C , 41-C ) :   1.1004 B( 40-C , 84-H ) :   0.9989 B( 41-C , 42-S ) :   1.0202
B( 41-C , 43-C ) :   1.7291 B( 43-C , 44-C ) :   0.9920 B( 43-C , 85-H ) :   0.9762
B( 44-C , 45-S ) :   0.9648 B( 44-C , 48-C ) :   1.0026 B( 44-C , 86-H ) :   0.9078
B( 45-S , 46-C ) :   0.9994 B( 46-C , 47-C ) :   0.9945 B( 46-C , 87-H ) :   0.9449
B( 46-C , 88-H ) :   0.9393 B( 47-C , 48-C ) :   1.0237 B( 47-C , 49-C ) :   0.8554
B( 47-C , 52-N ) :   0.9824 B( 48-C , 89-H ) :   0.9214 B( 48-C , 90-H ) :   0.9243
B( 49-C , 50-O ) :   2.1869 B( 49-C , 51-N ) :   1.2801 B( 51-N , 91-H ) :   0.9265
B( 51-N , 92-H ) :   0.9396 B( 52-N , 53-C ) :   1.1692 B( 52-N , 93-H ) :   0.9159
B( 53-C , 54-C ) :   1.6285 B( 53-C , 94-H ) :   0.9574 B( 54-C , 55-C ) :   1.1214
B( 54-C , 58-S ) :   0.9911 B( 55-C , 56-C ) :   1.6251 B( 55-C , 95-H ) :   0.9991
B( 56-C , 57-C ) :   1.1554 B( 56-C , 96-H ) :   0.9952 B( 57-C , 58-S ) :   1.0473
B( 57-C , 59-C ) :   1.5843 B( 59-C , 60-C ) :   1.1362 B( 59-C , 63-S ) :   1.0230
B( 60-C , 61-C ) :   1.6586 B( 60-C , 97-H ) :   0.9956 B( 61-C , 62-C ) :   1.0668
B( 61-C , 98-H ) :   0.9945 B( 62-C , 63-S ) :   1.0130 B( 62-C , 64-C ) :   1.8655
B( 64-C , 99-H ) :   0.9457 B( 64-C ,100-H ) :   0.9211

-----------------------------------------------------------------------------
         ABSORPTION SPECTRUM VIA TRANSITION ELECTRIC DIPOLE MOMENTS
-----------------------------------------------------------------------------
State   Energy  Wavelength   fosc         T2         TX        TY        TZ
        (cm-1)    (nm)                  (au**2)     (au)      (au)      (au)
-----------------------------------------------------------------------------
   0   11739.4    851.8   0.028775744   0.80697  -0.31340  -0.78729   0.29819
   1   16137.0    619.7   0.335186098   6.83814   1.40693  -1.78925   1.28735
   2   16585.2    602.9   0.107431390   2.13248  -0.54377   0.73698  -1.13739
   3   19069.9    524.4   0.053144034   0.91745  -0.09681   0.44434  -0.84299
   4   20341.8    491.6   0.417276697   6.75320   1.24462   1.25781  -1.90317
   5   23103.6    432.8   0.603174935   8.59489  -0.12826   0.86073  -2.79957
   6   23384.9    427.6   0.197215036   2.77639  -1.47824   0.30069  -0.70767
   7   23988.8    416.9   0.685298128   9.40472   2.40959   0.47899  -1.83553
   8   25612.8    390.4   0.157137623   2.01975   0.12550   0.40924  -1.35519
   9   26405.7    378.7   0.078287255   0.97604   0.45660   0.21524  -0.84925
  10   27174.1    368.0   0.071705565   0.86871   0.09726   0.37011  -0.84986
  11   27859.9    358.9   0.420464593   4.96850   0.54519   0.05361  -2.16065
  12   28815.7    347.0   0.067271643   0.76856   0.55743  -0.56227   0.37641
  13   29385.0    340.3   0.143375839   1.60630   0.68810   0.02789  -1.06397
  14   30084.3    332.4   0.115724988   1.26637   0.76004  -0.33161  -0.76076
  15   30443.1    328.5   0.048381631   0.52320  -0.26635   0.00379   0.67249
  16   30647.0    326.3   0.038836243   0.41718   0.32135  -0.18785   0.52785
  17   31097.5    321.6   0.015778977   0.16704   0.07208  -0.06370   0.39723
  18   31263.1    319.9   0.070696345   0.74446  -0.67110   0.33474   0.42666
  19   31646.5    316.0   0.098252903   1.02210  -0.65682  -0.59242   0.48961
  20   31973.4    312.8   0.167251640   1.72210  -0.02224  -0.31042   1.27485
  21   32256.2    310.0   0.022463477   0.22927   0.17577  -0.40575   0.18367
  22   32339.9    309.2   0.008428128   0.08580  -0.25588  -0.12081  -0.07567
  23   32676.2    306.0   0.033090196   0.33338  -0.02808  -0.40779   0.40780
  24   32781.2    305.1   0.115934777   1.16430  -0.33615   0.37802  -0.95310
  25   33309.5    300.2   0.046340445   0.45800   0.59990  -0.28934  -0.12004
  26   33368.0    299.7   0.041660281   0.41102  -0.09049  -0.27736   0.57088
  27   33804.6    295.8   0.011851063   0.11541  -0.06717  -0.06428   0.32676
  28   34020.9    293.9   0.023213433   0.22463   0.41960  -0.13374  -0.17517
  29   34323.3    291.3   0.014689334   0.14089  -0.18200   0.01029   0.32812
  30   34420.1    290.5   0.024521460   0.23454  -0.14699  -0.22070   0.40524
  31   34586.6    289.1   0.010005493   0.09524  -0.09044  -0.03181   0.29334
  32   34895.9    286.6   0.088688568   0.83670  -0.12119   0.38947  -0.81874
  33   35088.4    285.0   0.104973504   0.98490   0.27613   0.13133  -0.94414
  34   35361.4    282.8   0.134349404   1.25078   0.94836  -0.24070   0.54172
  35   35530.1    281.5   0.095282346   0.88286   0.37333   0.15013  -0.84909
  36   35727.2    279.9   0.008968603   0.08264   0.26791   0.00678   0.10402
  37   36389.3    274.8   0.015181811   0.13735  -0.27078   0.24507  -0.06299
  38   36926.5    270.8   0.163276727   1.45567  -0.39807   0.32013  -1.09303
  39   37117.2    269.4   0.005679333   0.05037  -0.19117  -0.02432   0.11505
  40   37193.0    268.9   0.061540204   0.54472   0.36569   0.60514  -0.21167
  41   37415.1    267.3   0.035188874   0.30962   0.28776   0.45832  -0.12946
  42   37729.5    265.0   0.100864022   0.88010  -0.79682  -0.06677  -0.49062
  43   37870.4    264.1   0.033899395   0.29469   0.40963  -0.25232  -0.25145
  44   38181.6    261.9   0.007923113   0.06832   0.18336  -0.14314   0.11919
  45   38332.5    260.9   0.085669697   0.73576  -0.28189  -0.51197   0.62784
  46   38586.7    259.2   0.006590407   0.05623   0.07350   0.05948   0.21745
  47   38790.0    257.8   0.026080155   0.22134  -0.26437   0.04952  -0.38600
  48   39102.9    255.7   0.009969503   0.08393   0.15612   0.14513   0.19621
  49   39409.8    253.7   0.016264818   0.13587   0.14741   0.08507  -0.32696
  50   39472.7    253.3   0.045696011   0.38112  -0.54116  -0.10320   0.27860
  51   39885.8    250.7   0.067052216   0.55344  -0.57061   0.47654   0.02744
  52   39897.0    250.6   0.012345452   0.10187  -0.28996   0.13157   0.02195
  53   40209.9    248.7   0.061669207   0.50491   0.64799  -0.27278   0.10299

FINAL SINGLE POINT ENERGY     -7708.542274882300

DIPOLE MOMENT
-------------
                                X             Y             Z
Electronic contribution:     86.38300       5.86815     -46.95985
Nuclear contribution   :    -88.02509      -4.98457      44.81368
                        -----------------------------------------
Total Dipole Moment    :     -1.64209       0.88358      -2.14617
                        -----------------------------------------
Magnitude (a.u.)       :      2.84310
Magnitude (Debye)      :      7.22659

Rotational constants in cm-1:     0.001050     0.000846     0.000565
Rotational constants in MHz :    31.491150    25.355312    16.924912

                             ****ORCA TERMINATED NORMALLY****
TOTAL RUN TIME: 0 days 0 hours 20 minutes 52 seconds 363 msec
