                         Program Version 4.2.0 -  RELEASE  -
|  1> # ORCA input file
|  2> # SCF done       -161.174860960329          0.010746836687
|  3> ! CAM-B3LYP def2-SVP def2/J RIJCOSX Grid4 TightSCF
|  4> %maxcore 5000
|  5> %tddft
|  6>     Mode sTDDFT
|  7>     Ethresh 5.0
|  8>     maxcore 5000
|  9> end
| 10>
| 11> %pal
| 12>   nprocs 6
| 13>   end
| 14> * xyz 0 1
| 15>    C       -6.66095         0.15001         2.69895
| 16>    C       -5.76681        -0.58001         1.95166
| 17>    C       -5.88552        -1.95167         1.66332
| 18>    N       -5.92715        -3.05774         1.35989
| 19>    C       -4.57743        -0.04725         1.41804
| 20>    N       -3.56864         0.30651         0.99998
| 21>    C       -7.78905        -0.39890         3.44466
| 22>    C       -8.34696         0.63569         4.23108
| 23>    C       -9.44140         0.44161         5.03419
| 24>    C      -10.00854        -0.83796         5.06575
| 25>    C       -9.42787        -1.86886         4.29550
| 26>    C       -8.31759        -1.67253         3.48208
| 27>    S      -10.29194        -3.36724         4.48007
| 28>    C      -11.41710        -2.59113         5.56062
| 29>    C      -11.15355        -1.28098         5.78309
| 30>   Br      -12.83608        -3.57941         6.28965
| 31>    C       -7.58072         1.88387         4.01773
| 32>    O       -7.80759         2.96292         4.53182
| 33>    C       -6.56810         1.55361         3.00076
| 34>    C       -5.77681         2.47532         2.34863
| 35>    C       -5.46679         3.78404         2.76127
| 36>    S       -5.20872         4.99220         1.52084
| 37>    C       -5.07897         6.22776         2.70649
| 38>    C       -5.18032         5.76803         3.98259
| 39>    C       -5.07383         6.63446         5.19394
| 40>    C       -5.35529         4.35454         4.03966
| 41>    C       -5.32933         3.60359         5.25148
| 42>    C       -4.90653         2.30963         5.29615
| 43>    C       -5.13621         1.40280         6.34231
| 44>    C       -4.98078         0.05530         6.13367
| 45>    C       -5.33255        -0.95709         7.02679
| 46>    C       -5.32232        -2.29406         6.68970
| 47>    C       -5.60552        -3.39415         7.52681
| 48>    C       -5.50429        -4.60849         6.91227
| 49>    C       -5.15008        -4.53273         5.55007
| 50>    S       -4.95045        -2.85927         5.06797
| 51>    C       -4.96354        -5.57462         4.65941
| 52>    C       -5.07620        -6.95958         4.93308
| 53>    C       -4.82857        -7.75202         3.85841
| 54>    C       -4.51549        -7.04127         2.66809
| 55>    S       -4.53695        -5.31065         2.98805
| 56>    C       -4.24188        -7.59375         1.44918
| 57>    C       -3.97707        -6.85268         0.26996
| 58>    C       -3.65842        -7.36003        -0.94056
| 59>    C       -3.51805        -8.80975        -1.26572
| 60>    C       -3.45973        -6.43571        -2.11886
| 61>    N       -4.56212        -6.53624        -3.05144
| 62>    C       -4.62331        -7.48118        -4.00876
| 63>    C       -5.74451        -7.80318        -4.69864
| 64>    C       -5.80214        -8.75669        -5.75190
| 65>    S       -7.27291        -8.95235        -6.65932
| 66>    C       -6.59284       -10.17959        -7.65520
| 67>    C       -5.29975       -10.43230        -7.31147
| 68>    C       -4.84477        -9.63635        -6.23534
| 69>    O       -3.60181        -9.71303        -5.66702
| 70>    C       -2.62338       -10.54202        -6.03187
| 71>    O       -1.58992       -10.52327        -5.41469
| 72>    C       -2.75922       -11.50501        -7.20553
| 73>    O       -1.84100       -12.20625        -7.52895
| 74>    S       -4.27750       -11.62199        -8.11555
| 75>    H       -9.85547         1.25027         5.61614
| 76>    H       -7.90897        -2.48695         2.90642
| 77>    H      -11.74212        -0.64975         6.42080
| 78>    H       -5.39931         2.20590         1.36855
| 79>    H       -4.92703         7.24095         2.38609
| 80>    H       -4.91757         7.67116         4.90710
| 81>    H       -4.24294         6.31258         5.82060
| 82>    H       -5.98869         6.56508         5.77997
| 83>    H       -5.68513         4.09002         6.15057
| 84>    H       -4.43323         1.89882         4.40909
| 85>    H       -5.56018         1.76016         7.27185
| 86>    H       -4.60270        -0.26291         5.16841
| 87>    H       -5.64554        -0.69252         8.02885
| 88>    H       -5.86259        -3.25501         8.56221
| 89>    H       -5.67374        -5.54927         7.40459
| 90>    H       -5.33124        -7.32526         5.91171
| 91>    H       -4.86479        -8.82699         3.87196
| 92>    H       -4.24511        -8.67286         1.40011
| 93>    H       -4.04065        -5.77622         0.37726
| 94>    H       -3.66345        -9.44732        -0.39984
| 95>    H       -2.52537        -9.00301        -1.67335
| 96>    H       -4.24244        -9.09521        -2.03029
| 97>    H       -2.54216        -6.70064        -2.65238
| 98>    H       -3.38665        -5.39843        -1.78314
| 99>    H       -5.43359        -6.12638        -2.74630
|100>    H       -3.68320        -7.95585        -4.24526
|101>    H       -6.67508        -7.30292        -4.47108
|102>    H       -7.17019       -10.64225        -8.42691
|103> *
|104>
|105>                          ****END OF INPUT****

CARTESIAN COORDINATES (ANGSTROEM)
---------------------------------
  C     -6.660950    0.150010    2.698950
  C     -5.766810   -0.580010    1.951660
  C     -5.885520   -1.951670    1.663320
  N     -5.927150   -3.057740    1.359890
  C     -4.577430   -0.047250    1.418040
  N     -3.568640    0.306510    0.999980
  C     -7.789050   -0.398900    3.444660
  C     -8.346960    0.635690    4.231080
  C     -9.441400    0.441610    5.034190
  C    -10.008540   -0.837960    5.065750
  C     -9.427870   -1.868860    4.295500
  C     -8.317590   -1.672530    3.482080
  S    -10.291940   -3.367240    4.480070
  C    -11.417100   -2.591130    5.560620
  C    -11.153550   -1.280980    5.783090
  Br   -12.836080   -3.579410    6.289650
  C     -7.580720    1.883870    4.017730
  O     -7.807590    2.962920    4.531820
  C     -6.568100    1.553610    3.000760
  C     -5.776810    2.475320    2.348630
  C     -5.466790    3.784040    2.761270
  S     -5.208720    4.992200    1.520840
  C     -5.078970    6.227760    2.706490
  C     -5.180320    5.768030    3.982590
  C     -5.073830    6.634460    5.193940
  C     -5.355290    4.354540    4.039660
  C     -5.329330    3.603590    5.251480
  C     -4.906530    2.309630    5.296150
  C     -5.136210    1.402800    6.342310
  C     -4.980780    0.055300    6.133670
  C     -5.332550   -0.957090    7.026790
  C     -5.322320   -2.294060    6.689700
  C     -5.605520   -3.394150    7.526810
  C     -5.504290   -4.608490    6.912270
  C     -5.150080   -4.532730    5.550070
  S     -4.950450   -2.859270    5.067970
  C     -4.963540   -5.574620    4.659410
  C     -5.076200   -6.959580    4.933080
  C     -4.828570   -7.752020    3.858410
  C     -4.515490   -7.041270    2.668090
  S     -4.536950   -5.310650    2.988050
  C     -4.241880   -7.593750    1.449180
  C     -3.977070   -6.852680    0.269960
  C     -3.658420   -7.360030   -0.940560
  C     -3.518050   -8.809750   -1.265720
  C     -3.459730   -6.435710   -2.118860
  N     -4.562120   -6.536240   -3.051440
  C     -4.623310   -7.481180   -4.008760
  C     -5.744510   -7.803180   -4.698640
  C     -5.802140   -8.756690   -5.751900
  S     -7.272910   -8.952350   -6.659320
  C     -6.592840  -10.179590   -7.655200
  C     -5.299750  -10.432300   -7.311470
  C     -4.844770   -9.636350   -6.235340
  O     -3.601810   -9.713030   -5.667020
  C     -2.623380  -10.542020   -6.031870
  O     -1.589920  -10.523270   -5.414690
  C     -2.759220  -11.505010   -7.205530
  O     -1.841000  -12.206250   -7.528950
  S     -4.277500  -11.621990   -8.115550
  H     -9.855470    1.250270    5.616140
  H     -7.908970   -2.486950    2.906420
  H    -11.742120   -0.649750    6.420800
  H     -5.399310    2.205900    1.368550
  H     -4.927030    7.240950    2.386090
  H     -4.917570    7.671160    4.907100
  H     -4.242940    6.312580    5.820600
  H     -5.988690    6.565080    5.779970
  H     -5.685130    4.090020    6.150570
  H     -4.433230    1.898820    4.409090
  H     -5.560180    1.760160    7.271850
  H     -4.602700   -0.262910    5.168410
  H     -5.645540   -0.692520    8.028850
  H     -5.862590   -3.255010    8.562210
  H     -5.673740   -5.549270    7.404590
  H     -5.331240   -7.325260    5.911710
  H     -4.864790   -8.826990    3.871960
  H     -4.245110   -8.672860    1.400110
  H     -4.040650   -5.776220    0.377260
  H     -3.663450   -9.447320   -0.399840
  H     -2.525370   -9.003010   -1.673350
  H     -4.242440   -9.095210   -2.030290
  H     -2.542160   -6.700640   -2.652380
  H     -3.386650   -5.398430   -1.783140
  H     -5.433590   -6.126380   -2.746300
  H     -3.683200   -7.955850   -4.245260
  H     -6.675080   -7.302920   -4.471080
  H     -7.170190  -10.642250   -8.426910

 Total Charge           Charge          ....    0
 Multiplicity           Mult            ....    1
 Number of Electrons    NEL             ....  488
 Basis Dimension        Dim             .... 1022

ORBITAL ENERGIES
----------------

  NO   OCC          E(Eh)            E(eV)
   0   2.0000    -482.880838    -13139.8556
   1   2.0000     -88.967712     -2420.9345
   2   2.0000     -88.960126     -2420.7281
   3   2.0000     -88.958209     -2420.6759
   4   2.0000     -88.954321     -2420.5701
   5   2.0000     -88.945196     -2420.3218
   6   2.0000     -88.941299     -2420.2158
   7   2.0000     -62.558546     -1702.3046
   8   2.0000     -56.392478     -1534.5173
   9   2.0000     -56.389790     -1534.4442
  10   2.0000     -56.389759     -1534.4434
  11   2.0000     -19.296757      -525.0915
  12   2.0000     -19.232526      -523.3436
  13   2.0000     -19.219000      -522.9756
  14   2.0000     -19.200286      -522.4664
  15   2.0000     -14.432324      -392.7235
  16   2.0000     -14.406181      -392.0121
  17   2.0000     -14.402613      -391.9150
  18   2.0000     -10.423348      -283.6337
  19   2.0000     -10.399869      -282.9948
  20   2.0000     -10.351503      -281.6787
  21   2.0000     -10.350011      -281.6381
  22   2.0000     -10.339479      -281.3515
  23   2.0000     -10.328116      -281.0423
  24   2.0000     -10.326642      -281.0022
  25   2.0000     -10.315098      -280.6881
  26   2.0000     -10.314030      -280.6590
  27   2.0000     -10.313523      -280.6452
  28   2.0000     -10.312535      -280.6183
  29   2.0000     -10.311408      -280.5877
  30   2.0000     -10.310587      -280.5653
  31   2.0000     -10.309298      -280.5303
  32   2.0000     -10.308375      -280.5051
  33   2.0000     -10.308007      -280.4951
  34   2.0000     -10.306889      -280.4647
  35   2.0000     -10.306708      -280.4598
  36   2.0000     -10.304019      -280.3866
  37   2.0000     -10.301106      -280.3073
  38   2.0000     -10.300014      -280.2776
  39   2.0000     -10.297287      -280.2034
  40   2.0000     -10.295556      -280.1563
  41   2.0000     -10.295352      -280.1508
  42   2.0000     -10.294756      -280.1346
  43   2.0000     -10.290015      -280.0056
  44   2.0000     -10.289730      -279.9978
  45   2.0000     -10.289660      -279.9959
  46   2.0000     -10.289234      -279.9843
  47   2.0000     -10.287362      -279.9333
  48   2.0000     -10.286807      -279.9182
  49   2.0000     -10.282637      -279.8048
  50   2.0000     -10.281617      -279.7770
  51   2.0000     -10.281503      -279.7739
  52   2.0000     -10.281007      -279.7604
  53   2.0000     -10.280271      -279.7404
  54   2.0000     -10.280133      -279.7366
  55   2.0000     -10.279273      -279.7132
  56   2.0000     -10.273050      -279.5439
  57   2.0000     -10.272225      -279.5215
  58   2.0000     -10.271127      -279.4916
  59   2.0000     -10.270149      -279.4650
  60   2.0000     -10.269451      -279.4460
  61   2.0000     -10.268668      -279.4247
  62   2.0000     -10.265468      -279.3376
  63   2.0000     -10.258704      -279.1535
  64   2.0000      -8.787973      -239.1329
  65   2.0000      -8.063727      -219.4252
  66   2.0000      -8.056933      -219.2403
  67   2.0000      -8.054019      -219.1610
  68   2.0000      -8.050380      -219.0620
  69   2.0000      -8.040871      -218.8032
  70   2.0000      -8.037367      -218.7079
  71   2.0000      -6.624218      -180.2541
  72   2.0000      -6.609709      -179.8593
  73   2.0000      -6.609568      -179.8555
  74   2.0000      -6.033411      -164.1775
  75   2.0000      -6.029167      -164.0620
  76   2.0000      -6.026609      -163.9924
  77   2.0000      -6.024947      -163.9471
  78   2.0000      -6.023427      -163.9058
  79   2.0000      -6.022486      -163.8802
  80   2.0000      -6.019698      -163.8043
  81   2.0000      -6.019340      -163.7946
  82   2.0000      -6.017704      -163.7501
  83   2.0000      -6.015795      -163.6981
  84   2.0000      -6.015507      -163.6903
  85   2.0000      -6.012444      -163.6069
  86   2.0000      -6.010571      -163.5560
  87   2.0000      -6.007042      -163.4599
  88   2.0000      -6.006609      -163.4481
  89   2.0000      -6.002992      -163.3497
  90   2.0000      -6.001888      -163.3197
  91   2.0000      -5.998275      -163.2214
  92   2.0000      -2.740076       -74.5613
  93   2.0000      -2.736049       -74.4517
  94   2.0000      -2.735904       -74.4477
  95   2.0000      -2.724386       -74.1343
  96   2.0000      -2.724371       -74.1339
  97   2.0000      -1.224572       -33.3223
  98   2.0000      -1.156365       -31.4663
  99   2.0000      -1.118980       -30.4490
 100   2.0000      -1.113330       -30.2952
 101   2.0000      -1.035120       -28.1670
 102   2.0000      -1.012908       -27.5626
 103   2.0000      -1.004045       -27.3215
 104   2.0000      -0.994397       -27.0589
 105   2.0000      -0.990735       -26.9593
 106   2.0000      -0.988533       -26.8993
 107   2.0000      -0.984221       -26.7820
 108   2.0000      -0.977955       -26.6115
 109   2.0000      -0.972621       -26.4664
 110   2.0000      -0.933419       -25.3996
 111   2.0000      -0.919417       -25.0186
 112   2.0000      -0.916103       -24.9284
 113   2.0000      -0.912151       -24.8209
 114   2.0000      -0.899380       -24.4734
 115   2.0000      -0.894852       -24.3502
 116   2.0000      -0.888710       -24.1830
 117   2.0000      -0.875871       -23.8337
 118   2.0000      -0.875133       -23.8136
 119   2.0000      -0.865974       -23.5643
 120   2.0000      -0.862379       -23.4665
 121   2.0000      -0.849759       -23.1231
 122   2.0000      -0.845608       -23.0102
 123   2.0000      -0.841025       -22.8854
 124   2.0000      -0.829291       -22.5661
 125   2.0000      -0.820252       -22.3202
 126   2.0000      -0.819411       -22.2973
 127   2.0000      -0.809705       -22.0332
 128   2.0000      -0.802915       -21.8484
 129   2.0000      -0.787081       -21.4176
 130   2.0000      -0.777011       -21.1436
 131   2.0000      -0.767259       -20.8782
 132   2.0000      -0.756754       -20.5923
 133   2.0000      -0.752021       -20.4635
 134   2.0000      -0.749102       -20.3841
 135   2.0000      -0.741663       -20.1817
 136   2.0000      -0.725134       -19.7319
 137   2.0000      -0.719755       -19.5855
 138   2.0000      -0.700635       -19.0652
 139   2.0000      -0.696704       -18.9583
 140   2.0000      -0.689140       -18.7525
 141   2.0000      -0.681436       -18.5428
 142   2.0000      -0.675008       -18.3679
 143   2.0000      -0.665350       -18.1051
 144   2.0000      -0.661794       -18.0083
 145   2.0000      -0.653193       -17.7743
 146   2.0000      -0.648444       -17.6450
 147   2.0000      -0.642292       -17.4777
 148   2.0000      -0.636416       -17.3177
 149   2.0000      -0.628340       -17.0980
 150   2.0000      -0.623589       -16.9687
 151   2.0000      -0.616275       -16.7697
 152   2.0000      -0.611641       -16.6436
 153   2.0000      -0.609370       -16.5818
 154   2.0000      -0.606198       -16.4955
 155   2.0000      -0.603047       -16.4098
 156   2.0000      -0.591016       -16.0824
 157   2.0000      -0.587533       -15.9876
 158   2.0000      -0.583523       -15.8785
 159   2.0000      -0.582759       -15.8577
 160   2.0000      -0.573007       -15.5923
 161   2.0000      -0.570128       -15.5140
 162   2.0000      -0.568301       -15.4643
 163   2.0000      -0.556956       -15.1555
 164   2.0000      -0.556078       -15.1316
 165   2.0000      -0.545834       -14.8529
 166   2.0000      -0.541900       -14.7458
 167   2.0000      -0.536861       -14.6087
 168   2.0000      -0.532711       -14.4958
 169   2.0000      -0.530464       -14.4347
 170   2.0000      -0.530010       -14.4223
 171   2.0000      -0.529325       -14.4037
 172   2.0000      -0.523651       -14.2493
 173   2.0000      -0.518180       -14.1004
 174   2.0000      -0.515658       -14.0318
 175   2.0000      -0.515305       -14.0222
 176   2.0000      -0.509127       -13.8540
 177   2.0000      -0.505848       -13.7648
 178   2.0000      -0.504553       -13.7296
 179   2.0000      -0.500775       -13.6268
 180   2.0000      -0.499920       -13.6035
 181   2.0000      -0.497857       -13.5474
 182   2.0000      -0.496815       -13.5190
 183   2.0000      -0.492487       -13.4013
 184   2.0000      -0.490202       -13.3391
 185   2.0000      -0.489895       -13.3307
 186   2.0000      -0.486375       -13.2349
 187   2.0000      -0.485447       -13.2097
 188   2.0000      -0.484511       -13.1842
 189   2.0000      -0.483304       -13.1514
 190   2.0000      -0.477606       -12.9963
 191   2.0000      -0.476400       -12.9635
 192   2.0000      -0.472139       -12.8475
 193   2.0000      -0.467888       -12.7319
 194   2.0000      -0.467131       -12.7113
 195   2.0000      -0.463624       -12.6159
 196   2.0000      -0.462315       -12.5802
 197   2.0000      -0.458229       -12.4690
 198   2.0000      -0.456010       -12.4086
 199   2.0000      -0.452546       -12.3144
 200   2.0000      -0.450854       -12.2684
 201   2.0000      -0.449157       -12.2222
 202   2.0000      -0.447460       -12.1760
 203   2.0000      -0.444786       -12.1033
 204   2.0000      -0.440515       -11.9870
 205   2.0000      -0.438644       -11.9361
 206   2.0000      -0.435851       -11.8601
 207   2.0000      -0.434515       -11.8238
 208   2.0000      -0.432209       -11.7610
 209   2.0000      -0.431089       -11.7305
 210   2.0000      -0.429791       -11.6952
 211   2.0000      -0.425315       -11.5734
 212   2.0000      -0.421736       -11.4760
 213   2.0000      -0.420511       -11.4427
 214   2.0000      -0.418887       -11.3985
 215   2.0000      -0.418297       -11.3824
 216   2.0000      -0.414258       -11.2725
 217   2.0000      -0.412950       -11.2369
 218   2.0000      -0.407574       -11.0906
 219   2.0000      -0.402473       -10.9519
 220   2.0000      -0.399358       -10.8671
 221   2.0000      -0.395754       -10.7690
 222   2.0000      -0.390576       -10.6281
 223   2.0000      -0.381781       -10.3888
 224   2.0000      -0.380720       -10.3599
 225   2.0000      -0.380196       -10.3457
 226   2.0000      -0.370531       -10.0827
 227   2.0000      -0.366130        -9.9629
 228   2.0000      -0.365159        -9.9365
 229   2.0000      -0.343211        -9.3392
 230   2.0000      -0.341694        -9.2980
 231   2.0000      -0.336736        -9.1631
 232   2.0000      -0.333446        -9.0735
 233   2.0000      -0.329388        -8.9631
 234   2.0000      -0.322519        -8.7762
 235   2.0000      -0.319988        -8.7073
 236   2.0000      -0.306716        -8.3462
 237   2.0000      -0.302119        -8.2211
 238   2.0000      -0.294674        -8.0185
 239   2.0000      -0.286766        -7.8033
 240   2.0000      -0.277761        -7.5583
 241   2.0000      -0.256572        -6.9817
 242   2.0000      -0.237798        -6.4708
 243   2.0000      -0.205128        -5.5818
 244   0.0000      -0.092295        -2.5115
 245   0.0000      -0.071359        -1.9418
 246   0.0000      -0.049568        -1.3488
 247   0.0000      -0.040129        -1.0920
 248   0.0000      -0.014869        -0.4046

MULLIKEN ATOMIC CHARGES
-----------------------
   0 C :    0.310997
   1 C :   -0.366908
   2 C :   -0.176306
   3 N :    0.138403
   4 C :   -0.230646
   5 N :    0.163119
   6 C :    0.018145
   7 C :   -0.005758
   8 C :   -0.086851
   9 C :    0.119053
  10 C :   -0.086852
  11 C :   -0.024410
  12 S :    0.173966
  13 C :   -0.123901
  14 C :    0.034917
  15 Br:    0.012478
  16 C :    0.164857
  17 O :   -0.154160
  18 C :   -0.146388
  19 C :    0.014134
  20 C :   -0.182056
  21 S :    0.127469
  22 C :   -0.102627
  23 C :   -0.094836
  24 C :    0.115396
  25 C :    0.179885
  26 C :   -0.040486
  27 C :    0.044244
  28 C :    0.000421
  29 C :   -0.000134
  30 C :   -0.013121
  31 C :   -0.012448
  32 C :    0.028485
  33 C :    0.032400
  34 C :   -0.058838
  35 S :    0.072533
  36 C :   -0.043569
  37 C :    0.022395
  38 C :    0.038181
  39 C :   -0.030054
  40 S :    0.126881
  41 C :   -0.014107
  42 C :   -0.000300
  43 C :   -0.185416
  44 C :    0.094241
  45 C :    0.199293
  46 N :   -0.146725
  47 C :    0.044984
  48 C :   -0.009301
  49 C :   -0.135412
  50 S :    0.130245
  51 C :   -0.147775
  52 C :   -0.033462
  53 C :    0.159762
  54 O :   -0.215500
  55 C :    0.207549
  56 O :   -0.138989
  57 C :   -0.005655
  58 O :   -0.128802
  59 S :    0.115391
  60 H :   -0.018768
  61 H :   -0.012632
  62 H :   -0.007666
  63 H :    0.028493
  64 H :    0.023971
  65 H :    0.008912
  66 H :    0.032130
  67 H :    0.037027
  68 H :   -0.013210
  69 H :    0.013531
  70 H :   -0.013149
  71 H :    0.011016
  72 H :   -0.018756
  73 H :   -0.014520
  74 H :   -0.013403
  75 H :   -0.015376
  76 H :   -0.010101
  77 H :   -0.018614
  78 H :   -0.002450
  79 H :    0.009317
  80 H :    0.031391
  81 H :    0.042045
  82 H :    0.021239
  83 H :    0.018341
  84 H :    0.119729
  85 H :    0.028261
  86 H :   -0.038116
  87 H :    0.023325
Sum of atomic charges:   -0.0000000

LOEWDIN ATOMIC CHARGES
----------------------
   0 C :    0.075324
   1 C :   -0.160710
   2 C :   -0.018490
   3 N :   -0.080470
   4 C :   -0.030299
   5 N :   -0.064310
   6 C :   -0.021110
   7 C :   -0.042373
   8 C :    0.014607
   9 C :   -0.035589
  10 C :   -0.146810
  11 C :   -0.011506
  12 S :    0.423812
  13 C :   -0.276491
  14 C :   -0.071039
  15 Br:    0.127922
  16 C :    0.079017
  17 O :   -0.145108
  18 C :   -0.115718
  19 C :    0.052043
  20 C :   -0.184625
  21 S :    0.436997
  22 C :   -0.162946
  23 C :   -0.058253
  24 C :   -0.043376
  25 C :   -0.004180
  26 C :   -0.033760
  27 C :    0.002270
  28 C :   -0.032293
  29 C :   -0.014189
  30 C :   -0.075390
  31 C :   -0.127681
  32 C :   -0.046472
  33 C :   -0.021534
  34 C :   -0.192239
  35 S :    0.380491
  36 C :   -0.164701
  37 C :   -0.038339
  38 C :   -0.022992
  39 C :   -0.149954
  40 S :    0.411744
  41 C :   -0.040197
  42 C :   -0.056885
  43 C :   -0.023800
  44 C :   -0.050133
  45 C :    0.047080
  46 N :    0.004450
  47 C :    0.049948
  48 C :   -0.158116
  49 C :   -0.163468
  50 S :    0.448093
  51 C :   -0.226702
  52 C :   -0.223742
  53 C :   -0.042287
  54 O :   -0.018781
  55 C :    0.043656
  56 O :   -0.114669
  57 C :   -0.108343
  58 O :   -0.104618
  59 S :    0.375300
  60 H :    0.037788
  61 H :    0.038355
  62 H :    0.036688
  63 H :    0.043319
  64 H :    0.025353
  65 H :    0.032781
  66 H :    0.037789
  67 H :    0.038856
  68 H :    0.029244
  69 H :    0.033568
  70 H :    0.027661
  71 H :    0.023137
  72 H :    0.031599
  73 H :    0.032835
  74 H :    0.032071
  75 H :    0.031018
  76 H :    0.033751
  77 H :    0.030401
  78 H :    0.026426
  79 H :    0.028253
  80 H :    0.041376
  81 H :    0.040710
  82 H :    0.032543
  83 H :    0.031491
  84 H :    0.080444
  85 H :    0.028867
  86 H :    0.020567
  87 H :    0.025042

  Mayer bond orders larger than 0.100000
B(  0-C ,  1-C ) :   1.5972 B(  0-C ,  6-C ) :   0.9954 B(  0-C , 18-C ) :   1.1029
B(  1-C ,  2-C ) :   1.1481 B(  1-C ,  4-C ) :   1.1546 B(  2-C ,  3-N ) :   2.9423
B(  4-C ,  5-N ) :   3.0008 B(  6-C ,  7-C ) :   1.2767 B(  6-C , 11-C ) :   1.4223
B(  7-C ,  8-C ) :   1.4314 B(  7-C , 16-C ) :   0.9326 B(  8-C ,  9-C ) :   1.2319
B(  8-C , 60-H ) :   1.0184 B(  9-C , 10-C ) :   1.3241 B(  9-C , 14-C ) :   1.1608
B( 10-C , 11-C ) :   1.3150 B( 10-C , 12-S ) :   1.0778 B( 11-C , 61-H ) :   0.9818
B( 12-S , 13-C ) :   1.0872 B( 13-C , 14-C ) :   1.6175 B( 13-C , 15-Br) :   1.0123
B( 14-C , 62-H ) :   1.0010 B( 16-C , 17-O ) :   2.1988 B( 16-C , 18-C ) :   0.9668
B( 18-C , 19-C ) :   1.5106 B( 19-C , 20-C ) :   1.2317 B( 19-C , 63-H ) :   0.9369
B( 20-C , 21-S ) :   1.0917 B( 20-C , 25-C ) :   1.3646 B( 21-S , 22-C ) :   1.1639
B( 22-C , 23-C ) :   1.5669 B( 22-C , 64-H ) :   0.9657 B( 23-C , 24-C ) :   1.0949
B( 23-C , 25-C ) :   1.2499 B( 24-C , 65-H ) :   0.9511 B( 24-C , 66-H ) :   0.9436
B( 24-C , 67-H ) :   0.9444 B( 25-C , 26-C ) :   1.1389 B( 26-C , 27-C ) :   1.6201
B( 26-C , 68-H ) :   0.9525 B( 27-C , 28-C ) :   1.1994 B( 27-C , 69-H ) :   0.9585
B( 28-C , 29-C ) :   1.5471 B( 28-C , 70-H ) :   0.9940 B( 29-C , 30-C ) :   1.1914
B( 29-C , 71-H ) :   0.9718 B( 30-C , 31-C ) :   1.5171 B( 30-C , 72-H ) :   0.9814
B( 31-C , 32-C ) :   1.1676 B( 31-C , 35-S ) :   1.0492 B( 32-C , 33-C ) :   1.5613
B( 32-C , 73-H ) :   0.9989 B( 33-C , 34-C ) :   1.2088 B( 33-C , 74-H ) :   0.9933
B( 34-C , 35-S ) :   1.0393 B( 34-C , 36-C ) :   1.4890 B( 36-C , 37-C ) :   1.1793
B( 36-C , 40-S ) :   1.0788 B( 37-C , 38-C ) :   1.6037 B( 37-C , 75-H ) :   0.9937
B( 38-C , 39-C ) :   1.1236 B( 38-C , 76-H ) :   0.9988 B( 39-C , 40-S ) :   1.0312
B( 39-C , 41-C ) :   1.6342 B( 41-C , 42-C ) :   1.1038 B( 41-C , 77-H ) :   0.9687
B( 42-C , 43-C ) :   1.7535 B( 42-C , 78-H ) :   0.9659 B( 43-C , 44-C ) :   1.0854
B( 43-C , 45-C ) :   1.0383 B( 44-C , 79-H ) :   0.9488 B( 44-C , 80-H ) :   0.9433
B( 44-C , 81-H ) :   0.9362 B( 45-C , 46-N ) :   1.0095 B( 45-C , 82-H ) :   0.9293
B( 45-C , 83-H ) :   0.9442 B( 46-N , 47-C ) :   1.2432 B( 46-N , 84-H ) :   0.9380
B( 47-C , 48-C ) :   1.6070 B( 47-C , 85-H ) :   0.9565 B( 48-C , 49-C ) :   1.1555
B( 48-C , 86-H ) :   0.9454 B( 49-C , 50-S ) :   1.1487 B( 49-C , 53-C ) :   1.5039
B( 50-S , 51-C ) :   1.1390 B( 51-C , 52-C ) :   1.5816 B( 51-C , 87-H ) :   0.9742
B( 52-C , 53-C ) :   1.2471 B( 52-C , 59-S ) :   0.9446 B( 53-C , 54-O ) :   1.0228
B( 54-O , 55-C ) :   1.1056 B( 55-C , 56-O ) :   2.2096 B( 55-C , 57-C ) :   0.8038
B( 57-C , 58-O ) :   2.1583 B( 57-C , 59-S ) :   1.0592 B( 58-O , 59-S ) :   0.1437

-----------------------------------------------------------------------------
         ABSORPTION SPECTRUM VIA TRANSITION ELECTRIC DIPOLE MOMENTS
-----------------------------------------------------------------------------
State   Energy  Wavelength   fosc         T2         TX        TY        TZ
        (cm-1)    (nm)                  (au**2)     (au)      (au)      (au)
-----------------------------------------------------------------------------
   0    9373.4   1066.9   0.279936866   9.83195  -0.97964   2.97669   0.10756
   1   14223.6    703.1   0.382963613   8.86388   0.40179  -2.63630  -1.32377
   2   18923.0    528.5   0.022988023   0.39993   0.25138  -0.09431  -0.57258
   3   19010.0    526.0   1.154471505  19.99296   0.46793   3.14645   3.14227
   4   21365.8    468.0   0.120806866   1.86143   0.01400   1.33761  -0.26841
   5   22946.2    435.8   0.029636174   0.42519  -0.15105   0.63081   0.06674
   6   23283.3    429.5   0.017693329   0.25017   0.17124  -0.39358  -0.25679
   7   23772.7    420.7   0.054117464   0.74944  -0.12194   0.57753  -0.63326
   8   25867.3    386.6   0.050087365   0.63746   0.41310   0.64783   0.21710
   9   26288.9    380.4   0.081582291   1.02164  -0.57502  -0.41490   0.72032
  10   26665.2    375.0   0.176762389   2.18233   0.26663  -1.17935   0.84874
  11   27173.6    368.0   0.033781478   0.40927   0.15980   0.31321   0.53444
  12   27805.5    359.6   0.001065995   0.01262   0.04671   0.09281   0.04274
  13   28284.7    353.5   0.020288557   0.23614   0.08999  -0.13984  -0.45661
  14   28506.6    350.8   0.134599813   1.55444  -0.17417  -1.20607   0.26363
  15   29185.0    342.6   0.051806360   0.58439   0.26379   0.64856  -0.30688
  16   29656.9    337.2   0.278978373   3.09685   0.48594   1.08521  -1.29731
  17   30317.7    329.8   0.587792179   6.38268   1.40147   0.90933  -1.89517
  18   31074.8    321.8   0.213237716   2.25908  -1.18547  -0.21119   0.89952
  19   31404.5    318.4   0.168581002   1.76723   1.07310   0.77559  -0.11890
  20   32050.9    312.0   0.008669916   0.08905   0.05229  -0.02656  -0.29260
  21   32721.7    305.6   0.000703505   0.00708  -0.01391   0.02098   0.08028
  22   32728.9    305.5   0.079794099   0.80263  -0.35782  -0.04871   0.81989
  23   33009.8    302.9   0.361894553   3.60923  -0.81250  -1.03341   1.37155
  24   33541.2    298.1   0.002265132   0.02223  -0.08443   0.05606   0.10937
  25   33784.1    296.0   0.029428433   0.28677  -0.45994   0.25471   0.10173
  26   34112.3    293.1   0.046710907   0.45080  -0.06693  -0.58336  -0.32558
  27   34496.8    289.9   0.081674178   0.77944  -0.29737   0.69899   0.44992
  28   34746.9    287.8   0.155192363   1.47038  -0.91408   0.79669  -0.01098
  29   34868.5    286.8   0.194112303   1.83272  -0.50610   1.16437   0.46991
  30   35336.8    283.0   0.126321139   1.17686  -0.77728  -0.37113  -0.65951
  31   35725.5    279.9   0.018894379   0.17411  -0.26628   0.03888   0.31890
  32   36183.8    276.4   0.001214231   0.01105   0.09586  -0.03013  -0.03083
  33   36572.6    273.4   0.025102153   0.22596  -0.43336  -0.07471  -0.18048
  34   36824.2    271.6   0.202294925   1.80854  -0.97939  -0.92142   0.01762
  35   37430.1    267.2   0.142516447   1.25349   0.34181   0.55015   0.91323
  36   37605.0    265.9   0.076057756   0.66585   0.00482  -0.11805  -0.80740
  37   38086.3    262.6   0.021884101   0.18916   0.23523   0.29346  -0.21843
  38   38190.1    261.8   0.000511604   0.00441  -0.00190  -0.02539   0.06133
  39   38761.2    258.0   0.077868056   0.66136  -0.22446  -0.48965  -0.60928
  40   39199.5    255.1   0.143711679   1.20694   0.06020   0.66359   0.87348
  41   39335.4    254.2   0.201469214   1.68617   0.89492   0.88112   0.33003
  42   39449.7    253.5   0.086613390   0.72280  -0.13564  -0.42574  -0.72329
  43   39730.2    251.7   0.091668061   0.75958   0.31712  -0.76077   0.28327
  44   39832.9    251.0   0.048135222   0.39783  -0.00761  -0.58941   0.22442

FINAL SINGLE POINT ENERGY     -7194.320063482511

DIPOLE MOMENT
-------------
                                X             Y             Z
Electronic contribution:    -87.11274     -20.05238      25.20314
Nuclear contribution   :     84.80278      21.10189     -22.64706
                        -----------------------------------------
Total Dipole Moment    :     -2.30995       1.04950       2.55608
                        -----------------------------------------
Magnitude (a.u.)       :      3.60151
Magnitude (Debye)      :      9.15430

Rotational constants in cm-1:     0.001258     0.000380     0.000342
Rotational constants in MHz :    37.712839    11.383750    10.258375

                             ****ORCA TERMINATED NORMALLY****
TOTAL RUN TIME: 0 days 0 hours 9 minutes 32 seconds 923 msec
