                         Program Version 4.2.0 -  RELEASE  -
|  1> # ORCA input file
|  2> # SCF done       -158.591869477003          0.000546548133
|  3> ! CAM-B3LYP def2-SVP def2/J RIJCOSX Grid4 TightSCF
|  4> %maxcore 5000
|  5> %tddft
|  6>     Mode sTDDFT
|  7>     Ethresh 5.0
|  8>     maxcore 5000
|  9> end
| 10>
| 11> %pal
| 12>   nprocs 6
| 13>   end
| 14> * xyz 0 1
| 15>    C       -3.98906         1.58876        -4.90267
| 16>    C       -4.09509         2.78627        -5.57574
| 17>    C       -3.18805         3.21222        -6.56227
| 18>    N       -2.45230         3.62168        -7.34421
| 19>    C       -5.12338         3.71816        -5.35974
| 20>    N       -5.96012         4.49683        -5.23040
| 21>    C       -3.02355         0.53295        -5.18274
| 22>    C       -3.29140        -0.57482        -4.33509
| 23>    C       -2.54851        -1.72927        -4.36584
| 24>    C       -1.48806        -1.79865        -5.27642
| 25>    C       -1.23336        -0.69400        -6.12340
| 26>    C       -1.98611         0.47388        -6.09410
| 27>    S        0.11880        -0.99266        -7.17199
| 28>    C        0.32317        -2.57446        -6.46625
| 29>    C       -0.57591        -2.86628        -5.49623
| 30>   Br        1.70379        -3.68806        -7.07472
| 31>    C       -4.44032        -0.24846        -3.48047
| 32>    O       -4.95976        -0.95112        -2.62112
| 33>    C       -4.83164         1.12032        -3.83209
| 34>    C       -5.79637         1.80114        -3.12835
| 35>    N       -6.49538         1.18149        -2.16743
| 36>    C       -7.47202         1.67108        -1.35324
| 37>    S       -7.80387         0.76277         0.09365
| 38>    C       -8.98797         1.94233         0.54771
| 39>    N       -9.69122         1.74972         1.74144
| 40>    O      -10.51734         2.58969         2.05280
| 41>    O       -9.42068         0.74875         2.38434
| 42>    C       -9.11376         2.95975        -0.36027
| 43>    C       -8.25886         2.82311        -1.47159
| 44>    C       -8.26176         3.72952        -2.59576
| 45>    C       -8.68688         5.00396        -2.54587
| 46>    C       -8.65108         5.85797        -3.69851
| 47>    C       -9.12911         7.10883        -3.75148
| 48>    C       -9.80809         7.79717        -2.60526
| 49>    C       -9.03926         7.94285        -5.01152
| 50>    N       -8.49226         7.26609        -6.15299
| 51>    C       -7.18686         7.27330        -6.47389
| 52>    C       -6.62363         6.45715        -7.40803
| 53>    C       -5.27400         6.53025        -7.77712
| 54>    C       -4.67418         5.70225        -8.69310
| 55>    C       -3.33408         5.74158        -9.13953
| 56>    C       -3.02903         4.79863       -10.07446
| 57>    C       -4.11159         3.95822       -10.41619
| 58>    S       -5.53068         4.39447        -9.50506
| 59>    C       -4.14161         2.93200       -11.34549
| 60>    C       -3.07732         2.47936       -12.14954
| 61>    C       -3.43776         1.47829       -13.00356
| 62>    C       -4.79904         1.10784       -12.90676
| 63>    S       -5.62692         2.03770       -11.69190
| 64>    C       -5.46905         0.16086       -13.64735
| 65>    C       -6.83929        -0.05773       -13.41934
| 66>    N       -7.41914         0.66823       -12.45800
| 67>    N       -8.67739         0.57461       -12.13999
| 68>    C       -9.48973        -0.24778       -12.74917
| 69>    C       -9.02741        -1.08118       -13.79235
| 70>    C       -7.63977        -0.98882       -14.14622
| 71>    N       -7.30865        -1.80858       -15.13164
| 72>    S       -8.63228        -2.62718       -15.57888
| 73>    N       -9.67755        -1.97155       -14.53511
| 74>    H       -2.77639        -2.55426        -3.70928
| 75>    H       -1.75107         1.28773        -6.75929
| 76>    H       -0.59547        -3.79545        -4.95654
| 77>    H       -5.98485         2.84969        -3.30049
| 78>    H       -6.17446         0.21251        -1.99732
| 79>    H       -9.82697         3.75295        -0.23246
| 80>    H       -7.91946         3.33989        -3.54381
| 81>    H       -9.03858         5.42232        -1.61485
| 82>    H       -8.17084         5.43148        -4.56782
| 83>    H       -9.20026         7.74406        -1.70427
| 84>    H      -10.76645         7.32574        -2.38936
| 85>    H       -9.98898         8.84412        -2.83521
| 86>    H       -8.42168         8.82422        -4.80451
| 87>    H      -10.04583         8.29876        -5.26519
| 88>    H       -9.05502         6.52666        -6.54965
| 89>    H       -6.58568         8.01328        -5.96292
| 90>    H       -7.23358         5.70725        -7.89323
| 91>    H       -4.65550         7.28771        -7.31316
| 92>    H       -2.63668         6.46507        -8.75611
| 93>    H       -2.05904         4.68334       -10.52199
| 94>    H       -2.08474         2.89030       -12.08853
| 95>    H       -2.77455         0.99983       -13.70292
| 96>    H       -4.96513        -0.41119       -14.40962
| 97>    H      -10.51750        -0.25758       -12.42195
| 98> *
| 99>
|100>                          ****END OF INPUT****

CARTESIAN COORDINATES (ANGSTROEM)
---------------------------------
  C     -3.989060    1.588760   -4.902670
  C     -4.095090    2.786270   -5.575740
  C     -3.188050    3.212220   -6.562270
  N     -2.452300    3.621680   -7.344210
  C     -5.123380    3.718160   -5.359740
  N     -5.960120    4.496830   -5.230400
  C     -3.023550    0.532950   -5.182740
  C     -3.291400   -0.574820   -4.335090
  C     -2.548510   -1.729270   -4.365840
  C     -1.488060   -1.798650   -5.276420
  C     -1.233360   -0.694000   -6.123400
  C     -1.986110    0.473880   -6.094100
  S      0.118800   -0.992660   -7.171990
  C      0.323170   -2.574460   -6.466250
  C     -0.575910   -2.866280   -5.496230
  Br     1.703790   -3.688060   -7.074720
  C     -4.440320   -0.248460   -3.480470
  O     -4.959760   -0.951120   -2.621120
  C     -4.831640    1.120320   -3.832090
  C     -5.796370    1.801140   -3.128350
  N     -6.495380    1.181490   -2.167430
  C     -7.472020    1.671080   -1.353240
  S     -7.803870    0.762770    0.093650
  C     -8.987970    1.942330    0.547710
  N     -9.691220    1.749720    1.741440
  O    -10.517340    2.589690    2.052800
  O     -9.420680    0.748750    2.384340
  C     -9.113760    2.959750   -0.360270
  C     -8.258860    2.823110   -1.471590
  C     -8.261760    3.729520   -2.595760
  C     -8.686880    5.003960   -2.545870
  C     -8.651080    5.857970   -3.698510
  C     -9.129110    7.108830   -3.751480
  C     -9.808090    7.797170   -2.605260
  C     -9.039260    7.942850   -5.011520
  N     -8.492260    7.266090   -6.152990
  C     -7.186860    7.273300   -6.473890
  C     -6.623630    6.457150   -7.408030
  C     -5.274000    6.530250   -7.777120
  C     -4.674180    5.702250   -8.693100
  C     -3.334080    5.741580   -9.139530
  C     -3.029030    4.798630  -10.074460
  C     -4.111590    3.958220  -10.416190
  S     -5.530680    4.394470   -9.505060
  C     -4.141610    2.932000  -11.345490
  C     -3.077320    2.479360  -12.149540
  C     -3.437760    1.478290  -13.003560
  C     -4.799040    1.107840  -12.906760
  S     -5.626920    2.037700  -11.691900
  C     -5.469050    0.160860  -13.647350
  C     -6.839290   -0.057730  -13.419340
  N     -7.419140    0.668230  -12.458000
  N     -8.677390    0.574610  -12.139990
  C     -9.489730   -0.247780  -12.749170
  C     -9.027410   -1.081180  -13.792350
  C     -7.639770   -0.988820  -14.146220
  N     -7.308650   -1.808580  -15.131640
  S     -8.632280   -2.627180  -15.578880
  N     -9.677550   -1.971550  -14.535110
  H     -2.776390   -2.554260   -3.709280
  H     -1.751070    1.287730   -6.759290
  H     -0.595470   -3.795450   -4.956540
  H     -5.984850    2.849690   -3.300490
  H     -6.174460    0.212510   -1.997320
  H     -9.826970    3.752950   -0.232460
  H     -7.919460    3.339890   -3.543810
  H     -9.038580    5.422320   -1.614850
  H     -8.170840    5.431480   -4.567820
  H     -9.200260    7.744060   -1.704270
  H    -10.766450    7.325740   -2.389360
  H     -9.988980    8.844120   -2.835210
  H     -8.421680    8.824220   -4.804510
  H    -10.045830    8.298760   -5.265190
  H     -9.055020    6.526660   -6.549650
  H     -6.585680    8.013280   -5.962920
  H     -7.233580    5.707250   -7.893230
  H     -4.655500    7.287710   -7.313160
  H     -2.636680    6.465070   -8.756110
  H     -2.059040    4.683340  -10.521990
  H     -2.084740    2.890300  -12.088530
  H     -2.774550    0.999830  -13.702920
  H     -4.965130   -0.411190  -14.409620
  H    -10.517500   -0.257580  -12.421950

 Total Charge           Charge          ....    0
 Multiplicity           Mult            ....    1
 Number of Electrons    NEL             ....  472
 Basis Dimension        Dim             ....  984

ORBITAL ENERGIES
----------------

  NO   OCC          E(Eh)            E(eV)
   0   2.0000    -482.888903    -13140.0751
   1   2.0000     -89.003294     -2421.9027
   2   2.0000     -88.993008     -2421.6229
   3   2.0000     -88.980391     -2421.2795
   4   2.0000     -88.927672     -2419.8450
   5   2.0000     -88.916620     -2419.5443
   6   2.0000     -62.566625     -1702.5244
   7   2.0000     -56.400588     -1534.7380
   8   2.0000     -56.397851     -1534.6635
   9   2.0000     -56.397820     -1534.6627
  10   2.0000     -19.244285      -523.6636
  11   2.0000     -19.243431      -523.6404
  12   2.0000     -19.235823      -523.4333
  13   2.0000     -14.655470      -398.7956
  14   2.0000     -14.501329      -394.6012
  15   2.0000     -14.445895      -393.0928
  16   2.0000     -14.427680      -392.5971
  17   2.0000     -14.424183      -392.5020
  18   2.0000     -14.420561      -392.4034
  19   2.0000     -14.417168      -392.3111
  20   2.0000     -14.410793      -392.1376
  21   2.0000     -14.395710      -391.7272
  22   2.0000     -10.382611      -282.5252
  23   2.0000     -10.377006      -282.3727
  24   2.0000     -10.374146      -282.2949
  25   2.0000     -10.363221      -281.9976
  26   2.0000     -10.352206      -281.6979
  27   2.0000     -10.351221      -281.6710
  28   2.0000     -10.344871      -281.4982
  29   2.0000     -10.331441      -281.1328
  30   2.0000     -10.330821      -281.1159
  31   2.0000     -10.325501      -280.9712
  32   2.0000     -10.323332      -280.9121
  33   2.0000     -10.320665      -280.8396
  34   2.0000     -10.315695      -280.7043
  35   2.0000     -10.314633      -280.6754
  36   2.0000     -10.313044      -280.6322
  37   2.0000     -10.312289      -280.6116
  38   2.0000     -10.311528      -280.5909
  39   2.0000     -10.308745      -280.5152
  40   2.0000     -10.304136      -280.3898
  41   2.0000     -10.302963      -280.3579
  42   2.0000     -10.301856      -280.3277
  43   2.0000     -10.301117      -280.3076
  44   2.0000     -10.301053      -280.3059
  45   2.0000     -10.298310      -280.2313
  46   2.0000     -10.293548      -280.1017
  47   2.0000     -10.292002      -280.0596
  48   2.0000     -10.290273      -280.0126
  49   2.0000     -10.289216      -279.9838
  50   2.0000     -10.282014      -279.7878
  51   2.0000     -10.281819      -279.7825
  52   2.0000     -10.280955      -279.7590
  53   2.0000     -10.279443      -279.7179
  54   2.0000     -10.278533      -279.6931
  55   2.0000     -10.271698      -279.5071
  56   2.0000     -10.268829      -279.4290
  57   2.0000     -10.261558      -279.2312
  58   2.0000     -10.261073      -279.2180
  59   2.0000     -10.259738      -279.1817
  60   2.0000     -10.255526      -279.0671
  61   2.0000     -10.250161      -278.9211
  62   2.0000     -10.238903      -278.6147
  63   2.0000      -8.796063      -239.3530
  64   2.0000      -8.095546      -220.2910
  65   2.0000      -8.088741      -220.1058
  66   2.0000      -8.076330      -219.7681
  67   2.0000      -8.023830      -218.3395
  68   2.0000      -8.008908      -217.9335
  69   2.0000      -6.632425      -180.4775
  70   2.0000      -6.617769      -180.0786
  71   2.0000      -6.617559      -180.0729
  72   2.0000      -6.066818      -165.0865
  73   2.0000      -6.059148      -164.8778
  74   2.0000      -6.058372      -164.8567
  75   2.0000      -6.057647      -164.8370
  76   2.0000      -6.053992      -164.7375
  77   2.0000      -6.050168      -164.6334
  78   2.0000      -6.045994      -164.5199
  79   2.0000      -6.041722      -164.4036
  80   2.0000      -6.037599      -164.2914
  81   2.0000      -5.993419      -163.0892
  82   2.0000      -5.989473      -162.9818
  83   2.0000      -5.984962      -162.8591
  84   2.0000      -5.979056      -162.6984
  85   2.0000      -5.974002      -162.5609
  86   2.0000      -5.970459      -162.4645
  87   2.0000      -2.748239       -74.7834
  88   2.0000      -2.744199       -74.6734
  89   2.0000      -2.744030       -74.6689
  90   2.0000      -2.732383       -74.3519
  91   2.0000      -2.732364       -74.3514
  92   2.0000      -1.323981       -36.0274
  93   2.0000      -1.150881       -31.3171
  94   2.0000      -1.143138       -31.1064
  95   2.0000      -1.107349       -30.1325
  96   2.0000      -1.105530       -30.0830
  97   2.0000      -1.079170       -29.3657
  98   2.0000      -1.048385       -28.5280
  99   2.0000      -1.029619       -28.0174
 100   2.0000      -1.020311       -27.7641
 101   2.0000      -1.015086       -27.6219
 102   2.0000      -1.001903       -27.2632
 103   2.0000      -0.995423       -27.0868
 104   2.0000      -0.971307       -26.4306
 105   2.0000      -0.961538       -26.1648
 106   2.0000      -0.947888       -25.7933
 107   2.0000      -0.947105       -25.7720
 108   2.0000      -0.933210       -25.3939
 109   2.0000      -0.917177       -24.9576
 110   2.0000      -0.914511       -24.8851
 111   2.0000      -0.907153       -24.6849
 112   2.0000      -0.902290       -24.5526
 113   2.0000      -0.891792       -24.2669
 114   2.0000      -0.888141       -24.1675
 115   2.0000      -0.883326       -24.0365
 116   2.0000      -0.876593       -23.8533
 117   2.0000      -0.859553       -23.3896
 118   2.0000      -0.847935       -23.0735
 119   2.0000      -0.841791       -22.9063
 120   2.0000      -0.835188       -22.7266
 121   2.0000      -0.821317       -22.3492
 122   2.0000      -0.817434       -22.2435
 123   2.0000      -0.800219       -21.7751
 124   2.0000      -0.794538       -21.6205
 125   2.0000      -0.786796       -21.4098
 126   2.0000      -0.785337       -21.3701
 127   2.0000      -0.768643       -20.9158
 128   2.0000      -0.768214       -20.9042
 129   2.0000      -0.760307       -20.6890
 130   2.0000      -0.736786       -20.0490
 131   2.0000      -0.726923       -19.7806
 132   2.0000      -0.716416       -19.4947
 133   2.0000      -0.715305       -19.4644
 134   2.0000      -0.702231       -19.1087
 135   2.0000      -0.697230       -18.9726
 136   2.0000      -0.692810       -18.8523
 137   2.0000      -0.687784       -18.7156
 138   2.0000      -0.673818       -18.3355
 139   2.0000      -0.667355       -18.1596
 140   2.0000      -0.662611       -18.0306
 141   2.0000      -0.656371       -17.8608
 142   2.0000      -0.646421       -17.5900
 143   2.0000      -0.644726       -17.5439
 144   2.0000      -0.636695       -17.3254
 145   2.0000      -0.636168       -17.3110
 146   2.0000      -0.628505       -17.1025
 147   2.0000      -0.626844       -17.0573
 148   2.0000      -0.616010       -16.7625
 149   2.0000      -0.611505       -16.6399
 150   2.0000      -0.605576       -16.4786
 151   2.0000      -0.604847       -16.4587
 152   2.0000      -0.597719       -16.2648
 153   2.0000      -0.595287       -16.1986
 154   2.0000      -0.588923       -16.0254
 155   2.0000      -0.586546       -15.9607
 156   2.0000      -0.582611       -15.8536
 157   2.0000      -0.573671       -15.6104
 158   2.0000      -0.571537       -15.5523
 159   2.0000      -0.566818       -15.4239
 160   2.0000      -0.562445       -15.3049
 161   2.0000      -0.559196       -15.2165
 162   2.0000      -0.551591       -15.0096
 163   2.0000      -0.551142       -14.9973
 164   2.0000      -0.543040       -14.7769
 165   2.0000      -0.539736       -14.6870
 166   2.0000      -0.536704       -14.6045
 167   2.0000      -0.533639       -14.5210
 168   2.0000      -0.532176       -14.4812
 169   2.0000      -0.530560       -14.4373
 170   2.0000      -0.525018       -14.2865
 171   2.0000      -0.523089       -14.2340
 172   2.0000      -0.521381       -14.1875
 173   2.0000      -0.518357       -14.1052
 174   2.0000      -0.513819       -13.9817
 175   2.0000      -0.507764       -13.8170
 176   2.0000      -0.504294       -13.7225
 177   2.0000      -0.502411       -13.6713
 178   2.0000      -0.496290       -13.5047
 179   2.0000      -0.491180       -13.3657
 180   2.0000      -0.487024       -13.2526
 181   2.0000      -0.485079       -13.1997
 182   2.0000      -0.484008       -13.1705
 183   2.0000      -0.481651       -13.1064
 184   2.0000      -0.477612       -12.9965
 185   2.0000      -0.475729       -12.9453
 186   2.0000      -0.473285       -12.8788
 187   2.0000      -0.470497       -12.8029
 188   2.0000      -0.466464       -12.6931
 189   2.0000      -0.464805       -12.6480
 190   2.0000      -0.463646       -12.6165
 191   2.0000      -0.457660       -12.4536
 192   2.0000      -0.455928       -12.4064
 193   2.0000      -0.455452       -12.3935
 194   2.0000      -0.455380       -12.3915
 195   2.0000      -0.453605       -12.3432
 196   2.0000      -0.450213       -12.2509
 197   2.0000      -0.446953       -12.1622
 198   2.0000      -0.441611       -12.0168
 199   2.0000      -0.438152       -11.9227
 200   2.0000      -0.436581       -11.8800
 201   2.0000      -0.432151       -11.7594
 202   2.0000      -0.427596       -11.6355
 203   2.0000      -0.421425       -11.4676
 204   2.0000      -0.420447       -11.4410
 205   2.0000      -0.417492       -11.3605
 206   2.0000      -0.416667       -11.3381
 207   2.0000      -0.411308       -11.1922
 208   2.0000      -0.405836       -11.0434
 209   2.0000      -0.401405       -10.9228
 210   2.0000      -0.394972       -10.7477
 211   2.0000      -0.393360       -10.7039
 212   2.0000      -0.391264       -10.6468
 213   2.0000      -0.383562       -10.4373
 214   2.0000      -0.380765       -10.3611
 215   2.0000      -0.378345       -10.2953
 216   2.0000      -0.376370       -10.2415
 217   2.0000      -0.371973       -10.1219
 218   2.0000      -0.371136       -10.0991
 219   2.0000      -0.360542        -9.8108
 220   2.0000      -0.358777        -9.7628
 221   2.0000      -0.354058        -9.6344
 222   2.0000      -0.344867        -9.3843
 223   2.0000      -0.340574        -9.2675
 224   2.0000      -0.335193        -9.1211
 225   2.0000      -0.334719        -9.1082
 226   2.0000      -0.322818        -8.7843
 227   2.0000      -0.313791        -8.5387
 228   2.0000      -0.305566        -8.3149
 229   2.0000      -0.298924        -8.1341
 230   2.0000      -0.296562        -8.0699
 231   2.0000      -0.290281        -7.8989
 232   2.0000      -0.270781        -7.3683
 233   2.0000      -0.257923        -7.0184
 234   2.0000      -0.253377        -6.8947
 235   2.0000      -0.190821        -5.1925
 236   0.0000      -0.092335        -2.5126
 237   0.0000      -0.072341        -1.9685
 238   0.0000      -0.064478        -1.7545
 239   0.0000      -0.049446        -1.3455
 240   0.0000      -0.026691        -0.7263

MULLIKEN ATOMIC CHARGES
-----------------------
   0 C :    0.325301
   1 C :   -0.345878
   2 C :   -0.166763
   3 N :    0.143006
   4 C :   -0.186128
   5 N :    0.149620
   6 C :    0.005139
   7 C :   -0.007811
   8 C :   -0.064102
   9 C :    0.113618
  10 C :   -0.092893
  11 C :   -0.010827
  12 S :    0.192354
  13 C :   -0.123657
  14 C :    0.041881
  15 Br:    0.028348
  16 C :    0.174928
  17 O :   -0.214737
  18 C :   -0.142479
  19 C :    0.031519
  20 N :    0.004578
  21 C :   -0.122323
  22 S :    0.194316
  23 C :   -0.001931
  24 N :    0.277973
  25 O :   -0.247628
  26 O :   -0.258854
  27 C :   -0.009941
  28 C :    0.125941
  29 C :   -0.042662
  30 C :    0.013322
  31 C :    0.007022
  32 C :   -0.227312
  33 C :    0.078426
  34 C :    0.199582
  35 N :   -0.138909
  36 C :    0.080382
  37 C :   -0.002209
  38 C :    0.004333
  39 C :   -0.068160
  40 C :    0.082125
  41 C :    0.029114
  42 C :   -0.035600
  43 S :    0.075172
  44 C :   -0.069708
  45 C :    0.033258
  46 C :    0.006310
  47 C :    0.028153
  48 S :    0.152414
  49 C :   -0.128374
  50 C :    0.104910
  51 N :   -0.205634
  52 N :   -0.019445
  53 C :   -0.078774
  54 C :    0.069987
  55 C :   -0.003660
  56 N :   -0.251914
  57 S :    0.475745
  58 N :   -0.269051
  59 H :   -0.007960
  60 H :   -0.004021
  61 H :   -0.001974
  62 H :    0.046411
  63 H :    0.168251
  64 H :    0.012911
  65 H :    0.002925
  66 H :   -0.017550
  67 H :   -0.014819
  68 H :    0.038741
  69 H :    0.039484
  70 H :    0.011290
  71 H :    0.029436
  72 H :    0.028345
  73 H :    0.129627
  74 H :    0.002148
  75 H :   -0.009930
  76 H :   -0.020455
  77 H :   -0.021102
  78 H :   -0.024522
  79 H :   -0.028097
  80 H :   -0.027218
  81 H :   -0.025240
  82 H :   -0.018095
Sum of atomic charges:   -0.0000000

LOEWDIN ATOMIC CHARGES
----------------------
   0 C :    0.084710
   1 C :   -0.152944
   2 C :   -0.014949
   3 N :   -0.049359
   4 C :   -0.005312
   5 N :   -0.059140
   6 C :   -0.019282
   7 C :   -0.050668
   8 C :    0.025111
   9 C :   -0.032362
  10 C :   -0.143177
  11 C :   -0.003962
  12 S :    0.438402
  13 C :   -0.270085
  14 C :   -0.069383
  15 Br:    0.140415
  16 C :    0.095581
  17 O :   -0.171582
  18 C :   -0.148863
  19 C :    0.118851
  20 N :    0.073651
  21 C :   -0.114474
  22 S :    0.471403
  23 C :   -0.203077
  24 N :    0.274861
  25 O :   -0.214073
  26 O :   -0.224894
  27 C :    0.002154
  28 C :   -0.083791
  29 C :   -0.039294
  30 C :   -0.004968
  31 C :   -0.056197
  32 C :   -0.038528
  33 C :   -0.051815
  34 C :    0.039166
  35 N :    0.017156
  36 C :    0.068326
  37 C :   -0.116145
  38 C :   -0.009393
  39 C :   -0.188805
  40 C :   -0.003524
  41 C :   -0.050117
  42 C :   -0.135629
  43 S :    0.377728
  44 C :   -0.235592
  45 C :   -0.020453
  46 C :   -0.068280
  47 C :   -0.109667
  48 S :    0.446388
  49 C :   -0.110820
  50 C :   -0.007456
  51 N :   -0.121300
  52 N :   -0.032277
  53 C :   -0.044636
  54 C :   -0.070169
  55 C :   -0.062548
  56 N :   -0.276390
  57 S :    0.616174
  58 N :   -0.286016
  59 H :    0.042275
  60 H :    0.042593
  61 H :    0.039520
  62 H :    0.042717
  63 H :    0.083345
  64 H :    0.045037
  65 H :    0.030498
  66 H :    0.023180
  67 H :    0.024065
  68 H :    0.038439
  69 H :    0.041591
  70 H :    0.029474
  71 H :    0.036408
  72 H :    0.033525
  73 H :    0.084438
  74 H :    0.029261
  75 H :    0.019108
  76 H :    0.031494
  77 H :    0.030781
  78 H :    0.028217
  79 H :    0.024323
  80 H :    0.026521
  81 H :    0.030641
  82 H :    0.023866

  Mayer bond orders larger than 0.100000
B(  0-C ,  1-C ) :   1.6046 B(  0-C ,  6-C ) :   1.0112 B(  0-C , 18-C ) :   1.1086
B(  1-C ,  2-C ) :   1.1506 B(  1-C ,  4-C ) :   1.1706 B(  2-C ,  3-N ) :   2.9217
B(  4-C ,  5-N ) :   2.9162 B(  6-C ,  7-C ) :   1.2709 B(  6-C , 11-C ) :   1.4223
B(  7-C ,  8-C ) :   1.4281 B(  7-C , 16-C ) :   0.9798 B(  8-C ,  9-C ) :   1.2402
B(  8-C , 59-H ) :   1.0172 B(  9-C , 10-C ) :   1.3095 B(  9-C , 14-C ) :   1.1666
B( 10-C , 11-C ) :   1.3223 B( 10-C , 12-S ) :   1.0902 B( 11-C , 60-H ) :   0.9791
B( 12-S , 13-C ) :   1.0896 B( 13-C , 14-C ) :   1.6151 B( 13-C , 15-Br) :   1.0209
B( 14-C , 61-H ) :   0.9999 B( 16-C , 17-O ) :   2.0470 B( 16-C , 18-C ) :   0.9917
B( 17-O , 63-H ) :   0.1494 B( 18-C , 19-C ) :   1.4493 B( 19-C , 20-N ) :   1.3525
B( 19-C , 62-H ) :   0.9311 B( 20-N , 21-C ) :   1.1531 B( 20-N , 63-H ) :   0.8276
B( 21-C , 22-S ) :   1.1433 B( 21-C , 28-C ) :   1.3951 B( 22-S , 23-C ) :   1.0943
B( 23-C , 24-N ) :   0.9650 B( 23-C , 27-C ) :   1.4856 B( 24-N , 25-O ) :   1.5344
B( 24-N , 26-O ) :   1.5135 B( 25-O , 26-O ) :   0.2635 B( 27-C , 28-C ) :   1.2341
B( 27-C , 64-H ) :   1.0018 B( 28-C , 29-C ) :   1.0226 B( 29-C , 30-C ) :   1.7465
B( 29-C , 65-H ) :   0.9697 B( 30-C , 31-C ) :   1.0972 B( 30-C , 66-H ) :   0.9734
B( 31-C , 32-C ) :   1.7967 B( 31-C , 67-H ) :   0.9566 B( 32-C , 33-C ) :   1.0721
B( 32-C , 34-C ) :   1.0008 B( 33-C , 68-H ) :   0.9477 B( 33-C , 69-H ) :   0.9491
B( 33-C , 70-H ) :   0.9563 B( 34-C , 35-N ) :   1.0506 B( 34-C , 71-H ) :   0.9223
B( 34-C , 72-H ) :   0.9349 B( 35-N , 36-C ) :   1.2366 B( 35-N , 73-H ) :   0.9361
B( 36-C , 37-C ) :   1.5675 B( 36-C , 74-H ) :   0.9674 B( 37-C , 38-C ) :   1.2008
B( 37-C , 75-H ) :   0.9623 B( 38-C , 39-C ) :   1.5530 B( 38-C , 76-H ) :   0.9807
B( 39-C , 40-C ) :   1.1662 B( 39-C , 43-S ) :   1.0061 B( 40-C , 41-C ) :   1.5497
B( 40-C , 77-H ) :   0.9984 B( 41-C , 42-C ) :   1.2154 B( 41-C , 78-H ) :   0.9933
B( 42-C , 43-S ) :   1.0826 B( 42-C , 44-C ) :   1.4643 B( 44-C , 45-C ) :   1.2290
B( 44-C , 48-S ) :   0.9562 B( 45-C , 46-C ) :   1.5290 B( 45-C , 79-H ) :   0.9948
B( 46-C , 47-C ) :   1.1779 B( 46-C , 80-H ) :   1.0014 B( 47-C , 48-S ) :   1.1284
B( 47-C , 49-C ) :   1.4143 B( 48-S , 51-N ) :   0.1528 B( 49-C , 50-C ) :   1.2910
B( 49-C , 81-H ) :   0.9914 B( 50-C , 51-N ) :   1.4479 B( 50-C , 55-C ) :   1.0668
B( 51-N , 52-N ) :   1.2447 B( 52-N , 53-C ) :   1.7356 B( 53-C , 54-C ) :   1.1073
B( 53-C , 82-H ) :   1.0133 B( 54-C , 55-C ) :   1.1990 B( 54-C , 58-N ) :   1.5347
B( 55-C , 56-N ) :   1.6120 B( 56-N , 57-S ) :   1.2377 B( 56-N , 58-N ) :   0.1389
B( 57-S , 58-N ) :   1.2513

-----------------------------------------------------------------------------
         ABSORPTION SPECTRUM VIA TRANSITION ELECTRIC DIPOLE MOMENTS
-----------------------------------------------------------------------------
State   Energy  Wavelength   fosc         T2         TX        TY        TZ
        (cm-1)    (nm)                  (au**2)     (au)      (au)      (au)
-----------------------------------------------------------------------------
   0    7831.5   1276.9   0.002996041   0.12594   0.11110  -0.17459   0.28830
   1   13208.6    757.1   0.948090267  23.63026  -1.08700  -3.38250  -3.31774
   2   14164.1    706.0   0.002020402   0.04696  -0.11182  -0.14345  -0.11780
   3   19520.1    512.3   0.000310798   0.00524   0.00903  -0.07061   0.01319
   4   20812.2    480.5   0.000386382   0.00611   0.01859   0.03653  -0.06657
   5   21371.0    467.9   0.026848963   0.41360  -0.51164   0.34100   0.18852
   6   21580.8    463.4   0.187154348   2.85502   1.24859  -0.25422  -1.10969
   7   21982.9    454.9   0.594477636   8.90278   1.93304  -1.08342  -1.99808
   8   23840.5    419.5   0.001709466   0.02361  -0.05352   0.10240   0.10127
   9   24376.7    410.2   0.000003831   0.00005  -0.00599   0.00126  -0.00377
  10   25422.7    393.3   0.201077805   2.60386   1.48511   0.13581  -0.61633
  11   25778.9    387.9   0.247426015   3.15977   1.32765  -0.85819  -0.81280
  12   27724.6    360.7   0.006218836   0.07384  -0.18376   0.04765   0.19444
  13   28646.9    349.1   0.184478916   2.12004  -0.50244   1.28587  -0.46273
  14   28783.0    347.4   0.001956519   0.02238   0.02983  -0.13911   0.04624
  15   28934.3    345.6   0.008287081   0.09429  -0.20992  -0.11118   0.19458
  16   29253.4    341.8   0.674229613   7.58766   1.99529  -1.08196  -1.56071
  17   29780.5    335.8   0.000005037   0.00006  -0.00684   0.00273  -0.00121
  18   29955.0    333.8   0.024997085   0.27472   0.30765  -0.42433   0.00440
  19   30205.3    331.1   0.216293193   2.35741   0.23133  -1.35712   0.67979
  20   30466.7    328.2   0.004211967   0.04551  -0.00173   0.12979   0.16930
  21   30805.3    324.6   0.079311156   0.84759  -0.08342  -0.82107   0.40801
  22   30928.7    323.3   0.006986393   0.07436   0.14369   0.08462  -0.21577
  23   31011.2    322.5   0.375041279   3.98140   1.74342  -0.84478  -0.47775
  24   31414.7    318.3   0.017485953   0.18324  -0.21150  -0.34702   0.13449
  25   32916.8    303.8   0.038995283   0.39000   0.46376   0.00351  -0.41823
  26   33202.1    301.2   0.077105355   0.76453   0.57780  -0.65546  -0.03235
  27   33375.8    299.6   0.160492381   1.58307   0.76083   0.04126  -1.00125
  28   33680.3    296.9   0.330203773   3.22761  -0.84889   1.53994  -0.36820
  29   33907.6    294.9   0.114306805   1.10981   0.16489   0.89959  -0.52285
  30   34183.9    292.5   0.002992748   0.02882   0.16131  -0.04377  -0.02975
  31   34443.5    290.3   0.070521463   0.67405  -0.64810  -0.43644   0.25206
  32   34645.7    288.6   0.081746075   0.77677  -0.81285  -0.13720   0.31181
  33   34929.6    286.3   0.000307081   0.00289   0.01000  -0.00422   0.05269
  34   35244.0    283.7   0.062285958   0.58181  -0.38279  -0.05093   0.65779
  35   35551.4    281.3   0.001269201   0.01175  -0.06451  -0.04505   0.07458
  36   36369.2    275.0   0.000495388   0.00448   0.05547  -0.00383  -0.03732
  37   36480.2    274.1   0.000017255   0.00016  -0.00293  -0.00591   0.01059
  38   36748.6    272.1   0.003409950   0.03055   0.05223  -0.14681  -0.07917
  39   36904.6    271.0   0.011259849   0.10044   0.03644   0.31075  -0.05053
  40   36949.6    270.6   0.062844212   0.55993   0.30068   0.54444   0.41606
  41   37505.2    266.6   0.003265539   0.02866  -0.07009   0.08617  -0.12778
  42   37641.3    265.7   0.003900018   0.03411   0.04445  -0.14281   0.10835
  43   37742.0    265.0   0.006641035   0.05793   0.16647  -0.11812  -0.12753
  44   37774.2    264.7   0.001216915   0.01061  -0.08060  -0.01467   0.06240
  45   38148.5    262.1   0.201899277   1.74234  -0.75658   1.06808  -0.17066
  46   38462.7    260.0   0.000090442   0.00077   0.02579   0.00228  -0.01020
  47   38666.7    258.6   0.271680894   2.31312  -0.78024  -0.58372   1.16774
  48   39114.9    255.7   0.073253287   0.61654  -0.50762   0.59887  -0.01472
  49   39720.9    251.8   0.000262682   0.00218  -0.01262   0.04073  -0.01894
  50   39860.9    250.9   0.035883729   0.29636   0.12561  -0.36967  -0.37938

FINAL SINGLE POINT ENERGY     -6856.432166010710

DIPOLE MOMENT
-------------
                                X             Y             Z
Electronic contribution:     92.05429    -106.21946     -17.55726
Nuclear contribution   :    -90.45968     107.86842      19.51413
                        -----------------------------------------
Total Dipole Moment    :      1.59461       1.64896       1.95687
                        -----------------------------------------
Magnitude (a.u.)       :      3.01515
Magnitude (Debye)      :      7.66391

Rotational constants in cm-1:     0.000885     0.000616     0.000469
Rotational constants in MHz :    26.527503    18.478685    14.069029

                             ****ORCA TERMINATED NORMALLY****
TOTAL RUN TIME: 0 days 0 hours 6 minutes 56 seconds 809 msec
