                         Program Version 4.2.0 -  RELEASE  -
|  1> # ORCA input file
|  2> # SCF done       -168.654692331442          0.000424516057
|  3> ! CAM-B3LYP def2-SVP def2/J RIJCOSX Grid4 TightSCF
|  4> %maxcore 5000
|  5> %tddft
|  6>     Mode sTDDFT
|  7>     Ethresh 5.0
|  8>     maxcore 5000
|  9> end
| 10>
| 11> %pal
| 12>   nprocs 6
| 13>   end
| 14> * xyz 0 1
| 15>    C       -0.96436        -2.64377        -3.91932
| 16>    C       -1.29336        -3.93237        -3.58011
| 17>    C       -0.34352        -4.93975        -3.31431
| 18>    N        0.38404        -5.80105        -3.09636
| 19>    C       -2.60177        -4.41794        -3.37065
| 20>    N       -3.62291        -4.88425        -3.12968
| 21>    C        0.38841        -2.10371        -3.95353
| 22>    C        0.30675        -0.70105        -4.12121
| 23>    C        1.41660         0.10678        -4.16593
| 24>    C        2.67120        -0.50051        -4.04828
| 25>    C        2.74416        -1.90481        -3.89161
| 26>    C        1.62057        -2.72097        -3.84011
| 27>    S        4.38988        -2.44937        -3.77223
| 28>    C        4.94918        -0.80515        -3.92909
| 29>    C        3.95684         0.10604        -4.06534
| 30>   Br        6.78983        -0.44457        -3.89737
| 31>    C       -1.10884        -0.29296        -4.23503
| 32>    O       -1.49623         0.85112        -4.34640
| 33>    C       -1.88827        -1.55863        -4.20092
| 34>    C       -3.21024        -1.74112        -4.50785
| 35>    C       -4.19714        -0.76765        -4.76628
| 36>    O       -3.98965         0.56053        -4.59016
| 37>    C       -5.50991        -0.93743        -5.19061
| 38>    C       -6.50412        -1.92989        -5.61799
| 39>    O       -6.43280        -3.12271        -5.74248
| 40>    N       -7.63335        -1.15803        -5.89442
| 41>    C       -7.47901         0.21531        -5.71614
| 42>    O       -8.33239         1.04107        -5.91049
| 43>    C       -6.09064         0.34762        -5.26306
| 44>    C       -5.11078         1.25279        -4.88547
| 45>    C       -5.09645         2.67065        -4.78246
| 46>    C       -3.95020         3.32758        -4.49025
| 47>    C       -3.85538         4.74379        -4.34632
| 48>    C       -2.72930         5.43244        -4.08267
| 49>    C       -1.36302         4.84377        -3.96395
| 50>    C       -2.78195         6.93615        -3.93142
| 51>    N       -2.25215         7.60503        -5.09793
| 52>    C       -0.94809         7.91324        -5.25064
| 53>    C       -0.38519         8.32588        -6.41917
| 54>    C        0.96764         8.68868        -6.53319
| 55>    C        1.55670         9.17451        -7.67112
| 56>    C        2.91947         9.51394        -7.85046
| 57>    C        3.22327         9.99165        -9.08781
| 58>    C        2.11406        10.07147        -9.96186
| 59>    S        0.67001         9.49379        -9.16077
| 60>    C        2.09398        10.54571       -11.25657
| 61>    C        3.18363        10.99197       -12.03955
| 62>    C        2.83600        11.41239       -13.28278
| 63>    C        1.44493        11.32234       -13.57420
| 64>    S        0.60431        10.68556       -12.16923
| 65>    C        0.86804        11.75405       -14.73223
| 66>    C       -0.49320        11.71008       -15.14412
| 67>    S       -1.05767        13.07862       -16.08550
| 68>    C       -2.63508        12.41853       -16.18069
| 69>    C       -2.72834        11.20698       -15.56795
| 70>    C       -1.50491        10.78076       -14.98407
| 71>    C       -1.36986         9.42035       -14.38649
| 72>    S        0.14336         8.55446       -14.99237
| 73>    C       -2.59573         8.55209       -14.65590
| 74>    C       -3.87148         9.34552       -14.40302
| 75>    C       -4.01206        10.42199       -15.48396
| 76>    O       -5.13003        11.25569       -15.27914
| 77>    H        1.32166         1.17438        -4.28911
| 78>    H        1.72901        -3.78589        -3.72211
| 79>    H        4.12316         1.16222        -4.17400
| 80>    H       -3.58748        -2.75208        -4.59215
| 81>    H       -8.50001        -1.56788        -6.21259
| 82>    H       -6.03341         3.17662        -4.96135
| 83>    H       -3.06123         2.73042        -4.34923
| 84>    H       -4.78744         5.28958        -4.43659
| 85>    H       -0.68718         5.33628        -4.66519
| 86>    H       -1.35125         3.77829        -4.16486
| 87>    H       -0.97423         5.01290        -2.95895
| 88>    H       -2.18812         7.24612        -3.06690
| 89>    H       -3.81315         7.26854        -3.78428
| 90>    H       -2.80433         7.53159        -5.94065
| 91>    H       -0.35469         7.87715        -4.34647
| 92>    H       -0.99653         8.38964        -7.30952
| 93>    H        1.59950         8.57660        -5.66126
| 94>    H        3.63345         9.39052        -7.05484
| 95>    H        4.20723        10.29784        -9.39422
| 96>    H        4.19124        10.98180       -11.66423
| 97>    H        3.52963        11.78029       -14.01790
| 98>    H        1.52748        12.28690       -15.40746
| 99>    H       -3.41607        12.95498       -16.68151
|100>    H       -1.19599         9.48614       -13.30822
|101>    H       -0.17667         8.61181       -16.28365
|102>    H       -2.55429         7.66985       -14.01613
|103>    H       -2.58726         8.21375       -15.69552
|104>    H       -3.82447         9.82192       -13.41951
|105>    H       -4.74389         8.69175       -14.42533
|106>    H       -4.20932         9.94118       -16.45147
|107>    H       -5.00790        11.74063       -14.45442
|108> *
|109>
|110>                          ****END OF INPUT****

CARTESIAN COORDINATES (ANGSTROEM)
---------------------------------
  C     -0.964360   -2.643770   -3.919320
  C     -1.293360   -3.932370   -3.580110
  C     -0.343520   -4.939750   -3.314310
  N      0.384040   -5.801050   -3.096360
  C     -2.601770   -4.417940   -3.370650
  N     -3.622910   -4.884250   -3.129680
  C      0.388410   -2.103710   -3.953530
  C      0.306750   -0.701050   -4.121210
  C      1.416600    0.106780   -4.165930
  C      2.671200   -0.500510   -4.048280
  C      2.744160   -1.904810   -3.891610
  C      1.620570   -2.720970   -3.840110
  S      4.389880   -2.449370   -3.772230
  C      4.949180   -0.805150   -3.929090
  C      3.956840    0.106040   -4.065340
  Br     6.789830   -0.444570   -3.897370
  C     -1.108840   -0.292960   -4.235030
  O     -1.496230    0.851120   -4.346400
  C     -1.888270   -1.558630   -4.200920
  C     -3.210240   -1.741120   -4.507850
  C     -4.197140   -0.767650   -4.766280
  O     -3.989650    0.560530   -4.590160
  C     -5.509910   -0.937430   -5.190610
  C     -6.504120   -1.929890   -5.617990
  O     -6.432800   -3.122710   -5.742480
  N     -7.633350   -1.158030   -5.894420
  C     -7.479010    0.215310   -5.716140
  O     -8.332390    1.041070   -5.910490
  C     -6.090640    0.347620   -5.263060
  C     -5.110780    1.252790   -4.885470
  C     -5.096450    2.670650   -4.782460
  C     -3.950200    3.327580   -4.490250
  C     -3.855380    4.743790   -4.346320
  C     -2.729300    5.432440   -4.082670
  C     -1.363020    4.843770   -3.963950
  C     -2.781950    6.936150   -3.931420
  N     -2.252150    7.605030   -5.097930
  C     -0.948090    7.913240   -5.250640
  C     -0.385190    8.325880   -6.419170
  C      0.967640    8.688680   -6.533190
  C      1.556700    9.174510   -7.671120
  C      2.919470    9.513940   -7.850460
  C      3.223270    9.991650   -9.087810
  C      2.114060   10.071470   -9.961860
  S      0.670010    9.493790   -9.160770
  C      2.093980   10.545710  -11.256570
  C      3.183630   10.991970  -12.039550
  C      2.836000   11.412390  -13.282780
  C      1.444930   11.322340  -13.574200
  S      0.604310   10.685560  -12.169230
  C      0.868040   11.754050  -14.732230
  C     -0.493200   11.710080  -15.144120
  S     -1.057670   13.078620  -16.085500
  C     -2.635080   12.418530  -16.180690
  C     -2.728340   11.206980  -15.567950
  C     -1.504910   10.780760  -14.984070
  C     -1.369860    9.420350  -14.386490
  S      0.143360    8.554460  -14.992370
  C     -2.595730    8.552090  -14.655900
  C     -3.871480    9.345520  -14.403020
  C     -4.012060   10.421990  -15.483960
  O     -5.130030   11.255690  -15.279140
  H      1.321660    1.174380   -4.289110
  H      1.729010   -3.785890   -3.722110
  H      4.123160    1.162220   -4.174000
  H     -3.587480   -2.752080   -4.592150
  H     -8.500010   -1.567880   -6.212590
  H     -6.033410    3.176620   -4.961350
  H     -3.061230    2.730420   -4.349230
  H     -4.787440    5.289580   -4.436590
  H     -0.687180    5.336280   -4.665190
  H     -1.351250    3.778290   -4.164860
  H     -0.974230    5.012900   -2.958950
  H     -2.188120    7.246120   -3.066900
  H     -3.813150    7.268540   -3.784280
  H     -2.804330    7.531590   -5.940650
  H     -0.354690    7.877150   -4.346470
  H     -0.996530    8.389640   -7.309520
  H      1.599500    8.576600   -5.661260
  H      3.633450    9.390520   -7.054840
  H      4.207230   10.297840   -9.394220
  H      4.191240   10.981800  -11.664230
  H      3.529630   11.780290  -14.017900
  H      1.527480   12.286900  -15.407460
  H     -3.416070   12.954980  -16.681510
  H     -1.195990    9.486140  -13.308220
  H     -0.176670    8.611810  -16.283650
  H     -2.554290    7.669850  -14.016130
  H     -2.587260    8.213750  -15.695520
  H     -3.824470    9.821920  -13.419510
  H     -4.743890    8.691750  -14.425330
  H     -4.209320    9.941180  -16.451470
  H     -5.007900   11.740630  -14.454420

 Total Charge           Charge          ....    0
 Multiplicity           Mult            ....    1
 Number of Electrons    NEL             ....  496
 Basis Dimension        Dim             .... 1061

ORBITAL ENERGIES
----------------

  NO   OCC          E(Eh)            E(eV)
   0   2.0000    -482.891074    -13140.1341
   1   2.0000     -88.981577     -2421.3118
   2   2.0000     -88.935380     -2420.0547
   3   2.0000     -88.929517     -2419.8952
   4   2.0000     -88.928954     -2419.8799
   5   2.0000     -88.892828     -2418.8968
   6   2.0000     -62.568773     -1702.5829
   7   2.0000     -56.402734     -1534.7964
   8   2.0000     -56.400003     -1534.7221
   9   2.0000     -56.399971     -1534.7212
  10   2.0000     -19.316211      -525.6208
  11   2.0000     -19.226939      -523.1916
  12   2.0000     -19.221047      -523.0313
  13   2.0000     -19.217098      -522.9238
  14   2.0000     -19.198299      -522.4123
  15   2.0000     -14.461080      -393.5060
  16   2.0000     -14.446954      -393.1216
  17   2.0000     -14.421157      -392.4196
  18   2.0000     -14.419554      -392.3760
  19   2.0000     -10.409745      -283.2636
  20   2.0000     -10.407021      -283.1894
  21   2.0000     -10.380161      -282.4585
  22   2.0000     -10.377390      -282.3831
  23   2.0000     -10.372095      -282.2391
  24   2.0000     -10.365176      -282.0508
  25   2.0000     -10.350252      -281.6447
  26   2.0000     -10.348565      -281.5988
  27   2.0000     -10.333671      -281.1935
  28   2.0000     -10.332434      -281.1598
  29   2.0000     -10.327313      -281.0205
  30   2.0000     -10.323500      -280.9167
  31   2.0000     -10.323062      -280.9048
  32   2.0000     -10.321088      -280.8511
  33   2.0000     -10.315468      -280.6982
  34   2.0000     -10.315214      -280.6912
  35   2.0000     -10.314754      -280.6787
  36   2.0000     -10.312655      -280.6216
  37   2.0000     -10.312335      -280.6129
  38   2.0000     -10.308705      -280.5141
  39   2.0000     -10.308314      -280.5035
  40   2.0000     -10.304328      -280.3950
  41   2.0000     -10.302968      -280.3580
  42   2.0000     -10.300707      -280.2965
  43   2.0000     -10.299986      -280.2769
  44   2.0000     -10.299815      -280.2722
  45   2.0000     -10.297503      -280.2093
  46   2.0000     -10.296899      -280.1929
  47   2.0000     -10.290794      -280.0267
  48   2.0000     -10.289356      -279.9876
  49   2.0000     -10.288136      -279.9544
  50   2.0000     -10.287381      -279.9339
  51   2.0000     -10.287161      -279.9279
  52   2.0000     -10.283934      -279.8401
  53   2.0000     -10.280536      -279.7476
  54   2.0000     -10.276457      -279.6366
  55   2.0000     -10.274118      -279.5730
  56   2.0000     -10.272925      -279.5405
  57   2.0000     -10.271099      -279.4908
  58   2.0000     -10.270899      -279.4854
  59   2.0000     -10.265339      -279.3341
  60   2.0000     -10.263615      -279.2872
  61   2.0000     -10.263075      -279.2725
  62   2.0000     -10.260967      -279.2151
  63   2.0000     -10.258626      -279.1514
  64   2.0000     -10.256356      -279.0896
  65   2.0000     -10.254128      -279.0290
  66   2.0000      -8.798188      -239.4109
  67   2.0000      -8.077636      -219.8036
  68   2.0000      -8.031599      -218.5509
  69   2.0000      -8.025825      -218.3938
  70   2.0000      -8.024871      -218.3678
  71   2.0000      -7.987990      -217.3643
  72   2.0000      -6.634530      -180.5347
  73   2.0000      -6.619908      -180.1369
  74   2.0000      -6.619687      -180.1308
  75   2.0000      -6.047327      -164.5561
  76   2.0000      -6.043045      -164.4396
  77   2.0000      -6.038823      -164.3247
  78   2.0000      -6.000830      -163.2909
  79   2.0000      -5.996657      -163.1773
  80   2.0000      -5.995553      -163.1473
  81   2.0000      -5.994636      -163.1224
  82   2.0000      -5.993805      -163.0997
  83   2.0000      -5.991693      -163.0423
  84   2.0000      -5.990680      -163.0147
  85   2.0000      -5.986626      -162.9044
  86   2.0000      -5.985714      -162.8796
  87   2.0000      -5.958631      -162.1426
  88   2.0000      -5.954506      -162.0304
  89   2.0000      -5.947457      -161.8385
  90   2.0000      -2.750379       -74.8416
  91   2.0000      -2.746320       -74.7312
  92   2.0000      -2.746118       -74.7257
  93   2.0000      -2.734509       -74.4098
  94   2.0000      -2.734505       -74.4097
  95   2.0000      -1.240319       -33.7508
  96   2.0000      -1.163471       -31.6597
  97   2.0000      -1.142774       -31.0965
  98   2.0000      -1.141429       -31.0599
  99   2.0000      -1.089715       -29.6526
 100   2.0000      -1.050659       -28.5899
 101   2.0000      -1.048916       -28.5425
 102   2.0000      -1.029942       -28.0262
 103   2.0000      -1.019073       -27.7304
 104   2.0000      -0.998558       -27.1721
 105   2.0000      -0.997008       -27.1300
 106   2.0000      -0.979144       -26.6439
 107   2.0000      -0.969698       -26.3868
 108   2.0000      -0.954893       -25.9840
 109   2.0000      -0.954564       -25.9750
 110   2.0000      -0.943773       -25.6814
 111   2.0000      -0.934946       -25.4412
 112   2.0000      -0.926776       -25.2189
 113   2.0000      -0.914751       -24.8916
 114   2.0000      -0.907738       -24.7008
 115   2.0000      -0.903088       -24.5743
 116   2.0000      -0.892643       -24.2900
 117   2.0000      -0.890808       -24.2401
 118   2.0000      -0.876683       -23.8557
 119   2.0000      -0.869065       -23.6485
 120   2.0000      -0.848588       -23.0913
 121   2.0000      -0.841248       -22.8915
 122   2.0000      -0.835628       -22.7386
 123   2.0000      -0.830233       -22.5918
 124   2.0000      -0.826999       -22.5038
 125   2.0000      -0.811499       -22.0820
 126   2.0000      -0.805455       -21.9175
 127   2.0000      -0.804233       -21.8843
 128   2.0000      -0.800047       -21.7704
 129   2.0000      -0.785608       -21.3775
 130   2.0000      -0.780392       -21.2355
 131   2.0000      -0.772941       -21.0328
 132   2.0000      -0.767199       -20.8766
 133   2.0000      -0.762585       -20.7510
 134   2.0000      -0.757149       -20.6031
 135   2.0000      -0.741132       -20.1672
 136   2.0000      -0.722588       -19.6626
 137   2.0000      -0.715358       -19.4659
 138   2.0000      -0.713748       -19.4221
 139   2.0000      -0.701270       -19.0825
 140   2.0000      -0.695791       -18.9334
 141   2.0000      -0.691054       -18.8045
 142   2.0000      -0.688600       -18.7378
 143   2.0000      -0.681208       -18.5366
 144   2.0000      -0.665285       -18.1033
 145   2.0000      -0.664672       -18.0867
 146   2.0000      -0.663101       -18.0439
 147   2.0000      -0.639314       -17.3966
 148   2.0000      -0.638486       -17.3741
 149   2.0000      -0.635428       -17.2909
 150   2.0000      -0.630520       -17.1573
 151   2.0000      -0.626784       -17.0557
 152   2.0000      -0.615967       -16.7613
 153   2.0000      -0.614083       -16.7100
 154   2.0000      -0.610573       -16.6145
 155   2.0000      -0.605584       -16.4788
 156   2.0000      -0.601914       -16.3789
 157   2.0000      -0.597471       -16.2580
 158   2.0000      -0.596238       -16.2245
 159   2.0000      -0.588940       -16.0259
 160   2.0000      -0.587035       -15.9740
 161   2.0000      -0.586087       -15.9482
 162   2.0000      -0.582804       -15.8589
 163   2.0000      -0.575076       -15.6486
 164   2.0000      -0.569411       -15.4945
 165   2.0000      -0.566102       -15.4044
 166   2.0000      -0.561828       -15.2881
 167   2.0000      -0.554662       -15.0931
 168   2.0000      -0.553550       -15.0629
 169   2.0000      -0.547410       -14.8958
 170   2.0000      -0.545099       -14.8329
 171   2.0000      -0.538767       -14.6606
 172   2.0000      -0.536461       -14.5979
 173   2.0000      -0.534673       -14.5492
 174   2.0000      -0.533869       -14.5273
 175   2.0000      -0.528497       -14.3811
 176   2.0000      -0.524592       -14.2749
 177   2.0000      -0.521755       -14.1977
 178   2.0000      -0.518853       -14.1187
 179   2.0000      -0.514567       -14.0021
 180   2.0000      -0.512503       -13.9459
 181   2.0000      -0.510101       -13.8805
 182   2.0000      -0.507230       -13.8024
 183   2.0000      -0.503201       -13.6928
 184   2.0000      -0.500409       -13.6168
 185   2.0000      -0.500223       -13.6117
 186   2.0000      -0.497624       -13.5410
 187   2.0000      -0.494375       -13.4526
 188   2.0000      -0.493095       -13.4178
 189   2.0000      -0.489937       -13.3319
 190   2.0000      -0.485153       -13.2017
 191   2.0000      -0.482477       -13.1289
 192   2.0000      -0.482200       -13.1213
 193   2.0000      -0.477415       -12.9911
 194   2.0000      -0.474585       -12.9141
 195   2.0000      -0.473315       -12.8795
 196   2.0000      -0.471264       -12.8237
 197   2.0000      -0.468230       -12.7412
 198   2.0000      -0.466016       -12.6809
 199   2.0000      -0.464597       -12.6423
 200   2.0000      -0.461181       -12.5494
 201   2.0000      -0.457889       -12.4598
 202   2.0000      -0.454569       -12.3695
 203   2.0000      -0.452889       -12.3237
 204   2.0000      -0.452690       -12.3183
 205   2.0000      -0.449045       -12.2191
 206   2.0000      -0.447626       -12.1805
 207   2.0000      -0.444730       -12.1017
 208   2.0000      -0.444411       -12.0930
 209   2.0000      -0.441721       -12.0198
 210   2.0000      -0.440503       -11.9867
 211   2.0000      -0.430984       -11.7277
 212   2.0000      -0.428569       -11.6620
 213   2.0000      -0.427680       -11.6378
 214   2.0000      -0.423742       -11.5306
 215   2.0000      -0.422026       -11.4839
 216   2.0000      -0.419854       -11.4248
 217   2.0000      -0.414948       -11.2913
 218   2.0000      -0.413155       -11.2425
 219   2.0000      -0.411904       -11.2085
 220   2.0000      -0.402446       -10.9511
 221   2.0000      -0.399275       -10.8648
 222   2.0000      -0.398981       -10.8568
 223   2.0000      -0.393206       -10.6997
 224   2.0000      -0.388374       -10.5682
 225   2.0000      -0.385065       -10.4781
 226   2.0000      -0.381464       -10.3802
 227   2.0000      -0.380378       -10.3506
 228   2.0000      -0.379574       -10.3287
 229   2.0000      -0.377875       -10.2825
 230   2.0000      -0.368433       -10.0256
 231   2.0000      -0.364509        -9.9188
 232   2.0000      -0.363744        -9.8980
 233   2.0000      -0.353076        -9.6077
 234   2.0000      -0.346607        -9.4317
 235   2.0000      -0.343648        -9.3511
 236   2.0000      -0.336121        -9.1463
 237   2.0000      -0.330301        -8.9879
 238   2.0000      -0.324580        -8.8323
 239   2.0000      -0.322286        -8.7698
 240   2.0000      -0.309057        -8.4099
 241   2.0000      -0.300196        -8.1688
 242   2.0000      -0.295761        -8.0481
 243   2.0000      -0.294575        -8.0158
 244   2.0000      -0.277317        -7.5462
 245   2.0000      -0.275418        -7.4945
 246   2.0000      -0.254881        -6.9357
 247   2.0000      -0.192800        -5.2463
 248   0.0000      -0.107405        -2.9226
 249   0.0000      -0.069941        -1.9032
 250   0.0000      -0.059631        -1.6226
 251   0.0000      -0.050532        -1.3751
 252   0.0000      -0.026001        -0.7075

MULLIKEN ATOMIC CHARGES
-----------------------
   0 C :    0.294205
   1 C :   -0.333887
   2 C :   -0.182709
   3 N :    0.152903
   4 C :   -0.206788
   5 N :    0.177049
   6 C :    0.021373
   7 C :   -0.016697
   8 C :   -0.073587
   9 C :    0.118058
  10 C :   -0.090908
  11 C :   -0.017925
  12 S :    0.190659
  13 C :   -0.121909
  14 C :    0.037146
  15 Br:    0.027772
  16 C :    0.144966
  17 O :   -0.130876
  18 C :   -0.067240
  19 C :   -0.045754
  20 C :    0.075336
  21 O :   -0.174162
  22 C :   -0.010119
  23 C :    0.171797
  24 O :   -0.124237
  25 N :   -0.169535
  26 C :    0.168060
  27 O :   -0.137707
  28 C :   -0.043679
  29 C :    0.103209
  30 C :   -0.047175
  31 C :    0.035941
  32 C :    0.007662
  33 C :   -0.166175
  34 C :    0.085706
  35 C :    0.201706
  36 N :   -0.145265
  37 C :    0.046004
  38 C :   -0.026103
  39 C :   -0.014693
  40 C :   -0.035805
  41 C :    0.041968
  42 C :    0.009901
  43 C :   -0.038592
  44 S :    0.050223
  45 C :   -0.061558
  46 C :    0.027894
  47 C :    0.027175
  48 C :    0.012055
  49 S :    0.060702
  50 C :   -0.027308
  51 C :   -0.164431
  52 S :    0.105093
  53 C :   -0.120116
  54 C :   -0.098454
  55 C :    0.080295
  56 C :   -0.185839
  57 S :   -0.030277
  58 C :    0.099026
  59 C :    0.048828
  60 C :    0.238819
  61 O :   -0.302039
  62 H :   -0.013200
  63 H :   -0.003187
  64 H :   -0.002796
  65 H :    0.038183
  66 H :    0.142507
  67 H :    0.008122
  68 H :    0.032441
  69 H :   -0.022194
  70 H :    0.038106
  71 H :    0.028738
  72 H :    0.023470
  73 H :    0.016748
  74 H :    0.014796
  75 H :    0.121788
  76 H :    0.000945
  77 H :   -0.013228
  78 H :   -0.026914
  79 H :   -0.022176
  80 H :   -0.021413
  81 H :   -0.020802
  82 H :   -0.019717
  83 H :   -0.012838
  84 H :    0.012534
  85 H :    0.059595
  86 H :    0.039593
  87 H :    0.002934
  88 H :   -0.003458
  89 H :   -0.013276
  90 H :    0.005060
  91 H :    0.000678
  92 H :    0.158981
Sum of atomic charges:   -0.0000000

LOEWDIN ATOMIC CHARGES
----------------------
   0 C :    0.071774
   1 C :   -0.131885
   2 C :   -0.017084
   3 N :   -0.048034
   4 C :   -0.030094
   5 N :   -0.034840
   6 C :   -0.020749
   7 C :   -0.051945
   8 C :    0.020515
   9 C :   -0.031904
  10 C :   -0.142435
  11 C :   -0.008677
  12 S :    0.435998
  13 C :   -0.269807
  14 C :   -0.071282
  15 Br:    0.139814
  16 C :    0.084581
  17 O :   -0.142989
  18 C :   -0.079910
  19 C :    0.049920
  20 C :    0.038329
  21 O :    0.045386
  22 C :   -0.054592
  23 C :    0.085252
  24 O :   -0.139489
  25 N :   -0.005893
  26 C :    0.085161
  27 O :   -0.155461
  28 C :   -0.107282
  29 C :    0.095450
  30 C :   -0.056338
  31 C :    0.030851
  32 C :   -0.056747
  33 C :   -0.009141
  34 C :   -0.051191
  35 C :    0.046865
  36 N :    0.002493
  37 C :    0.037228
  38 C :   -0.121073
  39 C :   -0.040585
  40 C :   -0.175126
  41 C :   -0.030059
  42 C :   -0.050118
  43 C :   -0.170269
  44 S :    0.348465
  45 C :   -0.195603
  46 C :   -0.034799
  47 C :   -0.040041
  48 C :   -0.139132
  49 S :    0.378510
  50 C :   -0.096632
  51 C :   -0.173309
  52 S :    0.425098
  53 C :   -0.190128
  54 C :   -0.091217
  55 C :   -0.090780
  56 C :   -0.128477
  57 S :    0.169624
  58 C :   -0.037858
  59 C :   -0.043921
  60 C :    0.064267
  61 O :   -0.126213
  62 H :    0.039010
  63 H :    0.041769
  64 H :    0.038801
  65 H :    0.060720
  66 H :    0.097014
  67 H :    0.042941
  68 H :    0.037010
  69 H :    0.026282
  70 H :    0.040912
  71 H :    0.035157
  72 H :    0.038143
  73 H :    0.031752
  74 H :    0.029177
  75 H :    0.081489
  76 H :    0.025656
  77 H :    0.018995
  78 H :    0.028312
  79 H :    0.029580
  80 H :    0.028426
  81 H :    0.029226
  82 H :    0.030210
  83 H :    0.029754
  84 H :    0.021791
  85 H :    0.010133
  86 H :   -0.041244
  87 H :    0.026438
  88 H :    0.018557
  89 H :    0.017695
  90 H :    0.025440
  91 H :    0.026359
  92 H :    0.072026

  Mayer bond orders larger than 0.100000
B(  0-C ,  1-C ) :   1.6450 B(  0-C ,  6-C ) :   1.0087 B(  0-C , 18-C ) :   1.0551
B(  1-C ,  2-C ) :   1.1425 B(  1-C ,  4-C ) :   1.1362 B(  2-C ,  3-N ) :   2.9708
B(  4-C ,  5-N ) :   2.9978 B(  6-C ,  7-C ) :   1.2728 B(  6-C , 11-C ) :   1.4089
B(  7-C ,  8-C ) :   1.4214 B(  7-C , 16-C ) :   0.9480 B(  8-C ,  9-C ) :   1.2519
B(  8-C , 62-H ) :   1.0166 B(  9-C , 10-C ) :   1.3023 B(  9-C , 14-C ) :   1.1643
B( 10-C , 11-C ) :   1.3320 B( 10-C , 12-S ) :   1.0874 B( 11-C , 63-H ) :   0.9803
B( 12-S , 13-C ) :   1.0868 B( 13-C , 14-C ) :   1.6177 B( 13-C , 15-Br) :   1.0210
B( 14-C , 64-H ) :   1.0000 B( 16-C , 17-O ) :   2.2075 B( 16-C , 18-C ) :   0.9285
B( 18-C , 19-C ) :   1.5538 B( 19-C , 20-C ) :   1.2200 B( 19-C , 65-H ) :   0.9349
B( 20-C , 21-O ) :   1.1498 B( 20-C , 22-C ) :   1.3636 B( 21-O , 29-C ) :   1.1988
B( 22-C , 23-C ) :   0.8653 B( 22-C , 28-C ) :   1.3224 B( 23-C , 24-O ) :   2.2695
B( 23-C , 25-N ) :   1.0823 B( 25-N , 26-C ) :   1.0743 B( 25-N , 66-H ) :   0.9133
B( 26-C , 27-O ) :   2.2780 B( 26-C , 28-C ) :   0.8759 B( 28-C , 29-C ) :   1.3349
B( 29-C , 30-C ) :   1.1592 B( 30-C , 31-C ) :   1.6460 B( 30-C , 67-H ) :   0.9750
B( 31-C , 32-C ) :   1.0913 B( 31-C , 68-H ) :   0.9715 B( 32-C , 33-C ) :   1.7412
B( 32-C , 69-H ) :   0.9784 B( 33-C , 34-C ) :   1.0826 B( 33-C , 35-C ) :   1.0314
B( 34-C , 70-H ) :   0.9380 B( 34-C , 71-H ) :   0.9470 B( 34-C , 72-H ) :   0.9420
B( 35-C , 36-N ) :   1.0185 B( 35-C , 73-H ) :   0.9305 B( 35-C , 74-H ) :   0.9431
B( 36-N , 37-C ) :   1.2192 B( 36-N , 75-H ) :   0.9369 B( 37-C , 38-C ) :   1.5959
B( 37-C , 76-H ) :   0.9645 B( 38-C , 39-C ) :   1.1680 B( 38-C , 77-H ) :   0.9642
B( 39-C , 40-C ) :   1.5944 B( 39-C , 78-H ) :   0.9770 B( 40-C , 41-C ) :   1.1414
B( 40-C , 44-S ) :   1.0085 B( 41-C , 42-C ) :   1.5955 B( 41-C , 79-H ) :   0.9982
B( 42-C , 43-C ) :   1.1824 B( 42-C , 80-H ) :   0.9938 B( 43-C , 44-S ) :   1.0466
B( 43-C , 45-C ) :   1.5263 B( 45-C , 46-C ) :   1.1771 B( 45-C , 49-S ) :   1.0280
B( 46-C , 47-C ) :   1.6078 B( 46-C , 81-H ) :   0.9930 B( 47-C , 48-C ) :   1.1264
B( 47-C , 82-H ) :   0.9973 B( 48-C , 49-S ) :   1.0308 B( 48-C , 50-C ) :   1.6673
B( 50-C , 51-C ) :   1.0949 B( 50-C , 83-H ) :   0.9436 B( 51-C , 52-S ) :   1.1340
B( 51-C , 55-C ) :   1.5111 B( 52-S , 53-C ) :   1.1522 B( 53-C , 54-C ) :   1.5844
B( 53-C , 84-H ) :   0.9681 B( 54-C , 55-C ) :   1.2921 B( 54-C , 60-C ) :   0.9508
B( 55-C , 56-C ) :   0.9711 B( 56-C , 57-S ) :   1.0464 B( 56-C , 58-C ) :   1.0315
B( 56-C , 85-H ) :   0.8776 B( 57-S , 86-H ) :   0.9535 B( 58-C , 59-C ) :   1.0516
B( 58-C , 87-H ) :   0.9262 B( 58-C , 88-H ) :   0.9373 B( 59-C , 60-C ) :   1.0742
B( 59-C , 89-H ) :   0.9294 B( 59-C , 90-H ) :   0.9292 B( 60-C , 61-O ) :   1.0536
B( 60-C , 91-H ) :   0.8936 B( 61-O , 92-H ) :   0.9792

-----------------------------------------------------------------------------
         ABSORPTION SPECTRUM VIA TRANSITION ELECTRIC DIPOLE MOMENTS
-----------------------------------------------------------------------------
State   Energy  Wavelength   fosc         T2         TX        TY        TZ
        (cm-1)    (nm)                  (au**2)     (au)      (au)      (au)
-----------------------------------------------------------------------------
   0    9977.4   1002.3   0.064241389   2.11970   0.19310   1.18745  -0.81997
   1   16852.4    593.4   1.237608497  24.17669   0.24963   2.42429  -4.27050
   2   18173.7    550.2   0.146774929   2.65878  -0.10331   0.45366  -1.56279
   3   19224.8    520.2   0.148335699   2.54015  -0.35142  -0.10352  -1.55111
   4   20315.6    492.2   0.546793914   8.86074  -2.04855   2.15731  -0.10095
   5   23962.5    417.3   0.060982267   0.83781   0.79492  -0.36300   0.27230
   6   25614.3    390.4   0.121532937   1.56202   1.17272   0.40803  -0.14234
   7   26585.0    376.2   0.009874782   0.12228   0.24338   0.09017   0.23434
   8   27102.3    369.0   0.009921137   0.12051  -0.29841  -0.17568  -0.02448
   9   27639.5    361.8   0.057554543   0.68553  -0.74638  -0.32308   0.15515
  10   27720.2    360.7   0.003395620   0.04033   0.10211   0.13457  -0.10859
  11   28765.3    347.6   0.010331074   0.11824  -0.04098  -0.33380   0.07165
  12   29454.1    339.5   0.000054364   0.00061   0.01632   0.00489   0.01781
  13   30188.9    331.2   0.772546517   8.42467  -2.53964  -1.37887  -0.27127
  14   31041.2    322.2   0.005385880   0.05712  -0.04861   0.23400  -0.00005
  15   31485.0    317.6   0.442583262   4.62772  -2.03655   0.64352   0.25701
  16   31871.5    313.8   0.009762689   0.10084   0.30263   0.08759  -0.03982
  17   32236.2    310.2   0.001391776   0.01421   0.05849   0.03917  -0.09622
  18   32307.3    309.5   0.196855594   2.00596   1.08577   0.83559  -0.35896
  19   32333.0    309.3   0.016196504   0.16491   0.04058  -0.39779   0.07089
  20   32415.4    308.5   0.424529041   4.31153   1.59856   1.32283   0.07891
  21   32916.4    303.8   0.084792932   0.84805  -0.71676  -0.56606  -0.11782
  22   33184.1    301.3   0.118896007   1.17954  -0.85642  -0.62685  -0.23051
  23   33963.2    294.4   0.551522113   5.34601   1.99916   0.94277   0.67863
  24   34127.9    293.0   0.011273718   0.10875   0.28551   0.13216   0.09884
  25   34474.5    290.1   0.000786724   0.00751  -0.02006  -0.06116   0.05805
  26   34656.8    288.5   0.001468171   0.01395   0.10019   0.06154   0.01101
  27   35539.9    281.4   0.008300943   0.07689   0.23161   0.08653  -0.12554
  28   36212.9    276.1   0.004056576   0.03688   0.08214   0.17066   0.03171
  29   36693.9    272.5   0.277249793   2.48744   1.14391  -1.02438   0.35992
  30   37326.2    267.9   0.013468352   0.11879   0.16636   0.09430  -0.28674
  31   37750.9    264.9   0.000134469   0.00117  -0.02031  -0.02073  -0.01818
  32   38037.4    262.9   0.002555116   0.02211  -0.08766   0.09442  -0.07427
  33   38329.9    260.9   0.034659969   0.29769   0.03610   0.54400  -0.02119
  34   38441.1    260.1   0.002386353   0.02044   0.05895  -0.12138   0.04720
  35   38550.3    259.4   0.010510395   0.08976  -0.24852   0.05842  -0.15679
  36   38942.0    256.8   0.020282786   0.17147  -0.34457   0.21213   0.08797
  37   39226.4    254.9   0.072226035   0.60616   0.00493  -0.75727   0.18077
  38   39441.2    253.5   0.104290189   0.87050  -0.57115  -0.73291   0.08449
  39   39505.1    253.1   0.008297782   0.06915  -0.11737  -0.20210  -0.12055
  40   39591.0    252.6   0.002322035   0.01931   0.09583   0.06475  -0.07702
  41   40278.3    248.3   0.164689278   1.34608  -1.05201  -0.43315  -0.22745
  42   40323.6    248.0   0.011545884   0.09426  -0.26030  -0.07553  -0.14423

FINAL SINGLE POINT ENERGY     -6966.001637805582

DIPOLE MOMENT
-------------
                                X             Y             Z
Electronic contribution:     93.14340    -115.96694      67.18223
Nuclear contribution   :    -91.82013     117.92287     -65.38800
                        -----------------------------------------
Total Dipole Moment    :      1.32327       1.95593       1.79423
                        -----------------------------------------
Magnitude (a.u.)       :      2.96580
Magnitude (Debye)      :      7.53846

Rotational constants in cm-1:     0.000964     0.000321     0.000268
Rotational constants in MHz :    28.903463     9.622943     8.038627

                             ****ORCA TERMINATED NORMALLY****
TOTAL RUN TIME: 0 days 0 hours 7 minutes 33 seconds 173 msec
