                         Program Version 4.2.0 -  RELEASE  -
|  1> # ORCA input file
|  2> # SCF done       -197.513411300898          0.000429522123
|  3> ! CAM-B3LYP def2-SVP def2/J RIJCOSX Grid4 TightSCF
|  4> %maxcore 5000
|  5> %tddft
|  6>     Mode sTDDFT
|  7>     Ethresh 5.0
|  8>     maxcore 5000
|  9> end
| 10>
| 11> %pal
| 12>   nprocs 6
| 13>   end
| 14> * xyz 0 1
| 15>    C       -8.25738        -1.17389        -6.48743
| 16>    C       -7.77009        -1.36126        -7.75706
| 17>    C       -8.14710        -2.42552        -8.60206
| 18>    N       -8.41506        -3.26311        -9.34017
| 19>    C       -6.83678        -0.52388        -8.40126
| 20>    N       -6.08031         0.11008        -8.98915
| 21>    C       -9.20219        -2.04649        -5.80193
| 22>    C       -9.46223        -1.52142        -4.51154
| 23>    C      -10.31131        -2.13022        -3.62044
| 24>    C      -10.92727        -3.32219        -4.01619
| 25>    C      -10.66475        -3.83839        -5.30816
| 26>    C       -9.81187        -3.21850        -6.21232
| 27>    S      -11.53282        -5.31597        -5.59446
| 28>    C      -12.22472        -5.22347        -3.99651
| 29>    C      -11.82820        -4.14233        -3.28373
| 30>   Br      -13.40494        -6.56182        -3.42171
| 31>    C       -8.70387        -0.27103        -4.32678
| 32>    O       -8.82938         0.52775        -3.42812
| 33>    C       -7.88788        -0.11725        -5.56659
| 34>    C       -7.04172         0.92188        -5.80707
| 35>    C       -6.50949         1.77222        -4.80690
| 36>    O       -6.03753         2.99746        -5.17855
| 37>    C       -6.23119         1.59323        -3.46458
| 38>    C       -6.22978         0.61333        -2.36606
| 39>    O       -6.55249        -0.54429        -2.33414
| 40>    N       -5.66745         1.31701        -1.30583
| 41>    C       -5.24388         2.61276        -1.60171
| 42>    O       -4.71402         3.36305        -0.82541
| 43>    C       -5.59098         2.77032        -3.01636
| 44>    C       -5.49094         3.61984        -4.10516
| 45>    C       -4.89928         4.90626        -4.23011
| 46>    C       -4.82461         5.55189        -5.41389
| 47>    C       -4.23232         6.85306        -5.59083
| 48>    C       -4.35452         7.80732        -4.61739
| 49>    S       -3.69351         9.33180        -5.02359
| 50>    C       -3.16755         8.69746        -6.55473
| 51>    C       -3.51293         7.35026        -6.74388
| 52>    C       -3.05779         6.68188        -7.90725
| 53>    C       -3.35525         5.21530        -8.08098
| 54>    C       -4.67603         4.98964        -8.82287
| 55>    C       -2.34120         7.37410        -8.87360
| 56>    C       -1.80392         6.67447       -10.09396
| 57>    C       -0.41889         6.08246        -9.82277
| 58>    C       -2.04799         8.74680        -8.69807
| 59>    C       -1.32730         9.66262        -9.54610
| 60>    C       -1.21234        10.89295        -8.98875
| 61>    S       -1.95915        11.05095        -7.44154
| 62>    C       -2.45542         9.39145        -7.51855
| 63>    C       -0.74560         9.39393       -10.86737
| 64>    C        0.54873         9.07296       -11.03652
| 65>    C        1.15357         8.80677       -12.29388
| 66>    C        2.39355         8.25752       -12.43105
| 67>    C        3.07773         7.95604       -13.64094
| 68>    C        4.28663         7.36280       -13.46748
| 69>    C        4.63543         7.14690       -12.11113
| 70>    S        3.37723         7.75392       -11.05736
| 71>    C        5.76335         6.53118       -11.61451
| 72>    C        6.84945         5.98480       -12.33887
| 73>    C        7.80107         5.41403       -11.55485
| 74>    C        7.52720         5.47247       -10.16221
| 75>    S        6.00444         6.30045        -9.89192
| 76>    C        8.32137         4.95576        -9.17482
| 77>    C        8.09115         4.97230        -7.78950
| 78>    S        6.69127         5.68925        -7.04070
| 79>    C        7.23755         5.26094        -5.44032
| 80>    C        8.44306         4.58947        -5.50335
| 81>    C        8.92284         4.42810        -6.81577
| 82>    S       10.46414         3.67756        -7.22724
| 83>    C       10.14396         1.93468        -6.75801
| 84>    C       10.35096         1.63744        -5.28146
| 85>    C        9.24668         2.17928        -4.38652
| 86>    S        9.32443         3.98638        -4.09535
| 87>    C        6.39625         5.63859        -4.33911
| 88>    C        6.72932         5.66705        -3.04965
| 89>    H      -10.48547        -1.70460        -2.64502
| 90>    H       -9.64738        -3.65052        -7.18526
| 91>    H      -12.15601        -3.93031        -2.28248
| 92>    H       -6.71200         1.14226        -6.81349
| 93>    H       -5.54364         0.90520        -0.39175
| 94>    H       -4.46905         5.30786        -3.32546
| 95>    H       -5.26903         5.07625        -6.27413
| 96>    H       -4.86930         7.69824        -3.68267
| 97>    H       -3.39028         4.74134        -7.09917
| 98>    H       -2.55434         4.72911        -8.63474
| 99>    H       -5.49268         5.53003        -8.34881
|100>    H       -4.92040         3.92992        -8.84507
|101>    H       -4.60400         5.34568        -9.84806
|102>    H       -1.72017         7.39318       -10.90884
|103>    H       -2.48083         5.88742       -10.42188
|104>    H        0.27664         6.86347        -9.52930
|105>    H       -0.03531         5.60074       -10.71924
|106>    H       -0.45541         5.34753        -9.02227
|107>    H       -0.72085        11.74589        -9.41521
|108>    H       -1.39840         9.51479       -11.72435
|109>    H        1.18354         8.96557       -10.16543
|110>    H        0.59017         9.02529       -13.19115
|111>    H        2.64485         8.19178       -14.59720
|112>    H        4.93707         7.06661       -14.27091
|113>    H        6.89543         6.02860       -13.41220
|114>    H        8.69742         4.94740       -11.92354
|115>    H        9.24079         4.47339        -9.48234
|116>    H        9.13208         1.68952        -7.08185
|117>    H       10.85794         1.37018        -7.35728
|118>    H       11.31071         2.04765        -4.96029
|119>    H       10.38810         0.55075        -5.15628
|120>    H        9.33540         1.75460        -3.38684
|121>    H        8.25617         1.95406        -4.78216
|122>    H        5.40230         5.94656        -4.64081
|123>    H        7.71197         5.40726        -2.70061
|124>    H        6.00944         5.95981        -2.30522
|125> *
|126>
|127>                          ****END OF INPUT****

CARTESIAN COORDINATES (ANGSTROEM)
---------------------------------
  C     -8.257380   -1.173890   -6.487430
  C     -7.770090   -1.361260   -7.757060
  C     -8.147100   -2.425520   -8.602060
  N     -8.415060   -3.263110   -9.340170
  C     -6.836780   -0.523880   -8.401260
  N     -6.080310    0.110080   -8.989150
  C     -9.202190   -2.046490   -5.801930
  C     -9.462230   -1.521420   -4.511540
  C    -10.311310   -2.130220   -3.620440
  C    -10.927270   -3.322190   -4.016190
  C    -10.664750   -3.838390   -5.308160
  C     -9.811870   -3.218500   -6.212320
  S    -11.532820   -5.315970   -5.594460
  C    -12.224720   -5.223470   -3.996510
  C    -11.828200   -4.142330   -3.283730
  Br   -13.404940   -6.561820   -3.421710
  C     -8.703870   -0.271030   -4.326780
  O     -8.829380    0.527750   -3.428120
  C     -7.887880   -0.117250   -5.566590
  C     -7.041720    0.921880   -5.807070
  C     -6.509490    1.772220   -4.806900
  O     -6.037530    2.997460   -5.178550
  C     -6.231190    1.593230   -3.464580
  C     -6.229780    0.613330   -2.366060
  O     -6.552490   -0.544290   -2.334140
  N     -5.667450    1.317010   -1.305830
  C     -5.243880    2.612760   -1.601710
  O     -4.714020    3.363050   -0.825410
  C     -5.590980    2.770320   -3.016360
  C     -5.490940    3.619840   -4.105160
  C     -4.899280    4.906260   -4.230110
  C     -4.824610    5.551890   -5.413890
  C     -4.232320    6.853060   -5.590830
  C     -4.354520    7.807320   -4.617390
  S     -3.693510    9.331800   -5.023590
  C     -3.167550    8.697460   -6.554730
  C     -3.512930    7.350260   -6.743880
  C     -3.057790    6.681880   -7.907250
  C     -3.355250    5.215300   -8.080980
  C     -4.676030    4.989640   -8.822870
  C     -2.341200    7.374100   -8.873600
  C     -1.803920    6.674470  -10.093960
  C     -0.418890    6.082460   -9.822770
  C     -2.047990    8.746800   -8.698070
  C     -1.327300    9.662620   -9.546100
  C     -1.212340   10.892950   -8.988750
  S     -1.959150   11.050950   -7.441540
  C     -2.455420    9.391450   -7.518550
  C     -0.745600    9.393930  -10.867370
  C      0.548730    9.072960  -11.036520
  C      1.153570    8.806770  -12.293880
  C      2.393550    8.257520  -12.431050
  C      3.077730    7.956040  -13.640940
  C      4.286630    7.362800  -13.467480
  C      4.635430    7.146900  -12.111130
  S      3.377230    7.753920  -11.057360
  C      5.763350    6.531180  -11.614510
  C      6.849450    5.984800  -12.338870
  C      7.801070    5.414030  -11.554850
  C      7.527200    5.472470  -10.162210
  S      6.004440    6.300450   -9.891920
  C      8.321370    4.955760   -9.174820
  C      8.091150    4.972300   -7.789500
  S      6.691270    5.689250   -7.040700
  C      7.237550    5.260940   -5.440320
  C      8.443060    4.589470   -5.503350
  C      8.922840    4.428100   -6.815770
  S     10.464140    3.677560   -7.227240
  C     10.143960    1.934680   -6.758010
  C     10.350960    1.637440   -5.281460
  C      9.246680    2.179280   -4.386520
  S      9.324430    3.986380   -4.095350
  C      6.396250    5.638590   -4.339110
  C      6.729320    5.667050   -3.049650
  H    -10.485470   -1.704600   -2.645020
  H     -9.647380   -3.650520   -7.185260
  H    -12.156010   -3.930310   -2.282480
  H     -6.712000    1.142260   -6.813490
  H     -5.543640    0.905200   -0.391750
  H     -4.469050    5.307860   -3.325460
  H     -5.269030    5.076250   -6.274130
  H     -4.869300    7.698240   -3.682670
  H     -3.390280    4.741340   -7.099170
  H     -2.554340    4.729110   -8.634740
  H     -5.492680    5.530030   -8.348810
  H     -4.920400    3.929920   -8.845070
  H     -4.604000    5.345680   -9.848060
  H     -1.720170    7.393180  -10.908840
  H     -2.480830    5.887420  -10.421880
  H      0.276640    6.863470   -9.529300
  H     -0.035310    5.600740  -10.719240
  H     -0.455410    5.347530   -9.022270
  H     -0.720850   11.745890   -9.415210
  H     -1.398400    9.514790  -11.724350
  H      1.183540    8.965570  -10.165430
  H      0.590170    9.025290  -13.191150
  H      2.644850    8.191780  -14.597200
  H      4.937070    7.066610  -14.270910
  H      6.895430    6.028600  -13.412200
  H      8.697420    4.947400  -11.923540
  H      9.240790    4.473390   -9.482340
  H      9.132080    1.689520   -7.081850
  H     10.857940    1.370180   -7.357280
  H     11.310710    2.047650   -4.960290
  H     10.388100    0.550750   -5.156280
  H      9.335400    1.754600   -3.386840
  H      8.256170    1.954060   -4.782160
  H      5.402300    5.946560   -4.640810
  H      7.711970    5.407260   -2.700610
  H      6.009440    5.959810   -2.305220

 Total Charge           Charge          ....    0
 Multiplicity           Mult            ....    1
 Number of Electrons    NEL             ....  600
 Basis Dimension        Dim             .... 1266

ORBITAL ENERGIES
----------------

  NO   OCC          E(Eh)            E(eV)
   0   2.0000    -482.885916    -13139.9938
   1   2.0000     -88.975736     -2421.1529
   2   2.0000     -88.956385     -2420.6263
   3   2.0000     -88.950838     -2420.4754
   4   2.0000     -88.946986     -2420.3705
   5   2.0000     -88.941241     -2420.2142
   6   2.0000     -88.939687     -2420.1719
   7   2.0000     -88.914544     -2419.4877
   8   2.0000     -88.913024     -2419.4464
   9   2.0000     -62.563649     -1702.4434
  10   2.0000     -56.397602     -1534.6568
  11   2.0000     -56.394879     -1534.5827
  12   2.0000     -56.394851     -1534.5819
  13   2.0000     -19.316393      -525.6258
  14   2.0000     -19.216134      -522.8976
  15   2.0000     -19.213912      -522.8371
  16   2.0000     -19.211633      -522.7751
  17   2.0000     -14.455553      -393.3556
  18   2.0000     -14.420031      -392.3890
  19   2.0000     -14.417338      -392.3157
  20   2.0000     -10.402163      -283.0573
  21   2.0000     -10.401163      -283.0300
  22   2.0000     -10.370813      -282.2042
  23   2.0000     -10.368270      -282.1350
  24   2.0000     -10.363181      -281.9965
  25   2.0000     -10.359452      -281.8950
  26   2.0000     -10.345512      -281.5157
  27   2.0000     -10.344625      -281.4916
  28   2.0000     -10.326211      -280.9905
  29   2.0000     -10.324559      -280.9455
  30   2.0000     -10.322597      -280.8921
  31   2.0000     -10.320088      -280.8239
  32   2.0000     -10.309437      -280.5340
  33   2.0000     -10.308238      -280.5014
  34   2.0000     -10.306894      -280.4648
  35   2.0000     -10.306682      -280.4591
  36   2.0000     -10.306337      -280.4497
  37   2.0000     -10.306265      -280.4477
  38   2.0000     -10.304425      -280.3977
  39   2.0000     -10.303444      -280.3710
  40   2.0000     -10.302595      -280.3478
  41   2.0000     -10.301643      -280.3220
  42   2.0000     -10.300697      -280.2962
  43   2.0000     -10.300484      -280.2904
  44   2.0000     -10.300135      -280.2809
  45   2.0000     -10.298629      -280.2399
  46   2.0000     -10.297677      -280.2140
  47   2.0000     -10.296908      -280.1931
  48   2.0000     -10.295842      -280.1641
  49   2.0000     -10.292884      -280.0836
  50   2.0000     -10.292539      -280.0742
  51   2.0000     -10.291646      -280.0499
  52   2.0000     -10.291459      -280.0448
  53   2.0000     -10.290976      -280.0317
  54   2.0000     -10.289509      -279.9918
  55   2.0000     -10.289251      -279.9848
  56   2.0000     -10.288977      -279.9773
  57   2.0000     -10.287792      -279.9451
  58   2.0000     -10.286691      -279.9151
  59   2.0000     -10.282910      -279.8122
  60   2.0000     -10.282672      -279.8057
  61   2.0000     -10.281116      -279.7634
  62   2.0000     -10.280021      -279.7336
  63   2.0000     -10.277413      -279.6626
  64   2.0000     -10.277258      -279.6584
  65   2.0000     -10.276385      -279.6347
  66   2.0000     -10.275153      -279.6011
  67   2.0000     -10.274780      -279.5910
  68   2.0000     -10.273664      -279.5606
  69   2.0000     -10.272077      -279.5174
  70   2.0000     -10.271989      -279.5150
  71   2.0000     -10.271228      -279.4943
  72   2.0000     -10.270410      -279.4721
  73   2.0000     -10.262938      -279.2687
  74   2.0000     -10.257381      -279.1175
  75   2.0000     -10.255612      -279.0694
  76   2.0000     -10.255280      -279.0603
  77   2.0000     -10.247510      -278.8489
  78   2.0000      -8.793090      -239.2721
  79   2.0000      -8.071808      -219.6451
  80   2.0000      -8.052449      -219.1183
  81   2.0000      -8.046241      -218.9493
  82   2.0000      -8.043238      -218.8676
  83   2.0000      -8.037284      -218.7056
  84   2.0000      -8.036031      -218.6715
  85   2.0000      -8.009343      -217.9453
  86   2.0000      -8.008072      -217.9107
  87   2.0000      -6.629418      -180.3956
  88   2.0000      -6.614827      -179.9986
  89   2.0000      -6.614598      -179.9923
  90   2.0000      -6.041484      -164.3971
  91   2.0000      -6.037225      -164.2812
  92   2.0000      -6.033013      -164.1666
  93   2.0000      -6.021907      -163.8644
  94   2.0000      -6.017626      -163.7479
  95   2.0000      -6.015405      -163.6875
  96   2.0000      -6.014305      -163.6575
  97   2.0000      -6.012737      -163.6149
  98   2.0000      -6.011513      -163.5816
  99   2.0000      -6.008584      -163.5019
 100   2.0000      -6.008314      -163.4945
 101   2.0000      -6.007071      -163.4607
 102   2.0000      -6.005797      -163.4260
 103   2.0000      -6.004819      -163.3994
 104   2.0000      -6.002990      -163.3497
 105   2.0000      -6.001849      -163.3186
 106   2.0000      -5.998138      -163.2176
 107   2.0000      -5.996774      -163.1805
 108   2.0000      -5.979867      -162.7205
 109   2.0000      -5.978704      -162.6888
 110   2.0000      -5.976030      -162.6160
 111   2.0000      -5.974694      -162.5797
 112   2.0000      -5.968731      -162.4174
 113   2.0000      -5.967322      -162.3791
 114   2.0000      -2.745237       -74.7017
 115   2.0000      -2.741189       -74.5915
 116   2.0000      -2.741072       -74.5884
 117   2.0000      -2.729446       -74.2720
 118   2.0000      -2.729420       -74.2713
 119   2.0000      -1.232873       -33.5482
 120   2.0000      -1.157659       -31.5015
 121   2.0000      -1.138221       -30.9726
 122   2.0000      -1.130791       -30.7704
 123   2.0000      -1.044586       -28.4246
 124   2.0000      -1.024407       -27.8755
 125   2.0000      -1.015350       -27.6291
 126   2.0000      -1.001867       -27.2622
 127   2.0000      -0.997043       -27.1309
 128   2.0000      -0.993201       -27.0264
 129   2.0000      -0.991581       -26.9823
 130   2.0000      -0.986188       -26.8355
 131   2.0000      -0.972236       -26.4559
 132   2.0000      -0.967801       -26.3352
 133   2.0000      -0.947817       -25.7914
 134   2.0000      -0.932775       -25.3821
 135   2.0000      -0.928043       -25.2533
 136   2.0000      -0.923484       -25.1293
 137   2.0000      -0.916858       -24.9490
 138   2.0000      -0.909895       -24.7595
 139   2.0000      -0.908613       -24.7246
 140   2.0000      -0.903762       -24.5926
 141   2.0000      -0.897106       -24.4115
 142   2.0000      -0.886523       -24.1235
 143   2.0000      -0.879497       -23.9323
 144   2.0000      -0.874137       -23.7865
 145   2.0000      -0.862472       -23.4690
 146   2.0000      -0.860422       -23.4133
 147   2.0000      -0.856196       -23.2983
 148   2.0000      -0.851139       -23.1607
 149   2.0000      -0.845945       -23.0193
 150   2.0000      -0.841623       -22.9017
 151   2.0000      -0.839473       -22.8432
 152   2.0000      -0.830024       -22.5861
 153   2.0000      -0.820304       -22.3216
 154   2.0000      -0.818695       -22.2778
 155   2.0000      -0.814225       -22.1562
 156   2.0000      -0.800243       -21.7757
 157   2.0000      -0.789612       -21.4864
 158   2.0000      -0.780506       -21.2386
 159   2.0000      -0.777679       -21.1617
 160   2.0000      -0.768250       -20.9051
 161   2.0000      -0.763279       -20.7699
 162   2.0000      -0.760120       -20.6839
 163   2.0000      -0.757049       -20.6004
 164   2.0000      -0.754421       -20.5288
 165   2.0000      -0.730118       -19.8675
 166   2.0000      -0.724667       -19.7192
 167   2.0000      -0.719809       -19.5870
 168   2.0000      -0.718427       -19.5494
 169   2.0000      -0.704128       -19.1603
 170   2.0000      -0.702621       -19.1193
 171   2.0000      -0.694324       -18.8935
 172   2.0000      -0.691896       -18.8274
 173   2.0000      -0.689242       -18.7552
 174   2.0000      -0.684648       -18.6302
 175   2.0000      -0.674154       -18.3447
 176   2.0000      -0.665927       -18.1208
 177   2.0000      -0.658985       -17.9319
 178   2.0000      -0.658088       -17.9075
 179   2.0000      -0.657659       -17.8958
 180   2.0000      -0.644038       -17.5252
 181   2.0000      -0.636294       -17.3144
 182   2.0000      -0.630550       -17.1581
 183   2.0000      -0.629370       -17.1260
 184   2.0000      -0.622799       -16.9472
 185   2.0000      -0.621770       -16.9192
 186   2.0000      -0.617982       -16.8161
 187   2.0000      -0.613296       -16.6886
 188   2.0000      -0.611187       -16.6312
 189   2.0000      -0.606524       -16.5044
 190   2.0000      -0.597703       -16.2643
 191   2.0000      -0.594958       -16.1896
 192   2.0000      -0.593142       -16.1402
 193   2.0000      -0.589194       -16.0328
 194   2.0000      -0.587519       -15.9872
 195   2.0000      -0.582021       -15.8376
 196   2.0000      -0.579120       -15.7587
 197   2.0000      -0.574908       -15.6441
 198   2.0000      -0.566932       -15.4270
 199   2.0000      -0.564584       -15.3631
 200   2.0000      -0.553746       -15.0682
 201   2.0000      -0.551713       -15.0129
 202   2.0000      -0.548011       -14.9121
 203   2.0000      -0.544326       -14.8119
 204   2.0000      -0.542490       -14.7619
 205   2.0000      -0.540126       -14.6976
 206   2.0000      -0.539302       -14.6752
 207   2.0000      -0.537767       -14.6334
 208   2.0000      -0.535691       -14.5769
 209   2.0000      -0.531597       -14.4655
 210   2.0000      -0.527271       -14.3478
 211   2.0000      -0.526477       -14.3262
 212   2.0000      -0.525101       -14.2887
 213   2.0000      -0.523080       -14.2337
 214   2.0000      -0.518373       -14.1056
 215   2.0000      -0.516418       -14.0524
 216   2.0000      -0.512343       -13.9415
 217   2.0000      -0.510868       -13.9014
 218   2.0000      -0.510310       -13.8862
 219   2.0000      -0.509042       -13.8517
 220   2.0000      -0.507717       -13.8157
 221   2.0000      -0.507131       -13.7997
 222   2.0000      -0.502192       -13.6653
 223   2.0000      -0.498007       -13.5515
 224   2.0000      -0.496129       -13.5004
 225   2.0000      -0.494688       -13.4611
 226   2.0000      -0.494305       -13.4507
 227   2.0000      -0.489135       -13.3100
 228   2.0000      -0.486912       -13.2496
 229   2.0000      -0.485877       -13.2214
 230   2.0000      -0.482313       -13.1244
 231   2.0000      -0.481584       -13.1046
 232   2.0000      -0.480733       -13.0814
 233   2.0000      -0.479780       -13.0555
 234   2.0000      -0.477774       -13.0009
 235   2.0000      -0.473761       -12.8917
 236   2.0000      -0.471350       -12.8261
 237   2.0000      -0.470118       -12.7926
 238   2.0000      -0.463386       -12.6094
 239   2.0000      -0.460295       -12.5253
 240   2.0000      -0.459582       -12.5059
 241   2.0000      -0.458807       -12.4848
 242   2.0000      -0.456119       -12.4116
 243   2.0000      -0.453696       -12.3457
 244   2.0000      -0.452150       -12.3036
 245   2.0000      -0.450390       -12.2557
 246   2.0000      -0.449820       -12.2402
 247   2.0000      -0.446717       -12.1558
 248   2.0000      -0.446377       -12.1465
 249   2.0000      -0.441356       -12.0099
 250   2.0000      -0.440599       -11.9893
 251   2.0000      -0.440190       -11.9782
 252   2.0000      -0.437914       -11.9162
 253   2.0000      -0.434843       -11.8327
 254   2.0000      -0.431430       -11.7398
 255   2.0000      -0.430320       -11.7096
 256   2.0000      -0.430219       -11.7069
 257   2.0000      -0.427689       -11.6380
 258   2.0000      -0.426171       -11.5967
 259   2.0000      -0.424487       -11.5509
 260   2.0000      -0.424166       -11.5422
 261   2.0000      -0.419938       -11.4271
 262   2.0000      -0.418605       -11.3908
 263   2.0000      -0.417145       -11.3511
 264   2.0000      -0.411460       -11.1964
 265   2.0000      -0.407983       -11.1018
 266   2.0000      -0.406950       -11.0737
 267   2.0000      -0.401754       -10.9323
 268   2.0000      -0.399817       -10.8796
 269   2.0000      -0.389482       -10.5983
 270   2.0000      -0.388088       -10.5604
 271   2.0000      -0.386449       -10.5158
 272   2.0000      -0.385179       -10.4813
 273   2.0000      -0.384411       -10.4603
 274   2.0000      -0.377980       -10.2854
 275   2.0000      -0.376343       -10.2408
 276   2.0000      -0.375403       -10.2152
 277   2.0000      -0.375198       -10.2096
 278   2.0000      -0.372779       -10.1438
 279   2.0000      -0.372149       -10.1267
 280   2.0000      -0.361238        -9.8298
 281   2.0000      -0.354357        -9.6425
 282   2.0000      -0.349365        -9.5067
 283   2.0000      -0.346814        -9.4373
 284   2.0000      -0.339519        -9.2388
 285   2.0000      -0.334597        -9.1049
 286   2.0000      -0.334108        -9.0915
 287   2.0000      -0.324535        -8.8311
 288   2.0000      -0.322975        -8.7886
 289   2.0000      -0.318008        -8.6534
 290   2.0000      -0.315252        -8.5784
 291   2.0000      -0.309141        -8.4122
 292   2.0000      -0.295108        -8.0303
 293   2.0000      -0.289819        -7.8864
 294   2.0000      -0.287185        -7.8147
 295   2.0000      -0.284024        -7.7287
 296   2.0000      -0.267299        -7.2736
 297   2.0000      -0.263675        -7.1750
 298   2.0000      -0.257645        -7.0109
 299   2.0000      -0.207655        -5.6506
 300   0.0000      -0.101388        -2.7589
 301   0.0000      -0.072035        -1.9602
 302   0.0000      -0.062720        -1.7067
 303   0.0000      -0.046924        -1.2769
 304   0.0000      -0.016727        -0.4552

MULLIKEN ATOMIC CHARGES
-----------------------
   0 C :    0.309727
   1 C :   -0.348416
   2 C :   -0.185869
   3 N :    0.151256
   4 C :   -0.188163
   5 N :    0.153382
   6 C :    0.019256
   7 C :   -0.015035
   8 C :   -0.059388
   9 C :    0.118080
  10 C :   -0.090598
  11 C :   -0.020762
  12 S :    0.187176
  13 C :   -0.123003
  14 C :    0.039943
  15 Br:    0.025114
  16 C :    0.157996
  17 O :   -0.143296
  18 C :   -0.076999
  19 C :   -0.033983
  20 C :    0.119145
  21 O :   -0.203453
  22 C :   -0.017374
  23 C :    0.181642
  24 O :   -0.141499
  25 N :   -0.162726
  26 C :    0.166270
  27 O :   -0.139313
  28 C :   -0.048071
  29 C :    0.096698
  30 C :   -0.045266
  31 C :    0.002310
  32 C :    0.063346
  33 C :   -0.107510
  34 S :    0.142767
  35 C :   -0.158454
  36 C :    0.130879
  37 C :   -0.128830
  38 C :    0.013650
  39 C :    0.036983
  40 C :   -0.124134
  41 C :    0.055732
  42 C :    0.058823
  43 C :    0.121487
  44 C :    0.026468
  45 C :   -0.096879
  46 S :    0.115958
  47 C :   -0.138011
  48 C :   -0.082476
  49 C :    0.034863
  50 C :   -0.026799
  51 C :   -0.009826
  52 C :    0.036485
  53 C :    0.031484
  54 C :   -0.053117
  55 S :    0.069150
  56 C :   -0.039292
  57 C :    0.027985
  58 C :    0.032378
  59 C :   -0.025914
  60 S :    0.064106
  61 C :   -0.020318
  62 C :   -0.083206
  63 S :    0.112159
  64 C :   -0.105612
  65 C :   -0.046378
  66 C :   -0.056791
  67 S :   -0.008770
  68 C :   -0.089185
  69 C :    0.099433
  70 C :   -0.090684
  71 S :   -0.003019
  72 C :    0.018588
  73 C :   -0.013020
  74 H :   -0.009099
  75 H :   -0.006990
  76 H :   -0.002944
  77 H :    0.030329
  78 H :    0.139363
  79 H :    0.011792
  80 H :    0.017392
  81 H :    0.026552
  82 H :    0.008342
  83 H :    0.005222
  84 H :    0.012909
  85 H :    0.029947
  86 H :    0.009321
  87 H :   -0.004463
  88 H :   -0.003730
  89 H :   -0.002753
  90 H :    0.017089
  91 H :    0.007833
  92 H :    0.015702
  93 H :    0.021505
  94 H :    0.017948
  95 H :   -0.017570
  96 H :   -0.013605
  97 H :   -0.013515
  98 H :   -0.014707
  99 H :   -0.011356
 100 H :   -0.009913
 101 H :    0.045896
 102 H :    0.048939
 103 H :    0.020532
 104 H :    0.013976
 105 H :    0.050084
 106 H :    0.050134
 107 H :   -0.010672
 108 H :    0.029301
 109 H :    0.021928
Sum of atomic charges:   -0.0000000

LOEWDIN ATOMIC CHARGES
----------------------
   0 C :    0.075439
   1 C :   -0.137592
   2 C :   -0.018258
   3 N :   -0.050970
   4 C :   -0.018913
   5 N :   -0.052400
   6 C :   -0.020299
   7 C :   -0.044694
   8 C :    0.026681
   9 C :   -0.030469
  10 C :   -0.142963
  11 C :   -0.009438
  12 S :    0.432836
  13 C :   -0.270620
  14 C :   -0.069392
  15 Br:    0.138210
  16 C :    0.087771
  17 O :   -0.130406
  18 C :   -0.071659
  19 C :    0.046096
  20 C :    0.044312
  21 O :    0.020136
  22 C :   -0.049894
  23 C :    0.089190
  24 O :   -0.148106
  25 N :   -0.001698
  26 C :    0.085947
  27 O :   -0.157225
  28 C :   -0.106037
  29 C :    0.090309
  30 C :   -0.055319
  31 C :    0.030557
  32 C :   -0.069858
  33 C :   -0.156685
  34 S :    0.428898
  35 C :   -0.178061
  36 C :   -0.041451
  37 C :   -0.022646
  38 C :   -0.032120
  39 C :   -0.051131
  40 C :   -0.014804
  41 C :   -0.030313
  42 C :   -0.045517
  43 C :   -0.040955
  44 C :   -0.063620
  45 C :   -0.165968
  46 S :    0.403156
  47 C :   -0.179549
  48 C :   -0.022200
  49 C :   -0.025954
  50 C :   -0.061926
  51 C :   -0.139081
  52 C :   -0.034829
  53 C :   -0.028388
  54 C :   -0.179793
  55 S :    0.362878
  56 C :   -0.177163
  57 C :   -0.038171
  58 C :   -0.028842
  59 C :   -0.153152
  60 S :    0.362577
  61 C :   -0.073297
  62 C :   -0.184831
  63 S :    0.436448
  64 C :   -0.177833
  65 C :   -0.216482
  66 C :   -0.218333
  67 S :    0.279371
  68 C :   -0.129384
  69 C :   -0.065852
  70 C :   -0.128378
  71 S :    0.292269
  72 C :   -0.054788
  73 C :   -0.034286
  74 H :    0.042324
  75 H :    0.040946
  76 H :    0.039277
  77 H :    0.051268
  78 H :    0.095688
  79 H :    0.043984
  80 H :    0.036396
  81 H :    0.025828
  82 H :    0.027372
  83 H :    0.029146
  84 H :    0.019793
  85 H :    0.029440
  86 H :    0.025251
  87 H :    0.029561
  88 H :    0.024232
  89 H :    0.020900
  90 H :    0.026471
  91 H :    0.021501
  92 H :    0.024180
  93 H :    0.029354
  94 H :    0.024376
  95 H :    0.031321
  96 H :    0.033018
  97 H :    0.031957
  98 H :    0.031163
  99 H :    0.034062
 100 H :    0.030614
 101 H :    0.023683
 102 H :    0.027061
 103 H :    0.024842
 104 H :    0.027805
 105 H :    0.028013
 106 H :    0.025455
 107 H :    0.027310
 108 H :    0.010559
 109 H :    0.024758

  Mayer bond orders larger than 0.100000
B(  0-C ,  1-C ) :   1.6290 B(  0-C ,  6-C ) :   1.0096 B(  0-C , 18-C ) :   1.0812
B(  1-C ,  2-C ) :   1.1438 B(  1-C ,  4-C ) :   1.1440 B(  2-C ,  3-N ) :   2.9680
B(  4-C ,  5-N ) :   2.9751 B(  6-C ,  7-C ) :   1.2716 B(  6-C , 11-C ) :   1.4019
B(  7-C ,  8-C ) :   1.4282 B(  7-C , 16-C ) :   0.9368 B(  8-C ,  9-C ) :   1.2467
B(  8-C , 74-H ) :   1.0157 B(  9-C , 10-C ) :   1.3010 B(  9-C , 14-C ) :   1.1631
B( 10-C , 11-C ) :   1.3376 B( 10-C , 12-S ) :   1.0863 B( 11-C , 75-H ) :   0.9792
B( 12-S , 13-C ) :   1.0861 B( 13-C , 14-C ) :   1.6179 B( 13-C , 15-Br) :   1.0191
B( 14-C , 76-H ) :   1.0003 B( 16-C , 17-O ) :   2.2302 B( 16-C , 18-C ) :   0.9272
B( 18-C , 19-C ) :   1.6028 B( 19-C , 20-C ) :   1.1661 B( 19-C , 77-H ) :   0.9323
B( 20-C , 21-O ) :   1.1137 B( 20-C , 22-C ) :   1.4382 B( 21-O , 29-C ) :   1.1750
B( 22-C , 23-C ) :   0.8654 B( 22-C , 28-C ) :   1.3117 B( 23-C , 24-O ) :   2.2369
B( 23-C , 25-N ) :   1.0908 B( 25-N , 26-C ) :   1.0728 B( 25-N , 78-H ) :   0.9148
B( 26-C , 27-O ) :   2.2727 B( 26-C , 28-C ) :   0.8812 B( 28-C , 29-C ) :   1.3535
B( 29-C , 30-C ) :   1.1699 B( 30-C , 31-C ) :   1.6792 B( 30-C , 79-H ) :   0.9655
B( 31-C , 32-C ) :   1.0160 B( 31-C , 80-H ) :   0.9619 B( 32-C , 33-C ) :   1.5880
B( 32-C , 36-C ) :   1.1443 B( 33-C , 34-S ) :   1.1390 B( 33-C , 81-H ) :   0.9628
B( 34-S , 35-C ) :   1.0716 B( 35-C , 36-C ) :   1.3741 B( 35-C , 47-C ) :   1.3801
B( 36-C , 37-C ) :   1.2609 B( 37-C , 38-C ) :   1.0597 B( 37-C , 40-C ) :   1.5063
B( 38-C , 39-C ) :   1.1130 B( 38-C , 82-H ) :   0.9205 B( 38-C , 83-H ) :   0.9085
B( 39-C , 84-H ) :   0.9568 B( 39-C , 85-H ) :   0.9664 B( 39-C , 86-H ) :   0.9562
B( 40-C , 41-C ) :   1.0768 B( 40-C , 43-C ) :   1.2666 B( 41-C , 42-C ) :   1.1185
B( 41-C , 87-H ) :   0.8963 B( 41-C , 88-H ) :   0.9060 B( 42-C , 89-H ) :   0.9531
B( 42-C , 90-H ) :   0.9663 B( 42-C , 91-H ) :   0.9597 B( 43-C , 44-C ) :   1.1834
B( 43-C , 47-C ) :   1.3611 B( 44-C , 45-C ) :   1.6607 B( 44-C , 48-C ) :   0.9519
B( 45-C , 46-S ) :   1.0997 B( 45-C , 92-H ) :   0.9663 B( 46-S , 47-C ) :   1.0822
B( 48-C , 49-C ) :   1.8005 B( 48-C , 93-H ) :   0.9525 B( 49-C , 50-C ) :   1.1050
B( 49-C , 94-H ) :   0.9571 B( 50-C , 51-C ) :   1.6226 B( 50-C , 95-H ) :   0.9824
B( 51-C , 52-C ) :   1.1207 B( 51-C , 55-S ) :   1.0223 B( 52-C , 53-C ) :   1.6125
B( 52-C , 96-H ) :   0.9987 B( 53-C , 54-C ) :   1.1737 B( 53-C , 97-H ) :   0.9930
B( 54-C , 55-S ) :   1.0401 B( 54-C , 56-C ) :   1.5360 B( 56-C , 57-C ) :   1.1731
B( 56-C , 60-S ) :   1.0381 B( 57-C , 58-C ) :   1.6017 B( 57-C , 98-H ) :   0.9931
B( 58-C , 59-C ) :   1.1370 B( 58-C , 99-H ) :   1.0001 B( 59-C , 60-S ) :   1.0280
B( 59-C , 61-C ) :   1.5753 B( 61-C , 62-C ) :   1.1900 B( 61-C ,100-H ) :   0.9542
B( 62-C , 63-S ) :   1.1025 B( 62-C , 66-C ) :   1.5014 B( 63-S , 64-C ) :   1.1220
B( 64-C , 65-C ) :   1.5412 B( 64-C , 72-C ) :   1.1053 B( 65-C , 66-C ) :   1.2766
B( 65-C , 71-S ) :   1.0441 B( 66-C , 67-S ) :   1.0490 B( 67-S , 68-C ) :   1.0150
B( 68-C , 69-C ) :   1.0420 B( 68-C ,101-H ) :   0.9489 B( 68-C ,102-H ) :   0.9522
B( 69-C , 70-C ) :   1.0390 B( 69-C ,103-H ) :   0.9381 B( 69-C ,104-H ) :   0.9302
B( 70-C , 71-S ) :   1.0180 B( 70-C ,105-H ) :   0.9535 B( 70-C ,106-H ) :   0.9493
B( 72-C , 73-C ) :   1.9383 B( 72-C ,107-H ) :   0.9462 B( 73-C ,108-H ) :   0.9466
B( 73-C ,109-H ) :   0.9454

-----------------------------------------------------------------------------
         ABSORPTION SPECTRUM VIA TRANSITION ELECTRIC DIPOLE MOMENTS
-----------------------------------------------------------------------------
State   Energy  Wavelength   fosc         T2         TX        TY        TZ
        (cm-1)    (nm)                  (au**2)     (au)      (au)      (au)
-----------------------------------------------------------------------------
   0   15913.3    628.4   0.009245086   0.19126  -0.36262   0.12205  -0.21183
   1   16199.2    617.3   1.249893525  25.40125  -3.90621   1.76927  -2.64810
   2   18931.5    528.2   0.751575906  13.06964  -1.66387  -3.14136  -0.65807
   3   24669.7    405.4   0.061946368   0.82666   0.10130   0.25529  -0.86673
   4   24924.4    401.2   0.003412521   0.04507  -0.17979   0.11141   0.01839
   5   24964.7    400.6   0.000818369   0.01079  -0.07342   0.02270   0.06990
   6   25299.4    395.3   0.042804549   0.55700   0.31061   0.49196  -0.46743
   7   25672.3    389.5   0.090802252   1.16441   0.76870   0.56533  -0.50389
   8   26652.2    375.2   0.000421495   0.00521  -0.03043  -0.02016   0.06224
   9   26915.8    371.5   0.095573287   1.16898  -0.24931  -0.07256   1.04955
  10   28265.4    353.8   0.028419369   0.33101   0.15183   0.27207   0.48366
  11   28326.7    353.0   0.004371798   0.05081  -0.12428  -0.00115   0.18804
  12   28520.6    350.6   0.116798346   1.34820  -0.85436  -0.65426  -0.43613
  13   28533.2    350.5   0.539687354   6.22684   1.73724   0.02580  -1.79114
  14   29139.0    343.2   0.019331554   0.21841  -0.26921  -0.30849   0.22532
  15   29243.2    342.0   0.766308671   8.62690   0.91826   2.64015  -0.90183
  16   29921.8    334.2   0.005303369   0.05835  -0.05742  -0.23349   0.02317
  17   30797.2    324.7   0.089536754   0.95712  -0.28360   0.10279   0.93066
  18   31254.0    320.0   0.368950740   3.88632  -1.04801   0.44213   1.61013
  19   31325.7    319.2   0.006164606   0.06479  -0.02086  -0.19114   0.16678
  20   31636.7    316.1   0.008435261   0.08778   0.16628  -0.14419  -0.19834
  21   32000.1    312.5   0.046814763   0.48162  -0.44795   0.24400   0.47056
  22   32475.1    307.9   0.401526147   4.07042  -1.31751  -0.85723   1.26481
  23   32739.6    305.4   0.056414612   0.56728  -0.46626  -0.44021   0.39509
  24   32792.2    305.0   0.116152572   1.16609  -0.83782   0.49535   0.46774
  25   32858.3    304.3   0.123459341   1.23695  -0.67976  -0.56729   0.67310
  26   33325.5    300.1   0.000025396   0.00025   0.00139   0.00163  -0.01569
  27   33776.7    296.1   0.053284001   0.51934  -0.40627   0.14884   0.57631
  28   34846.8    287.0   0.000775106   0.00732  -0.00270  -0.05773   0.06311
  29   34902.3    286.5   0.096670421   0.91183  -0.09408  -0.62361   0.71700
  30   35387.7    282.6   0.069166912   0.64346   0.53357   0.59861   0.02077
  31   35445.2    282.1   0.000227724   0.00212   0.02874   0.03382   0.01205
  32   35590.1    281.0   0.032095914   0.29689  -0.17402  -0.37400   0.35599
  33   36211.9    276.2   0.015412077   0.14012   0.21021  -0.01690   0.30926
  34   36683.4    272.6   0.128331681   1.15170   0.77777  -0.28020  -0.68430
  35   36934.9    270.7   0.241195256   2.14985  -0.18750  -0.77389  -1.23117
  36   37339.5    267.8   0.004264532   0.03760   0.16667  -0.07286  -0.06717
  37   37344.8    267.8   0.001690738   0.01490   0.01304  -0.05986  -0.10560
  38   37454.3    267.0   0.017639723   0.15505   0.17804  -0.24085   0.25562
  39   37648.5    265.6   0.023308223   0.20382  -0.35724   0.12531   0.24595
  40   37912.6    263.8   0.073823786   0.64104  -0.06864   0.44217   0.66394
  41   38091.2    262.5   0.011748826   0.10154  -0.07354  -0.28939  -0.11129
  42   38514.9    259.6   0.020745375   0.17732  -0.03583  -0.23201  -0.34958
  43   38616.9    259.0   0.000446192   0.00380  -0.02963   0.00142   0.05407
  44   38843.1    257.4   0.094567462   0.80150   0.08927  -0.41458  -0.78845
  45   39159.9    255.4   0.000104015   0.00087   0.00306  -0.00481   0.02902
  46   39232.1    254.9   0.071024659   0.59600   0.21624  -0.01986  -0.74084
  47   39501.0    253.2   0.071587721   0.59663  -0.64127   0.42835  -0.04383
  48   40021.8    249.9   0.015086243   0.12410   0.09019   0.06012  -0.33518

FINAL SINGLE POINT ENERGY     -8452.031102745806

DIPOLE MOMENT
-------------
                                X             Y             Z
Electronic contribution:   -195.18811    -135.24534      63.79680
Nuclear contribution   :    195.10411     135.02253     -64.07762
                        -----------------------------------------
Total Dipole Moment    :     -0.08400      -0.22280      -0.28082
                        -----------------------------------------
Magnitude (a.u.)       :      0.36818
Magnitude (Debye)      :      0.93584

Rotational constants in cm-1:     0.000773     0.000194     0.000178
Rotational constants in MHz :    23.188780     5.809762     5.321783

                             ****ORCA TERMINATED NORMALLY****
TOTAL RUN TIME: 0 days 0 hours 10 minutes 38 seconds 708 msec
