                         Program Version 4.2.0 -  RELEASE  -
|  1> # ORCA input file
|  2> # SCF done       -173.907930629942          0.000926440490
|  3> ! CAM-B3LYP def2-SVP def2/J RIJCOSX Grid4 TightSCF
|  4> %maxcore 5000
|  5> %tddft
|  6>     Mode sTDDFT
|  7>     Ethresh 5.0
|  8>     maxcore 5000
|  9> end
| 10>
| 11> %pal
| 12>   nprocs 6
| 13>   end
| 14> * xyz 0 1
| 15>    C      -17.00936         2.01925        -6.55018
| 16>    C      -17.93465         3.03096        -6.55016
| 17>    C      -19.32951         2.82776        -6.60277
| 18>    N      -20.47198         2.72540        -6.63549
| 19>    C      -17.61876         4.40425        -6.51430
| 20>    N      -17.41582         5.53487        -6.49566
| 21>    C      -17.30032         0.59701        -6.66790
| 22>    C      -16.07647        -0.11589        -6.72388
| 23>    C      -16.01763        -1.48314        -6.84022
| 24>    C      -17.22677        -2.18341        -6.90887
| 25>    C      -18.44562        -1.46432        -6.84983
| 26>    C      -18.50388        -0.08123        -6.72993
| 27>    S      -19.81804        -2.52507        -6.94422
| 28>    C      -18.75244        -3.90028        -7.06212
| 29>    C      -17.43521        -3.58337        -7.03287
| 30>   Br      -19.47793        -5.62224        -7.20935
| 31>    C      -14.95314         0.82909        -6.63022
| 32>    O      -13.77060         0.55371        -6.56395
| 33>    C      -15.56599         2.16939        -6.51421
| 34>    C      -14.89505         3.31674        -6.19861
| 35>    N      -13.56761         3.55536        -6.31152
| 36>    C      -12.65282         2.96067        -7.14225
| 37>    S      -13.11887         2.26489        -8.65421
| 38>    C      -11.47352         1.82636        -8.94640
| 39>    N      -11.19003         1.13935       -10.13491
| 40>    O      -10.03779         0.81622       -10.34385
| 41>    O      -12.13393         0.92107       -10.87388
| 42>    C      -10.62138         2.20314        -7.94331
| 43>    C      -11.27909         2.89416        -6.90928
| 44>    C      -10.57579         3.40843        -5.75252
| 45>    C      -10.76686         4.60823        -5.17317
| 46>    C      -10.02704         5.04964        -4.03227
| 47>    O       -9.26190         4.16634        -3.33815
| 48>    C       -8.68710         4.80309        -2.33116
| 49>    C       -9.06160         6.12658        -2.31802
| 50>    N       -8.73435         7.05554        -1.30489
| 51>    O       -9.40251         8.07347        -1.23766
| 52>    O       -7.84172         6.75186        -0.53659
| 53>    C       -9.92923         6.31060        -3.44515
| 54>    N      -10.52600         7.46916        -3.86703
| 55>    C       -9.99834         8.72927        -3.79952
| 56>    C       -8.68545         9.07280        -3.70578
| 57>    C       -8.19032        10.40405        -3.58680
| 58>    C       -6.83968        10.49559        -3.51179
| 59>    C       -6.16828         9.24864        -3.57312
| 60>    S       -7.32705         7.94839        -3.74939
| 61>    C       -4.82043         8.99081        -3.48710
| 62>    C       -3.76000         9.91725        -3.33261
| 63>    C       -2.53356         9.34024        -3.25720
| 64>    C       -2.54524         7.92096        -3.34821
| 65>    S       -4.19327         7.35189        -3.54157
| 66>    C       -1.44837         7.10756        -3.29140
| 67>    C       -1.42171         5.70263        -3.36936
| 68>    S       -2.82626         4.66779        -3.56325
| 69>    C       -1.91286         3.21261        -3.55598
| 70>    C       -0.57227         3.48208        -3.41165
| 71>    C       -0.30896         4.88152        -3.30814
| 72>    O        1.01262         5.11562        -3.16776
| 73>    C        1.59417         3.88542        -3.17999
| 74>    N        3.00183         3.82276        -3.04837
| 75>    O        3.49646         2.71097        -3.05841
| 76>    O        3.61062         4.86456        -2.93694
| 77>    C        0.70201         2.85717        -3.32365
| 78>    H      -15.06958        -1.99579        -6.88305
| 79>    H      -19.45667         0.41938        -6.68472
| 80>    H      -16.64273        -4.30657        -7.09587
| 81>    H      -15.44504         4.14736        -5.77367
| 82>    H      -13.18047         4.24581        -5.68136
| 83>    H       -9.56597         2.00129        -7.96585
| 84>    H       -9.79087         2.77322        -5.36696
| 85>    H      -11.45298         5.33541        -5.58813
| 86>    H       -8.04637         4.25869        -1.66629
| 87>    H      -11.42940         7.38135        -4.30886
| 88>    H      -10.72767         9.52489        -3.85324
| 89>    H       -8.86322        11.24112        -3.54140
| 90>    H       -6.30021        11.41890        -3.40376
| 91>    H       -3.93715        10.97619        -3.27777
| 92>    H       -1.61090         9.87914        -3.13422
| 93>    H       -0.48067         7.57659        -3.17011
| 94>    H       -2.40683         2.26904        -3.65682
| 95>    H        0.94316         1.81518        -3.35853
| 96> *
| 97>
| 98>                          ****END OF INPUT****

CARTESIAN COORDINATES (ANGSTROEM)
---------------------------------
  C    -17.009360    2.019250   -6.550180
  C    -17.934650    3.030960   -6.550160
  C    -19.329510    2.827760   -6.602770
  N    -20.471980    2.725400   -6.635490
  C    -17.618760    4.404250   -6.514300
  N    -17.415820    5.534870   -6.495660
  C    -17.300320    0.597010   -6.667900
  C    -16.076470   -0.115890   -6.723880
  C    -16.017630   -1.483140   -6.840220
  C    -17.226770   -2.183410   -6.908870
  C    -18.445620   -1.464320   -6.849830
  C    -18.503880   -0.081230   -6.729930
  S    -19.818040   -2.525070   -6.944220
  C    -18.752440   -3.900280   -7.062120
  C    -17.435210   -3.583370   -7.032870
  Br   -19.477930   -5.622240   -7.209350
  C    -14.953140    0.829090   -6.630220
  O    -13.770600    0.553710   -6.563950
  C    -15.565990    2.169390   -6.514210
  C    -14.895050    3.316740   -6.198610
  N    -13.567610    3.555360   -6.311520
  C    -12.652820    2.960670   -7.142250
  S    -13.118870    2.264890   -8.654210
  C    -11.473520    1.826360   -8.946400
  N    -11.190030    1.139350  -10.134910
  O    -10.037790    0.816220  -10.343850
  O    -12.133930    0.921070  -10.873880
  C    -10.621380    2.203140   -7.943310
  C    -11.279090    2.894160   -6.909280
  C    -10.575790    3.408430   -5.752520
  C    -10.766860    4.608230   -5.173170
  C    -10.027040    5.049640   -4.032270
  O     -9.261900    4.166340   -3.338150
  C     -8.687100    4.803090   -2.331160
  C     -9.061600    6.126580   -2.318020
  N     -8.734350    7.055540   -1.304890
  O     -9.402510    8.073470   -1.237660
  O     -7.841720    6.751860   -0.536590
  C     -9.929230    6.310600   -3.445150
  N    -10.526000    7.469160   -3.867030
  C     -9.998340    8.729270   -3.799520
  C     -8.685450    9.072800   -3.705780
  C     -8.190320   10.404050   -3.586800
  C     -6.839680   10.495590   -3.511790
  C     -6.168280    9.248640   -3.573120
  S     -7.327050    7.948390   -3.749390
  C     -4.820430    8.990810   -3.487100
  C     -3.760000    9.917250   -3.332610
  C     -2.533560    9.340240   -3.257200
  C     -2.545240    7.920960   -3.348210
  S     -4.193270    7.351890   -3.541570
  C     -1.448370    7.107560   -3.291400
  C     -1.421710    5.702630   -3.369360
  S     -2.826260    4.667790   -3.563250
  C     -1.912860    3.212610   -3.555980
  C     -0.572270    3.482080   -3.411650
  C     -0.308960    4.881520   -3.308140
  O      1.012620    5.115620   -3.167760
  C      1.594170    3.885420   -3.179990
  N      3.001830    3.822760   -3.048370
  O      3.496460    2.710970   -3.058410
  O      3.610620    4.864560   -2.936940
  C      0.702010    2.857170   -3.323650
  H    -15.069580   -1.995790   -6.883050
  H    -19.456670    0.419380   -6.684720
  H    -16.642730   -4.306570   -7.095870
  H    -15.445040    4.147360   -5.773670
  H    -13.180470    4.245810   -5.681360
  H     -9.565970    2.001290   -7.965850
  H     -9.790870    2.773220   -5.366960
  H    -11.452980    5.335410   -5.588130
  H     -8.046370    4.258690   -1.666290
  H    -11.429400    7.381350   -4.308860
  H    -10.727670    9.524890   -3.853240
  H     -8.863220   11.241120   -3.541400
  H     -6.300210   11.418900   -3.403760
  H     -3.937150   10.976190   -3.277770
  H     -1.610900    9.879140   -3.134220
  H     -0.480670    7.576590   -3.170110
  H     -2.406830    2.269040   -3.656820
  H      0.943160    1.815180   -3.358530

 Total Charge           Charge          ....    0
 Multiplicity           Mult            ....    1
 Number of Electrons    NEL             ....  500
 Basis Dimension        Dim             .... 1010

ORBITAL ENERGIES
----------------

  NO   OCC          E(Eh)            E(eV)
   0   2.0000    -482.890779    -13140.1261
   1   2.0000     -88.991109     -2421.5712
   2   2.0000     -88.982479     -2421.3364
   3   2.0000     -88.971494     -2421.0374
   4   2.0000     -88.949633     -2420.4426
   5   2.0000     -88.944346     -2420.2987
   6   2.0000     -62.568522     -1702.5761
   7   2.0000     -56.402480     -1534.7895
   8   2.0000     -56.399746     -1534.7151
   9   2.0000     -56.399718     -1534.7143
  10   2.0000     -19.332421      -526.0619
  11   2.0000     -19.304159      -525.2929
  12   2.0000     -19.244805      -523.6778
  13   2.0000     -19.242900      -523.6259
  14   2.0000     -19.242698      -523.6204
  15   2.0000     -19.240749      -523.5674
  16   2.0000     -19.239982      -523.5465
  17   2.0000     -19.237656      -523.4832
  18   2.0000     -19.227091      -523.1958
  19   2.0000     -14.654585      -398.7715
  20   2.0000     -14.653766      -398.7493
  21   2.0000     -14.651522      -398.6882
  22   2.0000     -14.513287      -394.9266
  23   2.0000     -14.480995      -394.0479
  24   2.0000     -14.428783      -392.6271
  25   2.0000     -14.423321      -392.4785
  26   2.0000     -10.382483      -282.5217
  27   2.0000     -10.379236      -282.4334
  28   2.0000     -10.379097      -282.4296
  29   2.0000     -10.376778      -282.3665
  30   2.0000     -10.370414      -282.1933
  31   2.0000     -10.365467      -282.0587
  32   2.0000     -10.358748      -281.8759
  33   2.0000     -10.355413      -281.7851
  34   2.0000     -10.354665      -281.7648
  35   2.0000     -10.351710      -281.6843
  36   2.0000     -10.349331      -281.6196
  37   2.0000     -10.341278      -281.4005
  38   2.0000     -10.339938      -281.3640
  39   2.0000     -10.334655      -281.2203
  40   2.0000     -10.332893      -281.1723
  41   2.0000     -10.331998      -281.1480
  42   2.0000     -10.326265      -280.9920
  43   2.0000     -10.320561      -280.8367
  44   2.0000     -10.316734      -280.7326
  45   2.0000     -10.315172      -280.6901
  46   2.0000     -10.314356      -280.6679
  47   2.0000     -10.314273      -280.6656
  48   2.0000     -10.313038      -280.6320
  49   2.0000     -10.312285      -280.6115
  50   2.0000     -10.312115      -280.6069
  51   2.0000     -10.311953      -280.6025
  52   2.0000     -10.311036      -280.5776
  53   2.0000     -10.308944      -280.5206
  54   2.0000     -10.307945      -280.4935
  55   2.0000     -10.307082      -280.4700
  56   2.0000     -10.306730      -280.4604
  57   2.0000     -10.305980      -280.4400
  58   2.0000     -10.305692      -280.4321
  59   2.0000     -10.302925      -280.3568
  60   2.0000     -10.301306      -280.3128
  61   2.0000     -10.293145      -280.0907
  62   2.0000     -10.290107      -280.0080
  63   2.0000     -10.285303      -279.8773
  64   2.0000     -10.284435      -279.8537
  65   2.0000     -10.284390      -279.8525
  66   2.0000     -10.281467      -279.7729
  67   2.0000      -8.797977      -239.4051
  68   2.0000      -8.086128      -220.0347
  69   2.0000      -8.078358      -219.8233
  70   2.0000      -8.066005      -219.4872
  71   2.0000      -8.045192      -218.9208
  72   2.0000      -8.040561      -218.7948
  73   2.0000      -6.634334      -180.5294
  74   2.0000      -6.619690      -180.1309
  75   2.0000      -6.619477      -180.1251
  76   2.0000      -6.055757      -164.7855
  77   2.0000      -6.051285      -164.6638
  78   2.0000      -6.048042      -164.5756
  79   2.0000      -6.047743      -164.5675
  80   2.0000      -6.043758      -164.4590
  81   2.0000      -6.039626      -164.3466
  82   2.0000      -6.035333      -164.2298
  83   2.0000      -6.030926      -164.1098
  84   2.0000      -6.028459      -164.0427
  85   2.0000      -6.015039      -163.6775
  86   2.0000      -6.010994      -163.5675
  87   2.0000      -6.010376      -163.5506
  88   2.0000      -6.006314      -163.4401
  89   2.0000      -6.005998      -163.4315
  90   2.0000      -6.001330      -163.3045
  91   2.0000      -2.750167       -74.8359
  92   2.0000      -2.746101       -74.7252
  93   2.0000      -2.745937       -74.7208
  94   2.0000      -2.734304       -74.4042
  95   2.0000      -2.734285       -74.4037
  96   2.0000      -1.324865       -36.0514
  97   2.0000      -1.323035       -36.0016
  98   2.0000      -1.322530       -35.9879
  99   2.0000      -1.253170       -34.1005
 100   2.0000      -1.224140       -33.3105
 101   2.0000      -1.144548       -31.1447
 102   2.0000      -1.143891       -31.1269
 103   2.0000      -1.141742       -31.0684
 104   2.0000      -1.139394       -31.0045
 105   2.0000      -1.110187       -30.2097
 106   2.0000      -1.079305       -29.3694
 107   2.0000      -1.032348       -28.0916
 108   2.0000      -1.022674       -27.8284
 109   2.0000      -1.015168       -27.6241
 110   2.0000      -1.005082       -27.3497
 111   2.0000      -0.998298       -27.1651
 112   2.0000      -0.996397       -27.1133
 113   2.0000      -0.989487       -26.9253
 114   2.0000      -0.970155       -26.3993
 115   2.0000      -0.954104       -25.9625
 116   2.0000      -0.950978       -25.8774
 117   2.0000      -0.943894       -25.6847
 118   2.0000      -0.930872       -25.3303
 119   2.0000      -0.917386       -24.9633
 120   2.0000      -0.913951       -24.8699
 121   2.0000      -0.898693       -24.4547
 122   2.0000      -0.895772       -24.3752
 123   2.0000      -0.893816       -24.3220
 124   2.0000      -0.885374       -24.0922
 125   2.0000      -0.878188       -23.8967
 126   2.0000      -0.863404       -23.4944
 127   2.0000      -0.859319       -23.3833
 128   2.0000      -0.851108       -23.1598
 129   2.0000      -0.843434       -22.9510
 130   2.0000      -0.837035       -22.7769
 131   2.0000      -0.827631       -22.5210
 132   2.0000      -0.821664       -22.3586
 133   2.0000      -0.817281       -22.2394
 134   2.0000      -0.804285       -21.8857
 135   2.0000      -0.786388       -21.3987
 136   2.0000      -0.774993       -21.0886
 137   2.0000      -0.773408       -21.0455
 138   2.0000      -0.767329       -20.8801
 139   2.0000      -0.749535       -20.3959
 140   2.0000      -0.743616       -20.2348
 141   2.0000      -0.720962       -19.6184
 142   2.0000      -0.717481       -19.5236
 143   2.0000      -0.711862       -19.3707
 144   2.0000      -0.702709       -19.1217
 145   2.0000      -0.699714       -19.0402
 146   2.0000      -0.694388       -18.8953
 147   2.0000      -0.687499       -18.7078
 148   2.0000      -0.671412       -18.2700
 149   2.0000      -0.670270       -18.2390
 150   2.0000      -0.668012       -18.1775
 151   2.0000      -0.662884       -18.0380
 152   2.0000      -0.650824       -17.7098
 153   2.0000      -0.643058       -17.4985
 154   2.0000      -0.641360       -17.4523
 155   2.0000      -0.639147       -17.3921
 156   2.0000      -0.636591       -17.3225
 157   2.0000      -0.636126       -17.3099
 158   2.0000      -0.635688       -17.2980
 159   2.0000      -0.634294       -17.2600
 160   2.0000      -0.630454       -17.1555
 161   2.0000      -0.627600       -17.0779
 162   2.0000      -0.622854       -16.9487
 163   2.0000      -0.616752       -16.7827
 164   2.0000      -0.615578       -16.7507
 165   2.0000      -0.611521       -16.6403
 166   2.0000      -0.602970       -16.4076
 167   2.0000      -0.597961       -16.2714
 168   2.0000      -0.594936       -16.1890
 169   2.0000      -0.592298       -16.1173
 170   2.0000      -0.589759       -16.0482
 171   2.0000      -0.587367       -15.9831
 172   2.0000      -0.582390       -15.8476
 173   2.0000      -0.581144       -15.8137
 174   2.0000      -0.577862       -15.7244
 175   2.0000      -0.571882       -15.5617
 176   2.0000      -0.564773       -15.3683
 177   2.0000      -0.561321       -15.2743
 178   2.0000      -0.558975       -15.2105
 179   2.0000      -0.558448       -15.1961
 180   2.0000      -0.550919       -14.9913
 181   2.0000      -0.549874       -14.9628
 182   2.0000      -0.547899       -14.9091
 183   2.0000      -0.539471       -14.6798
 184   2.0000      -0.534005       -14.5310
 185   2.0000      -0.532094       -14.4790
 186   2.0000      -0.528491       -14.3810
 187   2.0000      -0.522716       -14.2238
 188   2.0000      -0.519482       -14.1358
 189   2.0000      -0.517748       -14.0886
 190   2.0000      -0.513289       -13.9673
 191   2.0000      -0.511357       -13.9147
 192   2.0000      -0.507207       -13.8018
 193   2.0000      -0.505740       -13.7619
 194   2.0000      -0.502569       -13.6756
 195   2.0000      -0.495227       -13.4758
 196   2.0000      -0.493759       -13.4359
 197   2.0000      -0.490315       -13.3422
 198   2.0000      -0.486876       -13.2486
 199   2.0000      -0.484548       -13.1852
 200   2.0000      -0.483358       -13.1528
 201   2.0000      -0.476209       -12.9583
 202   2.0000      -0.470262       -12.7965
 203   2.0000      -0.467262       -12.7148
 204   2.0000      -0.466477       -12.6935
 205   2.0000      -0.465235       -12.6597
 206   2.0000      -0.460943       -12.5429
 207   2.0000      -0.456176       -12.4132
 208   2.0000      -0.453256       -12.3337
 209   2.0000      -0.452623       -12.3165
 210   2.0000      -0.450930       -12.2704
 211   2.0000      -0.449079       -12.2201
 212   2.0000      -0.447300       -12.1716
 213   2.0000      -0.445512       -12.1230
 214   2.0000      -0.437868       -11.9150
 215   2.0000      -0.436097       -11.8668
 216   2.0000      -0.430312       -11.7094
 217   2.0000      -0.424429       -11.5493
 218   2.0000      -0.422409       -11.4943
 219   2.0000      -0.421469       -11.4687
 220   2.0000      -0.417983       -11.3739
 221   2.0000      -0.407505       -11.0888
 222   2.0000      -0.397510       -10.8168
 223   2.0000      -0.395111       -10.7515
 224   2.0000      -0.391250       -10.6465
 225   2.0000      -0.390137       -10.6162
 226   2.0000      -0.387861       -10.5542
 227   2.0000      -0.385693       -10.4952
 228   2.0000      -0.382995       -10.4218
 229   2.0000      -0.380196       -10.3457
 230   2.0000      -0.378774       -10.3070
 231   2.0000      -0.376908       -10.2562
 232   2.0000      -0.374595       -10.1933
 233   2.0000      -0.373193       -10.1551
 234   2.0000      -0.371338       -10.1046
 235   2.0000      -0.367628       -10.0037
 236   2.0000      -0.363184        -9.8827
 237   2.0000      -0.361185        -9.8283
 238   2.0000      -0.353249        -9.6124
 239   2.0000      -0.339298        -9.2328
 240   2.0000      -0.334966        -9.1149
 241   2.0000      -0.331560        -9.0222
 242   2.0000      -0.326886        -8.8950
 243   2.0000      -0.322898        -8.7865
 244   2.0000      -0.313213        -8.5230
 245   2.0000      -0.305525        -8.3138
 246   2.0000      -0.300912        -8.1882
 247   2.0000      -0.287788        -7.8311
 248   2.0000      -0.268829        -7.3152
 249   2.0000      -0.210937        -5.7399
 250   0.0000      -0.095698        -2.6041
 251   0.0000      -0.073537        -2.0011
 252   0.0000      -0.070357        -1.9145
 253   0.0000      -0.053975        -1.4687
 254   0.0000      -0.050804        -1.3825

MULLIKEN ATOMIC CHARGES
-----------------------
   0 C :    0.294947
   1 C :   -0.333688
   2 C :   -0.183987
   3 N :    0.152796
   4 C :   -0.209727
   5 N :    0.145725
   6 C :    0.015500
   7 C :   -0.008395
   8 C :   -0.064551
   9 C :    0.118079
  10 C :   -0.094286
  11 C :   -0.018019
  12 S :    0.191306
  13 C :   -0.123234
  14 C :    0.038675
  15 Br:    0.029839
  16 C :    0.148116
  17 O :   -0.153810
  18 C :   -0.150119
  19 C :    0.033617
  20 N :    0.007506
  21 C :   -0.091895
  22 S :    0.199328
  23 C :    0.002101
  24 N :    0.274805
  25 O :   -0.245203
  26 O :   -0.261677
  27 C :    0.012163
  28 C :    0.114430
  29 C :   -0.023439
  30 C :   -0.077933
  31 C :    0.057662
  32 O :   -0.162852
  33 C :    0.092385
  34 C :    0.083603
  35 N :    0.272094
  36 O :   -0.230703
  37 O :   -0.244974
  38 C :    0.043568
  39 N :   -0.011861
  40 C :    0.050270
  41 C :   -0.055463
  42 C :    0.046671
  43 C :    0.024835
  44 C :   -0.040422
  45 S :    0.042702
  46 C :   -0.037382
  47 C :    0.029130
  48 C :    0.034286
  49 C :   -0.020571
  50 S :    0.050681
  51 C :   -0.017319
  52 C :   -0.186438
  53 S :    0.133026
  54 C :   -0.136901
  55 C :    0.127666
  56 C :    0.189415
  57 O :   -0.185831
  58 C :    0.235055
  59 N :    0.275323
  60 O :   -0.252282
  61 O :   -0.231475
  62 C :   -0.075057
  63 H :   -0.007918
  64 H :   -0.004384
  65 H :    0.000261
  66 H :    0.046085
  67 H :    0.142124
  68 H :    0.009091
  69 H :    0.025333
  70 H :   -0.012326
  71 H :    0.031313
  72 H :    0.137444
  73 H :    0.007828
  74 H :   -0.011669
  75 H :   -0.016120
  76 H :   -0.012566
  77 H :   -0.011444
  78 H :    0.001811
  79 H :    0.026608
  80 H :    0.010725
Sum of atomic charges:   -0.0000000

LOEWDIN ATOMIC CHARGES
----------------------
   0 C :    0.081704
   1 C :   -0.147173
   2 C :   -0.019846
   3 N :   -0.049847
   4 C :   -0.023080
   5 N :   -0.059190
   6 C :   -0.023705
   7 C :   -0.049596
   8 C :    0.024495
   9 C :   -0.030488
  10 C :   -0.144466
  11 C :   -0.006481
  12 S :    0.436652
  13 C :   -0.269867
  14 C :   -0.069598
  15 Br:    0.141613
  16 C :    0.069372
  17 O :   -0.157106
  18 C :   -0.144938
  19 C :    0.100383
  20 N :    0.066515
  21 C :   -0.106905
  22 S :    0.504768
  23 C :   -0.199594
  24 N :    0.273917
  25 O :   -0.210522
  26 O :   -0.227461
  27 C :   -0.000221
  28 C :   -0.088497
  29 C :   -0.008289
  30 C :   -0.059293
  31 C :   -0.007928
  32 O :    0.047573
  33 C :    0.085622
  34 C :   -0.108793
  35 N :    0.281198
  36 O :   -0.199415
  37 O :   -0.210330
  38 C :   -0.025699
  39 N :    0.035195
  40 C :    0.006810
  41 C :   -0.195077
  42 C :   -0.016275
  43 C :   -0.046068
  44 C :   -0.168372
  45 S :    0.373848
  46 C :   -0.187173
  47 C :   -0.031176
  48 C :   -0.035062
  49 C :   -0.147353
  50 S :    0.353738
  51 C :   -0.079526
  52 C :   -0.200784
  53 S :    0.468024
  54 C :   -0.199012
  55 C :   -0.083908
  56 C :    0.016141
  57 O :    0.000323
  58 C :    0.024475
  59 N :    0.272198
  60 O :   -0.212663
  61 O :   -0.193006
  62 C :   -0.010493
  63 H :    0.042235
  64 H :    0.041730
  65 H :    0.040072
  66 H :    0.043969
  67 H :    0.096235
  68 H :    0.046702
  69 H :    0.040256
  70 H :    0.025103
  71 H :    0.040025
  72 H :    0.090336
  73 H :    0.033719
  74 H :    0.033670
  75 H :    0.031793
  76 H :    0.032386
  77 H :    0.034070
  78 H :    0.045041
  79 H :    0.026307
  80 H :    0.046062

  Mayer bond orders larger than 0.100000
B(  0-C ,  1-C ) :   1.6343 B(  0-C ,  6-C ) :   1.0184 B(  0-C , 18-C ) :   1.0985
B(  1-C ,  2-C ) :   1.1404 B(  1-C ,  4-C ) :   1.1394 B(  2-C ,  3-N ) :   2.9723
B(  4-C ,  5-N ) :   2.9845 B(  6-C ,  7-C ) :   1.2704 B(  6-C , 11-C ) :   1.4092
B(  7-C ,  8-C ) :   1.4281 B(  7-C , 16-C ) :   0.9494 B(  8-C ,  9-C ) :   1.2426
B(  8-C , 63-H ) :   1.0185 B(  9-C , 10-C ) :   1.3025 B(  9-C , 14-C ) :   1.1664
B( 10-C , 11-C ) :   1.3311 B( 10-C , 12-S ) :   1.0882 B( 11-C , 64-H ) :   0.9811
B( 12-S , 13-C ) :   1.0879 B( 13-C , 14-C ) :   1.6151 B( 13-C , 15-Br) :   1.0220
B( 14-C , 65-H ) :   1.0000 B( 16-C , 17-O ) :   2.2134 B( 16-C , 18-C ) :   0.9416
B( 18-C , 19-C ) :   1.5415 B( 19-C , 20-N ) :   1.2833 B( 19-C , 66-H ) :   0.9367
B( 20-N , 21-C ) :   1.1314 B( 20-N , 67-H ) :   0.9006 B( 21-C , 22-S ) :   1.1478
B( 21-C , 28-C ) :   1.4344 B( 22-S , 23-C ) :   1.1142 B( 23-C , 24-N ) :   0.9612
B( 23-C , 27-C ) :   1.4851 B( 24-N , 25-O ) :   1.5423 B( 24-N , 26-O ) :   1.5164
B( 25-O , 26-O ) :   0.2617 B( 27-C , 28-C ) :   1.2367 B( 27-C , 68-H ) :   1.0067
B( 28-C , 29-C ) :   1.0131 B( 29-C , 30-C ) :   1.7329 B( 29-C , 69-H ) :   0.9699
B( 30-C , 31-C ) :   1.1574 B( 30-C , 70-H ) :   0.9464 B( 31-C , 32-O ) :   1.1253
B( 31-C , 38-C ) :   1.3956 B( 32-O , 33-C ) :   1.2036 B( 33-C , 34-C ) :   1.4531
B( 33-C , 71-H ) :   1.0109 B( 34-C , 35-N ) :   0.9293 B( 34-C , 38-C ) :   1.2433
B( 35-N , 36-O ) :   1.5289 B( 35-N , 37-O ) :   1.5302 B( 36-O , 37-O ) :   0.2641
B( 38-C , 39-N ) :   1.1572 B( 39-N , 40-C ) :   1.1429 B( 39-N , 72-H ) :   0.9112
B( 40-C , 41-C ) :   1.6345 B( 40-C , 73-H ) :   0.9564 B( 41-C , 42-C ) :   1.1379
B( 41-C , 45-S ) :   1.0111 B( 42-C , 43-C ) :   1.6303 B( 42-C , 74-H ) :   0.9967
B( 43-C , 44-C ) :   1.1677 B( 43-C , 75-H ) :   0.9925 B( 44-C , 45-S ) :   1.0341
B( 44-C , 46-C ) :   1.5501 B( 46-C , 47-C ) :   1.1719 B( 46-C , 50-S ) :   1.0255
B( 47-C , 48-C ) :   1.6068 B( 47-C , 76-H ) :   0.9930 B( 48-C , 49-C ) :   1.1323
B( 48-C , 77-H ) :   1.0005 B( 49-C , 50-S ) :   1.0360 B( 49-C , 51-C ) :   1.5778
B( 51-C , 52-C ) :   1.1699 B( 51-C , 78-H ) :   0.9736 B( 52-C , 53-S ) :   1.1093
B( 52-C , 54-C ) :   0.1095 B( 52-C , 56-C ) :   1.4456 B( 53-S , 54-C ) :   1.1805
B( 54-C , 55-C ) :   1.4162 B( 54-C , 79-H ) :   0.9760 B( 55-C , 56-C ) :   1.2313
B( 55-C , 62-C ) :   1.0605 B( 56-C , 57-O ) :   1.1180 B( 57-O , 58-C ) :   1.1254
B( 58-C , 59-N ) :   0.9171 B( 58-C , 62-C ) :   1.5737 B( 59-N , 60-O ) :   1.5314
B( 59-N , 61-O ) :   1.5151 B( 60-O , 61-O ) :   0.2790 B( 62-C , 80-H ) :   1.0266

-----------------------------------------------------------------------------
         ABSORPTION SPECTRUM VIA TRANSITION ELECTRIC DIPOLE MOMENTS
-----------------------------------------------------------------------------
State   Energy  Wavelength   fosc         T2         TX        TY        TZ
        (cm-1)    (nm)                  (au**2)     (au)      (au)      (au)
-----------------------------------------------------------------------------
   0   15082.2    663.0   0.627235430  13.69118   3.68505  -0.22684   0.24528
   1   15860.9    630.5   0.135227364   2.80680  -1.43438   0.78453   0.36587
   2   17984.3    556.0   0.131890812   2.41433   1.05775  -0.87332   0.72993
   3   19774.6    505.7   0.280407833   4.66830  -1.94793  -0.79668  -0.48906
   4   21387.9    467.6   0.049747265   0.76573   0.79953  -0.28758   0.20922
   5   23426.7    426.9   0.443113493   6.22700  -2.37410   0.76334   0.08922
   6   23631.4    423.2   0.303527572   4.22849   1.57521   1.30749  -0.19402
   7   25657.4    389.8   0.002344465   0.03008  -0.03169   0.02281  -0.16899
   8   27035.4    369.9   0.310849025   3.78524  -0.39894   1.88963   0.23536
   9   27502.7    363.6   0.052985589   0.63425   0.36662  -0.67231  -0.21870
  10   28053.0    356.5   0.092545886   1.08606   0.55630  -0.71040  -0.52147
  11   28616.6    349.4   0.425011172   4.88943   0.85782   2.01260  -0.32095
  12   29526.9    338.7   0.047115797   0.52532  -0.69639  -0.18273   0.08350
  13   30015.8    333.2   0.102085551   1.11967   0.79551   0.02283   0.69737
  14   30644.2    326.3   0.048794474   0.52420   0.17350  -0.70222  -0.03139
  15   31084.8    321.7   0.530615010   5.61963  -0.10466  -2.02362  -1.23030
  16   31488.5    317.6   0.126081862   1.31818  -0.03576   0.98979   0.58070
  17   32004.0    312.5   0.061626437   0.63393   0.26095  -0.74706   0.08794
  18   32220.8    310.4   0.052972798   0.54124   0.68134  -0.17889   0.21216
  19   32527.4    307.4   0.098457701   0.99650   0.34520   0.83705  -0.42034
  20   32712.3    305.7   0.031651151   0.31853   0.31801   0.19304   0.42443
  21   33518.6    298.3   0.228806482   2.24729  -1.02252   1.06812  -0.24668
  22   33595.5    297.7   0.274487546   2.68978   0.38925  -1.24517  -0.99389
  23   33881.2    295.1   0.218258102   2.12074   0.84699   1.13854  -0.32721
  24   34286.4    291.7   0.034064113   0.32708  -0.01329   0.45501  -0.34622
  25   35031.4    285.5   0.069512072   0.65325   0.46292  -0.22082   0.62465
  26   35569.9    281.1   0.080587993   0.74587   0.67483   0.25289   0.47594
  27   35821.2    279.2   0.011910452   0.10946  -0.29713   0.07899  -0.12221
  28   36037.8    277.5   0.009783827   0.08938  -0.24340  -0.15262  -0.08271
  29   36246.5    275.9   0.005758359   0.05230  -0.15254   0.14012   0.09696
  30   37097.1    269.6   0.032165544   0.28545   0.14604   0.51392  -0.00271
  31   37451.9    267.0   0.268668739   2.36167   1.37710  -0.66819  -0.13707
  32   37848.7    264.2   0.075876395   0.65998   0.44458   0.34935   0.58334
  33   38347.3    260.8   0.016889784   0.14500  -0.23837  -0.29472  -0.03630
  34   38381.0    260.5   0.259758810   2.22807  -1.41741  -0.45842  -0.09415
  35   38545.5    259.4   0.095920380   0.81924  -0.42300  -0.62699  -0.49718
  36   38819.1    257.6   0.047122657   0.39963  -0.42758   0.44703   0.13029
  37   39349.9    254.1   0.045018243   0.37663  -0.57161  -0.21507  -0.06040
  38   39599.2    252.5   0.079185397   0.65832   0.17266   0.71208   0.34848
  39   39710.6    251.8   0.063962901   0.53027  -0.71379  -0.12051  -0.07908
  40   39778.9    251.4   0.106602823   0.88225   0.02222   0.50579   0.79116
  41   40052.8    249.7   0.046110765   0.37901  -0.36988  -0.48859  -0.05892

FINAL SINGLE POINT ENERGY     -7194.120602577096

DIPOLE MOMENT
-------------
                                X             Y             Z
Electronic contribution:   -108.66575    -111.47089     -27.19030
Nuclear contribution   :    106.34648     111.19473      27.84540
                        -----------------------------------------
Total Dipole Moment    :     -2.31927      -0.27616       0.65510
                        -----------------------------------------
Magnitude (a.u.)       :      2.42578
Magnitude (Debye)      :      6.16585

Rotational constants in cm-1:     0.001504     0.000275     0.000248
Rotational constants in MHz :    45.079490     8.253507     7.425225

                             ****ORCA TERMINATED NORMALLY****
TOTAL RUN TIME: 0 days 0 hours 7 minutes 31 seconds 144 msec
