                         Program Version 4.2.0 -  RELEASE  -
|  1> # ORCA input file
|  2> # SCF done       -183.178839548455          0.000937755797
|  3> ! CAM-B3LYP def2-SVP def2/J RIJCOSX Grid4 TightSCF
|  4> %maxcore 5000
|  5> %tddft
|  6>     Mode sTDDFT
|  7>     Ethresh 5.0
|  8>     maxcore 5000
|  9> end
| 10>
| 11> %pal
| 12>   nprocs 6
| 13>   end
| 14> * xyz 0 1
| 15>    C      -18.85637        -5.33290         4.71646
| 16>    C      -17.95458        -6.32614         4.39901
| 17>    C      -18.13829        -7.68643         4.71194
| 18>    N      -18.22572        -8.81177         4.92825
| 19>    C      -16.73341        -6.16024         3.71749
| 20>    N      -15.72334        -6.14199         3.16711
| 21>    C      -20.12388        -5.54489         5.41605
| 22>    C      -20.77846        -4.29704         5.55419
| 23>    C      -21.99915        -4.16407         6.16643
| 24>    C      -22.60728        -5.32045         6.66925
| 25>    C      -21.94569        -6.56087         6.52879
| 26>    C      -20.70854        -6.69513         5.90838
| 27>    S      -22.87137        -7.86099         7.21921
| 28>    C      -24.11796        -6.73219         7.67919
| 29>    C      -23.85741        -5.44938         7.33562
| 30>   Br      -25.64836        -7.35543         8.56904
| 31>    C      -19.94097        -3.23965         4.94347
| 32>    O      -20.20811        -2.05370         4.88994
| 33>    C      -18.74757        -3.92947         4.42950
| 34>    C      -17.70221        -3.31035         3.76827
| 35>    C      -17.60121        -1.95638         3.48489
| 36>    C      -16.51620        -1.43882         2.79375
| 37>    C      -16.27540        -0.09805         2.42965
| 38>    C      -15.11274         0.09241         1.73166
| 39>    C      -14.38674        -1.09212         1.51729
| 40>    S      -15.21453        -2.45722         2.22809
| 41>    C      -13.18648        -1.30085         0.85242
| 42>    C      -12.33286        -0.38621         0.20417
| 43>    C      -11.23088        -0.96869        -0.35478
| 44>    C      -11.14834        -2.36660        -0.15720
| 45>    S      -12.55243        -2.91908         0.73352
| 46>    C      -10.21059        -3.23329        -0.67215
| 47>    C      -10.10411        -4.59637        -0.35925
| 48>    S       -9.53897        -5.71117        -1.58945
| 49>    C       -9.80055        -7.06521        -0.54563
| 50>    C      -10.25679        -6.66537         0.71107
| 51>    C      -10.40074        -5.27486         0.82930
| 52>    S      -10.64080        -4.42942         2.35743
| 53>    C       -9.90794        -5.64861         3.51487
| 54>    C      -10.98139        -6.65681         3.83448
| 55>    O      -11.46356        -6.78608         4.92511
| 56>    C      -11.46189        -7.44712         2.62492
| 57>    O      -10.47089        -7.63745         1.63651
| 58>    C       -9.58803        -8.39705        -0.94673
| 59>    S       -9.92527        -9.73722         0.09713
| 60>    C       -9.46337       -10.87722        -1.13326
| 61>    C       -9.08598       -10.22904        -2.30733
| 62>    C       -9.16479        -8.82671        -2.20166
| 63>    O       -8.96871        -7.91322        -3.19148
| 64>    S       -7.51456        -7.88316        -4.01112
| 65>    C       -7.71058        -9.39770        -5.00117
| 66>    C       -7.59429       -10.64668        -4.13098
| 67>    O       -8.76742       -10.96968        -3.41478
| 68>    C       -9.49742       -12.27913        -0.93213
| 69>    C       -9.89051       -12.86187         0.22480
| 70>    C       -9.92997       -14.26155         0.48528
| 71>    C       -9.57867       -15.31838        -0.35062
| 72>    C       -9.78289       -16.54017         0.34830
| 73>    C       -9.58826       -17.85154        -0.02285
| 74>    C       -9.89057       -18.84753         0.91913
| 75>    C       -9.80388       -20.23457         0.85575
| 76>    C      -10.23775       -20.78590         2.09802
| 77>    C      -10.59299       -19.73615         2.92976
| 78>    C      -10.39147       -18.50544         2.23427
| 79>    C      -10.58656       -17.19984         2.60764
| 80>    C      -10.28218       -16.19935         1.66492
| 81>    C      -10.36517       -14.81727         1.73049
| 82>    C      -10.30469       -22.18346         2.45298
| 83>    C       -9.96371       -23.20029         1.66636
| 84>    H      -22.47334        -3.19908         6.25448
| 85>    H      -20.24646        -7.66464         5.82765
| 86>    H      -24.51725        -4.62641         7.54179
| 87>    H      -16.88305        -3.93532         3.43267
| 88>    H      -18.38485        -1.28399         3.80104
| 89>    H      -16.96324         0.68624         2.69150
| 90>    H      -14.77001         1.04666         1.37287
| 91>    H      -12.55056         0.66590         0.16241
| 92>    H      -10.46662        -0.43368        -0.89049
| 93>    H       -9.55153        -2.85738        -1.44350
| 94>    H       -9.62185        -5.09233         4.40608
| 95>    H       -9.03505        -6.10232         3.04797
| 96>    H      -12.35113        -6.94223         2.22121
| 97>    H      -11.75903        -8.44854         2.94692
| 98>    H       -6.90726        -9.37010        -5.73408
| 99>    H       -8.67697        -9.35656        -5.50401
|100>    H       -7.42762       -11.51924        -4.76992
|101>    H       -6.74183       -10.53743        -3.44608
|102>    H       -9.18385       -12.87409        -1.77782
|103>    H      -10.20736       -12.21744         1.03641
|104>    H       -9.21298       -15.24101        -1.35736
|105>    H       -9.21623       -18.11442        -1.00333
|106>    H       -9.46507       -20.80130         0.00785
|107>    H      -10.96145       -19.82350         3.93578
|108>    H      -10.96036       -16.93611         3.58708
|109>    H      -10.70045       -14.23842         2.57258
|110>    H      -10.66738       -22.38067         3.45423
|111>    H       -9.59721       -23.05504         0.66471
|112>    H      -10.03946       -24.22027         2.00086
|113> *
|114>
|115>                          ****END OF INPUT****

CARTESIAN COORDINATES (ANGSTROEM)
---------------------------------
  C    -18.856370   -5.332900    4.716460
  C    -17.954580   -6.326140    4.399010
  C    -18.138290   -7.686430    4.711940
  N    -18.225720   -8.811770    4.928250
  C    -16.733410   -6.160240    3.717490
  N    -15.723340   -6.141990    3.167110
  C    -20.123880   -5.544890    5.416050
  C    -20.778460   -4.297040    5.554190
  C    -21.999150   -4.164070    6.166430
  C    -22.607280   -5.320450    6.669250
  C    -21.945690   -6.560870    6.528790
  C    -20.708540   -6.695130    5.908380
  S    -22.871370   -7.860990    7.219210
  C    -24.117960   -6.732190    7.679190
  C    -23.857410   -5.449380    7.335620
  Br   -25.648360   -7.355430    8.569040
  C    -19.940970   -3.239650    4.943470
  O    -20.208110   -2.053700    4.889940
  C    -18.747570   -3.929470    4.429500
  C    -17.702210   -3.310350    3.768270
  C    -17.601210   -1.956380    3.484890
  C    -16.516200   -1.438820    2.793750
  C    -16.275400   -0.098050    2.429650
  C    -15.112740    0.092410    1.731660
  C    -14.386740   -1.092120    1.517290
  S    -15.214530   -2.457220    2.228090
  C    -13.186480   -1.300850    0.852420
  C    -12.332860   -0.386210    0.204170
  C    -11.230880   -0.968690   -0.354780
  C    -11.148340   -2.366600   -0.157200
  S    -12.552430   -2.919080    0.733520
  C    -10.210590   -3.233290   -0.672150
  C    -10.104110   -4.596370   -0.359250
  S     -9.538970   -5.711170   -1.589450
  C     -9.800550   -7.065210   -0.545630
  C    -10.256790   -6.665370    0.711070
  C    -10.400740   -5.274860    0.829300
  S    -10.640800   -4.429420    2.357430
  C     -9.907940   -5.648610    3.514870
  C    -10.981390   -6.656810    3.834480
  O    -11.463560   -6.786080    4.925110
  C    -11.461890   -7.447120    2.624920
  O    -10.470890   -7.637450    1.636510
  C     -9.588030   -8.397050   -0.946730
  S     -9.925270   -9.737220    0.097130
  C     -9.463370  -10.877220   -1.133260
  C     -9.085980  -10.229040   -2.307330
  C     -9.164790   -8.826710   -2.201660
  O     -8.968710   -7.913220   -3.191480
  S     -7.514560   -7.883160   -4.011120
  C     -7.710580   -9.397700   -5.001170
  C     -7.594290  -10.646680   -4.130980
  O     -8.767420  -10.969680   -3.414780
  C     -9.497420  -12.279130   -0.932130
  C     -9.890510  -12.861870    0.224800
  C     -9.929970  -14.261550    0.485280
  C     -9.578670  -15.318380   -0.350620
  C     -9.782890  -16.540170    0.348300
  C     -9.588260  -17.851540   -0.022850
  C     -9.890570  -18.847530    0.919130
  C     -9.803880  -20.234570    0.855750
  C    -10.237750  -20.785900    2.098020
  C    -10.592990  -19.736150    2.929760
  C    -10.391470  -18.505440    2.234270
  C    -10.586560  -17.199840    2.607640
  C    -10.282180  -16.199350    1.664920
  C    -10.365170  -14.817270    1.730490
  C    -10.304690  -22.183460    2.452980
  C     -9.963710  -23.200290    1.666360
  H    -22.473340   -3.199080    6.254480
  H    -20.246460   -7.664640    5.827650
  H    -24.517250   -4.626410    7.541790
  H    -16.883050   -3.935320    3.432670
  H    -18.384850   -1.283990    3.801040
  H    -16.963240    0.686240    2.691500
  H    -14.770010    1.046660    1.372870
  H    -12.550560    0.665900    0.162410
  H    -10.466620   -0.433680   -0.890490
  H     -9.551530   -2.857380   -1.443500
  H     -9.621850   -5.092330    4.406080
  H     -9.035050   -6.102320    3.047970
  H    -12.351130   -6.942230    2.221210
  H    -11.759030   -8.448540    2.946920
  H     -6.907260   -9.370100   -5.734080
  H     -8.676970   -9.356560   -5.504010
  H     -7.427620  -11.519240   -4.769920
  H     -6.741830  -10.537430   -3.446080
  H     -9.183850  -12.874090   -1.777820
  H    -10.207360  -12.217440    1.036410
  H     -9.212980  -15.241010   -1.357360
  H     -9.216230  -18.114420   -1.003330
  H     -9.465070  -20.801300    0.007850
  H    -10.961450  -19.823500    3.935780
  H    -10.960360  -16.936110    3.587080
  H    -10.700450  -14.238420    2.572580
  H    -10.667380  -22.380670    3.454230
  H     -9.597210  -23.055040    0.664710
  H    -10.039460  -24.220270    2.000860

 Total Charge           Charge          ....    0
 Multiplicity           Mult            ....    1
 Number of Electrons    NEL             ....  554
 Basis Dimension        Dim             .... 1157

ORBITAL ENERGIES
----------------

  NO   OCC          E(Eh)            E(eV)
   0   2.0000    -482.872264    -13139.6223
   1   2.0000     -88.974174     -2421.1104
   2   2.0000     -88.964231     -2420.8398
   3   2.0000     -88.958834     -2420.6929
   4   2.0000     -88.957048     -2420.6444
   5   2.0000     -88.954854     -2420.5846
   6   2.0000     -88.950246     -2420.4592
   7   2.0000     -88.945115     -2420.3196
   8   2.0000     -62.549989     -1702.0717
   9   2.0000     -56.383920     -1534.2845
  10   2.0000     -56.381240     -1534.2115
  11   2.0000     -56.381198     -1534.2104
  12   2.0000     -19.274305      -524.4805
  13   2.0000     -19.267586      -524.2977
  14   2.0000     -19.250753      -523.8396
  15   2.0000     -19.213598      -522.8286
  16   2.0000     -19.191292      -522.2216
  17   2.0000     -14.395231      -391.7141
  18   2.0000     -14.390397      -391.5826
  19   2.0000     -10.363664      -282.0096
  20   2.0000     -10.347074      -281.5582
  21   2.0000     -10.342571      -281.4357
  22   2.0000     -10.341415      -281.4042
  23   2.0000     -10.339209      -281.3442
  24   2.0000     -10.338902      -281.3358
  25   2.0000     -10.332722      -281.1676
  26   2.0000     -10.332259      -281.1551
  27   2.0000     -10.329826      -281.0889
  28   2.0000     -10.318564      -280.7824
  29   2.0000     -10.318491      -280.7804
  30   2.0000     -10.317778      -280.7610
  31   2.0000     -10.316955      -280.7386
  32   2.0000     -10.315708      -280.7047
  33   2.0000     -10.312902      -280.6283
  34   2.0000     -10.312828      -280.6263
  35   2.0000     -10.312321      -280.6125
  36   2.0000     -10.311207      -280.5822
  37   2.0000     -10.307279      -280.4753
  38   2.0000     -10.307055      -280.4692
  39   2.0000     -10.306507      -280.4543
  40   2.0000     -10.304456      -280.3985
  41   2.0000     -10.302341      -280.3409
  42   2.0000     -10.299496      -280.2635
  43   2.0000     -10.299278      -280.2576
  44   2.0000     -10.297583      -280.2115
  45   2.0000     -10.297059      -280.1972
  46   2.0000     -10.295707      -280.1604
  47   2.0000     -10.295556      -280.1563
  48   2.0000     -10.295339      -280.1504
  49   2.0000     -10.288460      -279.9632
  50   2.0000     -10.288400      -279.9616
  51   2.0000     -10.286551      -279.9113
  52   2.0000     -10.284705      -279.8611
  53   2.0000     -10.284484      -279.8550
  54   2.0000     -10.281461      -279.7728
  55   2.0000     -10.281158      -279.7645
  56   2.0000     -10.280887      -279.7571
  57   2.0000     -10.278811      -279.7007
  58   2.0000     -10.270597      -279.4772
  59   2.0000     -10.270462      -279.4735
  60   2.0000     -10.270359      -279.4707
  61   2.0000     -10.269879      -279.4576
  62   2.0000     -10.269734      -279.4537
  63   2.0000     -10.265827      -279.3474
  64   2.0000     -10.265031      -279.3257
  65   2.0000     -10.264788      -279.3191
  66   2.0000     -10.264186      -279.3027
  67   2.0000     -10.262849      -279.2663
  68   2.0000     -10.260466      -279.2015
  69   2.0000     -10.260405      -279.1998
  70   2.0000     -10.258806      -279.1563
  71   2.0000     -10.258463      -279.1470
  72   2.0000     -10.253241      -279.0049
  73   2.0000      -8.779417      -238.9001
  74   2.0000      -8.066012      -219.4873
  75   2.0000      -8.059008      -219.2968
  76   2.0000      -8.054866      -219.1841
  77   2.0000      -8.053293      -219.1412
  78   2.0000      -8.049221      -219.0304
  79   2.0000      -8.046364      -218.9527
  80   2.0000      -8.039410      -218.7635
  81   2.0000      -6.615639      -180.0207
  82   2.0000      -6.601165      -179.6268
  83   2.0000      -6.601031      -179.6232
  84   2.0000      -6.040129      -164.3603
  85   2.0000      -6.031940      -164.1374
  86   2.0000      -6.028508      -164.0440
  87   2.0000      -6.024559      -163.9366
  88   2.0000      -6.024489      -163.9347
  89   2.0000      -6.022910      -163.8917
  90   2.0000      -6.022632      -163.8842
  91   2.0000      -6.020540      -163.8272
  92   2.0000      -6.020304      -163.8208
  93   2.0000      -6.018725      -163.7778
  94   2.0000      -6.018627      -163.7752
  95   2.0000      -6.016066      -163.7055
  96   2.0000      -6.015919      -163.7015
  97   2.0000      -6.014743      -163.6695
  98   2.0000      -6.014403      -163.6602
  99   2.0000      -6.011876      -163.5915
 100   2.0000      -6.010863      -163.5639
 101   2.0000      -6.009940      -163.5388
 102   2.0000      -6.007597      -163.4750
 103   2.0000      -6.005876      -163.4282
 104   2.0000      -5.998758      -163.2345
 105   2.0000      -2.731516       -74.3283
 106   2.0000      -2.727454       -74.2178
 107   2.0000      -2.727360       -74.2152
 108   2.0000      -2.715852       -73.9021
 109   2.0000      -2.715832       -73.9015
 110   2.0000      -1.173572       -31.9345
 111   2.0000      -1.171786       -31.8859
 112   2.0000      -1.147969       -31.2378
 113   2.0000      -1.132266       -30.8105
 114   2.0000      -1.104127       -30.0448
 115   2.0000      -1.009274       -27.4637
 116   2.0000      -1.002827       -27.2883
 117   2.0000      -1.000196       -27.2167
 118   2.0000      -0.992277       -27.0012
 119   2.0000      -0.984325       -26.7848
 120   2.0000      -0.982233       -26.7279
 121   2.0000      -0.977958       -26.6116
 122   2.0000      -0.971781       -26.4435
 123   2.0000      -0.967088       -26.3158
 124   2.0000      -0.956459       -26.0266
 125   2.0000      -0.924752       -25.1638
 126   2.0000      -0.923511       -25.1300
 127   2.0000      -0.907884       -24.7048
 128   2.0000      -0.905768       -24.6472
 129   2.0000      -0.898673       -24.4541
 130   2.0000      -0.892869       -24.2962
 131   2.0000      -0.887893       -24.1608
 132   2.0000      -0.879389       -23.9294
 133   2.0000      -0.868276       -23.6270
 134   2.0000      -0.866187       -23.5701
 135   2.0000      -0.863373       -23.4936
 136   2.0000      -0.858980       -23.3740
 137   2.0000      -0.856951       -23.3188
 138   2.0000      -0.852652       -23.2018
 139   2.0000      -0.839752       -22.8508
 140   2.0000      -0.829911       -22.5830
 141   2.0000      -0.828188       -22.5361
 142   2.0000      -0.822193       -22.3730
 143   2.0000      -0.814850       -22.1732
 144   2.0000      -0.810240       -22.0478
 145   2.0000      -0.798764       -21.7355
 146   2.0000      -0.792877       -21.5753
 147   2.0000      -0.789471       -21.4826
 148   2.0000      -0.778110       -21.1734
 149   2.0000      -0.767215       -20.8770
 150   2.0000      -0.760349       -20.6901
 151   2.0000      -0.746524       -20.3139
 152   2.0000      -0.738464       -20.0946
 153   2.0000      -0.735409       -20.0115
 154   2.0000      -0.726044       -19.7567
 155   2.0000      -0.713711       -19.4211
 156   2.0000      -0.708509       -19.2795
 157   2.0000      -0.697757       -18.9869
 158   2.0000      -0.687428       -18.7059
 159   2.0000      -0.676854       -18.4181
 160   2.0000      -0.672699       -18.3051
 161   2.0000      -0.670767       -18.2525
 162   2.0000      -0.667310       -18.1584
 163   2.0000      -0.664554       -18.0834
 164   2.0000      -0.653321       -17.7778
 165   2.0000      -0.651135       -17.7183
 166   2.0000      -0.639161       -17.3924
 167   2.0000      -0.638082       -17.3631
 168   2.0000      -0.634058       -17.2536
 169   2.0000      -0.632062       -17.1993
 170   2.0000      -0.627234       -17.0679
 171   2.0000      -0.621856       -16.9216
 172   2.0000      -0.618835       -16.8393
 173   2.0000      -0.613601       -16.6969
 174   2.0000      -0.611937       -16.6516
 175   2.0000      -0.610880       -16.6229
 176   2.0000      -0.607473       -16.5302
 177   2.0000      -0.602709       -16.4005
 178   2.0000      -0.592135       -16.1128
 179   2.0000      -0.586805       -15.9678
 180   2.0000      -0.579328       -15.7643
 181   2.0000      -0.575402       -15.6575
 182   2.0000      -0.575174       -15.6513
 183   2.0000      -0.573071       -15.5941
 184   2.0000      -0.569021       -15.4839
 185   2.0000      -0.561089       -15.2680
 186   2.0000      -0.553202       -15.0534
 187   2.0000      -0.551326       -15.0023
 188   2.0000      -0.548547       -14.9267
 189   2.0000      -0.543487       -14.7890
 190   2.0000      -0.542456       -14.7610
 191   2.0000      -0.539582       -14.6828
 192   2.0000      -0.530955       -14.4480
 193   2.0000      -0.530269       -14.4294
 194   2.0000      -0.527578       -14.3561
 195   2.0000      -0.523912       -14.2564
 196   2.0000      -0.522954       -14.2303
 197   2.0000      -0.519106       -14.1256
 198   2.0000      -0.517586       -14.0842
 199   2.0000      -0.515185       -14.0189
 200   2.0000      -0.511226       -13.9112
 201   2.0000      -0.510741       -13.8980
 202   2.0000      -0.508999       -13.8506
 203   2.0000      -0.506127       -13.7724
 204   2.0000      -0.504805       -13.7364
 205   2.0000      -0.502926       -13.6853
 206   2.0000      -0.497111       -13.5271
 207   2.0000      -0.495611       -13.4862
 208   2.0000      -0.492872       -13.4117
 209   2.0000      -0.490736       -13.3536
 210   2.0000      -0.489772       -13.3274
 211   2.0000      -0.489417       -13.3177
 212   2.0000      -0.487894       -13.2763
 213   2.0000      -0.487244       -13.2586
 214   2.0000      -0.481094       -13.0912
 215   2.0000      -0.475662       -12.9434
 216   2.0000      -0.474549       -12.9131
 217   2.0000      -0.473085       -12.8733
 218   2.0000      -0.472160       -12.8481
 219   2.0000      -0.470069       -12.7912
 220   2.0000      -0.467139       -12.7115
 221   2.0000      -0.466123       -12.6839
 222   2.0000      -0.461950       -12.5703
 223   2.0000      -0.459977       -12.5166
 224   2.0000      -0.453382       -12.3372
 225   2.0000      -0.452142       -12.3034
 226   2.0000      -0.451796       -12.2940
 227   2.0000      -0.449774       -12.2390
 228   2.0000      -0.446391       -12.1469
 229   2.0000      -0.443691       -12.0734
 230   2.0000      -0.441584       -12.0161
 231   2.0000      -0.439776       -11.9669
 232   2.0000      -0.435925       -11.8621
 233   2.0000      -0.434733       -11.8297
 234   2.0000      -0.430533       -11.7154
 235   2.0000      -0.429303       -11.6819
 236   2.0000      -0.427896       -11.6436
 237   2.0000      -0.426336       -11.6012
 238   2.0000      -0.422593       -11.4994
 239   2.0000      -0.420725       -11.4485
 240   2.0000      -0.416484       -11.3331
 241   2.0000      -0.415861       -11.3161
 242   2.0000      -0.412438       -11.2230
 243   2.0000      -0.408556       -11.1174
 244   2.0000      -0.405274       -11.0281
 245   2.0000      -0.402771       -10.9600
 246   2.0000      -0.402392       -10.9496
 247   2.0000      -0.400774       -10.9056
 248   2.0000      -0.400235       -10.8909
 249   2.0000      -0.396081       -10.7779
 250   2.0000      -0.389696       -10.6042
 251   2.0000      -0.386579       -10.5193
 252   2.0000      -0.385512       -10.4903
 253   2.0000      -0.378127       -10.2893
 254   2.0000      -0.375458       -10.2167
 255   2.0000      -0.370243       -10.0748
 256   2.0000      -0.362079        -9.8527
 257   2.0000      -0.361976        -9.8499
 258   2.0000      -0.361530        -9.8377
 259   2.0000      -0.358998        -9.7688
 260   2.0000      -0.345258        -9.3949
 261   2.0000      -0.341868        -9.3027
 262   2.0000      -0.332978        -9.0608
 263   2.0000      -0.327703        -8.9172
 264   2.0000      -0.323737        -8.8093
 265   2.0000      -0.313067        -8.5190
 266   2.0000      -0.312179        -8.4948
 267   2.0000      -0.307071        -8.3558
 268   2.0000      -0.298799        -8.1307
 269   2.0000      -0.296929        -8.0798
 270   2.0000      -0.286772        -7.8035
 271   2.0000      -0.282061        -7.6753
 272   2.0000      -0.275216        -7.4890
 273   2.0000      -0.262763        -7.1501
 274   2.0000      -0.257504        -7.0070
 275   2.0000      -0.227913        -6.2018
 276   2.0000      -0.209302        -5.6954
 277   0.0000      -0.105560        -2.8724
 278   0.0000      -0.092756        -2.5240
 279   0.0000      -0.055519        -1.5107
 280   0.0000      -0.041024        -1.1163
 281   0.0000      -0.025675        -0.6987

MULLIKEN ATOMIC CHARGES
-----------------------
   0 C :    0.335964
   1 C :   -0.370135
   2 C :   -0.191074
   3 N :    0.127660
   4 C :   -0.188837
   5 N :    0.124145
   6 C :    0.012552
   7 C :   -0.006335
   8 C :   -0.084404
   9 C :    0.120305
  10 C :   -0.091597
  11 C :   -0.029894
  12 S :    0.175644
  13 C :   -0.123257
  14 C :    0.036516
  15 Br:    0.010236
  16 C :    0.134801
  17 O :   -0.168983
  18 C :   -0.088435
  19 C :   -0.047561
  20 C :   -0.019357
  21 C :    0.006277
  22 C :    0.021256
  23 C :    0.044553
  24 C :   -0.049446
  25 S :    0.093075
  26 C :   -0.032199
  27 C :    0.020695
  28 C :    0.055583
  29 C :   -0.064385
  30 S :    0.127104
  31 C :    0.038231
  32 C :   -0.157030
  33 S :    0.178464
  34 C :   -0.094412
  35 C :    0.137048
  36 C :   -0.053202
  37 S :    0.038945
  38 C :   -0.057259
  39 C :    0.004172
  40 O :   -0.149616
  41 C :    0.241828
  42 O :   -0.339770
  43 C :   -0.115490
  44 S :    0.155903
  45 C :   -0.112972
  46 C :    0.157371
  47 C :    0.179111
  48 O :   -0.421432
  49 S :    0.209506
  50 C :   -0.126799
  51 C :    0.246840
  52 O :   -0.321179
  53 C :    0.007023
  54 C :    0.009271
  55 C :    0.076052
  56 C :   -0.030721
  57 C :    0.051945
  58 C :    0.001510
  59 C :    0.043130
  60 C :   -0.019324
  61 C :    0.056190
  62 C :   -0.020630
  63 C :    0.051467
  64 C :    0.002001
  65 C :    0.052136
  66 C :   -0.030587
  67 C :    0.014004
  68 C :   -0.027002
  69 H :   -0.018167
  70 H :   -0.011077
  71 H :   -0.008349
  72 H :    0.016374
  73 H :    0.012190
  74 H :   -0.004186
  75 H :   -0.008915
  76 H :   -0.008127
  77 H :   -0.003115
  78 H :    0.004900
  79 H :    0.065989
  80 H :    0.086415
  81 H :    0.077825
  82 H :    0.048417
  83 H :    0.061244
  84 H :    0.076870
  85 H :    0.027938
  86 H :    0.015926
  87 H :   -0.016698
  88 H :   -0.022468
  89 H :   -0.031332
  90 H :   -0.027362
  91 H :   -0.025698
  92 H :   -0.029204
  93 H :   -0.025342
  94 H :   -0.022024
  95 H :   -0.021013
  96 H :    0.004941
  97 H :    0.018861
Sum of atomic charges:   -0.0000000

LOEWDIN ATOMIC CHARGES
----------------------
   0 C :    0.073722
   1 C :   -0.163186
   2 C :   -0.018590
   3 N :   -0.075937
   4 C :   -0.017642
   5 N :   -0.079320
   6 C :   -0.017119
   7 C :   -0.047602
   8 C :    0.015141
   9 C :   -0.037200
  10 C :   -0.146390
  11 C :   -0.015173
  12 S :    0.424296
  13 C :   -0.276264
  14 C :   -0.071112
  15 Br:    0.126221
  16 C :    0.080534
  17 O :   -0.162830
  18 C :   -0.115281
  19 C :    0.046423
  20 C :   -0.077407
  21 C :   -0.102043
  22 C :   -0.049766
  23 C :   -0.007930
  24 C :   -0.199790
  25 S :    0.415616
  26 C :   -0.145232
  27 C :   -0.045679
  28 C :   -0.008776
  29 C :   -0.169709
  30 S :    0.422473
  31 C :   -0.043946
  32 C :   -0.208395
  33 S :    0.463564
  34 C :   -0.188910
  35 C :   -0.016360
  36 C :   -0.219494
  37 S :    0.328466
  38 C :   -0.156388
  39 C :    0.044849
  40 O :   -0.115591
  41 C :    0.058636
  42 O :   -0.104232
  43 C :   -0.211046
  44 S :    0.467843
  45 C :   -0.183211
  46 C :   -0.015326
  47 C :   -0.038735
  48 O :   -0.250973
  49 S :    0.373701
  50 C :   -0.165561
  51 C :    0.065576
  52 O :   -0.111696
  53 C :   -0.043064
  54 C :   -0.021363
  55 C :   -0.065199
  56 C :    0.015857
  57 C :   -0.060550
  58 C :    0.075117
  59 C :   -0.067151
  60 C :    0.048309
  61 C :   -0.064596
  62 C :    0.019391
  63 C :   -0.065455
  64 C :    0.075148
  65 C :   -0.070478
  66 C :    0.040752
  67 C :   -0.020257
  68 C :   -0.058299
  69 H :    0.037856
  70 H :    0.039629
  71 H :    0.036844
  72 H :    0.028993
  73 H :    0.037661
  74 H :    0.036944
  75 H :    0.034277
  76 H :    0.034080
  77 H :    0.036987
  78 H :    0.038439
  79 H :    0.040968
  80 H :    0.041404
  81 H :    0.048388
  82 H :    0.044419
  83 H :    0.038236
  84 H :    0.035502
  85 H :    0.028179
  86 H :    0.012369
  87 H :    0.030816
  88 H :    0.019634
  89 H :    0.021446
  90 H :    0.033802
  91 H :    0.024278
  92 H :    0.023708
  93 H :    0.034975
  94 H :    0.025606
  95 H :    0.028748
  96 H :    0.016792
  97 H :    0.023636

  Mayer bond orders larger than 0.100000
B(  0-C ,  1-C ) :   1.5611 B(  0-C ,  6-C ) :   0.9830 B(  0-C , 18-C ) :   1.1345
B(  1-C ,  2-C ) :   1.1527 B(  1-C ,  4-C ) :   1.1573 B(  2-C ,  3-N ) :   2.9585
B(  4-C ,  5-N ) :   2.9586 B(  6-C ,  7-C ) :   1.2823 B(  6-C , 11-C ) :   1.4209
B(  7-C ,  8-C ) :   1.4318 B(  7-C , 16-C ) :   0.9295 B(  8-C ,  9-C ) :   1.2338
B(  8-C , 69-H ) :   1.0170 B(  9-C , 10-C ) :   1.3221 B(  9-C , 14-C ) :   1.1595
B( 10-C , 11-C ) :   1.3163 B( 10-C , 12-S ) :   1.0817 B( 11-C , 70-H ) :   0.9796
B( 12-S , 13-C ) :   1.0847 B( 13-C , 14-C ) :   1.6209 B( 13-C , 15-Br) :   1.0111
B( 14-C , 71-H ) :   1.0004 B( 16-C , 17-O ) :   2.1897 B( 16-C , 18-C ) :   0.9713
B( 18-C , 19-C ) :   1.4489 B( 19-C , 20-C ) :   1.2943 B( 19-C , 72-H ) :   0.9377
B( 20-C , 21-C ) :   1.3804 B( 20-C , 73-H ) :   0.9825 B( 21-C , 22-C ) :   1.2016
B( 21-C , 25-S ) :   1.0972 B( 22-C , 23-C ) :   1.5119 B( 22-C , 74-H ) :   1.0014
B( 23-C , 24-C ) :   1.2438 B( 23-C , 75-H ) :   0.9959 B( 24-C , 25-S ) :   1.0504
B( 24-C , 26-C ) :   1.4266 B( 26-C , 27-C ) :   1.2087 B( 26-C , 30-S ) :   1.1034
B( 27-C , 28-C ) :   1.5640 B( 27-C , 76-H ) :   0.9956 B( 28-C , 29-C ) :   1.1685
B( 28-C , 77-H ) :   0.9972 B( 29-C , 30-S ) :   1.0357 B( 29-C , 31-C ) :   1.5527
B( 31-C , 32-C ) :   1.1979 B( 31-C , 78-H ) :   0.9553 B( 32-C , 33-S ) :   1.0720
B( 32-C , 36-C ) :   1.4295 B( 33-S , 34-C ) :   1.1280 B( 34-C , 35-C ) :   1.4376
B( 34-C , 43-C ) :   1.2261 B( 35-C , 36-C ) :   1.2899 B( 35-C , 42-O ) :   1.1159
B( 36-C , 37-S ) :   1.0135 B( 37-S , 38-C ) :   0.9818 B( 38-C , 39-C ) :   0.9697
B( 38-C , 79-H ) :   0.9389 B( 38-C , 80-H ) :   0.9268 B( 39-C , 40-O ) :   2.2287
B( 39-C , 41-C ) :   0.9446 B( 41-C , 42-O ) :   0.9274 B( 41-C , 81-H ) :   0.9203
B( 41-C , 82-H ) :   0.9365 B( 43-C , 44-S ) :   1.1145 B( 43-C , 45-C ) :   0.1200
B( 43-C , 47-C ) :   1.4516 B( 44-S , 45-C ) :   1.0766 B( 45-C , 46-C ) :   1.4549
B( 45-C , 53-C ) :   1.1730 B( 46-C , 47-C ) :   1.2128 B( 46-C , 52-O ) :   1.1285
B( 47-C , 48-O ) :   1.0504 B( 48-O , 49-S ) :   0.8662 B( 49-S , 50-C ) :   1.0167
B( 50-C , 51-C ) :   1.0277 B( 50-C , 83-H ) :   0.9390 B( 50-C , 84-H ) :   0.9367
B( 51-C , 52-O ) :   0.9730 B( 51-C , 85-H ) :   0.9503 B( 51-C , 86-H ) :   0.9380
B( 53-C , 54-C ) :   1.6238 B( 53-C , 87-H ) :   0.9823 B( 54-C , 55-C ) :   1.0991
B( 54-C , 88-H ) :   0.9732 B( 55-C , 56-C ) :   1.4662 B( 55-C , 66-C ) :   1.1534
B( 56-C , 57-C ) :   1.1242 B( 56-C , 89-H ) :   1.0090 B( 57-C , 58-C ) :   1.4140
B( 57-C , 65-C ) :   1.1400 B( 58-C , 59-C ) :   1.1531 B( 58-C , 90-H ) :   1.0033
B( 59-C , 60-C ) :   1.4011 B( 59-C , 63-C ) :   1.1388 B( 60-C , 61-C ) :   1.1721
B( 60-C , 91-H ) :   1.0070 B( 61-C , 62-C ) :   1.4828 B( 61-C , 67-C ) :   1.0828
B( 62-C , 63-C ) :   1.1010 B( 62-C , 92-H ) :   1.0154 B( 63-C , 64-C ) :   1.4387
B( 64-C , 65-C ) :   1.1420 B( 64-C , 93-H ) :   1.0051 B( 65-C , 66-C ) :   1.3968
B( 66-C , 94-H ) :   1.0154 B( 67-C , 68-C ) :   1.9360 B( 67-C , 95-H ) :   0.9659
B( 68-C , 96-H ) :   0.9522 B( 68-C , 97-H ) :   0.9496

-----------------------------------------------------------------------------
         ABSORPTION SPECTRUM VIA TRANSITION ELECTRIC DIPOLE MOMENTS
-----------------------------------------------------------------------------
State   Energy  Wavelength   fosc         T2         TX        TY        TZ
        (cm-1)    (nm)                  (au**2)     (au)      (au)      (au)
-----------------------------------------------------------------------------
   0    7334.0   1363.5   0.032294476   1.44964   0.62024  -1.00307  -0.24249
   1    9465.6   1056.5   0.900322246  31.31311  -4.49719   2.32543   2.38344
   2   15884.4    629.5   0.703526656  14.58094   1.57359   3.25754  -1.22194
   3   17623.3    567.4   0.266111450   4.97109  -0.34995  -2.19289   0.19961
   4   19915.9    502.1   0.599198569   9.90482   0.10908  -3.13255   0.28293
   5   21456.2    466.1   0.212409534   3.25909  -0.17549   1.72946  -0.48710
   6   22099.5    452.5   0.194785359   2.90168   0.30516  -1.59709  -0.50779
   7   22314.0    448.1   0.267470800   3.94616  -0.43069  -1.74171   0.85271
   8   22869.3    437.3   0.535381838   7.70702   0.48075   2.69211  -0.47795
   9   23090.1    433.1   0.004631386   0.06603  -0.22311  -0.04558   0.11907
  10   24760.6    403.9   0.168721383   2.24329  -1.36328   0.08952   0.61380
  11   25140.5    397.8   0.364363949   4.77130  -0.59473  -1.96508   0.74569
  12   26232.2    381.2   0.000951523   0.01194  -0.03371  -0.10019  -0.02771
  13   26682.9    374.8   0.070730239   0.87267   0.22734  -0.90607   0.00400
  14   27014.7    370.2   0.000472312   0.00576   0.05303  -0.04899  -0.02332
  15   27563.0    362.8   0.010500272   0.12541  -0.28459   0.14971   0.14836
  16   28555.8    350.2   0.001199588   0.01383   0.02870  -0.05291  -0.10103
  17   28830.4    346.9   0.003274983   0.03740   0.07910   0.02943  -0.17399
  18   29317.7    341.1   0.085152636   0.95619   0.08165   0.52535  -0.82069
  19   29690.8    336.8   0.024903996   0.27614   0.17919   0.47640  -0.13066
  20   29978.2    333.6   0.142292968   1.56262   0.44351  -1.16354  -0.11002
  21   30684.6    325.9   0.077590836   0.83246   0.78939  -0.36523  -0.27557
  22   31374.8    318.7   0.060716420   0.63709   0.37407  -0.70492   0.01572
  23   31650.8    315.9   0.296489323   3.08390  -0.52946  -1.38635   0.93893
  24   31682.6    315.6   0.068156489   0.70821  -0.09285   0.83618  -0.01997
  25   32083.0    311.7   0.000017307   0.00018   0.00517   0.00634   0.01052
  26   32202.3    310.5   0.006579665   0.06727   0.15298  -0.17664  -0.11253
  27   32260.8    310.0   0.235774881   2.40601  -1.31508  -0.41993   0.70727
  28   32396.3    308.7   0.402383188   4.08903  -1.55157  -0.73352   1.06940
  29   32544.6    307.3   0.004341105   0.04391  -0.07107   0.18860   0.05738
  30   32681.5    306.0   0.030298835   0.30521   0.28509   0.23634  -0.40997
  31   32921.7    303.8   0.001524124   0.01524   0.04693  -0.10466  -0.04566
  32   33622.8    297.4   0.051896973   0.50814   0.35443   0.22095  -0.57767
  33   33777.4    296.1   0.029641756   0.28890  -0.12144  -0.35099   0.38853
  34   34110.8    293.2   0.029959235   0.28914  -0.34223   0.38504   0.15416
  35   34323.7    291.3   0.032493979   0.31166   0.25454  -0.46062   0.18627
  36   34653.2    288.6   0.045421436   0.43151   0.16369  -0.27433   0.57398
  37   34753.3    287.7   0.006587897   0.06241   0.08232   0.19340  -0.13501
  38   34857.4    286.9   0.015200633   0.14356   0.24831  -0.26145  -0.11638
  39   35588.7    281.0   0.167685230   1.55116   0.84569  -0.81787  -0.40873
  40   35659.8    280.4   0.015045029   0.13890   0.17382  -0.20885  -0.25507
  41   36247.2    275.9   0.177215088   1.60954   0.32260  -1.21322   0.18320
  42   37302.6    268.1   0.268676554   2.37119  -0.14610  -1.47841   0.40516
  43   37334.8    267.8   0.064863549   0.57196  -0.13948   0.71858  -0.19010
  44   37466.8    266.9   0.008171489   0.07180  -0.14721  -0.20834   0.08201
  45   37739.4    265.0   0.089596361   0.78158  -0.65969   0.19338   0.55587
  46   37905.1    263.8   0.090904521   0.78952  -0.56667   0.56873   0.38072
  47   38039.0    262.9   0.032638765   0.28247   0.00311   0.53067  -0.02926
  48   38184.2    261.9   0.013516848   0.11654   0.19926   0.15968  -0.22657
  49   38371.0    260.6   0.015235587   0.13072  -0.07446   0.35000  -0.05169
  50   38616.3    259.0   0.000031942   0.00027   0.01155   0.00220  -0.01158
  51   38680.8    258.5   0.016572358   0.14105  -0.31319   0.20668  -0.01549
  52   38838.9    257.5   0.019366532   0.16416  -0.08720  -0.21481   0.33228
  53   38979.2    256.5   0.002406141   0.02032  -0.08568   0.10055  -0.05358
  54   39523.3    253.0   0.018677969   0.15558  -0.14235   0.05312   0.36400
  55   39695.2    251.9   0.040714295   0.33766   0.17532  -0.47021   0.29296
  56   40147.8    249.1   0.030259718   0.24813  -0.24643   0.40562   0.15125
  57   40298.3    248.1   0.001001222   0.00818   0.04908  -0.07343  -0.01944

FINAL SINGLE POINT ENERGY     -7917.838848284523

DIPOLE MOMENT
-------------
                                X             Y             Z
Electronic contribution:   -159.93835      61.31764      83.64975
Nuclear contribution   :    163.43586     -60.27211     -86.44023
                        -----------------------------------------
Total Dipole Moment    :      3.49751       1.04554      -2.79048
                        -----------------------------------------
Magnitude (a.u.)       :      4.59483
Magnitude (Debye)      :     11.67913

Rotational constants in cm-1:     0.000625     0.000316     0.000218
Rotational constants in MHz :    18.732753     9.477725     6.530248

                             ****ORCA TERMINATED NORMALLY****
TOTAL RUN TIME: 0 days 0 hours 11 minutes 52 seconds 439 msec
