                         Program Version 4.2.0 -  RELEASE  -
|  1> # ORCA input file
|  2> # SCF done       -189.393293671079          0.000579115254
|  3> ! CAM-B3LYP def2-SVP def2/J RIJCOSX Grid4 TightSCF
|  4> %maxcore 5000
|  5> %tddft
|  6>     Mode sTDDFT
|  7>     Ethresh 5.0
|  8>     maxcore 5000
|  9> end
| 10>
| 11> %pal
| 12>   nprocs 6
| 13>   end
| 14> * xyz 0 1
| 15>    C       -4.53097         1.19378         3.13695
| 16>    C       -3.40702         1.79323         2.63175
| 17>    C       -2.29982         2.18029         3.41509
| 18>    N       -1.37730         2.51645         4.00957
| 19>    C       -3.19028         2.05910         1.26274
| 20>    N       -2.93710         2.27469         0.16420
| 21>    C       -4.73954         0.79391         4.52300
| 22>    C       -5.95460         0.07048         4.60999
| 23>    C       -6.41886        -0.45745         5.79034
| 24>    C       -5.65928        -0.25500         6.94766
| 25>    C       -4.45174         0.48010         6.85136
| 26>    C       -3.97561         1.00506         5.65558
| 27>    S       -3.67119         0.63219         8.39490
| 28>    C       -4.95688        -0.28074         9.14072
| 29>    C       -5.92220        -0.68264         8.27846
| 30>   Br       -4.90855        -0.61046        10.98435
| 31>    C       -6.60298         0.03708         3.28692
| 32>    O       -7.72830        -0.35565         3.04912
| 33>    C       -5.67702         0.74524         2.36926
| 34>    C       -5.98619         1.07416         1.08086
| 35>    C       -6.99341         0.40251         0.32176
| 36>    C       -7.82303         1.04584        -0.57018
| 37>    O       -8.84016         0.40758        -1.22118
| 38>    C       -8.98900        -0.92001        -0.92971
| 39>    C       -8.11899        -1.58816        -0.02134
| 40>    C       -8.43745        -2.89505         0.14438
| 41>    S       -9.80405        -3.32934        -0.81344
| 42>    C       -9.94891        -1.73163        -1.43891
| 43>    O       -7.08077        -0.94275         0.57761
| 44>    C       -7.81143         2.46785        -0.76626
| 45>    C       -8.92670         3.12362        -1.14739
| 46>    C       -9.07851         4.54579        -1.20496
| 47>    S      -10.51998         5.19206        -0.48968
| 48>    C       -9.96584         6.83365        -0.64313
| 49>    C       -8.73978         6.85754        -1.30428
| 50>    C       -8.24461         5.56805        -1.61497
| 51>    C       -6.97358         5.29129        -2.36273
| 52>    F       -7.03974         4.13293        -3.04214
| 53>    F       -6.67947         6.22522        -3.26880
| 54>    F       -5.91241         5.17843        -1.54311
| 55>    C       -7.96546         8.11275        -1.57285
| 56>    F       -8.30582         9.12372        -0.75386
| 57>    F       -6.64884         7.94848        -1.40258
| 58>    F       -8.15096         8.57821        -2.82015
| 59>    C      -10.70301         7.89480        -0.05874
| 60>    C      -11.48934         7.75426         1.05422
| 61>    C      -12.11309         8.79675         1.79756
| 62>    C      -12.59654         8.41290         3.01099
| 63>    C      -12.39727         7.04181         3.29507
| 64>    S      -11.67903         6.23815         1.91278
| 65>    C      -12.55470         6.31842         4.45787
| 66>    C      -13.04609         6.69792         5.72965
| 67>    C      -12.90023         5.73669         6.68112
| 68>    C      -12.27850         4.54230         6.22097
| 69>    S      -11.96079         4.67023         4.50219
| 70>    C      -11.89331         3.46785         6.97490
| 71>    C      -11.19994         2.32976         6.51731
| 72>    S      -10.80395         1.99388         4.83500
| 73>    C       -9.99116         0.52677         5.17897
| 74>    C       -9.99992         0.27828         6.53268
| 75>    C      -10.67933         1.29295         7.27445
| 76>    O      -10.63330         1.03516         8.59820
| 77>    C       -9.93090        -0.12517         8.71048
| 78>    N       -9.66184        -0.63304        10.00435
| 79>    O       -8.89641        -1.58026        10.04722
| 80>    O      -10.18549        -0.10081        10.95530
| 81>    C       -9.53215        -0.64245         7.50819
| 82>    H       -7.33949        -1.01648         5.81415
| 83>    H       -3.05085         1.55722         5.63717
| 84>    H       -6.77765        -1.25859         8.58403
| 85>    H       -5.44417         1.86691         0.58590
| 86>    H       -7.95056        -3.61886         0.76321
| 87>    H      -10.71840        -1.48434        -2.13993
| 88>    H       -6.90258         2.99769        -0.53059
| 89>    H       -9.84206         2.55867        -1.26475
| 90>    H      -10.56050         8.89289        -0.44394
| 91>    H      -12.13764         9.80501         1.42437
| 92>    H      -13.05020         9.08075         3.72155
| 93>    H      -13.47388         7.66866         5.90524
| 94>    H      -13.19594         5.84824         7.70930
| 95>    H      -12.09794         3.49060         8.03719
| 96>    H       -9.53286        -0.03079         4.38528
| 97>    H       -9.00344        -1.56209         7.36770
| 98> *
| 99>
|100>                          ****END OF INPUT****

CARTESIAN COORDINATES (ANGSTROEM)
---------------------------------
  C     -4.530970    1.193780    3.136950
  C     -3.407020    1.793230    2.631750
  C     -2.299820    2.180290    3.415090
  N     -1.377300    2.516450    4.009570
  C     -3.190280    2.059100    1.262740
  N     -2.937100    2.274690    0.164200
  C     -4.739540    0.793910    4.523000
  C     -5.954600    0.070480    4.609990
  C     -6.418860   -0.457450    5.790340
  C     -5.659280   -0.255000    6.947660
  C     -4.451740    0.480100    6.851360
  C     -3.975610    1.005060    5.655580
  S     -3.671190    0.632190    8.394900
  C     -4.956880   -0.280740    9.140720
  C     -5.922200   -0.682640    8.278460
  Br    -4.908550   -0.610460   10.984350
  C     -6.602980    0.037080    3.286920
  O     -7.728300   -0.355650    3.049120
  C     -5.677020    0.745240    2.369260
  C     -5.986190    1.074160    1.080860
  C     -6.993410    0.402510    0.321760
  C     -7.823030    1.045840   -0.570180
  O     -8.840160    0.407580   -1.221180
  C     -8.989000   -0.920010   -0.929710
  C     -8.118990   -1.588160   -0.021340
  C     -8.437450   -2.895050    0.144380
  S     -9.804050   -3.329340   -0.813440
  C     -9.948910   -1.731630   -1.438910
  O     -7.080770   -0.942750    0.577610
  C     -7.811430    2.467850   -0.766260
  C     -8.926700    3.123620   -1.147390
  C     -9.078510    4.545790   -1.204960
  S    -10.519980    5.192060   -0.489680
  C     -9.965840    6.833650   -0.643130
  C     -8.739780    6.857540   -1.304280
  C     -8.244610    5.568050   -1.614970
  C     -6.973580    5.291290   -2.362730
  F     -7.039740    4.132930   -3.042140
  F     -6.679470    6.225220   -3.268800
  F     -5.912410    5.178430   -1.543110
  C     -7.965460    8.112750   -1.572850
  F     -8.305820    9.123720   -0.753860
  F     -6.648840    7.948480   -1.402580
  F     -8.150960    8.578210   -2.820150
  C    -10.703010    7.894800   -0.058740
  C    -11.489340    7.754260    1.054220
  C    -12.113090    8.796750    1.797560
  C    -12.596540    8.412900    3.010990
  C    -12.397270    7.041810    3.295070
  S    -11.679030    6.238150    1.912780
  C    -12.554700    6.318420    4.457870
  C    -13.046090    6.697920    5.729650
  C    -12.900230    5.736690    6.681120
  C    -12.278500    4.542300    6.220970
  S    -11.960790    4.670230    4.502190
  C    -11.893310    3.467850    6.974900
  C    -11.199940    2.329760    6.517310
  S    -10.803950    1.993880    4.835000
  C     -9.991160    0.526770    5.178970
  C     -9.999920    0.278280    6.532680
  C    -10.679330    1.292950    7.274450
  O    -10.633300    1.035160    8.598200
  C     -9.930900   -0.125170    8.710480
  N     -9.661840   -0.633040   10.004350
  O     -8.896410   -1.580260   10.047220
  O    -10.185490   -0.100810   10.955300
  C     -9.532150   -0.642450    7.508190
  H     -7.339490   -1.016480    5.814150
  H     -3.050850    1.557220    5.637170
  H     -6.777650   -1.258590    8.584030
  H     -5.444170    1.866910    0.585900
  H     -7.950560   -3.618860    0.763210
  H    -10.718400   -1.484340   -2.139930
  H     -6.902580    2.997690   -0.530590
  H     -9.842060    2.558670   -1.264750
  H    -10.560500    8.892890   -0.443940
  H    -12.137640    9.805010    1.424370
  H    -13.050200    9.080750    3.721550
  H    -13.473880    7.668660    5.905240
  H    -13.195940    5.848240    7.709300
  H    -12.097940    3.490600    8.037190
  H     -9.532860   -0.030790    4.385280
  H     -9.003440   -1.562090    7.367700

 Total Charge           Charge          ....    0
 Multiplicity           Mult            ....    1
 Number of Electrons    NEL             ....  540
 Basis Dimension        Dim             .... 1060

ORBITAL ENERGIES
----------------

  NO   OCC          E(Eh)            E(eV)
   0   2.0000    -482.882964    -13139.9135
   1   2.0000     -88.981880     -2421.3200
   2   2.0000     -88.980388     -2421.2794
   3   2.0000     -88.976408     -2421.1712
   4   2.0000     -88.966507     -2420.9017
   5   2.0000     -88.957120     -2420.6463
   6   2.0000     -88.955027     -2420.5893
   7   2.0000     -62.560666     -1702.3623
   8   2.0000     -56.394641     -1534.5762
   9   2.0000     -56.391876     -1534.5010
  10   2.0000     -56.391865     -1534.5006
  11   2.0000     -24.800074      -674.8443
  12   2.0000     -24.799155      -674.8193
  13   2.0000     -24.796695      -674.7524
  14   2.0000     -24.796636      -674.7508
  15   2.0000     -24.796538      -674.7481
  16   2.0000     -24.791922      -674.6225
  17   2.0000     -19.318272      -525.6769
  18   2.0000     -19.297803      -525.1199
  19   2.0000     -19.281826      -524.6852
  20   2.0000     -19.256616      -523.9992
  21   2.0000     -19.253371      -523.9109
  22   2.0000     -19.224759      -523.1323
  23   2.0000     -14.666805      -399.1040
  24   2.0000     -14.418639      -392.3511
  25   2.0000     -14.418374      -392.3439
  26   2.0000     -10.522152      -286.3223
  27   2.0000     -10.521011      -286.2913
  28   2.0000     -10.395128      -282.8658
  29   2.0000     -10.375865      -282.3416
  30   2.0000     -10.375039      -282.3192
  31   2.0000     -10.363975      -282.0181
  32   2.0000     -10.359003      -281.8828
  33   2.0000     -10.354952      -281.7726
  34   2.0000     -10.351319      -281.6737
  35   2.0000     -10.348774      -281.6045
  36   2.0000     -10.347248      -281.5629
  37   2.0000     -10.345245      -281.5084
  38   2.0000     -10.335289      -281.2375
  39   2.0000     -10.330576      -281.1093
  40   2.0000     -10.328172      -281.0439
  41   2.0000     -10.327489      -281.0253
  42   2.0000     -10.325914      -280.9824
  43   2.0000     -10.325522      -280.9717
  44   2.0000     -10.324171      -280.9350
  45   2.0000     -10.321680      -280.8672
  46   2.0000     -10.320998      -280.8486
  47   2.0000     -10.320576      -280.8371
  48   2.0000     -10.319882      -280.8183
  49   2.0000     -10.319377      -280.8045
  50   2.0000     -10.314993      -280.6852
  51   2.0000     -10.314832      -280.6809
  52   2.0000     -10.312333      -280.6128
  53   2.0000     -10.312147      -280.6078
  54   2.0000     -10.311183      -280.5816
  55   2.0000     -10.309042      -280.5233
  56   2.0000     -10.308423      -280.5065
  57   2.0000     -10.307198      -280.4731
  58   2.0000     -10.306172      -280.4452
  59   2.0000     -10.305770      -280.4343
  60   2.0000     -10.305560      -280.4285
  61   2.0000     -10.304572      -280.4017
  62   2.0000     -10.303603      -280.3753
  63   2.0000     -10.302798      -280.3534
  64   2.0000     -10.301675      -280.3228
  65   2.0000     -10.300524      -280.2915
  66   2.0000     -10.299298      -280.2582
  67   2.0000     -10.297235      -280.2020
  68   2.0000     -10.297044      -280.1968
  69   2.0000     -10.296669      -280.1866
  70   2.0000     -10.295335      -280.1503
  71   2.0000      -8.790101      -239.1908
  72   2.0000      -8.076431      -219.7709
  73   2.0000      -8.076400      -219.7700
  74   2.0000      -8.072481      -219.6634
  75   2.0000      -8.062358      -219.3879
  76   2.0000      -8.053568      -219.1487
  77   2.0000      -8.051580      -219.0946
  78   2.0000      -6.626492      -180.3160
  79   2.0000      -6.611848      -179.9175
  80   2.0000      -6.611516      -179.9085
  81   2.0000      -6.045717      -164.5123
  82   2.0000      -6.045573      -164.5084
  83   2.0000      -6.042150      -164.4153
  84   2.0000      -6.041405      -164.3950
  85   2.0000      -6.041198      -164.3893
  86   2.0000      -6.038935      -164.3278
  87   2.0000      -6.038583      -164.3182
  88   2.0000      -6.037879      -164.2990
  89   2.0000      -6.033704      -164.1854
  90   2.0000      -6.031868      -164.1355
  91   2.0000      -6.027658      -164.0209
  92   2.0000      -6.024025      -163.9221
  93   2.0000      -6.023389      -163.9047
  94   2.0000      -6.021419      -163.8511
  95   2.0000      -6.019191      -163.7905
  96   2.0000      -6.017194      -163.7362
  97   2.0000      -6.014344      -163.6586
  98   2.0000      -6.012264      -163.6020
  99   2.0000      -2.742338       -74.6228
 100   2.0000      -2.738268       -74.5121
 101   2.0000      -2.738030       -74.5056
 102   2.0000      -2.726375       -74.1884
 103   2.0000      -2.726370       -74.1883
 104   2.0000      -1.391414       -37.8623
 105   2.0000      -1.386670       -37.7332
 106   2.0000      -1.338532       -36.4233
 107   2.0000      -1.294173       -35.2162
 108   2.0000      -1.290016       -35.1031
 109   2.0000      -1.287288       -35.0289
 110   2.0000      -1.286516       -35.0079
 111   2.0000      -1.237692       -33.6793
 112   2.0000      -1.219985       -33.1975
 113   2.0000      -1.180972       -32.1359
 114   2.0000      -1.155967       -31.4555
 115   2.0000      -1.137136       -30.9430
 116   2.0000      -1.025946       -27.9174
 117   2.0000      -1.019831       -27.7510
 118   2.0000      -1.015612       -27.6362
 119   2.0000      -1.010106       -27.4864
 120   2.0000      -1.001425       -27.2502
 121   2.0000      -0.998284       -27.1647
 122   2.0000      -0.996970       -27.1289
 123   2.0000      -0.992609       -27.0103
 124   2.0000      -0.984246       -26.7827
 125   2.0000      -0.949429       -25.8353
 126   2.0000      -0.944812       -25.7096
 127   2.0000      -0.939606       -25.5680
 128   2.0000      -0.921148       -25.0657
 129   2.0000      -0.911787       -24.8110
 130   2.0000      -0.909830       -24.7577
 131   2.0000      -0.903044       -24.5731
 132   2.0000      -0.891785       -24.2667
 133   2.0000      -0.888920       -24.1887
 134   2.0000      -0.887458       -24.1490
 135   2.0000      -0.874799       -23.8045
 136   2.0000      -0.867403       -23.6032
 137   2.0000      -0.856355       -23.3026
 138   2.0000      -0.842423       -22.9235
 139   2.0000      -0.839513       -22.8443
 140   2.0000      -0.835953       -22.7474
 141   2.0000      -0.830976       -22.6120
 142   2.0000      -0.828413       -22.5423
 143   2.0000      -0.823167       -22.3995
 144   2.0000      -0.803487       -21.8640
 145   2.0000      -0.790533       -21.5115
 146   2.0000      -0.784770       -21.3547
 147   2.0000      -0.771682       -20.9985
 148   2.0000      -0.770886       -20.9769
 149   2.0000      -0.762361       -20.7449
 150   2.0000      -0.752834       -20.4856
 151   2.0000      -0.735108       -20.0033
 152   2.0000      -0.722854       -19.6699
 153   2.0000      -0.716191       -19.4885
 154   2.0000      -0.710431       -19.3318
 155   2.0000      -0.705376       -19.1943
 156   2.0000      -0.703618       -19.1464
 157   2.0000      -0.701718       -19.0947
 158   2.0000      -0.692239       -18.8368
 159   2.0000      -0.689596       -18.7649
 160   2.0000      -0.684519       -18.6267
 161   2.0000      -0.678014       -18.4497
 162   2.0000      -0.674932       -18.3658
 163   2.0000      -0.672988       -18.3129
 164   2.0000      -0.671241       -18.2654
 165   2.0000      -0.668065       -18.1790
 166   2.0000      -0.666877       -18.1467
 167   2.0000      -0.659076       -17.9344
 168   2.0000      -0.656153       -17.8548
 169   2.0000      -0.650981       -17.7141
 170   2.0000      -0.648141       -17.6368
 171   2.0000      -0.638925       -17.3860
 172   2.0000      -0.636246       -17.3131
 173   2.0000      -0.631727       -17.1902
 174   2.0000      -0.628325       -17.0976
 175   2.0000      -0.616031       -16.7630
 176   2.0000      -0.611743       -16.6464
 177   2.0000      -0.609152       -16.5759
 178   2.0000      -0.605580       -16.4787
 179   2.0000      -0.598475       -16.2853
 180   2.0000      -0.596255       -16.2249
 181   2.0000      -0.594412       -16.1748
 182   2.0000      -0.590528       -16.0691
 183   2.0000      -0.588403       -16.0113
 184   2.0000      -0.576587       -15.6897
 185   2.0000      -0.574866       -15.6429
 186   2.0000      -0.568376       -15.4663
 187   2.0000      -0.564574       -15.3628
 188   2.0000      -0.559697       -15.2301
 189   2.0000      -0.558203       -15.1895
 190   2.0000      -0.553725       -15.0676
 191   2.0000      -0.552667       -15.0388
 192   2.0000      -0.550792       -14.9878
 193   2.0000      -0.547150       -14.8887
 194   2.0000      -0.545969       -14.8566
 195   2.0000      -0.542010       -14.7488
 196   2.0000      -0.541433       -14.7331
 197   2.0000      -0.539814       -14.6891
 198   2.0000      -0.531626       -14.4663
 199   2.0000      -0.529913       -14.4197
 200   2.0000      -0.525263       -14.2931
 201   2.0000      -0.524894       -14.2831
 202   2.0000      -0.522264       -14.2115
 203   2.0000      -0.520383       -14.1603
 204   2.0000      -0.516758       -14.0617
 205   2.0000      -0.515887       -14.0380
 206   2.0000      -0.511795       -13.9267
 207   2.0000      -0.510131       -13.8814
 208   2.0000      -0.509418       -13.8620
 209   2.0000      -0.508336       -13.8325
 210   2.0000      -0.506781       -13.7902
 211   2.0000      -0.503533       -13.7018
 212   2.0000      -0.501157       -13.6372
 213   2.0000      -0.499212       -13.5843
 214   2.0000      -0.496255       -13.5038
 215   2.0000      -0.494805       -13.4643
 216   2.0000      -0.494088       -13.4448
 217   2.0000      -0.492658       -13.4059
 218   2.0000      -0.488290       -13.2870
 219   2.0000      -0.486263       -13.2319
 220   2.0000      -0.485131       -13.2011
 221   2.0000      -0.482128       -13.1194
 222   2.0000      -0.481537       -13.1033
 223   2.0000      -0.478054       -13.0085
 224   2.0000      -0.476958       -12.9787
 225   2.0000      -0.472257       -12.8508
 226   2.0000      -0.471799       -12.8383
 227   2.0000      -0.465081       -12.6555
 228   2.0000      -0.461921       -12.5695
 229   2.0000      -0.460304       -12.5255
 230   2.0000      -0.460036       -12.5182
 231   2.0000      -0.457454       -12.4480
 232   2.0000      -0.451171       -12.2770
 233   2.0000      -0.449680       -12.2364
 234   2.0000      -0.446308       -12.1447
 235   2.0000      -0.444945       -12.1076
 236   2.0000      -0.441619       -12.0171
 237   2.0000      -0.440904       -11.9976
 238   2.0000      -0.433361       -11.7923
 239   2.0000      -0.431948       -11.7539
 240   2.0000      -0.429547       -11.6886
 241   2.0000      -0.427578       -11.6350
 242   2.0000      -0.424017       -11.5381
 243   2.0000      -0.420957       -11.4548
 244   2.0000      -0.417193       -11.3524
 245   2.0000      -0.411818       -11.2061
 246   2.0000      -0.408014       -11.1026
 247   2.0000      -0.401685       -10.9304
 248   2.0000      -0.397493       -10.8163
 249   2.0000      -0.394973       -10.7478
 250   2.0000      -0.391922       -10.6647
 251   2.0000      -0.389885       -10.6093
 252   2.0000      -0.383827       -10.4445
 253   2.0000      -0.378999       -10.3131
 254   2.0000      -0.371385       -10.1059
 255   2.0000      -0.366919        -9.9844
 256   2.0000      -0.354508        -9.6466
 257   2.0000      -0.351280        -9.5588
 258   2.0000      -0.348126        -9.4730
 259   2.0000      -0.344693        -9.3796
 260   2.0000      -0.336947        -9.1688
 261   2.0000      -0.330577        -8.9955
 262   2.0000      -0.321173        -8.7396
 263   2.0000      -0.318103        -8.6560
 264   2.0000      -0.312897        -8.5144
 265   2.0000      -0.311340        -8.4720
 266   2.0000      -0.295208        -8.0330
 267   2.0000      -0.287393        -7.8204
 268   2.0000      -0.262911        -7.1542
 269   2.0000      -0.227748        -6.1973
 270   0.0000      -0.099815        -2.7161
 271   0.0000      -0.091498        -2.4898
 272   0.0000      -0.069837        -1.9004
 273   0.0000      -0.066895        -1.8203
 274   0.0000      -0.037472        -1.0197

MULLIKEN ATOMIC CHARGES
-----------------------
   0 C :    0.295789
   1 C :   -0.333864
   2 C :   -0.183464
   3 N :    0.154057
   4 C :   -0.199773
   5 N :    0.164035
   6 C :    0.011920
   7 C :   -0.009692
   8 C :   -0.063279
   9 C :    0.134850
  10 C :   -0.094327
  11 C :   -0.017263
  12 S :    0.188842
  13 C :   -0.130464
  14 C :    0.031247
  15 Br:    0.037369
  16 C :    0.158399
  17 O :   -0.164090
  18 C :   -0.065818
  19 C :   -0.072369
  20 C :    0.151025
  21 C :    0.162231
  22 O :   -0.239735
  23 C :    0.205916
  24 C :    0.233798
  25 C :   -0.169226
  26 S :    0.118208
  27 C :   -0.165288
  28 O :   -0.235361
  29 C :   -0.015262
  30 C :    0.045388
  31 C :   -0.139696
  32 S :    0.162321
  33 C :   -0.131059
  34 C :   -0.065399
  35 C :   -0.058032
  36 C :    0.521211
  37 F :   -0.159174
  38 F :   -0.146446
  39 F :   -0.159599
  40 C :    0.510670
  41 F :   -0.162656
  42 F :   -0.154323
  43 F :   -0.158061
  44 C :    0.014848
  45 C :   -0.039541
  46 C :    0.028593
  47 C :    0.049045
  48 C :   -0.049002
  49 S :    0.051759
  50 C :   -0.023536
  51 C :    0.032943
  52 C :    0.046400
  53 C :   -0.033397
  54 S :    0.049038
  55 C :    0.012488
  56 C :   -0.208768
  57 S :    0.145139
  58 C :   -0.120283
  59 C :    0.107421
  60 C :    0.202801
  61 O :   -0.184712
  62 C :    0.230434
  63 N :    0.278293
  64 O :   -0.249836
  65 O :   -0.219882
  66 C :   -0.081749
  67 H :   -0.044100
  68 H :   -0.005957
  69 H :   -0.012210
  70 H :    0.061211
  71 H :    0.029639
  72 H :    0.029881
  73 H :    0.015507
  74 H :    0.023599
  75 H :    0.011462
  76 H :   -0.002655
  77 H :   -0.006278
  78 H :   -0.009302
  79 H :   -0.003849
  80 H :    0.006964
  81 H :    0.049724
  82 H :    0.024312
Sum of atomic charges:   -0.0000000

LOEWDIN ATOMIC CHARGES
----------------------
   0 C :    0.072309
   1 C :   -0.133865
   2 C :   -0.018121
   3 N :   -0.048128
   4 C :   -0.025169
   5 N :   -0.043583
   6 C :   -0.021431
   7 C :   -0.050710
   8 C :    0.017384
   9 C :   -0.029554
  10 C :   -0.143301
  11 C :   -0.007934
  12 S :    0.434604
  13 C :   -0.268673
  14 C :   -0.074695
  15 Br:    0.146884
  16 C :    0.089172
  17 O :   -0.150438
  18 C :   -0.079542
  19 C :    0.055618
  20 C :    0.011536
  21 C :    0.063306
  22 O :   -0.034865
  23 C :   -0.010274
  24 C :   -0.002638
  25 C :   -0.203065
  26 S :    0.445611
  27 C :   -0.203046
  28 O :   -0.039171
  29 C :   -0.020287
  30 C :   -0.025179
  31 C :   -0.159010
  32 S :    0.481381
  33 C :   -0.144224
  34 C :   -0.114145
  35 C :   -0.105010
  36 C :    0.161949
  37 F :   -0.056145
  38 F :   -0.042899
  39 F :   -0.060978
  40 C :    0.162802
  41 F :   -0.055966
  42 F :   -0.050380
  43 F :   -0.062507
  44 C :   -0.088400
  45 C :   -0.133928
  46 C :   -0.033311
  47 C :   -0.020793
  48 C :   -0.184857
  49 S :    0.359173
  50 C :   -0.164718
  51 C :   -0.037659
  52 C :   -0.018825
  53 C :   -0.157228
  54 S :    0.365255
  55 C :   -0.056257
  56 C :   -0.209748
  57 S :    0.483269
  58 C :   -0.174767
  59 C :   -0.090600
  60 C :    0.024712
  61 O :    0.001934
  62 C :    0.023205
  63 N :    0.274412
  64 O :   -0.215214
  65 O :   -0.181546
  66 C :   -0.013231
  67 H :    0.032290
  68 H :    0.041422
  69 H :    0.033770
  70 H :    0.049676
  71 H :    0.031768
  72 H :    0.031529
  73 H :    0.036435
  74 H :    0.036415
  75 H :    0.038860
  76 H :    0.036482
  77 H :    0.035143
  78 H :    0.034317
  79 H :    0.036790
  80 H :    0.047191
  81 H :    0.027659
  82 H :    0.041749

  Mayer bond orders larger than 0.100000
B(  0-C ,  1-C ) :   1.6505 B(  0-C ,  6-C ) :   1.0065 B(  0-C , 18-C ) :   1.0611
B(  1-C ,  2-C ) :   1.1399 B(  1-C ,  4-C ) :   1.1399 B(  2-C ,  3-N ) :   2.9734
B(  4-C ,  5-N ) :   2.9860 B(  6-C ,  7-C ) :   1.2701 B(  6-C , 11-C ) :   1.4100
B(  7-C ,  8-C ) :   1.4347 B(  7-C , 16-C ) :   0.9495 B(  8-C ,  9-C ) :   1.2489
B(  8-C , 67-H ) :   1.0077 B(  9-C , 10-C ) :   1.3030 B(  9-C , 14-C ) :   1.1522
B( 10-C , 11-C ) :   1.3296 B( 10-C , 12-S ) :   1.0886 B( 11-C , 68-H ) :   0.9806
B( 12-S , 13-C ) :   1.0861 B( 13-C , 14-C ) :   1.6222 B( 13-C , 15-Br) :   1.0319
B( 14-C , 69-H ) :   0.9913 B( 16-C , 17-O ) :   2.1331 B( 16-C , 18-C ) :   0.9638
B( 18-C , 19-C ) :   1.6088 B( 19-C , 20-C ) :   1.1816 B( 19-C , 70-H ) :   0.9277
B( 20-C , 21-C ) :   1.4345 B( 20-C , 28-O ) :   1.0749 B( 21-C , 22-O ) :   1.1055
B( 21-C , 29-C ) :   1.1776 B( 22-O , 23-C ) :   1.0240 B( 23-C , 24-C ) :   1.2042
B( 23-C , 27-C ) :   1.5742 B( 24-C , 25-C ) :   1.5767 B( 24-C , 28-O ) :   1.0486
B( 25-C , 26-S ) :   1.1412 B( 25-C , 71-H ) :   0.9722 B( 26-S , 27-C ) :   1.1505
B( 27-C , 72-H ) :   0.9737 B( 29-C , 30-C ) :   1.7401 B( 29-C , 73-H ) :   0.9358
B( 30-C , 31-C ) :   1.0687 B( 30-C , 74-H ) :   0.9478 B( 31-C , 32-S ) :   1.1408
B( 31-C , 35-C ) :   1.5495 B( 32-S , 33-C ) :   1.1390 B( 33-C , 34-C ) :   1.4997
B( 33-C , 44-C ) :   1.1354 B( 34-C , 35-C ) :   1.3025 B( 34-C , 40-C ) :   0.9453
B( 35-C , 36-C ) :   0.9413 B( 36-C , 37-F ) :   1.1521 B( 36-C , 38-F ) :   1.1606
B( 36-C , 39-F ) :   1.1429 B( 40-C , 41-F ) :   1.1335 B( 40-C , 42-F ) :   1.1524
B( 40-C , 43-F ) :   1.1877 B( 44-C , 45-C ) :   1.6044 B( 44-C , 75-H ) :   0.9591
B( 45-C , 46-C ) :   1.1314 B( 45-C , 49-S ) :   1.0460 B( 46-C , 47-C ) :   1.6131
B( 46-C , 76-H ) :   0.9976 B( 47-C , 48-C ) :   1.1764 B( 47-C , 77-H ) :   0.9933
B( 48-C , 49-S ) :   1.0289 B( 48-C , 50-C ) :   1.5325 B( 50-C , 51-C ) :   1.1738
B( 50-C , 54-S ) :   1.0475 B( 51-C , 52-C ) :   1.6068 B( 51-C , 78-H ) :   0.9939
B( 52-C , 53-C ) :   1.1333 B( 52-C , 79-H ) :   0.9988 B( 53-C , 54-S ) :   1.0299
B( 53-C , 55-C ) :   1.5818 B( 55-C , 56-C ) :   1.1696 B( 55-C , 80-H ) :   0.9747
B( 56-C , 57-S ) :   1.1022 B( 56-C , 58-C ) :   0.1065 B( 56-C , 60-C ) :   1.4424
B( 57-S , 58-C ) :   1.2051 B( 58-C , 59-C ) :   1.4120 B( 58-C , 81-H ) :   0.9561
B( 59-C , 60-C ) :   1.2317 B( 59-C , 66-C ) :   1.0660 B( 60-C , 61-O ) :   1.1225
B( 61-O , 62-C ) :   1.1251 B( 62-C , 63-N ) :   0.9226 B( 62-C , 66-C ) :   1.5731
B( 63-N , 64-O ) :   1.5119 B( 63-N , 65-O ) :   1.5229 B( 64-O , 65-O ) :   0.2728
B( 66-C , 82-H ) :   1.0119

-----------------------------------------------------------------------------
         ABSORPTION SPECTRUM VIA TRANSITION ELECTRIC DIPOLE MOMENTS
-----------------------------------------------------------------------------
State   Energy  Wavelength   fosc         T2         TX        TY        TZ
        (cm-1)    (nm)                  (au**2)     (au)      (au)      (au)
-----------------------------------------------------------------------------
   0   13831.7    723.0   0.203969443   4.85472   1.54738   0.42622  -1.50952
   1   16205.3    617.1   0.506608108  10.29177  -0.30579   2.04622  -2.45178
   2   18627.6    536.8   0.517739081   9.15020  -1.62450   0.86242  -2.40155
   3   19942.0    501.5   0.124637429   2.05757  -0.45105  -0.04043   1.36106
   4   21676.6    461.3   0.078890019   1.19814   0.07313  -0.77592   0.76859
   5   23446.9    426.5   0.127940322   1.79638   0.43062  -1.23088  -0.30963
   6   24644.0    405.8   0.030654841   0.40951  -0.36566   0.34262   0.39800
   7   25788.1    387.8   0.029068477   0.37109  -0.10924  -0.34642   0.48903
   8   26029.0    384.2   0.373235037   4.72064   0.98819  -1.93246   0.09845
   9   26910.2    371.6   0.366088417   4.47862   0.11177   1.62814  -1.34732
  10   27784.1    359.9   0.286435718   3.39396  -0.10194   0.81685   1.64813
  11   28230.2    354.2   0.094771709   1.10520   0.97779  -0.38357   0.04471
  12   29383.3    340.3   0.029133850   0.32642   0.10177  -0.55779   0.07022
  13   29421.3    339.9   0.077538534   0.86762  -0.35904   0.82298  -0.24785
  14   29813.0    335.4   0.113894562   1.25769  -0.84688   0.53509   0.50415
  15   30274.3    330.3   0.047726587   0.51899  -0.48342  -0.49660  -0.19669
  16   30500.5    327.9   0.010110486   0.10913   0.32321  -0.03584  -0.05813
  17   30906.6    323.6   0.210210552   2.23913  -0.65873   0.68179  -1.15774
  18   31213.8    320.4   0.019277731   0.20332   0.41396  -0.16998   0.05536
  19   31761.2    314.8   0.268978473   2.78802   1.12426  -0.92126  -0.82180
  20   32316.1    309.4   0.056751629   0.57814   0.41285   0.61499  -0.17171
  21   32367.2    309.0   0.563224914   5.72866  -0.76978  -0.86828   2.09337
  22   32786.1    305.0   0.051145481   0.51356   0.24704  -0.09983  -0.66526
  23   33065.8    302.4   0.002313354   0.02303   0.03825  -0.06143   0.13340
  24   33257.0    300.7   0.246276785   2.43790   0.43822  -1.43952   0.41671
  25   34095.9    293.3   0.009715774   0.09381  -0.11122  -0.18262   0.21930
  26   34285.0    291.7   0.013015753   0.12498  -0.05197   0.15790   0.31200
  27   34525.9    289.6   0.049778455   0.47465  -0.27526   0.01221  -0.63145
  28   35186.2    284.2   0.067919593   0.63547  -0.05087  -0.32408   0.72654
  29   35614.5    280.8   0.005922562   0.05475   0.19065   0.12273  -0.05778
  30   35700.8    280.1   0.022215925   0.20486  -0.30603   0.26451  -0.20308
  31   35884.6    278.7   0.002401782   0.02203   0.01243   0.07273  -0.12880
  32   35967.8    278.0   0.019059937   0.17445  -0.19616  -0.36823  -0.01957
  33   36514.9    273.9   0.381324289   3.43795   0.49241  -0.58514   1.68911
  34   36729.7    272.3   0.035079829   0.31442   0.11942   0.54624  -0.04225
  35   37272.9    268.3   0.041413242   0.36578   0.50643   0.31013  -0.11456
  36   37429.4    267.2   0.082640322   0.72687  -0.78919  -0.28883  -0.14361
  37   37627.1    265.8   0.086171519   0.75394  -0.64551  -0.09588  -0.57277
  38   38144.3    262.2   0.118808320   1.02540  -0.33666  -0.02534   0.95468
  39   38156.9    262.1   0.041374206   0.35697   0.00695   0.52068   0.29294
  40   38327.3    260.9   0.071690863   0.61579  -0.73919  -0.02271  -0.26244
  41   38755.8    258.0   0.029182425   0.24789   0.21778   0.25933   0.36498
  42   39156.1    255.4   0.032311452   0.27166  -0.32057  -0.36188   0.19479
  43   39312.1    254.4   0.036283283   0.30385   0.45079   0.22661  -0.22199
  44   39576.9    252.7   0.010759322   0.08950  -0.27087  -0.10339  -0.07376
  45   39659.3    252.1   0.033830933   0.28083   0.23842  -0.14163   0.45159
  46   39818.2    251.1   0.007258272   0.06001  -0.10269  -0.14976   0.16443
  47   40021.2    249.9   0.051088519   0.42025   0.25214   0.17875   0.56985
  48   40167.6    249.0   0.034836687   0.28552   0.01167  -0.10004   0.52476

FINAL SINGLE POINT ENERGY     -7897.720356995789

DIPOLE MOMENT
-------------
                                X             Y             Z
Electronic contribution:     51.43506      -8.92242      38.94373
Nuclear contribution   :    -54.94107       8.84100     -38.28987
                        -----------------------------------------
Total Dipole Moment    :     -3.50601      -0.08141       0.65386
                        -----------------------------------------
Magnitude (a.u.)       :      3.56739
Magnitude (Debye)      :      9.06759

Rotational constants in cm-1:     0.001025     0.000553     0.000475
Rotational constants in MHz :    30.742678    16.585956    14.241356

                             ****ORCA TERMINATED NORMALLY****
TOTAL RUN TIME: 0 days 0 hours 8 minutes 28 seconds 877 msec
