                         Program Version 4.2.0 -  RELEASE  -
|  1> # ORCA input file
|  2> # SCF done       -204.230575417421          0.000263139263
|  3> ! CAM-B3LYP def2-SVP def2/J RIJCOSX Grid4 TightSCF
|  4> %maxcore 5000
|  5> %tddft
|  6>     Mode sTDDFT
|  7>     Ethresh 5.0
|  8>     maxcore 5000
|  9> end
| 10>
| 11> %pal
| 12>   nprocs 6
| 13>   end
| 14> * xyz 0 1
| 15>    C       -5.09007         5.05258        -7.79786
| 16>    C       -5.53120         3.77128        -7.99574
| 17>    C       -5.35417         3.04924        -9.19244
| 18>    N       -5.22684         2.40573       -10.13512
| 19>    C       -6.15033         2.99973        -6.99231
| 20>    N       -6.62840         2.31256        -6.20577
| 21>    C       -4.35726         5.87720        -8.74152
| 22>    C       -3.88521         7.02832        -8.06036
| 23>    C       -3.22122         8.04501        -8.70165
| 24>    C       -3.04398         7.93297       -10.08415
| 25>    C       -3.49325         6.76799       -10.75393
| 26>    C       -4.13862         5.72603       -10.09920
| 27>    S       -3.19826         6.85894       -12.46485
| 28>    C       -2.51324         8.44921       -12.26170
| 29>    C       -2.48755         8.88391       -10.97877
| 30>   Br       -1.93584         9.42048       -13.75916
| 31>    C       -4.28366         6.96541        -6.64106
| 32>    O       -3.96049         7.73355        -5.76437
| 33>    C       -5.21557         5.80447        -6.55816
| 34>    C       -6.22427         5.67556        -5.65663
| 35>    C       -6.37962         6.41760        -4.44509
| 36>    C       -5.40307         6.82542        -3.61694
| 37>    C       -5.98458         7.46751        -2.40595
| 38>    C       -7.38009         7.91168        -2.88735
| 39>    C       -7.73577         6.78273        -3.87443
| 40>    C       -8.21864         8.05217        -1.61159
| 41>    C       -7.58815         7.05401        -0.60518
| 42>    C       -8.67249         6.03703        -0.38182
| 43>    C       -9.79223         6.35372        -1.00743
| 44>    C       -9.69900         7.65595        -1.74073
| 45>    C       -6.35635         6.51323        -1.28969
| 46>    C       -5.86216         5.29737        -1.05855
| 47>    C       -4.85784         4.63160        -1.85681
| 48>    S       -5.30958         3.16680        -2.64782
| 49>    C       -3.81917         3.07664        -3.54055
| 50>    C       -2.97186         4.13918        -3.17373
| 51>    C       -3.56200         5.00703        -2.20116
| 52>    C       -2.83046         6.09907        -1.68587
| 53>    C       -1.56775         6.31580        -2.15034
| 54>    F       -0.84240         7.33730        -1.66989
| 55>    C       -0.99329         5.47413        -3.13358
| 56>    F        0.25270         5.73358        -3.55472
| 57>    C       -1.67324         4.40301        -3.64160
| 58>    C       -3.61974         2.09986        -4.52216
| 59>    C       -4.45182         1.02560        -4.71734
| 60>    C       -4.41044         0.12441        -5.78525
| 61>    C       -3.78059         0.27663        -7.00232
| 62>    C       -3.81900        -0.64912        -8.06862
| 63>    C       -3.21442        -0.22171        -9.21524
| 64>    C       -2.67381         1.07462        -9.11938
| 65>    S       -2.91745         1.71719        -7.51796
| 66>    C       -2.02844         1.81058       -10.10164
| 67>    C       -1.64118         1.39025       -11.38537
| 68>    C       -0.98849         2.35353       -12.10373
| 69>    C       -0.84820         3.57993       -11.42541
| 70>    S       -1.57478         3.47990        -9.83961
| 71>    C       -0.24104         4.72496       -11.91526
| 72>    C       -0.20283         5.91966       -11.21702
| 73>    C        0.33550         7.13985       -11.58224
| 74>    C        0.48617         8.16568       -10.53108
| 75>    O        0.01883         8.12750        -9.40825
| 76>    C        1.31522         9.22946       -11.12488
| 77>    C        1.77862        10.37875       -10.55544
| 78>    C        2.57787        11.25506       -11.32399
| 79>    C        2.88077        10.91429       -12.67327
| 80>    C        3.67952        11.78836       -13.43504
| 81>    C        4.14333        12.94169       -12.86595
| 82>    C        3.85600        13.29482       -11.54129
| 83>    C        3.08230        12.45643       -10.78727
| 84>    F        4.90704        13.77996       -13.59356
| 85>    C        2.37815         9.71781       -13.23867
| 86>    C        1.60191         8.88868       -12.47743
| 87>    C        0.90175         7.64160       -12.80176
| 88>    C        0.69569         7.19156       -14.08812
| 89>    C       -0.27042         6.24377       -14.47151
| 90>    N       -1.09215         5.54042       -14.86124
| 91>    C        1.33686         7.72346       -15.22336
| 92>    N        1.84975         8.07622       -16.18907
| 93>    H       -2.86412         8.90741        -8.16265
| 94>    H       -4.48354         4.86539       -10.64888
| 95>    H       -2.09667         9.83741       -10.67401
| 96>    H       -7.03560         4.99327        -5.88933
| 97>    H       -4.35091         6.70704        -3.77642
| 98>    H       -5.37397         8.28496        -2.01506
| 99>    H       -7.33032         8.85444        -3.43660
|100>    H       -8.42924         7.10118        -4.65223
|101>    H       -8.16544         5.92459        -3.35094
|102>    H       -8.12563         9.07828        -1.25165
|103>    H       -7.31348         7.53060         0.34267
|104>    H       -8.51592         5.16760         0.23136
|105>    H      -10.70479         5.78277        -0.99753
|106>    H      -10.34974         8.39596        -1.26854
|107>    H      -10.01528         7.56317        -2.77983
|108>    H       -6.33381         4.67747        -0.30655
|109>    H       -3.26066         6.74416        -0.93775
|110>    H       -1.20451         3.77606        -4.38228
|111>    H       -2.74244         2.21977        -5.14098
|112>    H       -5.22128         0.85017        -3.97638
|113>    H       -5.00642        -0.77374        -5.68679
|114>    H       -4.30623        -1.60205        -7.96067
|115>    H       -3.17478        -0.78845       -10.12708
|116>    H       -1.83735         0.39621       -11.74387
|117>    H       -0.61630         2.22309       -13.10397
|118>    H        0.21531         4.64203       -12.88881
|119>    H       -0.60253         5.90695       -10.20514
|120>    H        1.53946        10.61772        -9.52975
|121>    H        3.91834        11.54984       -14.45968
|122>    H        4.24987        14.21771       -11.14589
|123>    H        2.84726        12.70627        -9.76337
|124>    H        2.62639         9.49092       -14.26268
|125> *
|126>
|127>                          ****END OF INPUT****

CARTESIAN COORDINATES (ANGSTROEM)
---------------------------------
  C     -5.090070    5.052580   -7.797860
  C     -5.531200    3.771280   -7.995740
  C     -5.354170    3.049240   -9.192440
  N     -5.226840    2.405730  -10.135120
  C     -6.150330    2.999730   -6.992310
  N     -6.628400    2.312560   -6.205770
  C     -4.357260    5.877200   -8.741520
  C     -3.885210    7.028320   -8.060360
  C     -3.221220    8.045010   -8.701650
  C     -3.043980    7.932970  -10.084150
  C     -3.493250    6.767990  -10.753930
  C     -4.138620    5.726030  -10.099200
  S     -3.198260    6.858940  -12.464850
  C     -2.513240    8.449210  -12.261700
  C     -2.487550    8.883910  -10.978770
  Br    -1.935840    9.420480  -13.759160
  C     -4.283660    6.965410   -6.641060
  O     -3.960490    7.733550   -5.764370
  C     -5.215570    5.804470   -6.558160
  C     -6.224270    5.675560   -5.656630
  C     -6.379620    6.417600   -4.445090
  C     -5.403070    6.825420   -3.616940
  C     -5.984580    7.467510   -2.405950
  C     -7.380090    7.911680   -2.887350
  C     -7.735770    6.782730   -3.874430
  C     -8.218640    8.052170   -1.611590
  C     -7.588150    7.054010   -0.605180
  C     -8.672490    6.037030   -0.381820
  C     -9.792230    6.353720   -1.007430
  C     -9.699000    7.655950   -1.740730
  C     -6.356350    6.513230   -1.289690
  C     -5.862160    5.297370   -1.058550
  C     -4.857840    4.631600   -1.856810
  S     -5.309580    3.166800   -2.647820
  C     -3.819170    3.076640   -3.540550
  C     -2.971860    4.139180   -3.173730
  C     -3.562000    5.007030   -2.201160
  C     -2.830460    6.099070   -1.685870
  C     -1.567750    6.315800   -2.150340
  F     -0.842400    7.337300   -1.669890
  C     -0.993290    5.474130   -3.133580
  F      0.252700    5.733580   -3.554720
  C     -1.673240    4.403010   -3.641600
  C     -3.619740    2.099860   -4.522160
  C     -4.451820    1.025600   -4.717340
  C     -4.410440    0.124410   -5.785250
  C     -3.780590    0.276630   -7.002320
  C     -3.819000   -0.649120   -8.068620
  C     -3.214420   -0.221710   -9.215240
  C     -2.673810    1.074620   -9.119380
  S     -2.917450    1.717190   -7.517960
  C     -2.028440    1.810580  -10.101640
  C     -1.641180    1.390250  -11.385370
  C     -0.988490    2.353530  -12.103730
  C     -0.848200    3.579930  -11.425410
  S     -1.574780    3.479900   -9.839610
  C     -0.241040    4.724960  -11.915260
  C     -0.202830    5.919660  -11.217020
  C      0.335500    7.139850  -11.582240
  C      0.486170    8.165680  -10.531080
  O      0.018830    8.127500   -9.408250
  C      1.315220    9.229460  -11.124880
  C      1.778620   10.378750  -10.555440
  C      2.577870   11.255060  -11.323990
  C      2.880770   10.914290  -12.673270
  C      3.679520   11.788360  -13.435040
  C      4.143330   12.941690  -12.865950
  C      3.856000   13.294820  -11.541290
  C      3.082300   12.456430  -10.787270
  F      4.907040   13.779960  -13.593560
  C      2.378150    9.717810  -13.238670
  C      1.601910    8.888680  -12.477430
  C      0.901750    7.641600  -12.801760
  C      0.695690    7.191560  -14.088120
  C     -0.270420    6.243770  -14.471510
  N     -1.092150    5.540420  -14.861240
  C      1.336860    7.723460  -15.223360
  N      1.849750    8.076220  -16.189070
  H     -2.864120    8.907410   -8.162650
  H     -4.483540    4.865390  -10.648880
  H     -2.096670    9.837410  -10.674010
  H     -7.035600    4.993270   -5.889330
  H     -4.350910    6.707040   -3.776420
  H     -5.373970    8.284960   -2.015060
  H     -7.330320    8.854440   -3.436600
  H     -8.429240    7.101180   -4.652230
  H     -8.165440    5.924590   -3.350940
  H     -8.125630    9.078280   -1.251650
  H     -7.313480    7.530600    0.342670
  H     -8.515920    5.167600    0.231360
  H    -10.704790    5.782770   -0.997530
  H    -10.349740    8.395960   -1.268540
  H    -10.015280    7.563170   -2.779830
  H     -6.333810    4.677470   -0.306550
  H     -3.260660    6.744160   -0.937750
  H     -1.204510    3.776060   -4.382280
  H     -2.742440    2.219770   -5.140980
  H     -5.221280    0.850170   -3.976380
  H     -5.006420   -0.773740   -5.686790
  H     -4.306230   -1.602050   -7.960670
  H     -3.174780   -0.788450  -10.127080
  H     -1.837350    0.396210  -11.743870
  H     -0.616300    2.223090  -13.103970
  H      0.215310    4.642030  -12.888810
  H     -0.602530    5.906950  -10.205140
  H      1.539460   10.617720   -9.529750
  H      3.918340   11.549840  -14.459680
  H      4.249870   14.217710  -11.145890
  H      2.847260   12.706270   -9.763370
  H      2.626390    9.490920  -14.262680

 Total Charge           Charge          ....    0
 Multiplicity           Mult            ....    1
 Number of Electrons    NEL             ....  586
 Basis Dimension        Dim             .... 1286

ORBITAL ENERGIES
----------------

  NO   OCC          E(Eh)            E(eV)
   0   2.0000    -482.873925    -13139.6675
   1   2.0000     -88.974546     -2421.1205
   2   2.0000     -88.965728     -2420.8805
   3   2.0000     -88.963095     -2420.8089
   4   2.0000     -88.958323     -2420.6790
   5   2.0000     -62.551157     -1702.1035
   6   2.0000     -56.385141     -1534.3177
   7   2.0000     -56.382404     -1534.2432
   8   2.0000     -56.382388     -1534.2428
   9   2.0000     -24.790292      -674.5781
  10   2.0000     -24.789536      -674.5576
  11   2.0000     -24.772736      -674.1004
  12   2.0000     -19.212425      -522.7967
  13   2.0000     -19.191875      -522.2375
  14   2.0000     -14.415072      -392.2541
  15   2.0000     -14.414865      -392.2484
  16   2.0000     -14.392943      -391.6519
  17   2.0000     -14.392807      -391.6482
  18   2.0000     -10.374632      -282.3081
  19   2.0000     -10.372728      -282.2563
  20   2.0000     -10.363797      -282.0133
  21   2.0000     -10.355031      -281.7747
  22   2.0000     -10.347067      -281.5580
  23   2.0000     -10.341720      -281.4125
  24   2.0000     -10.338313      -281.3198
  25   2.0000     -10.335664      -281.2477
  26   2.0000     -10.331643      -281.1383
  27   2.0000     -10.322147      -280.8799
  28   2.0000     -10.321241      -280.8553
  29   2.0000     -10.318809      -280.7891
  30   2.0000     -10.318099      -280.7697
  31   2.0000     -10.317201      -280.7453
  32   2.0000     -10.316114      -280.7157
  33   2.0000     -10.314908      -280.6829
  34   2.0000     -10.314701      -280.6773
  35   2.0000     -10.313775      -280.6521
  36   2.0000     -10.312781      -280.6250
  37   2.0000     -10.312275      -280.6113
  38   2.0000     -10.302078      -280.3338
  39   2.0000     -10.301763      -280.3252
  40   2.0000     -10.300583      -280.2931
  41   2.0000     -10.299952      -280.2759
  42   2.0000     -10.299017      -280.2505
  43   2.0000     -10.298517      -280.2369
  44   2.0000     -10.298425      -280.2344
  45   2.0000     -10.297999      -280.2228
  46   2.0000     -10.297275      -280.2031
  47   2.0000     -10.297199      -280.2010
  48   2.0000     -10.295871      -280.1649
  49   2.0000     -10.295410      -280.1524
  50   2.0000     -10.295191      -280.1464
  51   2.0000     -10.294854      -280.1372
  52   2.0000     -10.294415      -280.1253
  53   2.0000     -10.293085      -280.0891
  54   2.0000     -10.290465      -280.0178
  55   2.0000     -10.289892      -280.0022
  56   2.0000     -10.289579      -279.9937
  57   2.0000     -10.286466      -279.9090
  58   2.0000     -10.286261      -279.9034
  59   2.0000     -10.285847      -279.8921
  60   2.0000     -10.285147      -279.8731
  61   2.0000     -10.284833      -279.8645
  62   2.0000     -10.284046      -279.8431
  63   2.0000     -10.283796      -279.8363
  64   2.0000     -10.283403      -279.8256
  65   2.0000     -10.282976      -279.8140
  66   2.0000     -10.282624      -279.8044
  67   2.0000     -10.281876      -279.7841
  68   2.0000     -10.281039      -279.7613
  69   2.0000     -10.280490      -279.7464
  70   2.0000     -10.279136      -279.7095
  71   2.0000     -10.278503      -279.6923
  72   2.0000     -10.278472      -279.6915
  73   2.0000     -10.275850      -279.6201
  74   2.0000     -10.274696      -279.5887
  75   2.0000     -10.274416      -279.5811
  76   2.0000     -10.271063      -279.4898
  77   2.0000     -10.271059      -279.4897
  78   2.0000     -10.270841      -279.4838
  79   2.0000     -10.270677      -279.4793
  80   2.0000     -10.270115      -279.4640
  81   2.0000     -10.267081      -279.3815
  82   2.0000      -8.780406      -238.9270
  83   2.0000      -8.069700      -219.5877
  84   2.0000      -8.060605      -219.3402
  85   2.0000      -8.058119      -219.2726
  86   2.0000      -8.053767      -219.1541
  87   2.0000      -6.616699      -180.0495
  88   2.0000      -6.602185      -179.6546
  89   2.0000      -6.601897      -179.6468
  90   2.0000      -6.038630      -164.3195
  91   2.0000      -6.034515      -164.2075
  92   2.0000      -6.032538      -164.1537
  93   2.0000      -6.030235      -164.0910
  94   2.0000      -6.027878      -164.0269
  95   2.0000      -6.026160      -163.9802
  96   2.0000      -6.023509      -163.9080
  97   2.0000      -6.023292      -163.9021
  98   2.0000      -6.021991      -163.8667
  99   2.0000      -6.019377      -163.7956
 100   2.0000      -6.019338      -163.7945
 101   2.0000      -6.015152      -163.6806
 102   2.0000      -2.732558       -74.3567
 103   2.0000      -2.728538       -74.2473
 104   2.0000      -2.728316       -74.2412
 105   2.0000      -2.716785       -73.9275
 106   2.0000      -2.716770       -73.9271
 107   2.0000      -1.312598       -35.7176
 108   2.0000      -1.297479       -35.3062
 109   2.0000      -1.287055       -35.0226
 110   2.0000      -1.128478       -30.7074
 111   2.0000      -1.105497       -30.0821
 112   2.0000      -1.018259       -27.7082
 113   2.0000      -1.012968       -27.5643
 114   2.0000      -1.008084       -27.4313
 115   2.0000      -1.005919       -27.3725
 116   2.0000      -0.996639       -27.1199
 117   2.0000      -0.994116       -27.0513
 118   2.0000      -0.992032       -26.9946
 119   2.0000      -0.984666       -26.7941
 120   2.0000      -0.983324       -26.7576
 121   2.0000      -0.981839       -26.7172
 122   2.0000      -0.972254       -26.4564
 123   2.0000      -0.957050       -26.0427
 124   2.0000      -0.950364       -25.8607
 125   2.0000      -0.943952       -25.6862
 126   2.0000      -0.932318       -25.3697
 127   2.0000      -0.926293       -25.2057
 128   2.0000      -0.912341       -24.8261
 129   2.0000      -0.905547       -24.6412
 130   2.0000      -0.901200       -24.5229
 131   2.0000      -0.896910       -24.4062
 132   2.0000      -0.889354       -24.2006
 133   2.0000      -0.878218       -23.8975
 134   2.0000      -0.875860       -23.8333
 135   2.0000      -0.874380       -23.7931
 136   2.0000      -0.868259       -23.6265
 137   2.0000      -0.862645       -23.4738
 138   2.0000      -0.857824       -23.3426
 139   2.0000      -0.851377       -23.1671
 140   2.0000      -0.840926       -22.8828
 141   2.0000      -0.838021       -22.8037
 142   2.0000      -0.832898       -22.6643
 143   2.0000      -0.830205       -22.5910
 144   2.0000      -0.819279       -22.2937
 145   2.0000      -0.818631       -22.2761
 146   2.0000      -0.815994       -22.2043
 147   2.0000      -0.803773       -21.8718
 148   2.0000      -0.800413       -21.7804
 149   2.0000      -0.782840       -21.3022
 150   2.0000      -0.777890       -21.1675
 151   2.0000      -0.762085       -20.7374
 152   2.0000      -0.754208       -20.5230
 153   2.0000      -0.745751       -20.2929
 154   2.0000      -0.744363       -20.2551
 155   2.0000      -0.741325       -20.1725
 156   2.0000      -0.735515       -20.0144
 157   2.0000      -0.718780       -19.5590
 158   2.0000      -0.710241       -19.3266
 159   2.0000      -0.700250       -19.0548
 160   2.0000      -0.698494       -19.0070
 161   2.0000      -0.692622       -18.8472
 162   2.0000      -0.686464       -18.6796
 163   2.0000      -0.684809       -18.6346
 164   2.0000      -0.679077       -18.4786
 165   2.0000      -0.672320       -18.2948
 166   2.0000      -0.669990       -18.2314
 167   2.0000      -0.661946       -18.0125
 168   2.0000      -0.657732       -17.8978
 169   2.0000      -0.651946       -17.7404
 170   2.0000      -0.646000       -17.5786
 171   2.0000      -0.641260       -17.4496
 172   2.0000      -0.639890       -17.4123
 173   2.0000      -0.634303       -17.2603
 174   2.0000      -0.629215       -17.1218
 175   2.0000      -0.622496       -16.9390
 176   2.0000      -0.620930       -16.8964
 177   2.0000      -0.619189       -16.8490
 178   2.0000      -0.614935       -16.7332
 179   2.0000      -0.614395       -16.7185
 180   2.0000      -0.612399       -16.6642
 181   2.0000      -0.611194       -16.6314
 182   2.0000      -0.606460       -16.5026
 183   2.0000      -0.605512       -16.4768
 184   2.0000      -0.601241       -16.3606
 185   2.0000      -0.593359       -16.1461
 186   2.0000      -0.590751       -16.0751
 187   2.0000      -0.587340       -15.9823
 188   2.0000      -0.581165       -15.8143
 189   2.0000      -0.577294       -15.7090
 190   2.0000      -0.575618       -15.6634
 191   2.0000      -0.575525       -15.6608
 192   2.0000      -0.566682       -15.4202
 193   2.0000      -0.564399       -15.3581
 194   2.0000      -0.556310       -15.1380
 195   2.0000      -0.548806       -14.9338
 196   2.0000      -0.547853       -14.9078
 197   2.0000      -0.545731       -14.8501
 198   2.0000      -0.544950       -14.8288
 199   2.0000      -0.540339       -14.7034
 200   2.0000      -0.539761       -14.6876
 201   2.0000      -0.539112       -14.6700
 202   2.0000      -0.537557       -14.6277
 203   2.0000      -0.534535       -14.5454
 204   2.0000      -0.532235       -14.4828
 205   2.0000      -0.526691       -14.3320
 206   2.0000      -0.524526       -14.2731
 207   2.0000      -0.523304       -14.2398
 208   2.0000      -0.520726       -14.1697
 209   2.0000      -0.516990       -14.0680
 210   2.0000      -0.513689       -13.9782
 211   2.0000      -0.512915       -13.9571
 212   2.0000      -0.511335       -13.9141
 213   2.0000      -0.509732       -13.8705
 214   2.0000      -0.508559       -13.8386
 215   2.0000      -0.505394       -13.7525
 216   2.0000      -0.503586       -13.7033
 217   2.0000      -0.500125       -13.6091
 218   2.0000      -0.498590       -13.5673
 219   2.0000      -0.495620       -13.4865
 220   2.0000      -0.494962       -13.4686
 221   2.0000      -0.490498       -13.3471
 222   2.0000      -0.486688       -13.2435
 223   2.0000      -0.485235       -13.2039
 224   2.0000      -0.482112       -13.1189
 225   2.0000      -0.481093       -13.0912
 226   2.0000      -0.480355       -13.0711
 227   2.0000      -0.478401       -13.0180
 228   2.0000      -0.477646       -12.9974
 229   2.0000      -0.475335       -12.9345
 230   2.0000      -0.473112       -12.8740
 231   2.0000      -0.472642       -12.8612
 232   2.0000      -0.467162       -12.7121
 233   2.0000      -0.463229       -12.6051
 234   2.0000      -0.462979       -12.5983
 235   2.0000      -0.460039       -12.5183
 236   2.0000      -0.459741       -12.5102
 237   2.0000      -0.455289       -12.3890
 238   2.0000      -0.453193       -12.3320
 239   2.0000      -0.450479       -12.2581
 240   2.0000      -0.448595       -12.2069
 241   2.0000      -0.447346       -12.1729
 242   2.0000      -0.445492       -12.1225
 243   2.0000      -0.444128       -12.0853
 244   2.0000      -0.442747       -12.0478
 245   2.0000      -0.442133       -12.0311
 246   2.0000      -0.440907       -11.9977
 247   2.0000      -0.439775       -11.9669
 248   2.0000      -0.436665       -11.8822
 249   2.0000      -0.433026       -11.7832
 250   2.0000      -0.431548       -11.7430
 251   2.0000      -0.429124       -11.6771
 252   2.0000      -0.425340       -11.5741
 253   2.0000      -0.423593       -11.5266
 254   2.0000      -0.422589       -11.4992
 255   2.0000      -0.420976       -11.4553
 256   2.0000      -0.419979       -11.4282
 257   2.0000      -0.417590       -11.3632
 258   2.0000      -0.414779       -11.2867
 259   2.0000      -0.413749       -11.2587
 260   2.0000      -0.411851       -11.2070
 261   2.0000      -0.409641       -11.1469
 262   2.0000      -0.409081       -11.1317
 263   2.0000      -0.407621       -11.0919
 264   2.0000      -0.403500       -10.9798
 265   2.0000      -0.401145       -10.9157
 266   2.0000      -0.399021       -10.8579
 267   2.0000      -0.396425       -10.7873
 268   2.0000      -0.394994       -10.7483
 269   2.0000      -0.385733       -10.4963
 270   2.0000      -0.380230       -10.3466
 271   2.0000      -0.378254       -10.2928
 272   2.0000      -0.368886       -10.0379
 273   2.0000      -0.364663        -9.9230
 274   2.0000      -0.361570        -9.8388
 275   2.0000      -0.359172        -9.7736
 276   2.0000      -0.346193        -9.4204
 277   2.0000      -0.343742        -9.3537
 278   2.0000      -0.339433        -9.2364
 279   2.0000      -0.336419        -9.1544
 280   2.0000      -0.333979        -9.0880
 281   2.0000      -0.329807        -8.9745
 282   2.0000      -0.324458        -8.8289
 283   2.0000      -0.318264        -8.6604
 284   2.0000      -0.318068        -8.6551
 285   2.0000      -0.306987        -8.3535
 286   2.0000      -0.302827        -8.2403
 287   2.0000      -0.294163        -8.0046
 288   2.0000      -0.287996        -7.8368
 289   2.0000      -0.281463        -7.6590
 290   2.0000      -0.280739        -7.6393
 291   2.0000      -0.256993        -6.9931
 292   2.0000      -0.214814        -5.8454
 293   0.0000      -0.109543        -2.9808
 294   0.0000      -0.079583        -2.1656
 295   0.0000      -0.064248        -1.7483
 296   0.0000      -0.049129        -1.3369
 297   0.0000      -0.042489        -1.1562

MULLIKEN ATOMIC CHARGES
-----------------------
   0 C :    0.271917
   1 C :   -0.342645
   2 C :   -0.182067
   3 N :    0.147572
   4 C :   -0.186644
   5 N :    0.138924
   6 C :    0.021584
   7 C :   -0.009552
   8 C :   -0.055805
   9 C :    0.128711
  10 C :   -0.118695
  11 C :   -0.022138
  12 S :    0.210646
  13 C :   -0.156774
  14 C :    0.085254
  15 Br:    0.036415
  16 C :    0.146791
  17 O :   -0.151014
  18 C :   -0.095517
  19 C :    0.008107
  20 C :   -0.115842
  21 C :    0.066131
  22 C :    0.034282
  23 C :   -0.086158
  24 C :    0.190722
  25 C :   -0.044825
  26 C :    0.080495
  27 C :   -0.012697
  28 C :   -0.080497
  29 C :    0.173783
  30 C :   -0.052624
  31 C :   -0.037370
  32 C :   -0.144116
  33 S :    0.179994
  34 C :   -0.112675
  35 C :    0.131036
  36 C :    0.095887
  37 C :   -0.117279
  38 C :    0.239540
  39 F :   -0.177246
  40 C :    0.240302
  41 F :   -0.171637
  42 C :   -0.117381
  43 C :   -0.010158
  44 C :    0.012789
  45 C :    0.050059
  46 C :   -0.057702
  47 C :    0.060007
  48 C :    0.035907
  49 C :   -0.016282
  50 S :    0.063442
  51 C :   -0.047080
  52 C :    0.055156
  53 C :    0.024860
  54 C :   -0.019571
  55 S :    0.095567
  56 C :   -0.002994
  57 C :    0.001943
  58 C :   -0.123390
  59 C :    0.134162
  60 O :   -0.181465
  61 C :    0.010068
  62 C :   -0.094865
  63 C :    0.101448
  64 C :    0.105806
  65 C :   -0.100879
  66 C :    0.300978
  67 C :   -0.033380
  68 C :   -0.012237
  69 F :   -0.196022
  70 C :   -0.100854
  71 C :    0.053644
  72 C :    0.311282
  73 C :   -0.366253
  74 C :   -0.226525
  75 N :    0.148889
  76 C :   -0.176846
  77 N :    0.129597
  78 H :   -0.011114
  79 H :   -0.005268
  80 H :   -0.005453
  81 H :    0.020077
  82 H :    0.017856
  83 H :    0.022897
  84 H :    0.004598
  85 H :    0.010256
  86 H :    0.020425
  87 H :   -0.011568
  88 H :    0.017369
  89 H :   -0.007990
  90 H :   -0.005661
  91 H :    0.016169
  92 H :    0.008931
  93 H :   -0.003949
  94 H :   -0.008730
  95 H :   -0.006620
  96 H :    0.014126
  97 H :    0.001629
  98 H :   -0.001008
  99 H :   -0.004397
 100 H :   -0.006669
 101 H :   -0.006405
 102 H :    0.002502
 103 H :    0.002413
 104 H :    0.015760
 105 H :   -0.022171
 106 H :   -0.004999
 107 H :   -0.002816
 108 H :   -0.014740
 109 H :   -0.011449
Sum of atomic charges:   -0.0000000

LOEWDIN ATOMIC CHARGES
----------------------
   0 C :    0.076090
   1 C :   -0.152853
   2 C :   -0.024140
   3 N :   -0.061582
   4 C :   -0.017626
   5 N :   -0.064497
   6 C :   -0.030630
   7 C :   -0.052174
   8 C :    0.034457
   9 C :   -0.024914
  10 C :   -0.148429
  11 C :   -0.013392
  12 S :    0.459627
  13 C :   -0.272458
  14 C :   -0.063784
  15 Br:    0.154539
  16 C :    0.086177
  17 O :   -0.133964
  18 C :   -0.086073
  19 C :    0.067731
  20 C :   -0.054776
  21 C :    0.057689
  22 C :   -0.023112
  23 C :   -0.003215
  24 C :   -0.018455
  25 C :   -0.011776
  26 C :   -0.018891
  27 C :   -0.028068
  28 C :   -0.022627
  29 C :   -0.026059
  30 C :    0.016104
  31 C :   -0.080423
  32 C :   -0.156527
  33 S :    0.499328
  34 C :   -0.184045
  35 C :   -0.035430
  36 C :   -0.057131
  37 C :   -0.037552
  38 C :    0.061648
  39 F :   -0.054704
  40 C :    0.069613
  41 F :   -0.049877
  42 C :   -0.040336
  43 C :   -0.023688
  44 C :   -0.046447
  45 C :   -0.004019
  46 C :   -0.163085
  47 C :   -0.002340
  48 C :   -0.041498
  49 C :   -0.135094
  50 S :    0.417636
  51 C :   -0.195031
  52 C :    0.001585
  53 C :   -0.046186
  54 C :   -0.099893
  55 S :    0.412465
  56 C :   -0.078204
  57 C :    0.039563
  58 C :   -0.121374
  59 C :    0.077048
  60 O :   -0.175481
  61 C :   -0.057348
  62 C :    0.023311
  63 C :   -0.022001
  64 C :    0.001909
  65 C :   -0.043612
  66 C :    0.089672
  67 C :   -0.043016
  68 C :    0.001073
  69 F :   -0.069967
  70 C :    0.004013
  71 C :   -0.012015
  72 C :    0.065292
  73 C :   -0.166108
  74 C :   -0.029296
  75 N :   -0.075489
  76 C :   -0.020071
  77 N :   -0.073161
  78 H :    0.042395
  79 H :    0.037775
  80 H :    0.037685
  81 H :    0.042883
  82 H :    0.025613
  83 H :    0.036218
  84 H :    0.027020
  85 H :    0.024374
  86 H :    0.032006
  87 H :    0.024969
  88 H :    0.036472
  89 H :    0.019908
  90 H :    0.022678
  91 H :    0.031031
  92 H :    0.026042
  93 H :    0.031229
  94 H :    0.042144
  95 H :    0.042137
  96 H :    0.019586
  97 H :    0.027409
  98 H :    0.041934
  99 H :    0.038221
 100 H :    0.035459
 101 H :    0.036506
 102 H :    0.040371
 103 H :    0.037223
 104 H :    0.030535
 105 H :    0.035392
 106 H :    0.042032
 107 H :    0.039202
 108 H :    0.033274
 109 H :    0.037654

  Mayer bond orders larger than 0.100000
B(  0-C ,  1-C ) :   1.6513 B(  0-C ,  6-C ) :   1.0278 B(  0-C , 18-C ) :   1.0298
B(  1-C ,  2-C ) :   1.1366 B(  1-C ,  4-C ) :   1.1553 B(  2-C ,  3-N ) :   2.9400
B(  4-C ,  5-N ) :   2.9438 B(  6-C ,  7-C ) :   1.2583 B(  6-C , 11-C ) :   1.3990
B(  7-C ,  8-C ) :   1.4248 B(  7-C , 16-C ) :   0.9505 B(  8-C ,  9-C ) :   1.2421
B(  8-C , 78-H ) :   1.0168 B(  9-C , 10-C ) :   1.2956 B(  9-C , 14-C ) :   1.1827
B( 10-C , 11-C ) :   1.3323 B( 10-C , 12-S ) :   1.0850 B( 11-C , 79-H ) :   0.9857
B( 12-S , 13-C ) :   1.0973 B( 13-C , 14-C ) :   1.5971 B( 13-C , 15-Br) :   1.0332
B( 14-C , 80-H ) :   0.9885 B( 16-C , 17-O ) :   2.1861 B( 16-C , 18-C ) :   0.9314
B( 18-C , 19-C ) :   1.6616 B( 19-C , 20-C ) :   1.1211 B( 19-C , 81-H ) :   0.9534
B( 20-C , 21-C ) :   1.7648 B( 20-C , 24-C ) :   1.0092 B( 21-C , 22-C ) :   0.9947
B( 21-C , 82-H ) :   0.9650 B( 22-C , 23-C ) :   1.0467 B( 22-C , 30-C ) :   0.9693
B( 22-C , 83-H ) :   0.8941 B( 23-C , 24-C ) :   1.0353 B( 23-C , 25-C ) :   1.0333
B( 23-C , 84-H ) :   0.9227 B( 24-C , 85-H ) :   0.9325 B( 24-C , 86-H ) :   0.8900
B( 25-C , 26-C ) :   1.0681 B( 25-C , 29-C ) :   1.0773 B( 25-C , 87-H ) :   0.8918
B( 26-C , 27-C ) :   0.9979 B( 26-C , 30-C ) :   1.0140 B( 26-C , 88-H ) :   0.8619
B( 27-C , 28-C ) :   1.8909 B( 27-C , 89-H ) :   0.9864 B( 28-C , 29-C ) :   1.0214
B( 28-C , 90-H ) :   0.9886 B( 29-C , 91-H ) :   0.9200 B( 29-C , 92-H ) :   0.9239
B( 30-C , 31-C ) :   1.8983 B( 31-C , 32-C ) :   1.0051 B( 31-C , 93-H ) :   0.9380
B( 32-C , 33-S ) :   1.2067 B( 32-C , 34-C ) :   0.1014 B( 32-C , 36-C ) :   1.3937
B( 33-S , 34-C ) :   1.1184 B( 34-C , 35-C ) :   1.3050 B( 34-C , 43-C ) :   1.2700
B( 35-C , 36-C ) :   1.2005 B( 35-C , 42-C ) :   1.1726 B( 36-C , 37-C ) :   1.1485
B( 37-C , 38-C ) :   1.4937 B( 37-C , 42-C ) :   0.1141 B( 37-C , 94-H ) :   1.0107
B( 38-C , 39-F ) :   1.1241 B( 38-C , 40-C ) :   1.1471 B( 40-C , 41-F ) :   1.1331
B( 40-C , 42-C ) :   1.4965 B( 42-C , 95-H ) :   1.0010 B( 43-C , 44-C ) :   1.5347
B( 43-C , 96-H ) :   0.9435 B( 44-C , 45-C ) :   1.2507 B( 44-C , 97-H ) :   0.9592
B( 45-C , 46-C ) :   1.5262 B( 45-C , 98-H ) :   0.9596 B( 46-C , 47-C ) :   1.1838
B( 46-C , 50-S ) :   1.0232 B( 47-C , 48-C ) :   1.5442 B( 47-C , 99-H ) :   0.9971
B( 48-C , 49-C ) :   1.2235 B( 48-C ,100-H ) :   0.9921 B( 49-C , 50-S ) :   1.0858
B( 49-C , 51-C ) :   1.4193 B( 51-C , 52-C ) :   1.2552 B( 51-C , 55-S ) :   1.0454
B( 52-C , 53-C ) :   1.4973 B( 52-C ,101-H ) :   0.9945 B( 53-C , 54-C ) :   1.2171
B( 53-C ,102-H ) :   1.0006 B( 54-C , 55-S ) :   1.0955 B( 54-C , 56-C ) :   1.4358
B( 56-C , 57-C ) :   1.2703 B( 56-C ,103-H ) :   0.9658 B( 57-C , 58-C ) :   1.4686
B( 57-C ,104-H ) :   0.9300 B( 58-C , 59-C ) :   0.9841 B( 58-C , 72-C ) :   1.0964
B( 59-C , 60-O ) :   2.1845 B( 59-C , 61-C ) :   0.9286 B( 61-C , 62-C ) :   1.4768
B( 61-C , 71-C ) :   1.2174 B( 62-C , 63-C ) :   1.1748 B( 62-C ,105-H ) :   1.0166
B( 63-C , 64-C ) :   1.2629 B( 63-C , 68-C ) :   1.2384 B( 64-C , 65-C ) :   1.2057
B( 64-C , 70-C ) :   1.1913 B( 65-C , 66-C ) :   1.4372 B( 65-C ,106-H ) :   1.0065
B( 66-C , 67-C ) :   1.2600 B( 66-C , 69-F ) :   1.0823 B( 67-C , 68-C ) :   1.4541
B( 67-C ,107-H ) :   0.9930 B( 68-C ,108-H ) :   0.9964 B( 70-C , 71-C ) :   1.4655
B( 70-C ,109-H ) :   0.9915 B( 71-C , 72-C ) :   0.9897 B( 72-C , 73-C ) :   1.5638
B( 73-C , 74-C ) :   1.1887 B( 73-C , 76-C ) :   1.1367 B( 74-C , 75-N ) :   2.9667
B( 76-C , 77-N ) :   2.9636

-----------------------------------------------------------------------------
         ABSORPTION SPECTRUM VIA TRANSITION ELECTRIC DIPOLE MOMENTS
-----------------------------------------------------------------------------
State   Energy  Wavelength   fosc         T2         TX        TY        TZ
        (cm-1)    (nm)                  (au**2)     (au)      (au)      (au)
-----------------------------------------------------------------------------
   0    8991.0   1112.2   0.716239913  26.22577  -2.17891  -1.72989   4.29949
   1   13146.5    760.7   0.083429969   2.08924   0.84739   0.48038  -1.06790
   2   17650.1    566.6   0.035611708   0.66424   0.30732   0.75482  -0.00580
   3   19072.5    524.3   0.733064008  12.65345  -0.52035  -3.47291  -0.56710
   4   20283.8    493.0   0.020550041   0.33353  -0.30188  -0.30456  -0.38684
   5   21391.9    467.5   0.022440123   0.34534   0.47676  -0.29021  -0.18391
   6   22500.1    444.4   0.037966664   0.55551  -0.67219  -0.05786  -0.31674
   7   22728.9    440.0   0.099704582   1.44415  -0.08152   0.95822   0.72064
   8   23597.2    423.8   0.022914579   0.31969   0.24017   0.43480  -0.27010
   9   24689.3    405.0   0.081472259   1.08637  -0.27634  -0.71863  -0.70255
  10   25504.1    392.1   0.019276356   0.24882   0.02073  -0.17394  -0.46705
  11   25924.8    385.7   0.026376250   0.33494  -0.26311  -0.28981   0.42629
  12   26549.6    376.7   0.276903729   3.43358   0.23107  -0.72049  -1.69147
  13   27180.5    367.9   0.377450063   4.57171  -0.76581  -1.46390   1.35729
  14   27529.7    363.2   0.093878389   1.12264   0.22930   1.00672   0.23786
  15   28050.8    356.5   0.028094205   0.32972  -0.00329  -0.56082  -0.12324
  16   28220.1    354.4   0.037395895   0.43626   0.14702   0.64300   0.03453
  17   28619.2    349.4   0.019858240   0.22843  -0.29930  -0.15617  -0.33833
  18   28902.2    346.0   0.016253309   0.18513   0.07650   0.06311  -0.41869
  19   29040.1    344.4   0.052451366   0.59461  -0.20902   0.18362   0.71917
  20   29585.7    338.0   0.005159164   0.05741   0.06283  -0.22142   0.06658
  21   30070.7    332.5   0.150499798   1.64766  -0.35916  -1.22271   0.15380
  22   30601.2    326.8   0.023054547   0.24802  -0.45795   0.17150   0.09429
  23   30851.2    324.1   0.112233749   1.19764   0.71358   0.80142   0.21489
  24   31197.9    320.5   0.012165199   0.12837   0.22240   0.27083  -0.07458
  25   31720.5    315.3   0.086747417   0.90031  -0.29190  -0.90207   0.03709
  26   31873.9    313.7   0.097045462   1.00234   0.61508   0.78470   0.09087
  27   32118.2    311.4   0.064513962   0.66127   0.54615   0.53835   0.27049
  28   32284.3    309.7   0.065689224   0.66985  -0.01865   0.18378   0.79733
  29   32533.1    307.4   0.194863801   1.97188  -0.60482  -1.20651  -0.38784
  30   32810.4    304.8   0.486069115   4.87711  -1.03348  -1.80978   0.73057
  31   33292.4    300.4   0.058506097   0.57854  -0.37415  -0.34037   0.56806
  32   33347.9    299.9   0.068276368   0.67403  -0.50803  -0.52946  -0.36825
  33   33458.9    298.9   0.055753018   0.54857   0.44272   0.41191  -0.42767
  34   33628.4    297.4   0.232469181   2.27581  -0.43369  -1.30017  -0.63030
  35   33746.9    296.3   0.116963742   1.14102   0.41705   0.31619  -0.93119
  36   33886.4    295.1   0.046530034   0.45205  -0.16162  -0.59506  -0.26800
  37   34514.4    289.7   0.013923996   0.13281   0.08666  -0.27421  -0.22386
  38   34601.3    289.0   0.016783894   0.15969   0.15490  -0.05634   0.36403
  39   34840.3    287.0   0.045064548   0.42582  -0.07170  -0.07547   0.64419
  40   35158.7    284.4   0.055426984   0.51900   0.38681   0.53563  -0.28719
  41   35265.8    283.6   0.033705458   0.31465  -0.09480  -0.22189   0.50638
  42   35378.6    282.7   0.026518954   0.24677   0.12383  -0.13492  -0.46177
  43   35451.8    282.1   0.029568174   0.27458  -0.20107  -0.20054   0.44038
  44   35651.4    280.5   0.046213147   0.42674   0.14680   0.07742  -0.63182
  45   35803.9    279.3   0.092127768   0.84710   0.39407  -0.06653  -0.82909
  46   35958.8    278.1   0.057110337   0.52286  -0.16817  -0.38398   0.58918
  47   36314.5    275.4   0.104789792   0.94998  -0.73814   0.56936   0.28454
  48   36506.7    273.9   0.044527305   0.40154  -0.27172   0.12851   0.55785
  49   36736.1    272.2   0.003149575   0.02823  -0.11101  -0.12479   0.01813
  50   36931.5    270.8   0.143139704   1.27597  -0.72253   0.03060   0.86775
  51   37221.6    268.7   0.167051602   1.47751  -0.16547  -0.58204  -1.05421
  52   37401.2    267.4   0.070716307   0.62246  -0.04812  -0.46315  -0.63690
  53   37806.4    264.5   0.082824406   0.72122   0.17409   0.72867   0.39995
  54   38128.3    262.3   0.124989776   1.07920  -0.29113  -0.70165  -0.70861
  55   38215.8    261.7   0.119624834   1.03052   0.64401   0.58459   0.52348
  56   38517.8    259.6   0.007870419   0.06727   0.00379   0.25462   0.04921
  57   38612.1    259.0   0.011662174   0.09943  -0.09199  -0.24933  -0.16973
  58   38959.5    256.7   0.016480579   0.13926   0.26255   0.25990   0.05270
  59   39213.1    255.0   0.004546873   0.03817   0.03186  -0.14919   0.12206
  60   39329.7    254.3   0.030847309   0.25821   0.42373   0.25126   0.12460
  61   39521.7    253.0   0.037716819   0.31418  -0.00587   0.35607   0.43284
  62   39646.1    252.2   0.013049076   0.10836  -0.15326   0.09304   0.27606
  63   39691.2    251.9   0.013995084   0.11608  -0.28528   0.10731  -0.15224
  64   39908.8    250.6   0.027535134   0.22714  -0.38013  -0.27089   0.09622
  65   40203.4    248.7   0.058562161   0.47955  -0.33621   0.00533   0.60537
  66   40301.4    248.1   0.032714879   0.26724  -0.35237  -0.37661   0.03516

FINAL SINGLE POINT ENERGY     -7289.199070797052

DIPOLE MOMENT
-------------
                                X             Y             Z
Electronic contribution:     53.63251      38.75891     -97.39384
Nuclear contribution   :    -56.20025     -39.83263     101.90871
                        -----------------------------------------
Total Dipole Moment    :     -2.56774      -1.07372       4.51487
                        -----------------------------------------
Magnitude (a.u.)       :      5.30380
Magnitude (Debye)      :     13.48118

Rotational constants in cm-1:     0.001210     0.000453     0.000397
Rotational constants in MHz :    36.282232    13.576231    11.890480

                             ****ORCA TERMINATED NORMALLY****
TOTAL RUN TIME: 0 days 0 hours 17 minutes 58 seconds 539 msec
