                         Program Version 4.2.0 -  RELEASE  -
|  1> # ORCA input file
|  2> # SCF done       -190.164719506309          0.000340888379
|  3> ! CAM-B3LYP def2-SVP def2/J RIJCOSX Grid4 TightSCF
|  4> %maxcore 5000
|  5> %tddft
|  6>     Mode sTDDFT
|  7>     Ethresh 5.0
|  8>     maxcore 5000
|  9> end
| 10>
| 11> %pal
| 12>   nprocs 6
| 13>   end
| 14> * xyz 0 1
| 15>    C       -2.80674        -1.23117        -1.19410
| 16>    C       -3.22416        -2.14734        -2.12263
| 17>    C       -2.55352        -3.35791        -2.39691
| 18>    N       -2.05095        -4.35527        -2.66163
| 19>    C       -4.35444        -1.99758        -2.95440
| 20>    N       -5.24680        -1.93954        -3.67436
| 21>    C       -1.60020        -1.32762        -0.38411
| 22>    C       -1.44233        -0.12597         0.34977
| 23>    C       -0.38894         0.08570         1.20636
| 24>    C        0.55463        -0.93697         1.34616
| 25>    C        0.38696        -2.13592         0.61165
| 26>    C       -0.67768        -2.35018        -0.25402
| 27>    S        1.66303        -3.26891         0.93738
| 28>    C        2.39572        -2.13260         2.03860
| 29>    C        1.72098        -0.96446         2.15854
| 30>   Br        3.98095        -2.59637         2.92617
| 31>    C       -2.55696         0.79230         0.04438
| 32>    O       -2.73278         1.89495         0.51144
| 33>    C       -3.43801         0.04500        -0.89602
| 34>    C       -4.68686         0.43630        -1.25288
| 35>    C       -5.25966         1.73021        -1.00342
| 36>    C       -4.59722         2.94205        -1.27000
| 37>    N       -5.15364         4.10757        -1.07238
| 38>    C       -6.40704         4.14122        -0.61623
| 39>    N       -7.12781         3.05269        -0.34170
| 40>    C       -6.57294         1.88291        -0.52895
| 41>    C       -7.02625         5.43731        -0.42343
| 42>    C       -8.42122         5.60099        -0.46441
| 43>    C       -9.03798         6.88469        -0.21931
| 44>    N      -10.37061         6.95108        -0.07524
| 45>    C      -11.10238         5.88394        -0.27358
| 46>    C      -10.49505         4.66885        -0.74397
| 47>    N       -9.19630         4.55638        -0.80392
| 48>    C      -11.31363         3.58895        -1.15922
| 49>    N      -12.02057         2.74603        -1.47886
| 50>    C      -12.49901         5.96792        -0.06047
| 51>    N      -13.63437         6.02256         0.08668
| 52>    C       -8.28003         8.06749        -0.05048
| 53>    C       -6.88424         7.89529        -0.02644
| 54>    C       -6.26392         6.59596        -0.20263
| 55>    N       -4.93507         6.66952        -0.12481
| 56>    S       -4.50723         8.19236         0.10899
| 57>    N       -5.96703         8.85426         0.14350
| 58>    C       -8.92247         9.35376         0.12470
| 59>    C      -10.13519         9.63193        -0.52732
| 60>    C      -10.77871        10.81578        -0.27971
| 61>    C      -10.22819        11.76345         0.60217
| 62>    C       -9.00357        11.51790         1.21427
| 63>    C       -8.36138        10.32376         0.96959
| 64>    C      -11.14560        12.86949         0.71311
| 65>    C      -12.26995        12.60770        -0.09663
| 66>    C      -12.08349        11.31607        -0.85956
| 67>    C      -11.84123        11.57473        -2.36596
| 68>    C      -12.98555        12.24504        -3.11444
| 69>    C      -13.23256        10.32216        -0.63217
| 70>    C      -13.37020         9.91169         0.82910
| 71>    C      -13.33718        13.46839        -0.08913
| 72>    C      -13.29810        14.63997         0.69257
| 73>    C      -12.15093        14.89980         1.46331
| 74>    C      -11.08824        14.02521         1.48479
| 75>    C      -14.43345        15.51319         0.66366
| 76>    C      -14.59898        16.66999         1.35957
| 77>    C      -15.75472        17.46556         1.26109
| 78>    C      -15.96147        18.62689         1.95816
| 79>    C      -17.10398        19.46612         1.89276
| 80>    C      -17.04666        20.55730         2.69972
| 81>    C      -15.85286        20.65078         3.45841
| 82>    S      -14.80227        19.29493         3.09912
| 83>    C      -15.50483        21.62647         4.36267
| 84>    C      -16.26999        22.76691         4.73738
| 85>    C      -15.67683        23.55783         5.65811
| 86>    C      -14.38571        23.10210         6.08788
| 87>    S      -13.98647        21.60188         5.23541
| 88>    C      -13.57014        23.67394         6.98395
| 89>    H       -0.29665         1.01234         1.75087
| 90>    H       -0.76469        -3.28233        -0.78671
| 91>    H        2.03109        -0.15494         2.79370
| 92>    H       -5.34161        -0.27112        -1.74760
| 93>    H       -3.60814         2.95244        -1.70685
| 94>    H       -7.17303         1.02295        -0.25902
| 95>    H      -10.54718         8.91927        -1.22308
| 96>    H       -8.56902        12.24305         1.88574
| 97>    H       -7.42431        10.10734         1.45671
| 98>    H      -11.62393        10.61252        -2.83486
| 99>    H      -10.94743        12.19755        -2.46094
|100>    H      -13.90134        11.66511        -3.03867
|101>    H      -12.72612        12.32815        -4.16780
|102>    H      -13.16540        13.24616        -2.73220
|103>    H      -13.05587         9.43152        -1.23816
|104>    H      -14.16770        10.77449        -0.96461
|105>    H      -12.46441         9.42073         1.17692
|106>    H      -14.19737         9.21545         0.94210
|107>    H      -13.55659        10.78051         1.45751
|108>    H      -14.22616        13.25709        -0.66492
|109>    H      -12.10526        15.79701         2.06037
|110>    H      -10.22404        14.23004         2.09899
|111>    H      -15.24252        15.20265         0.01246
|112>    H      -13.82874        17.02412         2.03104
|113>    H      -16.54146        17.14446         0.59039
|114>    H      -17.93113        19.22935         1.24669
|115>    H      -17.82436        21.29598         2.77405
|116>    H      -17.23709        22.95801         4.30728
|117>    H      -16.10180        24.45989         6.06109
|118>    H      -13.85296        24.58579         7.47960
|119>    H      -12.61739        23.24596         7.23617
|120> *
|121>
|122>                          ****END OF INPUT****

CARTESIAN COORDINATES (ANGSTROEM)
---------------------------------
  C     -2.806740   -1.231170   -1.194100
  C     -3.224160   -2.147340   -2.122630
  C     -2.553520   -3.357910   -2.396910
  N     -2.050950   -4.355270   -2.661630
  C     -4.354440   -1.997580   -2.954400
  N     -5.246800   -1.939540   -3.674360
  C     -1.600200   -1.327620   -0.384110
  C     -1.442330   -0.125970    0.349770
  C     -0.388940    0.085700    1.206360
  C      0.554630   -0.936970    1.346160
  C      0.386960   -2.135920    0.611650
  C     -0.677680   -2.350180   -0.254020
  S      1.663030   -3.268910    0.937380
  C      2.395720   -2.132600    2.038600
  C      1.720980   -0.964460    2.158540
  Br     3.980950   -2.596370    2.926170
  C     -2.556960    0.792300    0.044380
  O     -2.732780    1.894950    0.511440
  C     -3.438010    0.045000   -0.896020
  C     -4.686860    0.436300   -1.252880
  C     -5.259660    1.730210   -1.003420
  C     -4.597220    2.942050   -1.270000
  N     -5.153640    4.107570   -1.072380
  C     -6.407040    4.141220   -0.616230
  N     -7.127810    3.052690   -0.341700
  C     -6.572940    1.882910   -0.528950
  C     -7.026250    5.437310   -0.423430
  C     -8.421220    5.600990   -0.464410
  C     -9.037980    6.884690   -0.219310
  N    -10.370610    6.951080   -0.075240
  C    -11.102380    5.883940   -0.273580
  C    -10.495050    4.668850   -0.743970
  N     -9.196300    4.556380   -0.803920
  C    -11.313630    3.588950   -1.159220
  N    -12.020570    2.746030   -1.478860
  C    -12.499010    5.967920   -0.060470
  N    -13.634370    6.022560    0.086680
  C     -8.280030    8.067490   -0.050480
  C     -6.884240    7.895290   -0.026440
  C     -6.263920    6.595960   -0.202630
  N     -4.935070    6.669520   -0.124810
  S     -4.507230    8.192360    0.108990
  N     -5.967030    8.854260    0.143500
  C     -8.922470    9.353760    0.124700
  C    -10.135190    9.631930   -0.527320
  C    -10.778710   10.815780   -0.279710
  C    -10.228190   11.763450    0.602170
  C     -9.003570   11.517900    1.214270
  C     -8.361380   10.323760    0.969590
  C    -11.145600   12.869490    0.713110
  C    -12.269950   12.607700   -0.096630
  C    -12.083490   11.316070   -0.859560
  C    -11.841230   11.574730   -2.365960
  C    -12.985550   12.245040   -3.114440
  C    -13.232560   10.322160   -0.632170
  C    -13.370200    9.911690    0.829100
  C    -13.337180   13.468390   -0.089130
  C    -13.298100   14.639970    0.692570
  C    -12.150930   14.899800    1.463310
  C    -11.088240   14.025210    1.484790
  C    -14.433450   15.513190    0.663660
  C    -14.598980   16.669990    1.359570
  C    -15.754720   17.465560    1.261090
  C    -15.961470   18.626890    1.958160
  C    -17.103980   19.466120    1.892760
  C    -17.046660   20.557300    2.699720
  C    -15.852860   20.650780    3.458410
  S    -14.802270   19.294930    3.099120
  C    -15.504830   21.626470    4.362670
  C    -16.269990   22.766910    4.737380
  C    -15.676830   23.557830    5.658110
  C    -14.385710   23.102100    6.087880
  S    -13.986470   21.601880    5.235410
  C    -13.570140   23.673940    6.983950
  H     -0.296650    1.012340    1.750870
  H     -0.764690   -3.282330   -0.786710
  H      2.031090   -0.154940    2.793700
  H     -5.341610   -0.271120   -1.747600
  H     -3.608140    2.952440   -1.706850
  H     -7.173030    1.022950   -0.259020
  H    -10.547180    8.919270   -1.223080
  H     -8.569020   12.243050    1.885740
  H     -7.424310   10.107340    1.456710
  H    -11.623930   10.612520   -2.834860
  H    -10.947430   12.197550   -2.460940
  H    -13.901340   11.665110   -3.038670
  H    -12.726120   12.328150   -4.167800
  H    -13.165400   13.246160   -2.732200
  H    -13.055870    9.431520   -1.238160
  H    -14.167700   10.774490   -0.964610
  H    -12.464410    9.420730    1.176920
  H    -14.197370    9.215450    0.942100
  H    -13.556590   10.780510    1.457510
  H    -14.226160   13.257090   -0.664920
  H    -12.105260   15.797010    2.060370
  H    -10.224040   14.230040    2.098990
  H    -15.242520   15.202650    0.012460
  H    -13.828740   17.024120    2.031040
  H    -16.541460   17.144460    0.590390
  H    -17.931130   19.229350    1.246690
  H    -17.824360   21.295980    2.774050
  H    -17.237090   22.958010    4.307280
  H    -16.101800   24.459890    6.061090
  H    -13.852960   24.585790    7.479600
  H    -12.617390   23.245960    7.236170

 Total Charge           Charge          ....    0
 Multiplicity           Mult            ....    1
 Number of Electrons    NEL             ....  556
 Basis Dimension        Dim             .... 1225

ORBITAL ENERGIES
----------------

  NO   OCC          E(Eh)            E(eV)
   0   2.0000    -482.891770    -13140.1531
   1   2.0000     -89.041539     -2422.9435
   2   2.0000     -88.983011     -2421.3508
   3   2.0000     -88.937700     -2420.1179
   4   2.0000     -88.934200     -2420.0226
   5   2.0000     -62.569470     -1702.6018
   6   2.0000     -56.403433     -1534.8154
   7   2.0000     -56.400694     -1534.7409
   8   2.0000     -56.400670     -1534.7402
   9   2.0000     -19.227549      -523.2082
  10   2.0000     -14.457633      -393.4122
  11   2.0000     -14.450650      -393.2222
  12   2.0000     -14.449900      -393.2018
  13   2.0000     -14.443480      -393.0271
  14   2.0000     -14.425493      -392.5376
  15   2.0000     -14.424742      -392.5172
  16   2.0000     -14.424262      -392.5041
  17   2.0000     -14.423917      -392.4947
  18   2.0000     -14.413225      -392.2038
  19   2.0000     -14.412079      -392.1726
  20   2.0000     -10.379157      -282.4312
  21   2.0000     -10.375869      -282.3417
  22   2.0000     -10.373720      -282.2833
  23   2.0000     -10.366469      -282.0860
  24   2.0000     -10.355601      -281.7902
  25   2.0000     -10.353613      -281.7361
  26   2.0000     -10.351107      -281.6679
  27   2.0000     -10.345601      -281.5181
  28   2.0000     -10.342989      -281.4470
  29   2.0000     -10.339360      -281.3483
  30   2.0000     -10.339110      -281.3415
  31   2.0000     -10.334284      -281.2102
  32   2.0000     -10.329621      -281.0833
  33   2.0000     -10.329287      -281.0742
  34   2.0000     -10.328662      -281.0572
  35   2.0000     -10.326379      -280.9951
  36   2.0000     -10.325859      -280.9809
  37   2.0000     -10.321482      -280.8618
  38   2.0000     -10.319317      -280.8029
  39   2.0000     -10.317807      -280.7618
  40   2.0000     -10.317733      -280.7598
  41   2.0000     -10.316362      -280.7225
  42   2.0000     -10.314347      -280.6677
  43   2.0000     -10.312709      -280.6231
  44   2.0000     -10.309933      -280.5475
  45   2.0000     -10.305311      -280.4218
  46   2.0000     -10.304643      -280.4036
  47   2.0000     -10.304635      -280.4034
  48   2.0000     -10.303775      -280.3800
  49   2.0000     -10.302888      -280.3558
  50   2.0000     -10.302681      -280.3502
  51   2.0000     -10.301959      -280.3306
  52   2.0000     -10.301154      -280.3087
  53   2.0000     -10.286574      -279.9119
  54   2.0000     -10.285943      -279.8948
  55   2.0000     -10.283955      -279.8407
  56   2.0000     -10.280626      -279.7501
  57   2.0000     -10.280085      -279.7353
  58   2.0000     -10.276459      -279.6367
  59   2.0000     -10.275849      -279.6201
  60   2.0000     -10.275512      -279.6109
  61   2.0000     -10.273184      -279.5475
  62   2.0000     -10.273123      -279.5459
  63   2.0000     -10.272569      -279.5308
  64   2.0000     -10.271274      -279.4956
  65   2.0000     -10.270709      -279.4802
  66   2.0000     -10.270570      -279.4764
  67   2.0000     -10.269991      -279.4607
  68   2.0000     -10.268834      -279.4292
  69   2.0000     -10.267497      -279.3928
  70   2.0000     -10.267167      -279.3838
  71   2.0000     -10.266232      -279.3584
  72   2.0000     -10.266079      -279.3542
  73   2.0000     -10.265979      -279.3515
  74   2.0000     -10.261717      -279.2355
  75   2.0000     -10.256583      -279.0958
  76   2.0000     -10.249065      -278.8912
  77   2.0000     -10.237131      -278.5665
  78   2.0000      -8.798890      -239.4300
  79   2.0000      -8.132965      -221.3092
  80   2.0000      -8.079005      -219.8409
  81   2.0000      -8.033975      -218.6156
  82   2.0000      -8.030983      -218.5342
  83   2.0000      -6.635238      -180.5540
  84   2.0000      -6.620616      -180.1561
  85   2.0000      -6.620379      -180.1497
  86   2.0000      -6.103885      -166.0952
  87   2.0000      -6.096148      -165.8846
  88   2.0000      -6.096004      -165.8807
  89   2.0000      -6.048693      -164.5933
  90   2.0000      -6.044407      -164.4767
  91   2.0000      -6.040228      -164.3630
  92   2.0000      -6.003722      -163.3696
  93   2.0000      -6.000798      -163.2900
  94   2.0000      -5.999842      -163.2640
  95   2.0000      -5.996921      -163.1845
  96   2.0000      -5.994730      -163.1249
  97   2.0000      -5.991478      -163.0364
  98   2.0000      -2.751095       -74.8611
  99   2.0000      -2.746996       -74.7496
 100   2.0000      -2.746839       -74.7453
 101   2.0000      -2.735214       -74.4290
 102   2.0000      -2.735189       -74.4283
 103   2.0000      -1.143236       -31.1090
 104   2.0000      -1.137817       -30.9616
 105   2.0000      -1.115542       -30.3554
 106   2.0000      -1.091585       -29.7035
 107   2.0000      -1.040768       -28.3207
 108   2.0000      -1.031787       -28.0764
 109   2.0000      -1.021666       -27.8010
 110   2.0000      -1.009182       -27.4612
 111   2.0000      -1.002369       -27.2758
 112   2.0000      -0.999459       -27.1967
 113   2.0000      -0.998901       -27.1815
 114   2.0000      -0.993062       -27.0226
 115   2.0000      -0.987817       -26.8799
 116   2.0000      -0.986649       -26.8481
 117   2.0000      -0.983095       -26.7514
 118   2.0000      -0.974729       -26.5237
 119   2.0000      -0.965003       -26.2591
 120   2.0000      -0.953705       -25.9516
 121   2.0000      -0.943602       -25.6767
 122   2.0000      -0.930903       -25.3312
 123   2.0000      -0.918604       -24.9965
 124   2.0000      -0.916754       -24.9462
 125   2.0000      -0.902019       -24.5452
 126   2.0000      -0.898326       -24.4447
 127   2.0000      -0.896085       -24.3837
 128   2.0000      -0.894364       -24.3369
 129   2.0000      -0.884197       -24.0602
 130   2.0000      -0.873820       -23.7778
 131   2.0000      -0.861349       -23.4385
 132   2.0000      -0.846665       -23.0389
 133   2.0000      -0.840469       -22.8703
 134   2.0000      -0.837682       -22.7945
 135   2.0000      -0.836218       -22.7546
 136   2.0000      -0.833077       -22.6692
 137   2.0000      -0.829599       -22.5745
 138   2.0000      -0.828800       -22.5528
 139   2.0000      -0.825047       -22.4507
 140   2.0000      -0.814552       -22.1651
 141   2.0000      -0.803713       -21.8701
 142   2.0000      -0.799985       -21.7687
 143   2.0000      -0.782695       -21.2982
 144   2.0000      -0.770536       -20.9673
 145   2.0000      -0.765555       -20.8318
 146   2.0000      -0.761640       -20.7253
 147   2.0000      -0.753035       -20.4911
 148   2.0000      -0.750889       -20.4327
 149   2.0000      -0.732848       -19.9418
 150   2.0000      -0.729185       -19.8421
 151   2.0000      -0.713192       -19.4069
 152   2.0000      -0.710027       -19.3208
 153   2.0000      -0.704648       -19.1744
 154   2.0000      -0.700520       -19.0621
 155   2.0000      -0.696236       -18.9455
 156   2.0000      -0.691522       -18.8173
 157   2.0000      -0.685630       -18.6569
 158   2.0000      -0.681351       -18.5405
 159   2.0000      -0.678422       -18.4608
 160   2.0000      -0.670563       -18.2469
 161   2.0000      -0.669816       -18.2266
 162   2.0000      -0.664841       -18.0912
 163   2.0000      -0.656631       -17.8678
 164   2.0000      -0.649574       -17.6758
 165   2.0000      -0.642730       -17.4896
 166   2.0000      -0.633611       -17.2414
 167   2.0000      -0.631273       -17.1778
 168   2.0000      -0.628835       -17.1115
 169   2.0000      -0.627025       -17.0622
 170   2.0000      -0.621541       -16.9130
 171   2.0000      -0.614474       -16.7207
 172   2.0000      -0.610683       -16.6175
 173   2.0000      -0.606930       -16.5154
 174   2.0000      -0.603624       -16.4254
 175   2.0000      -0.599191       -16.3048
 176   2.0000      -0.594070       -16.1655
 177   2.0000      -0.590307       -16.0631
 178   2.0000      -0.588340       -16.0095
 179   2.0000      -0.584585       -15.9074
 180   2.0000      -0.574396       -15.6301
 181   2.0000      -0.568933       -15.4814
 182   2.0000      -0.562429       -15.3045
 183   2.0000      -0.558212       -15.1897
 184   2.0000      -0.553563       -15.0632
 185   2.0000      -0.550503       -14.9800
 186   2.0000      -0.550064       -14.9680
 187   2.0000      -0.547333       -14.8937
 188   2.0000      -0.538164       -14.6442
 189   2.0000      -0.536853       -14.6085
 190   2.0000      -0.533563       -14.5190
 191   2.0000      -0.533050       -14.5050
 192   2.0000      -0.532238       -14.4829
 193   2.0000      -0.525824       -14.3084
 194   2.0000      -0.522571       -14.2199
 195   2.0000      -0.519857       -14.1460
 196   2.0000      -0.519315       -14.1313
 197   2.0000      -0.517817       -14.0905
 198   2.0000      -0.516151       -14.0452
 199   2.0000      -0.515451       -14.0261
 200   2.0000      -0.512372       -13.9423
 201   2.0000      -0.509138       -13.8543
 202   2.0000      -0.508044       -13.8246
 203   2.0000      -0.504679       -13.7330
 204   2.0000      -0.500201       -13.6112
 205   2.0000      -0.498998       -13.5784
 206   2.0000      -0.497407       -13.5351
 207   2.0000      -0.495552       -13.4847
 208   2.0000      -0.491229       -13.3670
 209   2.0000      -0.490523       -13.3478
 210   2.0000      -0.483205       -13.1487
 211   2.0000      -0.482941       -13.1415
 212   2.0000      -0.480266       -13.0687
 213   2.0000      -0.478407       -13.0181
 214   2.0000      -0.477238       -12.9863
 215   2.0000      -0.474916       -12.9231
 216   2.0000      -0.469818       -12.7844
 217   2.0000      -0.466910       -12.7053
 218   2.0000      -0.466381       -12.6909
 219   2.0000      -0.460445       -12.5294
 220   2.0000      -0.456828       -12.4309
 221   2.0000      -0.456411       -12.4196
 222   2.0000      -0.455788       -12.4026
 223   2.0000      -0.452463       -12.3121
 224   2.0000      -0.451782       -12.2936
 225   2.0000      -0.451538       -12.2870
 226   2.0000      -0.449752       -12.2384
 227   2.0000      -0.448444       -12.2028
 228   2.0000      -0.447097       -12.1661
 229   2.0000      -0.446027       -12.1370
 230   2.0000      -0.442883       -12.0515
 231   2.0000      -0.438098       -11.9212
 232   2.0000      -0.437799       -11.9131
 233   2.0000      -0.436045       -11.8654
 234   2.0000      -0.434776       -11.8309
 235   2.0000      -0.433828       -11.8051
 236   2.0000      -0.432529       -11.7697
 237   2.0000      -0.429281       -11.6813
 238   2.0000      -0.425524       -11.5791
 239   2.0000      -0.424730       -11.5575
 240   2.0000      -0.423579       -11.5262
 241   2.0000      -0.421152       -11.4601
 242   2.0000      -0.418712       -11.3937
 243   2.0000      -0.416130       -11.3235
 244   2.0000      -0.413824       -11.2607
 245   2.0000      -0.412787       -11.2325
 246   2.0000      -0.409991       -11.1564
 247   2.0000      -0.407400       -11.0859
 248   2.0000      -0.406245       -11.0545
 249   2.0000      -0.403607       -10.9827
 250   2.0000      -0.397674       -10.8212
 251   2.0000      -0.395131       -10.7521
 252   2.0000      -0.391915       -10.6645
 253   2.0000      -0.391484       -10.6528
 254   2.0000      -0.390967       -10.6388
 255   2.0000      -0.386005       -10.5037
 256   2.0000      -0.382149       -10.3988
 257   2.0000      -0.380936       -10.3658
 258   2.0000      -0.376192       -10.2367
 259   2.0000      -0.373952       -10.1758
 260   2.0000      -0.372568       -10.1381
 261   2.0000      -0.366624        -9.9763
 262   2.0000      -0.351300        -9.5594
 263   2.0000      -0.348131        -9.4731
 264   2.0000      -0.343528        -9.3479
 265   2.0000      -0.338610        -9.2140
 266   2.0000      -0.333422        -9.0729
 267   2.0000      -0.328385        -8.9358
 268   2.0000      -0.323720        -8.8089
 269   2.0000      -0.321530        -8.7493
 270   2.0000      -0.318737        -8.6733
 271   2.0000      -0.312538        -8.5046
 272   2.0000      -0.310478        -8.4485
 273   2.0000      -0.306107        -8.3296
 274   2.0000      -0.300790        -8.1849
 275   2.0000      -0.284073        -7.7300
 276   2.0000      -0.259128        -7.0512
 277   2.0000      -0.209564        -5.7025
 278   0.0000      -0.118420        -3.2224
 279   0.0000      -0.095023        -2.5857
 280   0.0000      -0.067456        -1.8356
 281   0.0000      -0.066303        -1.8042
 282   0.0000      -0.045675        -1.2429

MULLIKEN ATOMIC CHARGES
-----------------------
   0 C :    0.297378
   1 C :   -0.329995
   2 C :   -0.184944
   3 N :    0.158823
   4 C :   -0.204315
   5 N :    0.169535
   6 C :    0.017122
   7 C :   -0.021576
   8 C :   -0.064189
   9 C :    0.116162
  10 C :   -0.090554
  11 C :   -0.016470
  12 S :    0.192082
  13 C :   -0.123063
  14 C :    0.040746
  15 Br:    0.030176
  16 C :    0.139013
  17 O :   -0.132206
  18 C :   -0.081619
  19 C :   -0.014837
  20 C :   -0.015339
  21 C :    0.102014
  22 N :   -0.020820
  23 C :   -0.215056
  24 N :   -0.016775
  25 C :    0.051974
  26 C :    0.152745
  27 C :   -0.042360
  28 C :   -0.084529
  29 N :    0.036561
  30 C :   -0.151512
  31 C :   -0.142341
  32 N :    0.098113
  33 C :   -0.191101
  34 N :    0.221998
  35 C :   -0.185452
  36 N :    0.220806
  37 C :    0.132054
  38 C :   -0.016019
  39 C :    0.011475
  40 N :   -0.232189
  41 S :    0.543457
  42 N :   -0.281086
  43 C :   -0.007215
  44 C :   -0.027308
  45 C :   -0.012172
  46 C :    0.120150
  47 C :   -0.064961
  48 C :    0.030176
  49 C :    0.094864
  50 C :    0.034988
  51 C :   -0.127658
  52 C :    0.079618
  53 C :    0.031044
  54 C :    0.050135
  55 C :    0.025594
  56 C :   -0.117431
  57 C :    0.136061
  58 C :   -0.010585
  59 C :   -0.041202
  60 C :   -0.016007
  61 C :    0.022547
  62 C :   -0.021888
  63 C :   -0.016650
  64 C :    0.037550
  65 C :    0.025512
  66 C :   -0.045819
  67 S :    0.062507
  68 C :   -0.068867
  69 C :    0.030473
  70 C :    0.052293
  71 C :   -0.064043
  72 S :    0.077145
  73 C :   -0.029857
  74 H :   -0.007378
  75 H :   -0.004398
  76 H :   -0.001200
  77 H :    0.046285
  78 H :    0.004432
  79 H :    0.009143
  80 H :   -0.034449
  81 H :   -0.034229
  82 H :   -0.018012
  83 H :   -0.005122
  84 H :    0.003000
  85 H :    0.005793
  86 H :    0.012106
  87 H :    0.019042
  88 H :   -0.000607
  89 H :    0.006343
  90 H :    0.020485
  91 H :    0.020378
  92 H :    0.014219
  93 H :   -0.036746
  94 H :   -0.030791
  95 H :   -0.035703
  96 H :   -0.028330
  97 H :    0.000277
  98 H :   -0.019271
  99 H :   -0.014170
 100 H :   -0.014482
 101 H :   -0.013624
 102 H :   -0.013551
 103 H :    0.018063
 104 H :    0.019615
Sum of atomic charges:   -0.0000000

LOEWDIN ATOMIC CHARGES
----------------------
   0 C :    0.073162
   1 C :   -0.130335
   2 C :   -0.018033
   3 N :   -0.045008
   4 C :   -0.024618
   5 N :   -0.040335
   6 C :   -0.021550
   7 C :   -0.052291
   8 C :    0.024948
   9 C :   -0.030390
  10 C :   -0.141720
  11 C :   -0.007953
  12 S :    0.436738
  13 C :   -0.268950
  14 C :   -0.070010
  15 Br:    0.141926
  16 C :    0.083390
  17 O :   -0.128341
  18 C :   -0.079926
  19 C :    0.075532
  20 C :   -0.082470
  21 C :    0.081656
  22 N :   -0.058982
  23 C :    0.043796
  24 N :   -0.060240
  25 C :    0.061623
  26 C :   -0.047393
  27 C :    0.008837
  28 C :   -0.016676
  29 N :    0.011912
  30 C :   -0.039493
  31 C :   -0.026310
  32 N :    0.018850
  33 C :   -0.033097
  34 N :   -0.007422
  35 C :   -0.035007
  36 N :   -0.013235
  37 C :    0.020142
  38 C :   -0.047380
  39 C :   -0.032154
  40 N :   -0.264281
  41 S :    0.683300
  42 N :   -0.279980
  43 C :   -0.029376
  44 C :    0.007204
  45 C :   -0.000839
  46 C :    0.002911
  47 C :   -0.026658
  48 C :    0.005820
  49 C :   -0.022362
  50 C :    0.008077
  51 C :   -0.034430
  52 C :   -0.009006
  53 C :   -0.059182
  54 C :   -0.014377
  55 C :   -0.056367
  56 C :   -0.021726
  57 C :   -0.019943
  58 C :   -0.013477
  59 C :   -0.013721
  60 C :   -0.019672
  61 C :   -0.026485
  62 C :   -0.057370
  63 C :   -0.144336
  64 C :   -0.034632
  65 C :   -0.031875
  66 C :   -0.179930
  67 S :    0.360091
  68 C :   -0.179787
  69 C :   -0.026442
  70 C :   -0.033339
  71 C :   -0.139001
  72 S :    0.349297
  73 C :   -0.079379
  74 H :    0.042397
  75 H :    0.041867
  76 H :    0.039846
  77 H :    0.050031
  78 H :    0.026517
  79 H :    0.028442
  80 H :    0.022990
  81 H :    0.027438
  82 H :    0.026994
  83 H :    0.019314
  84 H :    0.025623
  85 H :    0.020932
  86 H :    0.027385
  87 H :    0.023903
  88 H :    0.021004
  89 H :    0.019874
  90 H :    0.024403
  91 H :    0.028253
  92 H :    0.023316
  93 H :    0.023875
  94 H :    0.026549
  95 H :    0.027284
  96 H :    0.026125
  97 H :    0.020555
  98 H :    0.031602
  99 H :    0.032934
 100 H :    0.030878
 101 H :    0.031634
 102 H :    0.032661
 103 H :    0.027938
 104 H :    0.025512

  Mayer bond orders larger than 0.100000
B(  0-C ,  1-C ) :   1.6601 B(  0-C ,  6-C ) :   1.0169 B(  0-C , 18-C ) :   1.0327
B(  1-C ,  2-C ) :   1.1375 B(  1-C ,  4-C ) :   1.1413 B(  2-C ,  3-N ) :   2.9730
B(  4-C ,  5-N ) :   2.9881 B(  6-C ,  7-C ) :   1.2684 B(  6-C , 11-C ) :   1.4034
B(  7-C ,  8-C ) :   1.4216 B(  7-C , 16-C ) :   0.9419 B(  8-C ,  9-C ) :   1.2514
B(  8-C , 74-H ) :   1.0160 B(  9-C , 10-C ) :   1.2997 B(  9-C , 14-C ) :   1.1627
B( 10-C , 11-C ) :   1.3378 B( 10-C , 12-S ) :   1.0878 B( 11-C , 75-H ) :   0.9792
B( 12-S , 13-C ) :   1.0869 B( 13-C , 14-C ) :   1.6172 B( 13-C , 15-Br) :   1.0225
B( 14-C , 76-H ) :   1.0006 B( 16-C , 17-O ) :   2.2417 B( 16-C , 18-C ) :   0.9232
B( 18-C , 19-C ) :   1.7238 B( 19-C , 20-C ) :   1.0370 B( 19-C , 77-H ) :   0.9419
B( 20-C , 21-C ) :   1.3037 B( 20-C , 25-C ) :   1.3054 B( 21-C , 22-N ) :   1.5891
B( 21-C , 78-H ) :   0.9835 B( 22-N , 23-C ) :   1.5807 B( 23-C , 24-N ) :   1.5706
B( 23-C , 26-C ) :   0.9347 B( 24-N , 25-C ) :   1.5755 B( 25-C , 79-H ) :   0.9911
B( 26-C , 27-C ) :   1.3265 B( 26-C , 37-C ) :   0.1346 B( 26-C , 39-C ) :   1.2427
B( 27-C , 28-C ) :   1.1016 B( 27-C , 32-N ) :   1.4318 B( 28-C , 29-N ) :   1.4182
B( 28-C , 37-C ) :   1.2822 B( 29-N , 30-C ) :   1.7428 B( 30-C , 31-C ) :   1.1707
B( 30-C , 35-C ) :   1.1494 B( 31-C , 32-N ) :   1.7743 B( 31-C , 33-C ) :   1.1384
B( 33-C , 34-N ) :   3.0500 B( 35-C , 36-N ) :   3.0245 B( 37-C , 38-C ) :   1.2395
B( 37-C , 43-C ) :   1.0437 B( 38-C , 39-C ) :   1.0969 B( 38-C , 42-N ) :   1.4929
B( 39-C , 40-N ) :   1.5306 B( 40-N , 41-S ) :   1.2939 B( 40-N , 42-N ) :   0.1572
B( 41-S , 42-N ) :   1.2932 B( 43-C , 44-C ) :   1.2830 B( 43-C , 48-C ) :   1.3478
B( 44-C , 45-C ) :   1.4284 B( 44-C , 80-H ) :   0.9864 B( 45-C , 46-C ) :   1.3625
B( 45-C , 51-C ) :   0.9187 B( 46-C , 47-C ) :   1.3216 B( 46-C , 49-C ) :   1.0073
B( 47-C , 48-C ) :   1.3964 B( 47-C , 81-H ) :   0.9928 B( 48-C , 82-H ) :   0.9785
B( 49-C , 50-C ) :   1.3741 B( 49-C , 59-C ) :   1.3163 B( 50-C , 51-C ) :   0.9158
B( 50-C , 56-C ) :   1.3897 B( 51-C , 52-C ) :   1.0135 B( 51-C , 54-C ) :   1.0339
B( 52-C , 53-C ) :   1.1166 B( 52-C , 83-H ) :   0.9368 B( 52-C , 84-H ) :   0.9382
B( 53-C , 85-H ) :   0.9629 B( 53-C , 86-H ) :   0.9595 B( 53-C , 87-H ) :   0.9605
B( 54-C , 55-C ) :   1.1091 B( 54-C , 88-H ) :   0.9371 B( 54-C , 89-H ) :   0.9381
B( 55-C , 90-H ) :   0.9599 B( 55-C , 91-H ) :   0.9632 B( 55-C , 92-H ) :   0.9644
B( 56-C , 57-C ) :   1.2733 B( 56-C , 93-H ) :   1.0060 B( 57-C , 58-C ) :   1.3300
B( 57-C , 60-C ) :   1.0781 B( 58-C , 59-C ) :   1.4133 B( 58-C , 94-H ) :   0.9850
B( 59-C , 95-H ) :   0.9891 B( 60-C , 61-C ) :   1.6434 B( 60-C , 96-H ) :   0.9891
B( 61-C , 62-C ) :   1.1490 B( 61-C , 97-H ) :   0.9637 B( 62-C , 63-C ) :   1.5729
B( 62-C , 98-H ) :   0.9853 B( 63-C , 64-C ) :   1.1315 B( 63-C , 67-S ) :   1.0269
B( 64-C , 65-C ) :   1.6080 B( 64-C , 99-H ) :   0.9988 B( 65-C , 66-C ) :   1.1722
B( 65-C ,100-H ) :   0.9924 B( 66-C , 67-S ) :   1.0366 B( 66-C , 68-C ) :   1.5560
B( 68-C , 69-C ) :   1.1536 B( 68-C , 72-S ) :   1.0428 B( 69-C , 70-C ) :   1.6616
B( 69-C ,101-H ) :   0.9909 B( 70-C , 71-C ) :   1.0795 B( 70-C ,102-H ) :   0.9932
B( 71-C , 72-S ) :   1.0080 B( 71-C , 73-C ) :   1.8642 B( 73-C ,103-H ) :   0.9505
B( 73-C ,104-H ) :   0.9417

-----------------------------------------------------------------------------
         ABSORPTION SPECTRUM VIA TRANSITION ELECTRIC DIPOLE MOMENTS
-----------------------------------------------------------------------------
State   Energy  Wavelength   fosc         T2         TX        TY        TZ
        (cm-1)    (nm)                  (au**2)     (au)      (au)      (au)
-----------------------------------------------------------------------------
   0   10908.9    916.7   0.670769034  20.24268   1.89134  -3.94772  -1.03971
   1   16588.2    602.8   0.454977672   9.02954   1.32389  -2.66530  -0.41594
   2   18392.3    543.7   1.265378604  22.64960   0.51342  -3.95761  -2.59294
   3   19442.4    514.3   0.082228626   1.39235   0.61440  -0.97453  -0.25526
   4   20198.6    495.1   0.030389882   0.49532   0.39798  -0.56676   0.12538
   5   23065.9    433.5   0.085935758   1.22653  -0.69984   0.84462   0.15291
   6   23604.6    423.6   0.014731991   0.20547   0.17332  -0.30046  -0.29181
   7   24200.5    413.2   0.247595257   3.36817   1.29094  -1.30378  -0.04250
   8   25384.1    393.9   0.033594341   0.43569  -0.62422   0.20747  -0.05473
   9   25445.6    393.0   0.009136003   0.11820  -0.06182   0.33493   0.04691
  10   26681.0    374.8   0.014548495   0.17951   0.24453   0.09925   0.33146
  11   27070.7    369.4   0.106608134   1.29648   0.70935   0.31984   0.83127
  12   27192.3    367.8   0.046437842   0.56221   0.63780  -0.13587   0.37008
  13   27425.4    364.6   0.091003450   1.09240   0.82891  -0.54540   0.32840
  14   28152.3    355.2   0.070804592   0.82799   0.79882  -0.08704   0.42696
  15   29115.6    343.5   0.236732382   2.67675   1.18085  -1.06022   0.39785
  16   29192.2    342.6   0.121408889   1.36918   1.16875  -0.04824   0.02969
  17   29544.6    338.5   0.001466974   0.01635   0.06928   0.10710   0.00866
  18   29608.8    337.7   0.004673763   0.05197   0.21896   0.06322  -0.00488
  19   30060.8    332.7   0.064136320   0.70239  -0.75365  -0.20860  -0.30148
  20   30291.9    330.1   0.082364490   0.89514  -0.80741  -0.21533  -0.44368
  21   30608.9    326.7   0.452190113   4.86350  -1.77533   1.16743  -0.59061
  22   31358.2    318.9   0.064537570   0.67754   0.59178   0.07975   0.56655
  23   31448.3    318.0   0.175426384   1.83643   1.21979  -0.23067   0.54343
  24   31934.9    313.1   0.171423827   1.76718   1.15697  -0.59441   0.27436
  25   32290.8    309.7   0.121940189   1.24321  -0.19306  -0.69020  -0.85414
  26   33175.2    301.4   0.046063685   0.45711  -0.49432  -0.04190   0.45935
  27   33430.4    299.1   0.177507838   1.74804   0.98492  -0.19045   0.86122
  28   33463.0    298.8   0.227795850   2.24107  -1.29466  -0.51229  -0.54999
  29   33930.3    294.7   0.460085615   4.46403  -1.81941  -0.94226  -0.51569
  30   34042.0    293.8   0.032705366   0.31629   0.11648   0.48984   0.25054
  31   34315.0    291.4   0.005518809   0.05295  -0.22430  -0.03457   0.03796
  32   34345.7    291.2   0.015069579   0.14445   0.32765  -0.03737  -0.18894
  33   34497.8    289.9   0.077058099   0.73536  -0.60544  -0.59619  -0.11561
  34   34904.0    286.5   0.201106251   1.89682  -1.16380  -0.73644  -0.00538
  35   35657.0    280.4   0.032051185   0.29592   0.52890   0.04643   0.11846
  36   35721.0    279.9   0.046773813   0.43108   0.59974  -0.15096   0.22045
  37   35918.4    278.4   0.044385105   0.40681  -0.58091   0.26321  -0.00845
  38   36049.8    277.4   0.130233890   1.18931  -0.15883  -0.86840  -0.64028
  39   36365.8    275.0   0.007284461   0.06594   0.24528  -0.07603   0.00095
  40   36767.2    272.0   0.015147872   0.13563  -0.29842  -0.19394  -0.09470
  41   37132.5    269.3   0.015109988   0.13396   0.26453   0.22871   0.10806
  42   37296.9    268.1   0.034378823   0.30345  -0.10941  -0.52327  -0.13293
  43   37620.2    265.8   0.163262363   1.42870   1.12471   0.09070   0.39434
  44   38011.6    263.1   0.004304428   0.03728  -0.18727   0.04181   0.02149
  45   38229.7    261.6   0.232795603   2.00470   1.32493  -0.49922  -0.00603
  46   38710.0    258.3   0.036796915   0.31294  -0.36149   0.36519   0.22114
  47   38809.5    257.7   0.016936893   0.14367  -0.06145   0.35424  -0.12003
  48   39104.5    255.7   0.192876111   1.62378  -0.47935   1.14735   0.27857
  49   39188.1    255.2   0.043608096   0.36634  -0.26294  -0.53912   0.08101
  50   39325.3    254.3   0.013188081   0.11040  -0.00979  -0.30515   0.13112
  51   39485.9    253.3   0.222553270   1.85553   1.02721  -0.88087   0.15630
  52   39646.8    252.2   0.260612071   2.16402  -1.05425  -0.85281  -0.57034
  53   39856.5    250.9   0.110081497   0.90927   0.54090  -0.72998  -0.28952
  54   39924.0    250.5   0.086800272   0.71575  -0.49517  -0.67469   0.12389
  55   40142.8    249.1   0.083514348   0.68490   0.50119  -0.65460  -0.07215

FINAL SINGLE POINT ENERGY     -7014.054385712795

DIPOLE MOMENT
-------------
                                X             Y             Z
Electronic contribution:    215.02023    -219.99232      21.37529
Nuclear contribution   :   -212.85789     222.95306     -19.74676
                        -----------------------------------------
Total Dipole Moment    :      2.16234       2.96073       1.62853
                        -----------------------------------------
Magnitude (a.u.)       :      4.01170
Magnitude (Debye)      :     10.19693

Rotational constants in cm-1:     0.001634     0.000152     0.000141
Rotational constants in MHz :    48.994471     4.551338     4.239362

                             ****ORCA TERMINATED NORMALLY****
TOTAL RUN TIME: 0 days 0 hours 14 minutes 22 seconds 170 msec
