                         Program Version 4.2.0 -  RELEASE  -
|  1> # ORCA input file
|  2> # SCF done       -182.128838546928          0.000257304531
|  3> ! CAM-B3LYP def2-SVP def2/J RIJCOSX Grid4 TightSCF
|  4> %maxcore 5000
|  5> %tddft
|  6>     Mode sTDDFT
|  7>     Ethresh 5.0
|  8>     maxcore 5000
|  9> end
| 10>
| 11> %pal
| 12>   nprocs 6
| 13>   end
| 14> * xyz 0 1
| 15>    C      -14.06634         0.50224        -3.63081
| 16>    C      -14.69030        -0.53099        -2.98379
| 17>    C      -16.03699        -0.50857        -2.56507
| 18>    N      -17.12643        -0.54781        -2.20689
| 19>    C      -14.06285        -1.75492        -2.67308
| 20>    N      -13.58260        -2.76373        -2.40996
| 21>    C      -14.67347         1.77975        -3.99217
| 22>    C      -13.72460         2.55508        -4.70744
| 23>    C      -14.00192         3.81472        -5.18186
| 24>    C      -15.26893         4.34505        -4.92156
| 25>    C      -16.20840         3.56713        -4.20196
| 26>    C      -15.93260         2.28683        -3.73559
| 27>    S      -17.70720         4.41591        -3.98752
| 28>    C      -17.06142         5.78724        -4.85031
| 29>    C      -15.78738         5.61900        -5.28026
| 30>   Br      -18.12754         7.30855        -5.10065
| 31>    C      -12.46730         1.81115        -4.78812
| 32>    O      -11.42387         2.17174        -5.32932
| 33>    C      -12.69389         0.53950        -4.08875
| 34>    C      -11.68387        -0.36896        -3.89643
| 35>    N      -10.45051        -0.07068        -4.32444
| 36>    C       -9.29194        -0.76289        -4.19411
| 37>    S       -9.22545        -2.48600        -4.02980
| 38>    C       -7.49865        -2.41094        -4.19595
| 39>    N       -6.78525        -3.61947        -4.16881
| 40>    O       -5.58458        -3.56359        -4.34670
| 41>    O       -7.43429        -4.63205        -3.98616
| 42>    C       -7.01082        -1.14105        -4.35802
| 43>    C       -8.02740        -0.17251        -4.33474
| 44>    C       -7.85794         1.25164        -4.49393
| 45>    C       -8.68903         2.14866        -3.92440
| 46>    C       -8.82786         3.50508        -4.32460
| 47>    O       -8.02777         4.05816        -5.26902
| 48>    C       -9.86423         4.37392        -4.06701
| 49>    C      -11.14225         4.50339        -3.36835
| 50>    O      -11.71606         3.75297        -2.61831
| 51>    N      -11.63096         5.72778        -3.81034
| 52>    C      -10.83537         6.38638        -4.75491
| 53>    O      -11.12149         7.42857        -5.28341
| 54>    C       -9.68733         5.49563        -4.91987
| 55>    C       -8.54353         5.25925        -5.65643
| 56>    C       -7.94769         5.93493        -6.76135
| 57>    C       -6.88951         5.37552        -7.38584
| 58>    C       -6.23494         5.75925        -8.60602
| 59>    C       -6.00831         7.14236        -8.95219
| 60>    C       -6.38009         8.26698        -8.30188
| 61>    S       -5.70238         9.77124        -9.07059
| 62>    F       -5.21961        11.29485       -10.04800
| 63>    C       -5.10721         8.78011       -10.39306
| 64>    C       -5.27262         7.45607       -10.17739
| 65>    C       -4.78304         6.39081       -10.99309
| 66>    C       -4.99374         5.11070       -10.61870
| 67>    C       -5.74385         4.76760        -9.44547
| 68>    C       -5.97594         3.36115        -9.20251
| 69>    C       -7.09588         2.84365        -8.65446
| 70>    C       -7.26466         1.46434        -8.32994
| 71>    S       -8.79039         0.84655        -7.73354
| 72>    C       -8.20701        -0.75555        -7.53844
| 73>    C       -6.88822        -0.83987        -7.91135
| 74>    C       -6.37016         0.41841        -8.35796
| 75>    O       -5.07456         0.30069        -8.71809
| 76>    C       -4.76300        -1.00967        -8.51124
| 77>    N       -3.43970        -1.41486        -8.83883
| 78>    O       -3.18254        -2.59124        -8.69826
| 79>    O       -2.67913        -0.56082        -9.23698
| 80>    C       -5.79975        -1.75326        -8.02456
| 81>    H      -13.26498         4.37663        -5.73468
| 82>    H      -16.68143         1.73548        -3.19185
| 83>    H      -15.23520         6.36201        -5.82681
| 84>    H      -11.82303        -1.30812        -3.37687
| 85>    H      -10.39271         0.86043        -4.78394
| 86>    H       -5.96199        -0.92971        -4.46023
| 87>    H       -7.05952         1.58444        -5.14213
| 88>    H       -9.40273         1.85203        -3.16961
| 89>    H      -12.51110         6.10714        -3.49120
| 90>    H       -8.46131         6.81268        -7.11782
| 91>    H       -6.50290         4.46364        -6.94491
| 92>    H       -6.85132         8.32408        -7.34028
| 93>    H       -6.92613        10.12329        -9.51328
| 94>    H       -4.59097         9.27270       -11.19170
| 95>    H       -4.23880         6.63497       -11.89184
| 96>    H       -4.61785         4.29810       -11.22257
| 97>    H       -5.18776         2.68805        -9.51467
| 98>    H       -7.95174         3.47265        -8.45506
| 99>    H       -8.86022        -1.52842        -7.18950
|100>    H       -5.76865        -2.79618        -7.78588
|101> *
|102>
|103>                          ****END OF INPUT****

CARTESIAN COORDINATES (ANGSTROEM)
---------------------------------
  C    -14.066340    0.502240   -3.630810
  C    -14.690300   -0.530990   -2.983790
  C    -16.036990   -0.508570   -2.565070
  N    -17.126430   -0.547810   -2.206890
  C    -14.062850   -1.754920   -2.673080
  N    -13.582600   -2.763730   -2.409960
  C    -14.673470    1.779750   -3.992170
  C    -13.724600    2.555080   -4.707440
  C    -14.001920    3.814720   -5.181860
  C    -15.268930    4.345050   -4.921560
  C    -16.208400    3.567130   -4.201960
  C    -15.932600    2.286830   -3.735590
  S    -17.707200    4.415910   -3.987520
  C    -17.061420    5.787240   -4.850310
  C    -15.787380    5.619000   -5.280260
  Br   -18.127540    7.308550   -5.100650
  C    -12.467300    1.811150   -4.788120
  O    -11.423870    2.171740   -5.329320
  C    -12.693890    0.539500   -4.088750
  C    -11.683870   -0.368960   -3.896430
  N    -10.450510   -0.070680   -4.324440
  C     -9.291940   -0.762890   -4.194110
  S     -9.225450   -2.486000   -4.029800
  C     -7.498650   -2.410940   -4.195950
  N     -6.785250   -3.619470   -4.168810
  O     -5.584580   -3.563590   -4.346700
  O     -7.434290   -4.632050   -3.986160
  C     -7.010820   -1.141050   -4.358020
  C     -8.027400   -0.172510   -4.334740
  C     -7.857940    1.251640   -4.493930
  C     -8.689030    2.148660   -3.924400
  C     -8.827860    3.505080   -4.324600
  O     -8.027770    4.058160   -5.269020
  C     -9.864230    4.373920   -4.067010
  C    -11.142250    4.503390   -3.368350
  O    -11.716060    3.752970   -2.618310
  N    -11.630960    5.727780   -3.810340
  C    -10.835370    6.386380   -4.754910
  O    -11.121490    7.428570   -5.283410
  C     -9.687330    5.495630   -4.919870
  C     -8.543530    5.259250   -5.656430
  C     -7.947690    5.934930   -6.761350
  C     -6.889510    5.375520   -7.385840
  C     -6.234940    5.759250   -8.606020
  C     -6.008310    7.142360   -8.952190
  C     -6.380090    8.266980   -8.301880
  S     -5.702380    9.771240   -9.070590
  F     -5.219610   11.294850  -10.048000
  C     -5.107210    8.780110  -10.393060
  C     -5.272620    7.456070  -10.177390
  C     -4.783040    6.390810  -10.993090
  C     -4.993740    5.110700  -10.618700
  C     -5.743850    4.767600   -9.445470
  C     -5.975940    3.361150   -9.202510
  C     -7.095880    2.843650   -8.654460
  C     -7.264660    1.464340   -8.329940
  S     -8.790390    0.846550   -7.733540
  C     -8.207010   -0.755550   -7.538440
  C     -6.888220   -0.839870   -7.911350
  C     -6.370160    0.418410   -8.357960
  O     -5.074560    0.300690   -8.718090
  C     -4.763000   -1.009670   -8.511240
  N     -3.439700   -1.414860   -8.838830
  O     -3.182540   -2.591240   -8.698260
  O     -2.679130   -0.560820   -9.236980
  C     -5.799750   -1.753260   -8.024560
  H    -13.264980    4.376630   -5.734680
  H    -16.681430    1.735480   -3.191850
  H    -15.235200    6.362010   -5.826810
  H    -11.823030   -1.308120   -3.376870
  H    -10.392710    0.860430   -4.783940
  H     -5.961990   -0.929710   -4.460230
  H     -7.059520    1.584440   -5.142130
  H     -9.402730    1.852030   -3.169610
  H    -12.511100    6.107140   -3.491200
  H     -8.461310    6.812680   -7.117820
  H     -6.502900    4.463640   -6.944910
  H     -6.851320    8.324080   -7.340280
  H     -6.926130   10.123290   -9.513280
  H     -4.590970    9.272700  -11.191700
  H     -4.238800    6.634970  -11.891840
  H     -4.617850    4.298100  -11.222570
  H     -5.187760    2.688050   -9.514670
  H     -7.951740    3.472650   -8.455060
  H     -8.860220   -1.528420   -7.189500
  H     -5.768650   -2.796180   -7.785880

 Total Charge           Charge          ....    0
 Multiplicity           Mult            ....    1
 Number of Electrons    NEL             ....  512
 Basis Dimension        Dim             .... 1058

ORBITAL ENERGIES
----------------

  NO   OCC          E(Eh)            E(eV)
   0   2.0000    -482.893241    -13140.1931
   1   2.0000     -89.047373     -2423.1022
   2   2.0000     -89.008424     -2422.0424
   3   2.0000     -88.999273     -2421.7933
   4   2.0000     -88.985051     -2421.4063
   5   2.0000     -62.570931     -1702.6416
   6   2.0000     -56.404895     -1534.8552
   7   2.0000     -56.402153     -1534.7806
   8   2.0000     -56.402135     -1534.7801
   9   2.0000     -24.620225      -669.9504
  10   2.0000     -19.328987      -525.9685
  11   2.0000     -19.324051      -525.8342
  12   2.0000     -19.257501      -524.0232
  13   2.0000     -19.256550      -523.9974
  14   2.0000     -19.254767      -523.9488
  15   2.0000     -19.254055      -523.9295
  16   2.0000     -19.242740      -523.6216
  17   2.0000     -19.224364      -523.1215
  18   2.0000     -19.222685      -523.0759
  19   2.0000     -14.670047      -399.1923
  20   2.0000     -14.666379      -399.0925
  21   2.0000     -14.503811      -394.6688
  22   2.0000     -14.467948      -393.6929
  23   2.0000     -14.427763      -392.5994
  24   2.0000     -14.422352      -392.4522
  25   2.0000     -10.412492      -283.3383
  26   2.0000     -10.412296      -283.3330
  27   2.0000     -10.404918      -283.1322
  28   2.0000     -10.389066      -282.7009
  29   2.0000     -10.387910      -282.6694
  30   2.0000     -10.379510      -282.4408
  31   2.0000     -10.376274      -282.3528
  32   2.0000     -10.371997      -282.2364
  33   2.0000     -10.368196      -282.1330
  34   2.0000     -10.368137      -282.1313
  35   2.0000     -10.363835      -282.0143
  36   2.0000     -10.354345      -281.7560
  37   2.0000     -10.350559      -281.6530
  38   2.0000     -10.336314      -281.2654
  39   2.0000     -10.336089      -281.2593
  40   2.0000     -10.335406      -281.2407
  41   2.0000     -10.330181      -281.0985
  42   2.0000     -10.329817      -281.0886
  43   2.0000     -10.328750      -281.0596
  44   2.0000     -10.325290      -280.9654
  45   2.0000     -10.323472      -280.9160
  46   2.0000     -10.319511      -280.8082
  47   2.0000     -10.318660      -280.7850
  48   2.0000     -10.318022      -280.7677
  49   2.0000     -10.317910      -280.7646
  50   2.0000     -10.315689      -280.7042
  51   2.0000     -10.314567      -280.6736
  52   2.0000     -10.314244      -280.6649
  53   2.0000     -10.313275      -280.6385
  54   2.0000     -10.311020      -280.5771
  55   2.0000     -10.309145      -280.5261
  56   2.0000     -10.308569      -280.5104
  57   2.0000     -10.307956      -280.4937
  58   2.0000     -10.306866      -280.4641
  59   2.0000     -10.306008      -280.4407
  60   2.0000     -10.305400      -280.4242
  61   2.0000     -10.305204      -280.4189
  62   2.0000     -10.305052      -280.4147
  63   2.0000     -10.303639      -280.3763
  64   2.0000     -10.301654      -280.3223
  65   2.0000     -10.300743      -280.2975
  66   2.0000     -10.300365      -280.2872
  67   2.0000     -10.299208      -280.2557
  68   2.0000     -10.298553      -280.2379
  69   2.0000     -10.288741      -279.9709
  70   2.0000      -8.800345      -239.4696
  71   2.0000      -8.127987      -221.1738
  72   2.0000      -8.103515      -220.5079
  73   2.0000      -8.093164      -220.2262
  74   2.0000      -8.081037      -219.8962
  75   2.0000      -6.636704      -180.5939
  76   2.0000      -6.622078      -180.1959
  77   2.0000      -6.621809      -180.1886
  78   2.0000      -6.097982      -165.9345
  79   2.0000      -6.094717      -165.8457
  80   2.0000      -6.091125      -165.7479
  81   2.0000      -6.073055      -165.2562
  82   2.0000      -6.068722      -165.1383
  83   2.0000      -6.065182      -165.0420
  84   2.0000      -6.062461      -164.9679
  85   2.0000      -6.058170      -164.8512
  86   2.0000      -6.055696      -164.7839
  87   2.0000      -6.050699      -164.6479
  88   2.0000      -6.046419      -164.5314
  89   2.0000      -6.042300      -164.4193
  90   2.0000      -2.752553       -74.9008
  91   2.0000      -2.748435       -74.7887
  92   2.0000      -2.748324       -74.7857
  93   2.0000      -2.736649       -74.4680
  94   2.0000      -2.736637       -74.4677
  95   2.0000      -1.342581       -36.5335
  96   2.0000      -1.336986       -36.3812
  97   2.0000      -1.248482       -33.9729
  98   2.0000      -1.241217       -33.7752
  99   2.0000      -1.168020       -31.7834
 100   2.0000      -1.159573       -31.5536
 101   2.0000      -1.157818       -31.5058
 102   2.0000      -1.156556       -31.4715
 103   2.0000      -1.146839       -31.2071
 104   2.0000      -1.114381       -30.3238
 105   2.0000      -1.103556       -30.0293
 106   2.0000      -1.054911       -28.7056
 107   2.0000      -1.033894       -28.1337
 108   2.0000      -1.027300       -27.9543
 109   2.0000      -1.022706       -27.8293
 110   2.0000      -1.018765       -27.7220
 111   2.0000      -1.006543       -27.3894
 112   2.0000      -1.004529       -27.3346
 113   2.0000      -0.999954       -27.2101
 114   2.0000      -0.966996       -26.3133
 115   2.0000      -0.955683       -26.0055
 116   2.0000      -0.952300       -25.9134
 117   2.0000      -0.950330       -25.8598
 118   2.0000      -0.935236       -25.4491
 119   2.0000      -0.932102       -25.3638
 120   2.0000      -0.919154       -25.0115
 121   2.0000      -0.918061       -24.9817
 122   2.0000      -0.914621       -24.8881
 123   2.0000      -0.902940       -24.5703
 124   2.0000      -0.897814       -24.4308
 125   2.0000      -0.896534       -24.3959
 126   2.0000      -0.889725       -24.2107
 127   2.0000      -0.872958       -23.7544
 128   2.0000      -0.865627       -23.5549
 129   2.0000      -0.861662       -23.4470
 130   2.0000      -0.840079       -22.8597
 131   2.0000      -0.834240       -22.7008
 132   2.0000      -0.830340       -22.5947
 133   2.0000      -0.810761       -22.0619
 134   2.0000      -0.806430       -21.9441
 135   2.0000      -0.800833       -21.7918
 136   2.0000      -0.786774       -21.4092
 137   2.0000      -0.778789       -21.1919
 138   2.0000      -0.773326       -21.0433
 139   2.0000      -0.768368       -20.9083
 140   2.0000      -0.758155       -20.6304
 141   2.0000      -0.739821       -20.1315
 142   2.0000      -0.737504       -20.0685
 143   2.0000      -0.728131       -19.8134
 144   2.0000      -0.719274       -19.5724
 145   2.0000      -0.716575       -19.4990
 146   2.0000      -0.710419       -19.3315
 147   2.0000      -0.703325       -19.1385
 148   2.0000      -0.699555       -19.0359
 149   2.0000      -0.687424       -18.7058
 150   2.0000      -0.683911       -18.6102
 151   2.0000      -0.671143       -18.2627
 152   2.0000      -0.669583       -18.2203
 153   2.0000      -0.668009       -18.1774
 154   2.0000      -0.661926       -18.0119
 155   2.0000      -0.655765       -17.8443
 156   2.0000      -0.653891       -17.7933
 157   2.0000      -0.648622       -17.6499
 158   2.0000      -0.646062       -17.5803
 159   2.0000      -0.645032       -17.5522
 160   2.0000      -0.640763       -17.4360
 161   2.0000      -0.631468       -17.1831
 162   2.0000      -0.630479       -17.1562
 163   2.0000      -0.618749       -16.8370
 164   2.0000      -0.616775       -16.7833
 165   2.0000      -0.609385       -16.5822
 166   2.0000      -0.608247       -16.5512
 167   2.0000      -0.606631       -16.5073
 168   2.0000      -0.601926       -16.3793
 169   2.0000      -0.598640       -16.2898
 170   2.0000      -0.597547       -16.2601
 171   2.0000      -0.592247       -16.1159
 172   2.0000      -0.590382       -16.0651
 173   2.0000      -0.586300       -15.9540
 174   2.0000      -0.584600       -15.9078
 175   2.0000      -0.583334       -15.8733
 176   2.0000      -0.572550       -15.5799
 177   2.0000      -0.571356       -15.5474
 178   2.0000      -0.570106       -15.5134
 179   2.0000      -0.568381       -15.4664
 180   2.0000      -0.565327       -15.3833
 181   2.0000      -0.559480       -15.2242
 182   2.0000      -0.554423       -15.0866
 183   2.0000      -0.551475       -15.0064
 184   2.0000      -0.548051       -14.9132
 185   2.0000      -0.547594       -14.9008
 186   2.0000      -0.541806       -14.7433
 187   2.0000      -0.538676       -14.6581
 188   2.0000      -0.533248       -14.5104
 189   2.0000      -0.531238       -14.4557
 190   2.0000      -0.530392       -14.4327
 191   2.0000      -0.529315       -14.4034
 192   2.0000      -0.528113       -14.3707
 193   2.0000      -0.526059       -14.3148
 194   2.0000      -0.518783       -14.1168
 195   2.0000      -0.517820       -14.0906
 196   2.0000      -0.511561       -13.9203
 197   2.0000      -0.510049       -13.8792
 198   2.0000      -0.508468       -13.8361
 199   2.0000      -0.507018       -13.7967
 200   2.0000      -0.501517       -13.6470
 201   2.0000      -0.500417       -13.6170
 202   2.0000      -0.493226       -13.4214
 203   2.0000      -0.490490       -13.3469
 204   2.0000      -0.490182       -13.3385
 205   2.0000      -0.487726       -13.2717
 206   2.0000      -0.486529       -13.2391
 207   2.0000      -0.482048       -13.1172
 208   2.0000      -0.478756       -13.0276
 209   2.0000      -0.475377       -12.9357
 210   2.0000      -0.469200       -12.7676
 211   2.0000      -0.465701       -12.6724
 212   2.0000      -0.463890       -12.6231
 213   2.0000      -0.460215       -12.5231
 214   2.0000      -0.459376       -12.5003
 215   2.0000      -0.458292       -12.4708
 216   2.0000      -0.454352       -12.3635
 217   2.0000      -0.452419       -12.3109
 218   2.0000      -0.449063       -12.2196
 219   2.0000      -0.442552       -12.0424
 220   2.0000      -0.437778       -11.9126
 221   2.0000      -0.436807       -11.8861
 222   2.0000      -0.435257       -11.8439
 223   2.0000      -0.428303       -11.6547
 224   2.0000      -0.421586       -11.4719
 225   2.0000      -0.419725       -11.4213
 226   2.0000      -0.411641       -11.2013
 227   2.0000      -0.403179       -10.9711
 228   2.0000      -0.401549       -10.9267
 229   2.0000      -0.400711       -10.9039
 230   2.0000      -0.399288       -10.8652
 231   2.0000      -0.394477       -10.7343
 232   2.0000      -0.393436       -10.7059
 233   2.0000      -0.389160       -10.5896
 234   2.0000      -0.385966       -10.5027
 235   2.0000      -0.383953       -10.4479
 236   2.0000      -0.382910       -10.4195
 237   2.0000      -0.382330       -10.4037
 238   2.0000      -0.381548       -10.3825
 239   2.0000      -0.380297       -10.3484
 240   2.0000      -0.373502       -10.1635
 241   2.0000      -0.373384       -10.1603
 242   2.0000      -0.367138        -9.9903
 243   2.0000      -0.358738        -9.7618
 244   2.0000      -0.358423        -9.7532
 245   2.0000      -0.357814        -9.7366
 246   2.0000      -0.351910        -9.5760
 247   2.0000      -0.345042        -9.3891
 248   2.0000      -0.338878        -9.2213
 249   2.0000      -0.326713        -8.8903
 250   2.0000      -0.315366        -8.5815
 251   2.0000      -0.307683        -8.3725
 252   2.0000      -0.302400        -8.2287
 253   2.0000      -0.299297        -8.1443
 254   2.0000      -0.286814        -7.8046
 255   2.0000      -0.259481        -7.0608
 256   0.0000      -0.098675        -2.6851
 257   0.0000      -0.092908        -2.5281
 258   0.0000      -0.079463        -2.1623
 259   0.0000      -0.075964        -2.0671
 260   0.0000      -0.064964        -1.7678

MULLIKEN ATOMIC CHARGES
-----------------------
   0 C :    0.329278
   1 C :   -0.345179
   2 C :   -0.184578
   3 N :    0.155542
   4 C :   -0.196332
   5 N :    0.143292
   6 C :    0.012285
   7 C :    0.025448
   8 C :   -0.086438
   9 C :    0.119412
  10 C :   -0.088690
  11 C :   -0.023402
  12 S :    0.193729
  13 C :   -0.123157
  14 C :    0.026203
  15 Br:    0.031643
  16 C :    0.174176
  17 O :   -0.234954
  18 C :   -0.120954
  19 C :    0.035906
  20 N :   -0.040498
  21 C :   -0.122577
  22 S :    0.200332
  23 C :   -0.025158
  24 N :    0.275992
  25 O :   -0.243568
  26 O :   -0.251452
  27 C :    0.024027
  28 C :    0.111815
  29 C :   -0.005653
  30 C :   -0.052909
  31 C :    0.103982
  32 O :   -0.220415
  33 C :   -0.012282
  34 C :    0.176348
  35 O :   -0.167038
  36 N :   -0.175744
  37 C :    0.159890
  38 O :   -0.141279
  39 C :   -0.038321
  40 C :    0.085022
  41 C :   -0.038212
  42 C :   -0.089814
  43 C :    0.119959
  44 C :    0.105559
  45 C :   -0.258239
  46 S :    0.534549
  47 F :   -0.542718
  48 C :   -0.199786
  49 C :    0.134663
  50 C :    0.026440
  51 C :    0.003634
  52 C :    0.057808
  53 C :   -0.046672
  54 C :    0.054046
  55 C :   -0.231261
  56 S :    0.164854
  57 C :   -0.138684
  58 C :    0.136188
  59 C :    0.196556
  60 O :   -0.188390
  61 C :    0.246600
  62 N :    0.269647
  63 O :   -0.233350
  64 O :   -0.228241
  65 C :   -0.075997
  66 H :   -0.017375
  67 H :   -0.004132
  68 H :    0.003170
  69 H :    0.037018
  70 H :    0.197783
  71 H :    0.015709
  72 H :    0.018552
  73 H :    0.026790
  74 H :    0.139395
  75 H :    0.014773
  76 H :    0.050316
  77 H :    0.017843
  78 H :    0.113549
  79 H :    0.052060
  80 H :   -0.009979
  81 H :   -0.007843
  82 H :    0.023860
  83 H :    0.006925
  84 H :    0.035869
  85 H :    0.022837
Sum of atomic charges:   -0.0000000

LOEWDIN ATOMIC CHARGES
----------------------
   0 C :    0.082556
   1 C :   -0.145897
   2 C :   -0.020144
   3 N :   -0.050332
   4 C :   -0.018701
   5 N :   -0.054532
   6 C :   -0.013934
   7 C :   -0.046074
   8 C :    0.017275
   9 C :   -0.035382
  10 C :   -0.143392
  11 C :   -0.005273
  12 S :    0.439642
  13 C :   -0.270296
  14 C :   -0.074545
  15 Br:    0.142878
  16 C :    0.100180
  17 O :   -0.178886
  18 C :   -0.138396
  19 C :    0.110872
  20 N :    0.071913
  21 C :   -0.116138
  22 S :    0.477837
  23 C :   -0.207329
  24 N :    0.271465
  25 O :   -0.210278
  26 O :   -0.218804
  27 C :    0.003979
  28 C :   -0.089067
  29 C :   -0.011005
  30 C :   -0.034891
  31 C :    0.062727
  32 O :    0.014544
  33 C :   -0.086334
  34 C :    0.086196
  35 O :   -0.170656
  36 N :   -0.002924
  37 C :    0.083459
  38 O :   -0.161413
  39 C :   -0.107853
  40 C :    0.081991
  41 C :   -0.059535
  42 C :    0.017451
  43 C :   -0.020339
  44 C :   -0.041353
  45 C :   -0.202118
  46 S :    0.855317
  47 F :   -0.543919
  48 C :   -0.157393
  49 C :   -0.026972
  50 C :   -0.000694
  51 C :   -0.003783
  52 C :   -0.010639
  53 C :   -0.019986
  54 C :   -0.024256
  55 C :   -0.210991
  56 S :    0.498156
  57 C :   -0.176262
  58 C :   -0.083576
  59 C :    0.022767
  60 O :    0.000637
  61 C :    0.030815
  62 N :    0.270155
  63 O :   -0.195382
  64 O :   -0.190058
  65 C :   -0.006581
  66 H :    0.036359
  67 H :    0.042425
  68 H :    0.040436
  69 H :    0.038759
  70 H :    0.082321
  71 H :    0.048782
  72 H :    0.035142
  73 H :    0.043816
  74 H :    0.092734
  75 H :    0.041220
  76 H :    0.038771
  77 H :    0.017527
  78 H :    0.023180
  79 H :    0.036924
  80 H :    0.037233
  81 H :    0.035835
  82 H :    0.036172
  83 H :    0.036760
  84 H :    0.027372
  85 H :    0.051731

  Mayer bond orders larger than 0.100000
B(  0-C ,  1-C ) :   1.6321 B(  0-C ,  6-C ) :   1.0074 B(  0-C , 18-C ) :   1.0915
B(  1-C ,  2-C ) :   1.1420 B(  1-C ,  4-C ) :   1.1468 B(  2-C ,  3-N ) :   2.9722
B(  4-C ,  5-N ) :   2.9581 B(  6-C ,  7-C ) :   1.2749 B(  6-C , 11-C ) :   1.4205
B(  7-C ,  8-C ) :   1.4155 B(  7-C , 16-C ) :   0.9888 B(  8-C ,  9-C ) :   1.2465
B(  8-C , 66-H ) :   1.0133 B(  9-C , 10-C ) :   1.3056 B(  9-C , 14-C ) :   1.1616
B( 10-C , 11-C ) :   1.3223 B( 10-C , 12-S ) :   1.0907 B( 11-C , 67-H ) :   0.9795
B( 12-S , 13-C ) :   1.0899 B( 13-C , 14-C ) :   1.6131 B( 13-C , 15-Br) :   1.0235
B( 14-C , 68-H ) :   1.0018 B( 16-C , 17-O ) :   1.9842 B( 16-C , 18-C ) :   1.0062
B( 17-O , 70-H ) :   0.1505 B( 18-C , 19-C ) :   1.4640 B( 19-C , 20-N ) :   1.3236
B( 19-C , 69-H ) :   0.9340 B( 20-N , 21-C ) :   1.1688 B( 20-N , 70-H ) :   0.8150
B( 21-C , 22-S ) :   1.1425 B( 21-C , 28-C ) :   1.3966 B( 22-S , 23-C ) :   1.0888
B( 23-C , 24-N ) :   0.9612 B( 23-C , 27-C ) :   1.4883 B( 24-N , 25-O ) :   1.5390
B( 24-N , 26-O ) :   1.5183 B( 25-O , 26-O ) :   0.2624 B( 27-C , 28-C ) :   1.2194
B( 27-C , 71-H ) :   1.0107 B( 28-C , 29-C ) :   1.0584 B( 29-C , 30-C ) :   1.6819
B( 29-C , 72-H ) :   0.9706 B( 30-C , 31-C ) :   1.1741 B( 30-C , 73-H ) :   0.9603
B( 31-C , 32-O ) :   1.1499 B( 31-C , 33-C ) :   1.4359 B( 32-O , 40-C ) :   1.1414
B( 33-C , 34-C ) :   0.8921 B( 33-C , 39-C ) :   1.2583 B( 34-C , 35-O ) :   2.2023
B( 34-C , 36-N ) :   1.0870 B( 36-N , 37-C ) :   1.0609 B( 36-N , 74-H ) :   0.9139
B( 37-C , 38-O ) :   2.2750 B( 37-C , 39-C ) :   0.8901 B( 39-C , 40-C ) :   1.3980
B( 40-C , 41-C ) :   1.1681 B( 41-C , 42-C ) :   1.6722 B( 41-C , 75-H ) :   0.9661
B( 42-C , 43-C ) :   1.0615 B( 42-C , 76-H ) :   0.9476 B( 43-C , 44-C ) :   1.0888
B( 43-C , 52-C ) :   1.5321 B( 44-C , 45-C ) :   1.6288 B( 44-C , 49-C ) :   1.0948
B( 45-C , 46-S ) :   0.8928 B( 45-C , 77-H ) :   0.9354 B( 46-S , 47-F ) :   0.4841
B( 46-S , 48-C ) :   1.0526 B( 46-S , 78-H ) :   0.8857 B( 48-C , 49-C ) :   1.5209
B( 48-C , 79-H ) :   0.9932 B( 49-C , 50-C ) :   1.0922 B( 50-C , 51-C ) :   1.6284
B( 50-C , 80-H ) :   1.0031 B( 51-C , 52-C ) :   1.0990 B( 51-C , 81-H ) :   0.9951
B( 52-C , 53-C ) :   1.0712 B( 53-C , 54-C ) :   1.7113 B( 53-C , 82-H ) :   0.9595
B( 54-C , 55-C ) :   1.1073 B( 54-C , 83-H ) :   0.9526 B( 55-C , 56-S ) :   1.1375
B( 55-C , 57-C ) :   0.1086 B( 55-C , 59-C ) :   1.4570 B( 56-S , 57-C ) :   1.1997
B( 57-C , 58-C ) :   1.4262 B( 57-C , 84-H ) :   0.9709 B( 58-C , 59-C ) :   1.2268
B( 58-C , 65-C ) :   1.0441 B( 59-C , 60-O ) :   1.1085 B( 60-O , 61-C ) :   1.1112
B( 61-C , 62-N ) :   0.9046 B( 61-C , 65-C ) :   1.5920 B( 62-N , 63-O ) :   1.5456
B( 62-N , 64-O ) :   1.5139 B( 63-O , 64-O ) :   0.2851 B( 65-C , 85-H ) :   1.0275

-----------------------------------------------------------------------------
         ABSORPTION SPECTRUM VIA TRANSITION ELECTRIC DIPOLE MOMENTS
-----------------------------------------------------------------------------
State   Energy  Wavelength   fosc         T2         TX        TY        TZ
        (cm-1)    (nm)                  (au**2)     (au)      (au)      (au)
-----------------------------------------------------------------------------
   0   18987.1    526.7   0.229113134   3.97252  -1.40620   0.28120   1.38422
   1   20677.6    483.6   0.219141170   3.48899  -1.78136  -0.54253  -0.14632
   2   23932.9    417.8   0.009161053   0.12602   0.01228  -0.02033  -0.35419
   3   24226.6    412.8   0.086496579   1.17539   0.42354   0.33072  -0.94161
   4   24905.5    401.5   0.344643785   4.55566  -2.11743   0.26851   0.00569
   5   25575.0    391.0   0.085707233   1.10326  -0.56653   0.85622   0.22179
   6   26634.9    375.4   0.225981720   2.79317  -1.28618  -0.67404   0.82739
   7   26952.6    371.0   0.560777150   6.84960  -0.57363   2.55244   0.07471
   8   28064.5    356.3   0.055050811   0.64578  -0.67143  -0.33337   0.28953
   9   28517.5    350.7   0.018182441   0.20990  -0.26561   0.32892   0.17653
  10   28654.3    349.0   0.033368647   0.38338   0.34525   0.19111  -0.47713
  11   29406.1    340.1   0.464769628   5.20327   0.96012  -2.04137   0.33801
  12   29530.3    338.6   0.111870881   1.24717   0.21667  -0.97044   0.50841
  13   30093.0    332.3   0.070253700   0.76856  -0.23711   0.84322   0.03636
  14   30301.7    330.0   0.065592804   0.71263  -0.69623   0.15986   0.44982
  15   30540.3    327.4   0.192215594   2.07200  -0.94378   1.07464   0.16258
  16   30927.9    323.3   0.251313592   2.67511   0.71185  -1.41080   0.42193
  17   31764.7    314.8   0.165585901   1.71615   0.65989   0.83280  -0.76625
  18   32441.8    308.2   0.099353997   1.00822  -0.68997   0.72949  -0.00352
  19   32838.3    304.5   0.490335987   4.91573  -0.44243  -2.00854   0.82811
  20   33437.8    299.1   0.010900210   0.10732   0.29524  -0.08534   0.11344
  21   33566.3    297.9   0.776106297   7.61190  -0.31392  -2.54593   1.01568
  22   33604.0    297.6   0.028048778   0.27479  -0.36219  -0.32692   0.19165
  23   33997.5    294.1   0.057101904   0.55294  -0.43851  -0.51355   0.31131
  24   34708.7    288.1   0.010292369   0.09762  -0.18261   0.25000  -0.04216
  25   35351.2    282.9   0.031665164   0.29489  -0.38403  -0.15282   0.35221
  26   35540.6    281.4   0.002124063   0.01968   0.13053   0.00587  -0.05101
  27   35643.1    280.6   0.326862103   3.01901  -1.42073   0.94077   0.33984
  28   35944.3    278.2   0.004966041   0.04548   0.06746  -0.18045   0.09148
  29   36135.1    276.7   0.015396817   0.14027  -0.25964   0.26984  -0.00706
  30   36355.9    275.1   0.147062032   1.33169  -1.02698   0.22957   0.47360
  31   36444.8    274.4   0.013875699   0.12534  -0.14705   0.26298  -0.18591
  32   36731.4    272.2   0.188777823   1.69196  -0.89435   0.94426   0.02152
  33   36894.5    271.0   0.149342334   1.33259   1.09911  -0.18383  -0.30124
  34   37062.3    269.8   0.031279037   0.27784  -0.00127   0.49217  -0.18870
  35   37128.9    269.3   0.155480587   1.37861   0.72477  -0.90325  -0.19354
  36   37293.6    268.1   0.011218411   0.09903  -0.11958  -0.23741   0.16843
  37   37466.2    266.9   0.015598561   0.13706  -0.21104  -0.27542   0.12910
  38   37698.9    265.3   0.049308801   0.43060  -0.64096   0.08783   0.10979
  39   37951.2    263.5   0.029900233   0.25937   0.08861   0.45266  -0.21592
  40   38701.3    258.4   0.011709203   0.09960   0.29785  -0.10312  -0.01609
  41   38913.9    257.0   0.030751687   0.26016  -0.42573  -0.00340   0.28089
  42   39060.3    256.0   0.036120236   0.30443  -0.13292  -0.49119  -0.21329
  43   39117.8    255.6   0.020492292   0.17246  -0.34595   0.21563   0.07928
  44   39438.4    253.6   0.046331989   0.38676   0.51693  -0.33492  -0.08585
  45   39742.1    251.6   0.014135072   0.11709  -0.28805   0.18360  -0.02023
  46   39826.9    251.1   0.004013834   0.03318   0.02022   0.18099  -0.00366
  47   40001.6    250.0   0.100922550   0.83059   0.88479  -0.17229  -0.13435
  48   40260.4    248.4   0.027520828   0.22504  -0.15224   0.44702  -0.04509

FINAL SINGLE POINT ENERGY     -6994.603429935291

DIPOLE MOMENT
-------------
                                X             Y             Z
Electronic contribution:    -99.35064      36.00044      20.51320
Nuclear contribution   :     98.14195     -34.88596     -21.42575
                        -----------------------------------------
Total Dipole Moment    :     -1.20869       1.11448      -0.91255
                        -----------------------------------------
Magnitude (a.u.)       :      1.88036
Magnitude (Debye)      :      4.77949

Rotational constants in cm-1:     0.000962     0.000663     0.000421
Rotational constants in MHz :    28.838379    19.889914    12.609604

                             ****ORCA TERMINATED NORMALLY****
TOTAL RUN TIME: 0 days 0 hours 8 minutes 22 seconds 254 msec
