                         Program Version 4.2.0 -  RELEASE  -
|  1> # ORCA input file
|  2> # SCF done       -164.934061120375          0.000550800146
|  3> ! CAM-B3LYP def2-SVP def2/J RIJCOSX Grid4 TightSCF
|  4> %maxcore 5000
|  5> %tddft
|  6>     Mode sTDDFT
|  7>     Ethresh 5.0
|  8>     maxcore 5000
|  9> end
| 10>
| 11> %pal
| 12>   nprocs 6
| 13>   end
| 14> * xyz 0 1
| 15>    C       -3.82252         2.93847        -6.32139
| 16>    C       -4.51783         3.99839        -6.86146
| 17>    C       -4.15705         4.65547        -8.05451
| 18>    N       -3.90710         5.25553        -9.00160
| 19>    C       -5.64812         4.59843        -6.29654
| 20>    N       -6.57980         5.15610        -5.91084
| 21>    C       -2.66197         2.30028        -6.92909
| 22>    C       -2.18051         1.28949        -6.05631
| 23>    C       -1.11292         0.48551        -6.37067
| 24>    C       -0.50664         0.66511        -7.61943
| 25>    C       -1.00728         1.65984        -8.49235
| 26>    C       -2.07282         2.48991        -8.16544
| 27>    S       -0.15457         1.66955       -10.00556
| 28>    C        0.83736         0.34439        -9.45735
| 29>    C        0.55792        -0.07427        -8.20040
| 30>   Br        2.13221        -0.37679       -10.60013
| 31>    C       -3.06608         1.21683        -4.88706
| 32>    O       -2.97981         0.45610        -3.93227
| 33>    C       -4.08977         2.25055        -5.08701
| 34>    C       -5.11542         2.43373        -4.19249
| 35>    N       -5.22863         1.62764        -3.12710
| 36>    C       -6.14846         1.63519        -2.12562
| 37>    S       -5.78193         0.68628        -0.71395
| 38>    C       -7.22644         1.27208         0.04357
| 39>    N       -7.53464         0.81958         1.32935
| 40>    O       -8.54781         1.25069         1.85261
| 41>    O       -6.75943         0.02530         1.83627
| 42>    C       -7.93652         2.13907        -0.74701
| 43>    C       -7.34522         2.34888        -2.00409
| 44>    C       -7.93556         3.18155        -3.03270
| 45>    C       -8.56197         4.34220        -2.78237
| 46>    C       -9.03341         5.18471        -3.84431
| 47>    C       -9.42694         6.46157        -3.73197
| 48>    C       -9.59287         7.19449        -2.43771
| 49>    C       -9.68582         7.29930        -4.96063
| 50>    N       -8.92662         6.84696        -6.09426
| 51>    C       -9.22607         7.07994        -7.37131
| 52>    C       -8.48172         6.56621        -8.39960
| 53>    C       -8.70285         6.81000        -9.75536
| 54>    C       -7.97750         6.20122       -10.75615
| 55>    C       -8.04996         6.41749       -12.14705
| 56>    C       -7.19802         5.64130       -12.88008
| 57>    C       -6.42307         4.75662       -12.10160
| 58>    S       -6.78056         4.95752       -10.41031
| 59>    C       -5.51920         3.80003       -12.53718
| 60>    C       -5.14143         3.48302       -13.85279
| 61>    C       -4.28066         2.42727       -13.93962
| 62>    C       -3.95118         1.83452       -12.69622
| 63>    S       -4.71453         2.72986       -11.40289
| 64>    C       -3.13491         0.73225       -12.57217
| 65>    C       -2.80105        -0.07063       -11.47229
| 66>    S       -1.51981        -1.24289       -11.74131
| 67>    C       -1.61375        -1.88609       -10.12231
| 68>    C       -2.61268        -1.22931        -9.43522
| 69>    C       -3.27021        -0.21861       -10.16954
| 70>    S       -4.57099         0.60261        -9.34089
| 71>    C       -4.38708        -0.22767        -7.79129
| 72>    O       -5.02788         0.05878        -6.81961
| 73>    S       -3.16664        -1.50833        -7.80165
| 74>    C       -0.70348        -2.91638        -9.72471
| 75>    C       -0.60966        -3.44921        -8.50617
| 76>    H       -0.77462        -0.28099        -5.69149
| 77>    H       -2.42779         3.22096        -8.87258
| 78>    H        1.06657        -0.88391        -7.71049
| 79>    H       -5.83636         3.22904        -4.31010
| 80>    H       -4.46366         0.93218        -3.06992
| 81>    H       -8.86856         2.57363        -0.43461
| 82>    H       -7.84938         2.83162        -4.05279
| 83>    H       -8.62306         4.70389        -1.76671
| 84>    H       -8.97724         4.73927        -4.82853
| 85>    H       -8.68700         7.75504        -2.20274
| 86>    H       -9.79773         6.51711        -1.61485
| 87>    H      -10.41386         7.90573        -2.51170
| 88>    H       -9.42530         8.34266        -4.72625
| 89>    H      -10.75530         7.28249        -5.20871
| 90>    H       -8.07726         6.31406        -5.90698
| 91>    H      -10.09907         7.68985        -7.56926
| 92>    H       -7.65106         5.92214        -8.14305
| 93>    H       -9.47251         7.51287       -10.04681
| 94>    H       -8.72299         7.14364       -12.56877
| 95>    H       -7.11663         5.67639       -13.95150
| 96>    H       -5.51515         4.02805       -14.70106
| 97>    H       -3.89228         2.03531       -14.86285
| 98>    H       -2.65887         0.42057       -13.49448
| 99>    H       -0.04166        -3.25048       -10.51298
|100>    H       -1.24492        -3.14126        -7.69375
|101>    H        0.10951        -4.22007        -8.29466
|102> *
|103>
|104>                          ****END OF INPUT****

CARTESIAN COORDINATES (ANGSTROEM)
---------------------------------
  C     -3.822520    2.938470   -6.321390
  C     -4.517830    3.998390   -6.861460
  C     -4.157050    4.655470   -8.054510
  N     -3.907100    5.255530   -9.001600
  C     -5.648120    4.598430   -6.296540
  N     -6.579800    5.156100   -5.910840
  C     -2.661970    2.300280   -6.929090
  C     -2.180510    1.289490   -6.056310
  C     -1.112920    0.485510   -6.370670
  C     -0.506640    0.665110   -7.619430
  C     -1.007280    1.659840   -8.492350
  C     -2.072820    2.489910   -8.165440
  S     -0.154570    1.669550  -10.005560
  C      0.837360    0.344390   -9.457350
  C      0.557920   -0.074270   -8.200400
  Br     2.132210   -0.376790  -10.600130
  C     -3.066080    1.216830   -4.887060
  O     -2.979810    0.456100   -3.932270
  C     -4.089770    2.250550   -5.087010
  C     -5.115420    2.433730   -4.192490
  N     -5.228630    1.627640   -3.127100
  C     -6.148460    1.635190   -2.125620
  S     -5.781930    0.686280   -0.713950
  C     -7.226440    1.272080    0.043570
  N     -7.534640    0.819580    1.329350
  O     -8.547810    1.250690    1.852610
  O     -6.759430    0.025300    1.836270
  C     -7.936520    2.139070   -0.747010
  C     -7.345220    2.348880   -2.004090
  C     -7.935560    3.181550   -3.032700
  C     -8.561970    4.342200   -2.782370
  C     -9.033410    5.184710   -3.844310
  C     -9.426940    6.461570   -3.731970
  C     -9.592870    7.194490   -2.437710
  C     -9.685820    7.299300   -4.960630
  N     -8.926620    6.846960   -6.094260
  C     -9.226070    7.079940   -7.371310
  C     -8.481720    6.566210   -8.399600
  C     -8.702850    6.810000   -9.755360
  C     -7.977500    6.201220  -10.756150
  C     -8.049960    6.417490  -12.147050
  C     -7.198020    5.641300  -12.880080
  C     -6.423070    4.756620  -12.101600
  S     -6.780560    4.957520  -10.410310
  C     -5.519200    3.800030  -12.537180
  C     -5.141430    3.483020  -13.852790
  C     -4.280660    2.427270  -13.939620
  C     -3.951180    1.834520  -12.696220
  S     -4.714530    2.729860  -11.402890
  C     -3.134910    0.732250  -12.572170
  C     -2.801050   -0.070630  -11.472290
  S     -1.519810   -1.242890  -11.741310
  C     -1.613750   -1.886090  -10.122310
  C     -2.612680   -1.229310   -9.435220
  C     -3.270210   -0.218610  -10.169540
  S     -4.570990    0.602610   -9.340890
  C     -4.387080   -0.227670   -7.791290
  O     -5.027880    0.058780   -6.819610
  S     -3.166640   -1.508330   -7.801650
  C     -0.703480   -2.916380   -9.724710
  C     -0.609660   -3.449210   -8.506170
  H     -0.774620   -0.280990   -5.691490
  H     -2.427790    3.220960   -8.872580
  H      1.066570   -0.883910   -7.710490
  H     -5.836360    3.229040   -4.310100
  H     -4.463660    0.932180   -3.069920
  H     -8.868560    2.573630   -0.434610
  H     -7.849380    2.831620   -4.052790
  H     -8.623060    4.703890   -1.766710
  H     -8.977240    4.739270   -4.828530
  H     -8.687000    7.755040   -2.202740
  H     -9.797730    6.517110   -1.614850
  H    -10.413860    7.905730   -2.511700
  H     -9.425300    8.342660   -4.726250
  H    -10.755300    7.282490   -5.208710
  H     -8.077260    6.314060   -5.906980
  H    -10.099070    7.689850   -7.569260
  H     -7.651060    5.922140   -8.143050
  H     -9.472510    7.512870  -10.046810
  H     -8.722990    7.143640  -12.568770
  H     -7.116630    5.676390  -13.951500
  H     -5.515150    4.028050  -14.701060
  H     -3.892280    2.035310  -14.862850
  H     -2.658870    0.420570  -13.494480
  H     -0.041660   -3.250480  -10.512980
  H     -1.244920   -3.141260   -7.693750
  H      0.109510   -4.220070   -8.294660

 Total Charge           Charge          ....    0
 Multiplicity           Mult            ....    1
 Number of Electrons    NEL             ....  504
 Basis Dimension        Dim             .... 1030

ORBITAL ENERGIES
----------------

  NO   OCC          E(Eh)            E(eV)
   0   2.0000    -482.881042    -13139.8612
   1   2.0000     -88.986615     -2421.4489
   2   2.0000     -88.969617     -2420.9863
   3   2.0000     -88.957174     -2420.6478
   4   2.0000     -88.952943     -2420.5326
   5   2.0000     -88.948444     -2420.4102
   6   2.0000     -88.931066     -2419.9373
   7   2.0000     -88.929358     -2419.8908
   8   2.0000     -62.558600     -1702.3060
   9   2.0000     -56.392527     -1534.5187
  10   2.0000     -56.389859     -1534.4461
  11   2.0000     -56.389821     -1534.4450
  12   2.0000     -19.237138      -523.4691
  13   2.0000     -19.236297      -523.4462
  14   2.0000     -19.225898      -523.1633
  15   2.0000     -19.224375      -523.1218
  16   2.0000     -14.648641      -398.6098
  17   2.0000     -14.492229      -394.3536
  18   2.0000     -14.434935      -392.7945
  19   2.0000     -14.432011      -392.7150
  20   2.0000     -14.409028      -392.0896
  21   2.0000     -10.399647      -282.9888
  22   2.0000     -10.372193      -282.2417
  23   2.0000     -10.371378      -282.2195
  24   2.0000     -10.364155      -282.0230
  25   2.0000     -10.352043      -281.6934
  26   2.0000     -10.344980      -281.5012
  27   2.0000     -10.344618      -281.4914
  28   2.0000     -10.343398      -281.4582
  29   2.0000     -10.337773      -281.3051
  30   2.0000     -10.322849      -280.8990
  31   2.0000     -10.319735      -280.8143
  32   2.0000     -10.318917      -280.7920
  33   2.0000     -10.311921      -280.6016
  34   2.0000     -10.309518      -280.5362
  35   2.0000     -10.308608      -280.5115
  36   2.0000     -10.307870      -280.4914
  37   2.0000     -10.304936      -280.4116
  38   2.0000     -10.303496      -280.3724
  39   2.0000     -10.302211      -280.3374
  40   2.0000     -10.301845      -280.3274
  41   2.0000     -10.301431      -280.3162
  42   2.0000     -10.301088      -280.3068
  43   2.0000     -10.297928      -280.2209
  44   2.0000     -10.297784      -280.2169
  45   2.0000     -10.296843      -280.1913
  46   2.0000     -10.291918      -280.0573
  47   2.0000     -10.291390      -280.0429
  48   2.0000     -10.290134      -280.0088
  49   2.0000     -10.288967      -279.9770
  50   2.0000     -10.288947      -279.9765
  51   2.0000     -10.288188      -279.9558
  52   2.0000     -10.282212      -279.7932
  53   2.0000     -10.281925      -279.7854
  54   2.0000     -10.281024      -279.7609
  55   2.0000     -10.280471      -279.7458
  56   2.0000     -10.277386      -279.6619
  57   2.0000     -10.275173      -279.6017
  58   2.0000     -10.271833      -279.5108
  59   2.0000     -10.271767      -279.5090
  60   2.0000     -10.265532      -279.3393
  61   2.0000     -10.262487      -279.2565
  62   2.0000     -10.262051      -279.2446
  63   2.0000     -10.259720      -279.1812
  64   2.0000     -10.251367      -278.9539
  65   2.0000      -8.787985      -239.1332
  66   2.0000      -8.082383      -219.9328
  67   2.0000      -8.064969      -219.4590
  68   2.0000      -8.052969      -219.1324
  69   2.0000      -8.048650      -219.0149
  70   2.0000      -8.043758      -218.8818
  71   2.0000      -8.026878      -218.4225
  72   2.0000      -8.025311      -218.3798
  73   2.0000      -6.624177      -180.2530
  74   2.0000      -6.609843      -179.8630
  75   2.0000      -6.609518      -179.8541
  76   2.0000      -6.052016      -164.6837
  77   2.0000      -6.047622      -164.5641
  78   2.0000      -6.043812      -164.4605
  79   2.0000      -6.034675      -164.2119
  80   2.0000      -6.030372      -164.0948
  81   2.0000      -6.026268      -163.9831
  82   2.0000      -6.022622      -163.8839
  83   2.0000      -6.018663      -163.7762
  84   2.0000      -6.018429      -163.7698
  85   2.0000      -6.014308      -163.6576
  86   2.0000      -6.013846      -163.6451
  87   2.0000      -6.013160      -163.6264
  88   2.0000      -6.009309      -163.5216
  89   2.0000      -6.009293      -163.5212
  90   2.0000      -6.005365      -163.4143
  91   2.0000      -5.996611      -163.1761
  92   2.0000      -5.994975      -163.1316
  93   2.0000      -5.992494      -163.0640
  94   2.0000      -5.990919      -163.0212
  95   2.0000      -5.987909      -162.9393
  96   2.0000      -5.986433      -162.8991
  97   2.0000      -2.740067       -74.5610
  98   2.0000      -2.736097       -74.4530
  99   2.0000      -2.735832       -74.4458
 100   2.0000      -2.724446       -74.1359
 101   2.0000      -2.724431       -74.1355
 102   2.0000      -1.316946       -35.8359
 103   2.0000      -1.151199       -31.3257
 104   2.0000      -1.141354       -31.0578
 105   2.0000      -1.135870       -30.9086
 106   2.0000      -1.097228       -29.8571
 107   2.0000      -1.041067       -28.3289
 108   2.0000      -1.027656       -27.9639
 109   2.0000      -1.015415       -27.6308
 110   2.0000      -1.008653       -27.4469
 111   2.0000      -1.000180       -27.2163
 112   2.0000      -0.997161       -27.1341
 113   2.0000      -0.986028       -26.8312
 114   2.0000      -0.978285       -26.6205
 115   2.0000      -0.956801       -26.0359
 116   2.0000      -0.939975       -25.5780
 117   2.0000      -0.931956       -25.3598
 118   2.0000      -0.929765       -25.3002
 119   2.0000      -0.912620       -24.8337
 120   2.0000      -0.907934       -24.7062
 121   2.0000      -0.902192       -24.5499
 122   2.0000      -0.899472       -24.4759
 123   2.0000      -0.886498       -24.1228
 124   2.0000      -0.881507       -23.9870
 125   2.0000      -0.877285       -23.8721
 126   2.0000      -0.859741       -23.3947
 127   2.0000      -0.854463       -23.2511
 128   2.0000      -0.852432       -23.1959
 129   2.0000      -0.839275       -22.8378
 130   2.0000      -0.831884       -22.6367
 131   2.0000      -0.825158       -22.4537
 132   2.0000      -0.823562       -22.4103
 133   2.0000      -0.808361       -21.9966
 134   2.0000      -0.800281       -21.7768
 135   2.0000      -0.796366       -21.6702
 136   2.0000      -0.794284       -21.6136
 137   2.0000      -0.780419       -21.2363
 138   2.0000      -0.774000       -21.0616
 139   2.0000      -0.761791       -20.7294
 140   2.0000      -0.760505       -20.6944
 141   2.0000      -0.743467       -20.2308
 142   2.0000      -0.717549       -19.5255
 143   2.0000      -0.714963       -19.4551
 144   2.0000      -0.709351       -19.3024
 145   2.0000      -0.694283       -18.8924
 146   2.0000      -0.688566       -18.7368
 147   2.0000      -0.685734       -18.6598
 148   2.0000      -0.680674       -18.5221
 149   2.0000      -0.668602       -18.1936
 150   2.0000      -0.662303       -18.0222
 151   2.0000      -0.657534       -17.8924
 152   2.0000      -0.648535       -17.6475
 153   2.0000      -0.644906       -17.5488
 154   2.0000      -0.638276       -17.3684
 155   2.0000      -0.637060       -17.3353
 156   2.0000      -0.629351       -17.1255
 157   2.0000      -0.628607       -17.1053
 158   2.0000      -0.626370       -17.0444
 159   2.0000      -0.619616       -16.8606
 160   2.0000      -0.618253       -16.8235
 161   2.0000      -0.611449       -16.6384
 162   2.0000      -0.607336       -16.5264
 163   2.0000      -0.599796       -16.3213
 164   2.0000      -0.595413       -16.2020
 165   2.0000      -0.589806       -16.0494
 166   2.0000      -0.588108       -16.0032
 167   2.0000      -0.578586       -15.7441
 168   2.0000      -0.576609       -15.6903
 169   2.0000      -0.572007       -15.5651
 170   2.0000      -0.566334       -15.4107
 171   2.0000      -0.564165       -15.3517
 172   2.0000      -0.559483       -15.2243
 173   2.0000      -0.552554       -15.0357
 174   2.0000      -0.548811       -14.9339
 175   2.0000      -0.547729       -14.9045
 176   2.0000      -0.544071       -14.8049
 177   2.0000      -0.542996       -14.7757
 178   2.0000      -0.541213       -14.7272
 179   2.0000      -0.537900       -14.6370
 180   2.0000      -0.532490       -14.4898
 181   2.0000      -0.528789       -14.3891
 182   2.0000      -0.525955       -14.3120
 183   2.0000      -0.521193       -14.1824
 184   2.0000      -0.517698       -14.0873
 185   2.0000      -0.515498       -14.0274
 186   2.0000      -0.513925       -13.9846
 187   2.0000      -0.507613       -13.8129
 188   2.0000      -0.506975       -13.7955
 189   2.0000      -0.504999       -13.7417
 190   2.0000      -0.501426       -13.6445
 191   2.0000      -0.499545       -13.5933
 192   2.0000      -0.498218       -13.5572
 193   2.0000      -0.491724       -13.3805
 194   2.0000      -0.488415       -13.2905
 195   2.0000      -0.482952       -13.1418
 196   2.0000      -0.480485       -13.0747
 197   2.0000      -0.477596       -12.9961
 198   2.0000      -0.476244       -12.9593
 199   2.0000      -0.473977       -12.8976
 200   2.0000      -0.473123       -12.8743
 201   2.0000      -0.469290       -12.7700
 202   2.0000      -0.464927       -12.6513
 203   2.0000      -0.462193       -12.5769
 204   2.0000      -0.458654       -12.4806
 205   2.0000      -0.456879       -12.4323
 206   2.0000      -0.453944       -12.3524
 207   2.0000      -0.453586       -12.3427
 208   2.0000      -0.451935       -12.2978
 209   2.0000      -0.448443       -12.2028
 210   2.0000      -0.446736       -12.1563
 211   2.0000      -0.442894       -12.0518
 212   2.0000      -0.440356       -11.9827
 213   2.0000      -0.437725       -11.9111
 214   2.0000      -0.435401       -11.8479
 215   2.0000      -0.431489       -11.7414
 216   2.0000      -0.430039       -11.7020
 217   2.0000      -0.427428       -11.6309
 218   2.0000      -0.425548       -11.5798
 219   2.0000      -0.423739       -11.5305
 220   2.0000      -0.418425       -11.3859
 221   2.0000      -0.415976       -11.3193
 222   2.0000      -0.412524       -11.2253
 223   2.0000      -0.409997       -11.1566
 224   2.0000      -0.407930       -11.1003
 225   2.0000      -0.407540       -11.0897
 226   2.0000      -0.396707       -10.7949
 227   2.0000      -0.385741       -10.4965
 228   2.0000      -0.384641       -10.4666
 229   2.0000      -0.381678       -10.3860
 230   2.0000      -0.378358       -10.2956
 231   2.0000      -0.376985       -10.2583
 232   2.0000      -0.370957       -10.0943
 233   2.0000      -0.370528       -10.0826
 234   2.0000      -0.365074        -9.9342
 235   2.0000      -0.364283        -9.9127
 236   2.0000      -0.353352        -9.6152
 237   2.0000      -0.348400        -9.4804
 238   2.0000      -0.346870        -9.4388
 239   2.0000      -0.340913        -9.2767
 240   2.0000      -0.337162        -9.1746
 241   2.0000      -0.331104        -9.0098
 242   2.0000      -0.318463        -8.6658
 243   2.0000      -0.309692        -8.4271
 244   2.0000      -0.304725        -8.2920
 245   2.0000      -0.299611        -8.1528
 246   2.0000      -0.291105        -7.9214
 247   2.0000      -0.286491        -7.7958
 248   2.0000      -0.282033        -7.6745
 249   2.0000      -0.266070        -7.2401
 250   2.0000      -0.244828        -6.6621
 251   2.0000      -0.184328        -5.0158
 252   0.0000      -0.086489        -2.3535
 253   0.0000      -0.064185        -1.7466
 254   0.0000      -0.060040        -1.6338
 255   0.0000      -0.039743        -1.0815
 256   0.0000      -0.017834        -0.4853

MULLIKEN ATOMIC CHARGES
-----------------------
   0 C :    0.344339
   1 C :   -0.370271
   2 C :   -0.206481
   3 N :    0.168324
   4 C :   -0.130521
   5 N :    0.104103
   6 C :   -0.004903
   7 C :   -0.023901
   8 C :   -0.049884
   9 C :    0.111668
  10 C :   -0.091671
  11 C :   -0.010634
  12 S :    0.201741
  13 C :   -0.127314
  14 C :    0.055357
  15 Br:    0.019084
  16 C :    0.175619
  17 O :   -0.211226
  18 C :   -0.098480
  19 C :    0.017075
  20 N :    0.018309
  21 C :   -0.114845
  22 S :    0.193301
  23 C :   -0.005773
  24 N :    0.278248
  25 O :   -0.252048
  26 O :   -0.262369
  27 C :   -0.003533
  28 C :    0.093960
  29 C :   -0.047465
  30 C :    0.011454
  31 C :    0.017980
  32 C :   -0.240960
  33 C :    0.085343
  34 C :    0.248128
  35 N :   -0.156978
  36 C :    0.072863
  37 C :   -0.050174
  38 C :    0.031928
  39 C :   -0.058722
  40 C :    0.051879
  41 C :   -0.003586
  42 C :   -0.015265
  43 S :    0.075402
  44 C :   -0.065126
  45 C :    0.043104
  46 C :    0.004934
  47 C :   -0.009758
  48 S :    0.061083
  49 C :   -0.028871
  50 C :   -0.153450
  51 S :    0.112646
  52 C :   -0.167061
  53 C :   -0.027605
  54 C :   -0.009093
  55 S :    0.094154
  56 C :    0.090609
  57 O :   -0.197797
  58 S :    0.083366
  59 C :    0.049322
  60 C :   -0.053371
  61 H :   -0.014913
  62 H :   -0.004981
  63 H :   -0.007352
  64 H :    0.030051
  65 H :    0.167954
  66 H :    0.010751
  67 H :    0.017067
  68 H :   -0.007887
  69 H :   -0.010966
  70 H :    0.038485
  71 H :    0.024698
  72 H :    0.021404
  73 H :    0.012227
  74 H :    0.030426
  75 H :    0.138383
  76 H :   -0.002424
  77 H :   -0.005806
  78 H :   -0.020664
  79 H :   -0.019465
  80 H :   -0.022173
  81 H :   -0.019468
  82 H :   -0.024368
  83 H :   -0.028261
  84 H :   -0.014138
  85 H :    0.019364
  86 H :    0.025869
Sum of atomic charges:   -0.0000000

LOEWDIN ATOMIC CHARGES
----------------------
   0 C :    0.094300
   1 C :   -0.165060
   2 C :   -0.028830
   3 N :   -0.054100
   4 C :    0.032279
   5 N :   -0.076485
   6 C :   -0.027560
   7 C :   -0.058530
   8 C :    0.019059
   9 C :   -0.034751
  10 C :   -0.144695
  11 C :   -0.006160
  12 S :    0.452434
  13 C :   -0.270741
  14 C :   -0.064870
  15 Br:    0.137141
  16 C :    0.097799
  17 O :   -0.167873
  18 C :   -0.138053
  19 C :    0.118152
  20 N :    0.076160
  21 C :   -0.108910
  22 S :    0.472147
  23 C :   -0.207712
  24 N :    0.274707
  25 O :   -0.217949
  26 O :   -0.228277
  27 C :    0.001031
  28 C :   -0.089731
  29 C :   -0.039390
  30 C :   -0.006936
  31 C :   -0.047735
  32 C :   -0.030282
  33 C :   -0.047368
  34 C :    0.045828
  35 N :    0.018677
  36 C :    0.070381
  37 C :   -0.132490
  38 C :   -0.007324
  39 C :   -0.192097
  40 C :   -0.015907
  41 C :   -0.066888
  42 C :   -0.146905
  43 S :    0.394500
  44 C :   -0.216816
  45 C :   -0.021038
  46 C :   -0.067047
  47 C :   -0.133390
  48 S :    0.370773
  49 C :   -0.140420
  50 C :   -0.168712
  51 S :    0.431633
  52 C :   -0.212603
  53 C :   -0.205934
  54 C :   -0.246134
  55 S :    0.373887
  56 C :   -0.212319
  57 O :   -0.181036
  58 S :    0.382345
  59 C :   -0.039662
  60 C :   -0.068182
  61 H :    0.038497
  62 H :    0.039483
  63 H :    0.036877
  64 H :    0.039174
  65 H :    0.083393
  66 H :    0.045525
  67 H :    0.031554
  68 H :    0.026034
  69 H :    0.026447
  70 H :    0.041714
  71 H :    0.031370
  72 H :    0.033925
  73 H :    0.022546
  74 H :    0.034486
  75 H :    0.059953
  76 H :    0.025747
  77 H :    0.018978
  78 H :    0.030835
  79 H :    0.031027
  80 H :    0.027465
  81 H :    0.030409
  82 H :    0.027571
  83 H :    0.028647
  84 H :    0.028591
  85 H :    0.006922
  86 H :    0.026501

  Mayer bond orders larger than 0.100000
B(  0-C ,  1-C ) :   1.5703 B(  0-C ,  6-C ) :   1.0126 B(  0-C , 18-C ) :   1.1271
B(  1-C ,  2-C ) :   1.1576 B(  1-C ,  4-C ) :   1.1920 B(  2-C ,  3-N ) :   2.9285
B(  4-C ,  5-N ) :   2.8374 B(  5-N , 75-H ) :   0.1266 B(  6-C ,  7-C ) :   1.2627
B(  6-C , 11-C ) :   1.4145 B(  7-C ,  8-C ) :   1.4268 B(  7-C , 16-C ) :   0.9858
B(  8-C ,  9-C ) :   1.2294 B(  8-C , 61-H ) :   1.0237 B(  9-C , 10-C ) :   1.3097
B(  9-C , 14-C ) :   1.1719 B( 10-C , 11-C ) :   1.3183 B( 10-C , 12-S ) :   1.0952
B( 11-C , 62-H ) :   0.9814 B( 12-S , 13-C ) :   1.0948 B( 13-C , 14-C ) :   1.5991
B( 13-C , 15-Br) :   1.0206 B( 14-C , 63-H ) :   0.9993 B( 16-C , 17-O ) :   2.0511
B( 16-C , 18-C ) :   0.9759 B( 17-O , 65-H ) :   0.1517 B( 18-C , 19-C ) :   1.4518
B( 19-C , 20-N ) :   1.3465 B( 19-C , 64-H ) :   0.9270 B( 20-N , 21-C ) :   1.1696
B( 20-N , 65-H ) :   0.8239 B( 21-C , 22-S ) :   1.1465 B( 21-C , 28-C ) :   1.4004
B( 22-S , 23-C ) :   1.0943 B( 23-C , 24-N ) :   0.9706 B( 23-C , 27-C ) :   1.4656
B( 24-N , 25-O ) :   1.5336 B( 24-N , 26-O ) :   1.5114 B( 25-O , 26-O ) :   0.2604
B( 27-C , 28-C ) :   1.2536 B( 27-C , 66-H ) :   1.0061 B( 28-C , 29-C ) :   1.0130
B( 29-C , 30-C ) :   1.7713 B( 29-C , 67-H ) :   0.9558 B( 30-C , 31-C ) :   1.1006
B( 30-C , 68-H ) :   0.9736 B( 31-C , 32-C ) :   1.7995 B( 31-C , 69-H ) :   0.9642
B( 32-C , 33-C ) :   1.0826 B( 32-C , 34-C ) :   1.0034 B( 33-C , 70-H ) :   0.9451
B( 33-C , 71-H ) :   0.9539 B( 33-C , 72-H ) :   0.9524 B( 34-C , 35-N ) :   1.0032
B( 34-C , 73-H ) :   0.9387 B( 34-C , 74-H ) :   0.9218 B( 35-N , 36-C ) :   1.3141
B( 35-N , 75-H ) :   0.8835 B( 36-C , 37-C ) :   1.5077 B( 36-C , 76-H ) :   0.9733
B( 37-C , 38-C ) :   1.2358 B( 37-C , 77-H ) :   0.9637 B( 38-C , 39-C ) :   1.5163
B( 38-C , 78-H ) :   0.9785 B( 39-C , 40-C ) :   1.1845 B( 39-C , 43-S ) :   1.0215
B( 40-C , 41-C ) :   1.5465 B( 40-C , 79-H ) :   0.9969 B( 41-C , 42-C ) :   1.2181
B( 41-C , 80-H ) :   0.9932 B( 42-C , 43-S ) :   1.0973 B( 42-C , 44-C ) :   1.4474
B( 44-C , 45-C ) :   1.2325 B( 44-C , 48-S ) :   1.0235 B( 45-C , 46-C ) :   1.5415
B( 45-C , 81-H ) :   0.9907 B( 46-C , 47-C ) :   1.1748 B( 46-C , 82-H ) :   1.0005
B( 47-C , 48-S ) :   1.0613 B( 47-C , 49-C ) :   1.5475 B( 49-C , 50-C ) :   1.1876
B( 49-C , 83-H ) :   0.9368 B( 50-C , 51-S ) :   1.1250 B( 50-C , 54-C ) :   1.5037
B( 51-S , 52-C ) :   1.0839 B( 52-C , 53-C ) :   1.5854 B( 52-C , 59-C ) :   1.1247
B( 53-C , 54-C ) :   1.2513 B( 53-C , 58-S ) :   1.0047 B( 54-C , 55-S ) :   0.9771
B( 55-S , 56-C ) :   1.0229 B( 55-S , 57-O ) :   0.1030 B( 56-C , 57-O ) :   2.0282
B( 56-C , 58-S ) :   1.0059 B( 57-O , 58-S ) :   0.1002 B( 59-C , 60-C ) :   1.9011
B( 59-C , 84-H ) :   0.9490 B( 60-C , 85-H ) :   0.9500 B( 60-C , 86-H ) :   0.9461

-----------------------------------------------------------------------------
         ABSORPTION SPECTRUM VIA TRANSITION ELECTRIC DIPOLE MOMENTS
-----------------------------------------------------------------------------
State   Energy  Wavelength   fosc         T2         TX        TY        TZ
        (cm-1)    (nm)                  (au**2)     (au)      (au)      (au)
-----------------------------------------------------------------------------
   0    6448.2   1550.8   0.005510777   0.28135   0.05272   0.02511   0.52720
   1   13000.3    769.2   0.342960453   8.68493  -1.77458   2.32206   0.37927
   2   13644.8    732.9   0.590509642  14.24741   2.27215  -2.86591  -0.93343
   3   19259.6    519.2   0.045352163   0.77522  -0.61619   0.48667   0.39836
   4   20491.3    488.0   0.008091832   0.13000   0.27502  -0.04090  -0.22955
   5   21600.3    463.0   0.484417977   7.38305  -1.56433  -0.19993   2.21268
   6   22750.2    439.6   0.099535034   1.44035   0.42709  -0.00080  -1.12158
   7   23002.9    434.7   0.001890207   0.02705  -0.11744   0.07277   0.08924
   8   25462.2    392.7   0.082826763   1.07090  -0.85712   0.16649   0.55545
   9   25615.2    390.4   0.250051075   3.21370   0.99339  -0.16231  -1.48342
  10   25979.8    384.9   0.453704582   5.74927   0.11416  -0.62074   2.31320
  11   26192.9    381.8   0.050319509   0.63245   0.64378  -0.46626   0.02452
  12   26444.2    378.2   0.002137599   0.02661   0.03302  -0.15974  -0.00240
  13   27191.0    367.8   0.485042521   5.87261   1.19333  -0.42289  -2.06634
  14   27440.3    364.4   0.052395616   0.62861   0.42331  -0.44987   0.49702
  15   27992.8    357.2   0.135041898   1.58818  -0.11843   0.35964  -1.20200
  16   28573.6    350.0   0.001387259   0.01598   0.09598  -0.07567  -0.03233
  17   28858.3    346.5   0.198674143   2.26645  -0.55902   1.19126  -0.73133
  18   29450.8    339.5   0.330369355   3.69300  -1.21215   0.22580   1.47401
  19   30382.7    329.1   0.088395707   0.95781  -0.57977   0.20426   0.76155
  20   30658.3    326.2   0.074138939   0.79611  -0.52448   0.62204  -0.36620
  21   31121.1    321.3   0.286087392   3.02635  -0.93373   1.46778  -0.01074
  22   31821.7    314.3   0.013903758   0.14384   0.03982  -0.29100  -0.23995
  23   31913.6    313.3   0.018370190   0.18950  -0.31854   0.10083   0.27905
  24   31952.4    313.0   0.002506711   0.02583   0.07639  -0.14059   0.01509
  25   32719.8    305.6   0.212911102   2.14221   1.09557  -0.88682   0.39431
  26   33029.3    302.8   0.003405175   0.03394   0.07285   0.09807  -0.13789
  27   33190.9    301.3   0.174683002   1.73264  -0.64523   0.87733  -0.73933
  28   33328.9    300.0   0.036944066   0.36492  -0.37236   0.45566  -0.13654
  29   33632.0    297.3   0.008769090   0.08584   0.24891  -0.10218   0.11594
  30   33789.6    295.9   0.009625743   0.09378   0.13650  -0.25309   0.10535
  31   34007.4    294.1   0.063345619   0.61322   0.52287   0.12851  -0.56861
  32   34451.8    290.3   0.021332574   0.20385  -0.12076   0.23853  -0.36382
  33   34661.1    288.5   0.004139910   0.03932   0.16271  -0.10030   0.05279
  34   34706.2    288.1   0.121963608   1.15691  -0.76561   0.34237   0.67345
  35   34898.7    286.5   0.006306462   0.05949   0.21739  -0.04823   0.09954
  36   35017.3    285.6   0.000634053   0.00596  -0.01078  -0.07642  -0.00229
  37   35054.1    285.3   0.001996704   0.01875  -0.07477   0.05345  -0.10151
  38   35477.7    281.9   0.003187771   0.02958   0.11168  -0.12107  -0.04950
  39   35737.6    279.8   0.083922527   0.77309   0.20054   0.37030  -0.77185
  40   36217.7    276.1   0.085748858   0.77944   0.07060  -0.50881   0.71803
  41   36518.3    273.8   0.055145998   0.49714   0.46148  -0.48352  -0.22448
  42   36671.5    272.7   0.051861923   0.46558   0.41198  -0.49051  -0.23504
  43   36957.0    270.6   0.076618533   0.68252  -0.55898   0.60753  -0.03100
  44   37203.0    268.8   0.165613679   1.46553  -0.25566  -0.47148   1.08530
  45   37418.5    267.2   0.012380439   0.10892  -0.13833   0.23621   0.18438
  46   37889.4    263.9   0.081549669   0.70857   0.59046  -0.56554   0.20025
  47   38507.5    259.7   0.013219176   0.11301   0.20721  -0.18811   0.18627
  48   38570.6    259.3   0.008592547   0.07334   0.25653  -0.04051  -0.07674
  49   38709.3    258.3   0.005907008   0.05024   0.12428  -0.09823   0.15857
  50   38846.6    257.4   0.008699829   0.07373  -0.25087   0.04862   0.09181
  51   38894.5    257.1   0.014216479   0.12033   0.00791  -0.24295   0.24748
  52   39095.9    255.8   0.020535132   0.17292  -0.34227   0.19004   0.14020
  53   39409.8    253.7   0.001029462   0.00860  -0.03949   0.07327  -0.04089
  54   39766.1    251.5   0.010912183   0.09034  -0.06175   0.21015  -0.20582
  55   40019.3    249.9   0.008959260   0.07370   0.08820  -0.17881   0.18425
  56   40246.3    248.5   0.030569741   0.25006  -0.02353   0.29295  -0.40458

FINAL SINGLE POINT ENERGY     -7624.386285050283

DIPOLE MOMENT
-------------
                                X             Y             Z
Electronic contribution:    105.08921     -59.88646     -40.13147
Nuclear contribution   :   -105.55579      61.71195      39.21159
                        -----------------------------------------
Total Dipole Moment    :     -0.46657       1.82549      -0.91989
                        -----------------------------------------
Magnitude (a.u.)       :      2.09673
Magnitude (Debye)      :      5.32947

Rotational constants in cm-1:     0.001322     0.000744     0.000523
Rotational constants in MHz :    39.642852    22.312409    15.685776

                             ****ORCA TERMINATED NORMALLY****
TOTAL RUN TIME: 0 days 0 hours 8 minutes 56 seconds 41 msec
