                         Program Version 4.2.0 -  RELEASE  -
|  1> # ORCA input file
|  2> # SCF done       -186.351560693806          0.000555457631
|  3> ! CAM-B3LYP def2-SVP def2/J RIJCOSX Grid4 TightSCF
|  4> %maxcore 5000
|  5> %tddft
|  6>     Mode sTDDFT
|  7>     Ethresh 5.0
|  8>     maxcore 5000
|  9> end
| 10>
| 11> %pal
| 12>   nprocs 6
| 13>   end
| 14> * xyz 0 1
| 15>    C       -5.97010         3.57342         2.97375
| 16>    C       -5.53057         2.61367         3.84718
| 17>    C       -5.30762         2.83121         5.22254
| 18>    N       -5.11476         2.94408         6.34806
| 19>    C       -5.25074         1.28269         3.47663
| 20>    N       -5.01476         0.19064         3.21246
| 21>    C       -6.27735         4.96099         3.30377
| 22>    C       -6.71168         5.63079         2.12728
| 23>    C       -7.09569         6.95085         2.12382
| 24>    C       -7.05299         7.63840         3.33938
| 25>    C       -6.59679         6.97398         4.50416
| 26>    C       -6.20691         5.63907         4.50519
| 27>    S       -6.60664         8.02564         5.88185
| 28>    C       -7.22590         9.31748         4.89607
| 29>    C       -7.41695         8.98443         3.59783
| 30>   Br       -7.55222        10.99476         5.65067
| 31>    C       -6.68069         4.69054         1.01047
| 32>    O       -6.98484         4.90857        -0.16336
| 33>    C       -6.22516         3.40723         1.55860
| 34>    C       -6.11011         2.29054         0.76875
| 35>    N       -6.39842         2.38446        -0.53587
| 36>    C       -6.37074         1.42082        -1.48583
| 37>    S       -5.99139        -0.23237        -1.12782
| 38>    C       -6.19184        -0.61321        -2.80849
| 39>    N       -6.01000        -1.94478        -3.20609
| 40>    O       -6.15338        -2.20396        -4.38608
| 41>    O       -5.72261        -2.74359        -2.33320
| 42>    C       -6.52269         0.46481        -3.58549
| 43>    C       -6.63545         1.65448        -2.84356
| 44>    C       -6.96075         2.96155        -3.35609
| 45>    C       -7.13198         3.27985        -4.64983
| 46>    C       -7.45083         4.60545        -5.12675
| 47>    C       -7.05521         5.77792        -4.61160
| 48>    C       -6.13158         5.95301        -3.44851
| 49>    C       -7.53662         7.07162        -5.23119
| 50>    N       -8.34927         7.81070        -4.29252
| 51>    C       -7.89635         8.79583        -3.51144
| 52>    C       -8.58528         9.29904        -2.43973
| 53>    C       -8.15945        10.35694        -1.63312
| 54>    C       -8.62988        10.64209        -0.33234
| 55>    C       -9.72988        10.13404         0.37504
| 56>    C       -9.98690        10.60559         1.63558
| 57>    C       -9.16964        11.59456         2.21552
| 58>    C       -8.06734        12.08552         1.56152
| 59>    C       -7.76032        11.60156         0.28182
| 60>    C       -6.74780        11.97999        -0.63774
| 61>    C       -7.10071        11.33618        -1.91351
| 62>    C       -6.69003        11.72794        -3.12409
| 63>    C       -5.68363        12.84056        -0.45955
| 64>    C       -5.07840        13.23623         0.73029
| 65>    C       -4.37720        14.52737         0.80243
| 66>    O       -4.15616        15.29576        -0.11321
| 67>    C       -4.03368        14.70995         2.23335
| 68>    C       -3.49528        15.78951         2.86629
| 69>    C       -3.31184        15.74182         4.26920
| 70>    C       -3.70058        14.57490         4.98654
| 71>    C       -3.53354        14.54215         6.38418
| 72>    C       -2.99782        15.61572         7.03976
| 73>    C       -2.60908        16.76648         6.32970
| 74>    C       -2.76297        16.83020         4.97255
| 75>    F       -2.08580        17.80772         6.99722
| 76>    F       -2.83792        15.58078         8.37209
| 77>    C       -4.24594        13.46463         4.29761
| 78>    C       -4.39843        13.53087         2.94160
| 79>    C       -4.93773        12.56748         1.97978
| 80>    C       -5.04643        11.20970         2.22310
| 81>    C       -5.41915        10.24546         1.27641
| 82>    N       -5.70247         9.38298         0.56802
| 83>    C       -4.66244        10.60102         3.42697
| 84>    N       -4.36745        10.02185         4.37694
| 85>    H       -7.40304         7.44791         1.21751
| 86>    H       -5.86935         5.17289         5.41584
| 87>    H       -7.79036         9.65670         2.84811
| 88>    H       -5.79469         1.32732         1.14793
| 89>    H       -6.68616         3.34439        -0.81162
| 90>    H       -6.67979         0.37629        -4.64438
| 91>    H       -7.10475         3.73705        -2.62079
| 92>    H       -7.07382         2.51427        -5.41096
| 93>    H       -8.04757         4.62272        -6.03163
| 94>    H       -6.67612         6.04340        -2.50812
| 95>    H       -5.54096         6.85931        -3.56910
| 96>    H       -5.45472         5.10584        -3.36618
| 97>    H       -8.13319         6.87028        -6.12562
| 98>    H       -6.68466         7.69720        -5.51205
| 99>    H       -9.22927         7.38100        -4.04004
|100>    H       -6.92237         9.18564        -3.76841
|101>    H       -9.49094         8.78711        -2.13890
|102>    H      -10.38164         9.40341        -0.08058
|103>    H      -10.83426        10.23527         2.19292
|104>    H       -9.41936        11.96874         3.19758
|105>    H       -7.46411        12.85666         2.01522
|106>    H       -7.09992        11.31829        -4.03103
|107>    H       -5.96966        12.51935        -3.24265
|108>    H       -5.26799        13.31753        -1.34158
|109>    H       -3.21653        16.67239         2.31141
|110>    H       -3.82575        13.66691         6.94299
|111>    H       -2.46213        17.72094         4.44347
|112>    H       -4.54169        12.59743         4.86630
|113> *
|114>
|115>                          ****END OF INPUT****

CARTESIAN COORDINATES (ANGSTROEM)
---------------------------------
  C     -5.970100    3.573420    2.973750
  C     -5.530570    2.613670    3.847180
  C     -5.307620    2.831210    5.222540
  N     -5.114760    2.944080    6.348060
  C     -5.250740    1.282690    3.476630
  N     -5.014760    0.190640    3.212460
  C     -6.277350    4.960990    3.303770
  C     -6.711680    5.630790    2.127280
  C     -7.095690    6.950850    2.123820
  C     -7.052990    7.638400    3.339380
  C     -6.596790    6.973980    4.504160
  C     -6.206910    5.639070    4.505190
  S     -6.606640    8.025640    5.881850
  C     -7.225900    9.317480    4.896070
  C     -7.416950    8.984430    3.597830
  Br    -7.552220   10.994760    5.650670
  C     -6.680690    4.690540    1.010470
  O     -6.984840    4.908570   -0.163360
  C     -6.225160    3.407230    1.558600
  C     -6.110110    2.290540    0.768750
  N     -6.398420    2.384460   -0.535870
  C     -6.370740    1.420820   -1.485830
  S     -5.991390   -0.232370   -1.127820
  C     -6.191840   -0.613210   -2.808490
  N     -6.010000   -1.944780   -3.206090
  O     -6.153380   -2.203960   -4.386080
  O     -5.722610   -2.743590   -2.333200
  C     -6.522690    0.464810   -3.585490
  C     -6.635450    1.654480   -2.843560
  C     -6.960750    2.961550   -3.356090
  C     -7.131980    3.279850   -4.649830
  C     -7.450830    4.605450   -5.126750
  C     -7.055210    5.777920   -4.611600
  C     -6.131580    5.953010   -3.448510
  C     -7.536620    7.071620   -5.231190
  N     -8.349270    7.810700   -4.292520
  C     -7.896350    8.795830   -3.511440
  C     -8.585280    9.299040   -2.439730
  C     -8.159450   10.356940   -1.633120
  C     -8.629880   10.642090   -0.332340
  C     -9.729880   10.134040    0.375040
  C     -9.986900   10.605590    1.635580
  C     -9.169640   11.594560    2.215520
  C     -8.067340   12.085520    1.561520
  C     -7.760320   11.601560    0.281820
  C     -6.747800   11.979990   -0.637740
  C     -7.100710   11.336180   -1.913510
  C     -6.690030   11.727940   -3.124090
  C     -5.683630   12.840560   -0.459550
  C     -5.078400   13.236230    0.730290
  C     -4.377200   14.527370    0.802430
  O     -4.156160   15.295760   -0.113210
  C     -4.033680   14.709950    2.233350
  C     -3.495280   15.789510    2.866290
  C     -3.311840   15.741820    4.269200
  C     -3.700580   14.574900    4.986540
  C     -3.533540   14.542150    6.384180
  C     -2.997820   15.615720    7.039760
  C     -2.609080   16.766480    6.329700
  C     -2.762970   16.830200    4.972550
  F     -2.085800   17.807720    6.997220
  F     -2.837920   15.580780    8.372090
  C     -4.245940   13.464630    4.297610
  C     -4.398430   13.530870    2.941600
  C     -4.937730   12.567480    1.979780
  C     -5.046430   11.209700    2.223100
  C     -5.419150   10.245460    1.276410
  N     -5.702470    9.382980    0.568020
  C     -4.662440   10.601020    3.426970
  N     -4.367450   10.021850    4.376940
  H     -7.403040    7.447910    1.217510
  H     -5.869350    5.172890    5.415840
  H     -7.790360    9.656700    2.848110
  H     -5.794690    1.327320    1.147930
  H     -6.686160    3.344390   -0.811620
  H     -6.679790    0.376290   -4.644380
  H     -7.104750    3.737050   -2.620790
  H     -7.073820    2.514270   -5.410960
  H     -8.047570    4.622720   -6.031630
  H     -6.676120    6.043400   -2.508120
  H     -5.540960    6.859310   -3.569100
  H     -5.454720    5.105840   -3.366180
  H     -8.133190    6.870280   -6.125620
  H     -6.684660    7.697200   -5.512050
  H     -9.229270    7.381000   -4.040040
  H     -6.922370    9.185640   -3.768410
  H     -9.490940    8.787110   -2.138900
  H    -10.381640    9.403410   -0.080580
  H    -10.834260   10.235270    2.192920
  H     -9.419360   11.968740    3.197580
  H     -7.464110   12.856660    2.015220
  H     -7.099920   11.318290   -4.031030
  H     -5.969660   12.519350   -3.242650
  H     -5.267990   13.317530   -1.341580
  H     -3.216530   16.672390    2.311410
  H     -3.825750   13.666910    6.942990
  H     -2.462130   17.720940    4.443470
  H     -4.541690   12.597430    4.866300

 Total Charge           Charge          ....    0
 Multiplicity           Mult            ....    1
 Number of Electrons    NEL             ....  518
 Basis Dimension        Dim             .... 1146

ORBITAL ENERGIES
----------------

  NO   OCC          E(Eh)            E(eV)
   0   2.0000    -482.881678    -13139.8785
   1   2.0000     -88.995999     -2421.7043
   2   2.0000     -88.966959     -2420.9140
   3   2.0000     -62.558909     -1702.3145
   4   2.0000     -56.392828     -1534.5269
   5   2.0000     -56.390177     -1534.4547
   6   2.0000     -56.390146     -1534.4539
   7   2.0000     -24.782548      -674.3674
   8   2.0000     -24.782235      -674.3589
   9   2.0000     -19.243812      -523.6507
  10   2.0000     -19.242955      -523.6274
  11   2.0000     -19.237542      -523.4801
  12   2.0000     -19.185716      -522.0699
  13   2.0000     -14.655342      -398.7921
  14   2.0000     -14.496928      -394.4815
  15   2.0000     -14.496484      -394.4694
  16   2.0000     -14.419565      -392.3763
  17   2.0000     -14.413268      -392.2050
  18   2.0000     -14.396181      -391.7400
  19   2.0000     -14.388751      -391.5378
  20   2.0000     -10.382477      -282.5216
  21   2.0000     -10.379201      -282.4324
  22   2.0000     -10.375620      -282.3350
  23   2.0000     -10.372333      -282.2455
  24   2.0000     -10.363644      -282.0091
  25   2.0000     -10.363298      -281.9997
  26   2.0000     -10.352736      -281.7123
  27   2.0000     -10.349433      -281.6224
  28   2.0000     -10.349015      -281.6110
  29   2.0000     -10.345566      -281.5172
  30   2.0000     -10.341569      -281.4084
  31   2.0000     -10.338094      -281.3139
  32   2.0000     -10.334083      -281.2047
  33   2.0000     -10.322100      -280.8786
  34   2.0000     -10.319292      -280.8022
  35   2.0000     -10.318365      -280.7770
  36   2.0000     -10.316239      -280.7191
  37   2.0000     -10.313825      -280.6534
  38   2.0000     -10.312687      -280.6225
  39   2.0000     -10.310573      -280.5650
  40   2.0000     -10.309621      -280.5391
  41   2.0000     -10.307267      -280.4750
  42   2.0000     -10.306704      -280.4597
  43   2.0000     -10.306108      -280.4435
  44   2.0000     -10.304838      -280.4089
  45   2.0000     -10.304196      -280.3914
  46   2.0000     -10.303692      -280.3777
  47   2.0000     -10.301992      -280.3315
  48   2.0000     -10.301832      -280.3271
  49   2.0000     -10.299545      -280.2649
  50   2.0000     -10.299288      -280.2579
  51   2.0000     -10.298681      -280.2414
  52   2.0000     -10.298677      -280.2413
  53   2.0000     -10.296924      -280.1935
  54   2.0000     -10.296692      -280.1872
  55   2.0000     -10.295857      -280.1645
  56   2.0000     -10.295785      -280.1625
  57   2.0000     -10.291658      -280.0503
  58   2.0000     -10.291620      -280.0492
  59   2.0000     -10.291241      -280.0389
  60   2.0000     -10.290689      -280.0239
  61   2.0000     -10.290414      -280.0164
  62   2.0000     -10.287352      -279.9331
  63   2.0000     -10.284510      -279.8557
  64   2.0000     -10.284302      -279.8501
  65   2.0000     -10.283744      -279.8349
  66   2.0000     -10.283623      -279.8316
  67   2.0000     -10.283401      -279.8256
  68   2.0000     -10.282386      -279.7979
  69   2.0000     -10.280744      -279.7533
  70   2.0000     -10.280250      -279.7398
  71   2.0000     -10.275349      -279.6065
  72   2.0000     -10.270559      -279.4761
  73   2.0000     -10.259952      -279.1875
  74   2.0000      -8.788234      -239.1400
  75   2.0000      -8.091241      -220.1739
  76   2.0000      -8.062758      -219.3988
  77   2.0000      -6.624276      -180.2557
  78   2.0000      -6.610083      -179.8695
  79   2.0000      -6.609949      -179.8659
  80   2.0000      -6.060841      -164.9239
  81   2.0000      -6.056519      -164.8063
  82   2.0000      -6.052744      -164.7035
  83   2.0000      -6.032444      -164.1511
  84   2.0000      -6.028142      -164.0341
  85   2.0000      -6.024024      -163.9220
  86   2.0000      -2.740242       -74.5658
  87   2.0000      -2.736187       -74.4554
  88   2.0000      -2.736127       -74.4538
  89   2.0000      -2.724819       -74.1461
  90   2.0000      -2.724811       -74.1459
  91   2.0000      -1.325202       -36.0606
  92   2.0000      -1.304315       -35.4922
  93   2.0000      -1.289617       -35.0923
  94   2.0000      -1.151433       -31.3321
  95   2.0000      -1.144368       -31.1398
  96   2.0000      -1.106665       -30.1139
  97   2.0000      -1.099575       -29.9209
  98   2.0000      -1.092884       -29.7389
  99   2.0000      -1.022566       -27.8254
 100   2.0000      -1.015769       -27.6405
 101   2.0000      -1.010771       -27.5045
 102   2.0000      -1.008625       -27.4461
 103   2.0000      -0.995932       -27.1007
 104   2.0000      -0.995119       -27.0786
 105   2.0000      -0.989048       -26.9134
 106   2.0000      -0.984240       -26.7825
 107   2.0000      -0.972143       -26.4534
 108   2.0000      -0.959211       -26.1015
 109   2.0000      -0.951654       -25.8958
 110   2.0000      -0.943890       -25.6845
 111   2.0000      -0.939656       -25.5693
 112   2.0000      -0.926343       -25.2071
 113   2.0000      -0.915325       -24.9073
 114   2.0000      -0.908761       -24.7287
 115   2.0000      -0.906283       -24.6612
 116   2.0000      -0.898171       -24.4405
 117   2.0000      -0.883240       -24.0342
 118   2.0000      -0.880450       -23.9583
 119   2.0000      -0.878196       -23.8969
 120   2.0000      -0.873186       -23.7606
 121   2.0000      -0.868877       -23.6433
 122   2.0000      -0.865535       -23.5524
 123   2.0000      -0.854379       -23.2488
 124   2.0000      -0.851785       -23.1782
 125   2.0000      -0.846087       -23.0232
 126   2.0000      -0.824390       -22.4328
 127   2.0000      -0.820642       -22.3308
 128   2.0000      -0.819472       -22.2990
 129   2.0000      -0.808692       -22.0056
 130   2.0000      -0.796957       -21.6863
 131   2.0000      -0.790377       -21.5072
 132   2.0000      -0.777131       -21.1468
 133   2.0000      -0.764550       -20.8045
 134   2.0000      -0.763074       -20.7643
 135   2.0000      -0.753030       -20.4910
 136   2.0000      -0.744336       -20.2544
 137   2.0000      -0.740073       -20.1384
 138   2.0000      -0.736062       -20.0293
 139   2.0000      -0.719838       -19.5878
 140   2.0000      -0.713798       -19.4234
 141   2.0000      -0.698440       -19.0055
 142   2.0000      -0.697040       -18.9674
 143   2.0000      -0.692479       -18.8433
 144   2.0000      -0.689702       -18.7677
 145   2.0000      -0.684053       -18.6140
 146   2.0000      -0.676034       -18.3958
 147   2.0000      -0.667451       -18.1623
 148   2.0000      -0.660297       -17.9676
 149   2.0000      -0.657595       -17.8941
 150   2.0000      -0.655076       -17.8255
 151   2.0000      -0.652055       -17.7433
 152   2.0000      -0.641927       -17.4677
 153   2.0000      -0.638302       -17.3691
 154   2.0000      -0.636716       -17.3259
 155   2.0000      -0.635659       -17.2972
 156   2.0000      -0.633607       -17.2413
 157   2.0000      -0.627490       -17.0749
 158   2.0000      -0.626065       -17.0361
 159   2.0000      -0.621956       -16.9243
 160   2.0000      -0.619034       -16.8448
 161   2.0000      -0.609277       -16.5793
 162   2.0000      -0.606276       -16.4976
 163   2.0000      -0.594431       -16.1753
 164   2.0000      -0.592978       -16.1357
 165   2.0000      -0.592501       -16.1228
 166   2.0000      -0.588379       -16.0106
 167   2.0000      -0.579806       -15.7773
 168   2.0000      -0.579244       -15.7620
 169   2.0000      -0.575087       -15.6489
 170   2.0000      -0.572085       -15.5672
 171   2.0000      -0.569345       -15.4927
 172   2.0000      -0.564140       -15.3510
 173   2.0000      -0.561775       -15.2867
 174   2.0000      -0.561660       -15.2835
 175   2.0000      -0.556246       -15.1362
 176   2.0000      -0.552779       -15.0419
 177   2.0000      -0.547409       -14.8958
 178   2.0000      -0.545308       -14.8386
 179   2.0000      -0.543968       -14.8021
 180   2.0000      -0.537974       -14.6390
 181   2.0000      -0.536643       -14.6028
 182   2.0000      -0.536287       -14.5931
 183   2.0000      -0.535651       -14.5758
 184   2.0000      -0.531502       -14.4629
 185   2.0000      -0.529646       -14.4124
 186   2.0000      -0.526092       -14.3157
 187   2.0000      -0.525110       -14.2890
 188   2.0000      -0.522239       -14.2108
 189   2.0000      -0.517140       -14.0721
 190   2.0000      -0.516815       -14.0633
 191   2.0000      -0.513263       -13.9666
 192   2.0000      -0.511792       -13.9266
 193   2.0000      -0.510017       -13.8783
 194   2.0000      -0.505304       -13.7500
 195   2.0000      -0.502351       -13.6697
 196   2.0000      -0.501495       -13.6464
 197   2.0000      -0.500006       -13.6058
 198   2.0000      -0.496134       -13.5005
 199   2.0000      -0.494640       -13.4598
 200   2.0000      -0.493454       -13.4276
 201   2.0000      -0.492291       -13.3959
 202   2.0000      -0.490512       -13.3475
 203   2.0000      -0.484340       -13.1796
 204   2.0000      -0.481715       -13.1081
 205   2.0000      -0.475194       -12.9307
 206   2.0000      -0.473543       -12.8857
 207   2.0000      -0.472558       -12.8589
 208   2.0000      -0.468987       -12.7618
 209   2.0000      -0.466997       -12.7076
 210   2.0000      -0.462308       -12.5800
 211   2.0000      -0.462146       -12.5756
 212   2.0000      -0.458975       -12.4893
 213   2.0000      -0.456635       -12.4257
 214   2.0000      -0.451072       -12.2743
 215   2.0000      -0.449627       -12.2350
 216   2.0000      -0.447960       -12.1896
 217   2.0000      -0.445064       -12.1108
 218   2.0000      -0.443582       -12.0705
 219   2.0000      -0.441962       -12.0264
 220   2.0000      -0.437025       -11.8921
 221   2.0000      -0.435187       -11.8420
 222   2.0000      -0.434029       -11.8105
 223   2.0000      -0.431629       -11.7452
 224   2.0000      -0.428636       -11.6638
 225   2.0000      -0.428071       -11.6484
 226   2.0000      -0.425767       -11.5857
 227   2.0000      -0.424491       -11.5510
 228   2.0000      -0.420715       -11.4482
 229   2.0000      -0.419979       -11.4282
 230   2.0000      -0.415744       -11.3130
 231   2.0000      -0.410015       -11.1571
 232   2.0000      -0.408303       -11.1105
 233   2.0000      -0.407208       -11.0807
 234   2.0000      -0.398705       -10.8493
 235   2.0000      -0.394553       -10.7363
 236   2.0000      -0.390807       -10.6344
 237   2.0000      -0.386756       -10.5242
 238   2.0000      -0.383703       -10.4411
 239   2.0000      -0.377658       -10.2766
 240   2.0000      -0.372997       -10.1498
 241   2.0000      -0.372321       -10.1314
 242   2.0000      -0.369804       -10.0629
 243   2.0000      -0.369417       -10.0523
 244   2.0000      -0.366973        -9.9859
 245   2.0000      -0.359993        -9.7959
 246   2.0000      -0.359489        -9.7822
 247   2.0000      -0.342881        -9.3303
 248   2.0000      -0.342855        -9.3296
 249   2.0000      -0.328044        -8.9265
 250   2.0000      -0.318384        -8.6637
 251   2.0000      -0.314771        -8.5653
 252   2.0000      -0.309723        -8.4280
 253   2.0000      -0.306886        -8.3508
 254   2.0000      -0.296222        -8.0606
 255   2.0000      -0.286848        -7.8055
 256   2.0000      -0.281328        -7.6553
 257   2.0000      -0.274155        -7.4601
 258   2.0000      -0.232803        -6.3349
 259   0.0000      -0.104534        -2.8445
 260   0.0000      -0.088869        -2.4183
 261   0.0000      -0.070109        -1.9078
 262   0.0000      -0.055871        -1.5203
 263   0.0000      -0.048965        -1.3324

MULLIKEN ATOMIC CHARGES
-----------------------
   0 C :    0.325972
   1 C :   -0.347936
   2 C :   -0.183107
   3 N :    0.153578
   4 C :   -0.193671
   5 N :    0.141512
   6 C :    0.011073
   7 C :   -0.005976
   8 C :   -0.045680
   9 C :    0.111143
  10 C :   -0.083936
  11 C :   -0.026254
  12 S :    0.212104
  13 C :   -0.115793
  14 C :    0.066022
  15 Br:    0.016250
  16 C :    0.174363
  17 O :   -0.240623
  18 C :   -0.127130
  19 C :    0.029468
  20 N :   -0.014675
  21 C :   -0.117972
  22 S :    0.187505
  23 C :   -0.002266
  24 N :    0.277243
  25 O :   -0.248275
  26 O :   -0.256245
  27 C :    0.003331
  28 C :    0.124860
  29 C :   -0.034815
  30 C :   -0.001945
  31 C :    0.004382
  32 C :   -0.208092
  33 C :    0.086722
  34 C :    0.187130
  35 N :   -0.115165
  36 C :    0.080469
  37 C :   -0.056485
  38 C :    0.132215
  39 C :    0.040143
  40 C :   -0.018338
  41 C :    0.018931
  42 C :    0.030752
  43 C :   -0.020269
  44 C :    0.050190
  45 C :    0.086856
  46 C :   -0.008634
  47 C :   -0.028571
  48 C :   -0.020143
  49 C :   -0.192669
  50 C :    0.132858
  51 O :   -0.170841
  52 C :    0.028865
  53 C :   -0.104622
  54 C :    0.115191
  55 C :    0.115228
  56 C :   -0.113701
  57 C :    0.237115
  58 C :    0.235104
  59 C :   -0.109279
  60 F :   -0.180524
  61 F :   -0.178851
  62 C :   -0.091545
  63 C :    0.029433
  64 C :    0.274965
  65 C :   -0.385817
  66 C :   -0.184481
  67 N :    0.117063
  68 C :   -0.187942
  69 N :    0.122628
  70 H :   -0.012071
  71 H :   -0.005858
  72 H :   -0.026910
  73 H :    0.044076
  74 H :    0.184883
  75 H :    0.011718
  76 H :   -0.005216
  77 H :   -0.003387
  78 H :   -0.013606
  79 H :    0.064109
  80 H :    0.007292
  81 H :    0.037689
  82 H :    0.019879
  83 H :    0.033046
  84 H :    0.136706
  85 H :    0.031347
  86 H :   -0.021290
  87 H :   -0.027272
  88 H :   -0.007607
  89 H :   -0.000731
  90 H :   -0.004367
  91 H :    0.022487
  92 H :    0.046168
  93 H :   -0.005542
  94 H :   -0.019193
  95 H :   -0.002272
  96 H :   -0.006919
  97 H :   -0.015553
Sum of atomic charges:   -0.0000000

LOEWDIN ATOMIC CHARGES
----------------------
   0 C :    0.080315
   1 C :   -0.147878
   2 C :   -0.019958
   3 N :   -0.050899
   4 C :   -0.019173
   5 N :   -0.056893
   6 C :   -0.021777
   7 C :   -0.059384
   8 C :    0.040010
   9 C :   -0.027557
  10 C :   -0.137534
  11 C :   -0.006738
  12 S :    0.455874
  13 C :   -0.264873
  14 C :   -0.068897
  15 Br:    0.141784
  16 C :    0.105034
  17 O :   -0.187272
  18 C :   -0.140581
  19 C :    0.110137
  20 N :    0.072048
  21 C :   -0.109124
  22 S :    0.476122
  23 C :   -0.201987
  24 N :    0.273340
  25 O :   -0.214774
  26 O :   -0.221739
  27 C :    0.003107
  28 C :   -0.091479
  29 C :   -0.019380
  30 C :   -0.026195
  31 C :   -0.045543
  32 C :   -0.039759
  33 C :   -0.056487
  34 C :    0.048999
  35 N :    0.051457
  36 C :    0.100819
  37 C :   -0.104550
  38 C :    0.084471
  39 C :   -0.044066
  40 C :    0.003284
  41 C :   -0.040485
  42 C :    0.012572
  43 C :   -0.024133
  44 C :    0.034786
  45 C :   -0.080001
  46 C :    0.002088
  47 C :    0.021844
  48 C :    0.054246
  49 C :   -0.145536
  50 C :    0.073916
  51 O :   -0.175554
  52 C :   -0.047511
  53 C :    0.017507
  54 C :   -0.012917
  55 C :   -0.009915
  56 C :   -0.033836
  57 C :    0.061108
  58 C :    0.061298
  59 C :   -0.035935
  60 F :   -0.057432
  61 F :   -0.056333
  62 C :    0.003099
  63 C :   -0.017367
  64 C :    0.062248
  65 C :   -0.190467
  66 C :   -0.000299
  67 N :   -0.105445
  68 C :   -0.020190
  69 N :   -0.098796
  70 H :    0.039211
  71 H :    0.041610
  72 H :    0.036954
  73 H :    0.037029
  74 H :    0.079717
  75 H :    0.044813
  76 H :    0.030988
  77 H :    0.029229
  78 H :    0.027210
  79 H :    0.042072
  80 H :    0.029013
  81 H :    0.039836
  82 H :    0.031426
  83 H :    0.035255
  84 H :    0.091636
  85 H :    0.037532
  86 H :    0.030236
  87 H :    0.028314
  88 H :    0.031536
  89 H :    0.030884
  90 H :    0.036814
  91 H :    0.024999
  92 H :    0.037157
  93 H :    0.034882
  94 H :    0.036446
  95 H :    0.044134
  96 H :    0.042106
  97 H :    0.034098

  Mayer bond orders larger than 0.100000
B(  0-C ,  1-C ) :   1.6342 B(  0-C ,  6-C ) :   1.0137 B(  0-C , 18-C ) :   1.0809
B(  1-C ,  2-C ) :   1.1412 B(  1-C ,  4-C ) :   1.1475 B(  2-C ,  3-N ) :   2.9725
B(  4-C ,  5-N ) :   2.9536 B(  6-C ,  7-C ) :   1.2568 B(  6-C , 11-C ) :   1.4231
B(  7-C ,  8-C ) :   1.4031 B(  7-C , 16-C ) :   1.0011 B(  8-C ,  9-C ) :   1.2572
B(  8-C , 70-H ) :   1.0117 B(  9-C , 10-C ) :   1.2981 B(  9-C , 14-C ) :   1.1807
B( 10-C , 11-C ) :   1.3143 B( 10-C , 12-S ) :   1.1057 B( 11-C , 71-H ) :   0.9808
B( 12-S , 13-C ) :   1.0924 B( 13-C , 14-C ) :   1.5996 B( 13-C , 15-Br) :   1.0191
B( 14-C , 72-H ) :   0.9907 B( 16-C , 17-O ) :   1.9645 B( 16-C , 18-C ) :   1.0085
B( 17-O , 74-H ) :   0.1529 B( 18-C , 19-C ) :   1.4758 B( 19-C , 20-N ) :   1.3174
B( 19-C , 73-H ) :   0.9323 B( 20-N , 21-C ) :   1.2073 B( 20-N , 74-H ) :   0.8163
B( 21-C , 22-S ) :   1.1404 B( 21-C , 28-C ) :   1.3711 B( 22-S , 23-C ) :   1.0814
B( 23-C , 24-N ) :   0.9650 B( 23-C , 27-C ) :   1.5047 B( 24-N , 25-O ) :   1.5343
B( 24-N , 26-O ) :   1.5158 B( 25-O , 26-O ) :   0.2617 B( 27-C , 28-C ) :   1.2236
B( 27-C , 75-H ) :   0.9996 B( 28-C , 29-C ) :   1.0728 B( 29-C , 30-C ) :   1.7804
B( 29-C , 76-H ) :   0.9626 B( 30-C , 31-C ) :   1.0719 B( 30-C , 77-H ) :   0.9587
B( 31-C , 32-C ) :   1.8351 B( 31-C , 78-H ) :   0.9498 B( 32-C , 33-C ) :   1.0699
B( 32-C , 34-C ) :   1.0541 B( 33-C , 79-H ) :   0.9305 B( 33-C , 80-H ) :   0.9405
B( 33-C , 81-H ) :   0.9420 B( 34-C , 35-N ) :   0.9765 B( 34-C , 82-H ) :   0.9418
B( 34-C , 83-H ) :   0.9311 B( 35-N , 36-C ) :   1.3507 B( 35-N , 84-H ) :   0.9305
B( 36-C , 37-C ) :   1.4184 B( 36-C , 85-H ) :   0.9593 B( 37-C , 38-C ) :   1.3633
B( 37-C , 86-H ) :   0.9446 B( 38-C , 39-C ) :   1.2222 B( 38-C , 46-C ) :   1.0112
B( 39-C , 40-C ) :   1.2422 B( 39-C , 44-C ) :   1.2311 B( 40-C , 41-C ) :   1.4855
B( 40-C , 87-H ) :   0.9930 B( 41-C , 42-C ) :   1.2453 B( 41-C , 88-H ) :   0.9886
B( 42-C , 43-C ) :   1.4552 B( 42-C , 89-H ) :   0.9853 B( 43-C , 44-C ) :   1.2840
B( 43-C , 90-H ) :   0.9936 B( 44-C , 45-C ) :   1.1752 B( 45-C , 46-C ) :   1.0096
B( 45-C , 48-C ) :   1.4026 B( 46-C , 47-C ) :   1.8796 B( 47-C , 91-H ) :   0.9404
B( 47-C , 92-H ) :   0.9325 B( 48-C , 49-C ) :   1.3355 B( 48-C , 93-H ) :   0.9404
B( 49-C , 50-C ) :   0.9910 B( 49-C , 64-C ) :   1.1990 B( 50-C , 51-O ) :   2.2426
B( 50-C , 52-C ) :   0.9053 B( 52-C , 53-C ) :   1.4907 B( 52-C , 63-C ) :   1.2206
B( 53-C , 54-C ) :   1.1706 B( 53-C , 94-H ) :   1.0168 B( 54-C , 55-C ) :   1.2666
B( 54-C , 59-C ) :   1.2010 B( 55-C , 56-C ) :   1.1953 B( 55-C , 62-C ) :   1.1962
B( 56-C , 57-C ) :   1.4321 B( 56-C , 59-C ) :   0.1098 B( 56-C , 95-H ) :   1.0074
B( 57-C , 58-C ) :   1.2049 B( 57-C , 61-F ) :   1.1270 B( 58-C , 59-C ) :   1.4341
B( 58-C , 60-F ) :   1.1236 B( 59-C , 96-H ) :   1.0065 B( 62-C , 63-C ) :   1.4774
B( 62-C , 97-H ) :   0.9949 B( 63-C , 64-C ) :   0.9635 B( 64-C , 65-C ) :   1.5094
B( 65-C , 66-C ) :   1.2086 B( 65-C , 68-C ) :   1.1660 B( 66-C , 67-N ) :   2.9244
B( 68-C , 69-N ) :   2.9354

-----------------------------------------------------------------------------
         ABSORPTION SPECTRUM VIA TRANSITION ELECTRIC DIPOLE MOMENTS
-----------------------------------------------------------------------------
State   Energy  Wavelength   fosc         T2         TX        TY        TZ
        (cm-1)    (nm)                  (au**2)     (au)      (au)      (au)
-----------------------------------------------------------------------------
   0    9827.0   1017.6   0.168819563   5.65557   1.26033   1.42467   1.42739
   1   19762.7    506.0   0.179186840   2.98495  -1.21222  -0.03084  -1.23066
   2   19971.3    500.7   0.123013096   2.02778  -1.14166  -0.22546  -0.82072
   3   22199.7    450.5   0.006977750   0.10348   0.10467   0.24034  -0.18643
   4   22662.7    441.3   0.060609141   0.88044   0.16698  -0.47241   0.79334
   5   23001.8    434.7   0.858869955  12.29251  -0.39395  -1.81815  -2.97181
   6   24298.2    411.6   0.229656234   3.11157  -0.07225  -1.42258  -1.04048
   7   24985.5    400.2   0.231861612   3.05503  -1.05585  -1.29318  -0.51758
   8   25166.1    397.4   0.021793108   0.28509   0.16214   0.50720  -0.03927
   9   25781.3    387.9   0.017909229   0.22869  -0.02919   0.36289   0.31007
  10   27281.2    366.6   0.003917868   0.04728   0.16675  -0.02031  -0.13806
  11   27668.6    361.4   0.440468321   5.24086   0.35069  -2.23600  -0.34380
  12   28666.8    348.8   0.007294419   0.08377   0.15116  -0.13403  -0.20726
  13   28837.3    346.8   0.052812707   0.60292   0.12939  -0.23031  -0.73016
  14   28908.2    345.9   0.230934984   2.62993   0.46686  -1.10855  -1.08770
  15   29672.4    337.0   0.074655195   0.82829  -0.17109   0.89359   0.02277
  16   30426.4    328.7   0.053992538   0.58420   0.33669  -0.60110  -0.33094
  17   30673.3    326.0   0.015193550   0.16307   0.20925  -0.05506  -0.34096
  18   30967.2    322.9   0.068418782   0.72736   0.06380   0.32455   0.78610
  19   31175.2    320.8   0.113997519   1.20382  -0.17746  -0.23031   1.05796
  20   31482.6    317.6   0.539859961   5.64529  -0.46373  -1.94463  -1.28400
  21   31845.1    314.0   0.025254699   0.26108  -0.48434   0.16198   0.01592
  22   32014.9    312.4   0.169986565   1.74799   0.04947  -1.30470   0.20811
  23   32233.9    310.2   0.549599907   5.61319  -0.55051   2.29842  -0.16546
  24   32453.3    308.1   0.151155704   1.53335   0.57790   0.02362   1.09491
  25   32914.2    303.8   0.112425621   1.12450   0.34943   1.00100   0.01968
  26   33283.8    300.4   0.026029156   0.25746   0.18160  -0.46689   0.08059
  27   33407.7    299.3   0.078602135   0.77457  -0.02612   0.82702   0.29989
  28   33912.4    294.9   0.062579696   0.60751   0.55287   0.52826  -0.15092
  29   34088.6    293.4   0.001151869   0.01112  -0.02458  -0.10127  -0.01626
  30   34288.2    291.6   0.000383560   0.00368  -0.00528   0.03411   0.04992
  31   34498.2    289.9   0.005377527   0.05132   0.05202  -0.04307   0.21623
  32   34635.3    288.7   0.000141086   0.00134   0.01360   0.03164  -0.01246
  33   34816.1    287.2   0.037472711   0.35433   0.08640   0.33627   0.48352
  34   35120.2    284.7   0.239059523   2.24091   0.00123  -1.24136  -0.83662
  35   35218.6    283.9   0.084598048   0.79079  -0.07066   0.76065   0.45520
  36   35807.7    279.3   0.001621887   0.01491  -0.10376  -0.06439  -0.00049
  37   36479.5    274.1   0.466889007   4.21347   0.34378   1.95412   0.52601
  38   36853.5    271.3   0.080177658   0.71623  -0.17685  -0.50207  -0.65793
  39   36994.9    270.3   0.002616880   0.02329   0.01095  -0.11383  -0.10105
  40   37187.0    268.9   0.237494894   2.10252   1.00480  -0.23990  -1.01752
  41   37286.9    268.2   0.158407174   1.39860   0.05840   1.00451  -0.62141
  42   37562.4    266.2   0.075212880   0.65920   0.15105  -0.41300   0.68250
  43   37787.4    264.6   0.080560126   0.70186  -0.12257  -0.60348   0.56801
  44   37852.7    264.2   0.255009434   2.21787   0.39542  -0.77181   1.21071
  45   38645.8    258.8   0.058452023   0.49794   0.34393   0.09686  -0.60850
  46   38889.1    257.1   0.009561053   0.08094   0.18899  -0.14197   0.15831
  47   39386.2    253.9   0.002259287   0.01888   0.03583   0.00228  -0.13265
  48   39648.6    252.2   0.021746220   0.18056  -0.11402  -0.33530   0.23481
  49   39890.4    250.7   0.034892653   0.28797  -0.30571   0.03122   0.43992
  50   40071.1    249.6   0.082791709   0.68019   0.14645  -0.40573   0.70294
  51   40294.9    248.2   0.092100134   0.75246  -0.24452  -0.06839  -0.82946

FINAL SINGLE POINT ENERGY     -6324.637309562660

DIPOLE MOMENT
-------------
                                X             Y             Z
Electronic contribution:      8.41893      35.67471     106.41320
Nuclear contribution   :    -12.20957     -34.00297    -111.32470
                        -----------------------------------------
Total Dipole Moment    :     -3.79064       1.67173      -4.91150
                        -----------------------------------------
Magnitude (a.u.)       :      6.42546
Magnitude (Debye)      :     16.33222

Rotational constants in cm-1:     0.001504     0.000461     0.000390
Rotational constants in MHz :    45.097802    13.818695    11.697690

                             ****ORCA TERMINATED NORMALLY****
TOTAL RUN TIME: 0 days 0 hours 14 minutes 34 seconds 807 msec
