                         Program Version 4.2.0 -  RELEASE  -
|  1> # ORCA input file
|  2> # SCF done       -180.260238461583          0.000600255155
|  3> ! CAM-B3LYP def2-SVP def2/J RIJCOSX Grid4 TightSCF
|  4> %maxcore 5000
|  5> %tddft
|  6>     Mode sTDDFT
|  7>     Ethresh 5.0
|  8>     maxcore 5000
|  9> end
| 10>
| 11> %pal
| 12>   nprocs 6
| 13>   end
| 14> * xyz 0 1
| 15>    C       -1.99189        -9.04892        -1.64542
| 16>    C       -2.89245        -9.50909        -0.71576
| 17>    C       -3.06630       -10.87048        -0.39045
| 18>    N       -3.25932       -11.95764        -0.07510
| 19>    C       -3.78472        -8.72056         0.03804
| 20>    N       -4.55044        -8.16093         0.68868
| 21>    C       -1.09893        -9.88935        -2.43764
| 22>    C       -0.37304        -9.06396        -3.33130
| 23>    C        0.55517        -9.55952        -4.21299
| 24>    C        0.78476       -10.93977        -4.20984
| 25>    C        0.05869       -11.75712        -3.31178
| 26>    C       -0.88430       -11.25473        -2.42307
| 27>    S        0.50278       -13.42971        -3.46840
| 28>    C        1.64235       -13.01366        -4.72050
| 29>    C        1.68889       -11.69127        -5.00900
| 30>   Br        2.66332       -14.36360        -5.52841
| 31>    C       -0.77507        -7.65886        -3.12708
| 32>    O       -0.35794        -6.69443        -3.74185
| 33>    C       -1.76175        -7.67460        -2.04232
| 34>    C       -2.34616        -6.58140        -1.45237
| 35>    C       -2.20217        -5.21178        -1.69620
| 36>    S       -1.15815        -4.48823        -2.89305
| 37>    C       -1.57621        -2.93244        -2.33338
| 38>    C       -2.45081        -2.91531        -1.27932
| 39>    C       -2.96004        -1.65009        -0.67132
| 40>    C       -2.83623        -4.22424        -0.90657
| 41>    C       -3.78764        -4.55973         0.11882
| 42>    C       -3.94576        -3.92414         1.29865
| 43>    C       -4.89040        -4.36138         2.27331
| 44>    C       -4.94670        -3.87932         3.53311
| 45>    C       -5.87289        -4.37255         4.50613
| 46>    C       -5.89487        -4.10230         5.82238
| 47>    C       -4.91404        -3.24714         6.55438
| 48>    C       -6.90321        -4.81000         6.70212
| 49>    N       -6.43467        -6.13831         7.04340
| 50>    C       -5.51642        -6.34814         8.01207
| 51>    C       -4.78675        -7.48415         8.12521
| 52>    C       -3.83969        -7.74424         9.14685
| 53>    S       -3.10579        -9.30823         9.25404
| 54>    C       -2.10365        -8.83775        10.61100
| 55>    C       -2.38736        -7.51479        10.97194
| 56>    C       -3.33543        -6.90245        10.13785
| 57>    O       -3.74091        -5.59497        10.20366
| 58>    C       -2.86531        -4.73654        10.90186
| 59>    C       -2.66344        -5.19048        12.33617
| 60>    S       -1.67386        -6.72207        12.35867
| 61>    C       -1.16125        -9.75608        11.08460
| 62>    C       -0.20249        -9.52465        12.03556
| 63>    C        0.75433       -10.48304        12.37853
| 64>    C        1.83452       -10.32046        13.21405
| 65>    C        2.42537        -9.14607        13.79690
| 66>    C        2.39056        -7.85781        13.31316
| 67>    C        3.00846        -6.76308        13.94758
| 68>    N        3.46461        -5.82252        14.42553
| 69>    C        1.84016        -7.45910        12.07994
| 70>    N        1.46909        -7.04895        11.07248
| 71>    C        3.27633        -9.59043        14.90255
| 72>    C        3.36430       -11.00389        14.86627
| 73>    C        2.50844       -11.51156        13.77095
| 74>    O        2.36029       -12.66584        13.42872
| 75>    C        4.12780       -11.72038        15.75350
| 76>    C        4.83106       -11.00937        16.73280
| 77>    C        4.72532        -9.60059        16.76989
| 78>    C        3.95882        -8.87395        15.86564
| 79>    S        5.66562        -8.92305        18.06596
| 80>    C        6.18373       -10.52195        18.52973
| 81>    C        5.67942       -11.51260        17.75798
| 82>   Br        7.34183       -10.73152        19.99147
| 83>    H        1.09038        -8.90360        -4.88150
| 84>    H       -1.40850       -11.91992        -1.75765
| 85>    H        2.33432       -11.26162        -5.75316
| 86>    H       -3.01483        -6.80197        -0.63145
| 87>    H       -1.15491        -2.06994        -2.81462
| 88>    H       -2.88804        -0.83665        -1.38938
| 89>    H       -2.36791        -1.37858         0.20252
| 90>    H       -3.99681        -1.76399        -0.36222
| 91>    H       -4.40548        -5.43074        -0.06179
| 92>    H       -3.30412        -3.09853         1.57044
| 93>    H       -5.56191        -5.15679         1.97686
| 94>    H       -4.25119        -3.10657         3.82923
| 95>    H       -6.62214        -5.05234         4.11605
| 96>    H       -4.20639        -2.76703         5.88745
| 97>    H       -4.35539        -3.85863         7.26494
| 98>    H       -5.43830        -2.47722         7.12100
| 99>    H       -7.86168        -4.91370         6.18695
|100>    H       -7.05925        -4.25597         7.63026
|101>    H       -6.43688        -6.80508         6.28315
|102>    H       -5.42778        -5.56685         8.75099
|103>    H       -4.91743        -8.27308         7.39700
|104>    H       -3.34554        -3.75478        10.87346
|105>    H       -1.89490        -4.68110        10.38999
|106>    H       -2.09875        -4.45868        12.90932
|107>    H       -3.62222        -5.38541        12.81761
|108>    H       -1.16709       -10.72000        10.59041
|109>    H       -0.17442        -8.56914        12.53263
|110>    H        0.61277       -11.49301        12.00763
|111>    H        4.18243       -12.79617        15.69591
|112>    H        3.90759        -7.80033        15.93774
|113>    H        5.89427       -12.55564        17.90283
|114> *
|115>
|116>                          ****END OF INPUT****

CARTESIAN COORDINATES (ANGSTROEM)
---------------------------------
  C     -1.991890   -9.048920   -1.645420
  C     -2.892450   -9.509090   -0.715760
  C     -3.066300  -10.870480   -0.390450
  N     -3.259320  -11.957640   -0.075100
  C     -3.784720   -8.720560    0.038040
  N     -4.550440   -8.160930    0.688680
  C     -1.098930   -9.889350   -2.437640
  C     -0.373040   -9.063960   -3.331300
  C      0.555170   -9.559520   -4.212990
  C      0.784760  -10.939770   -4.209840
  C      0.058690  -11.757120   -3.311780
  C     -0.884300  -11.254730   -2.423070
  S      0.502780  -13.429710   -3.468400
  C      1.642350  -13.013660   -4.720500
  C      1.688890  -11.691270   -5.009000
  Br     2.663320  -14.363600   -5.528410
  C     -0.775070   -7.658860   -3.127080
  O     -0.357940   -6.694430   -3.741850
  C     -1.761750   -7.674600   -2.042320
  C     -2.346160   -6.581400   -1.452370
  C     -2.202170   -5.211780   -1.696200
  S     -1.158150   -4.488230   -2.893050
  C     -1.576210   -2.932440   -2.333380
  C     -2.450810   -2.915310   -1.279320
  C     -2.960040   -1.650090   -0.671320
  C     -2.836230   -4.224240   -0.906570
  C     -3.787640   -4.559730    0.118820
  C     -3.945760   -3.924140    1.298650
  C     -4.890400   -4.361380    2.273310
  C     -4.946700   -3.879320    3.533110
  C     -5.872890   -4.372550    4.506130
  C     -5.894870   -4.102300    5.822380
  C     -4.914040   -3.247140    6.554380
  C     -6.903210   -4.810000    6.702120
  N     -6.434670   -6.138310    7.043400
  C     -5.516420   -6.348140    8.012070
  C     -4.786750   -7.484150    8.125210
  C     -3.839690   -7.744240    9.146850
  S     -3.105790   -9.308230    9.254040
  C     -2.103650   -8.837750   10.611000
  C     -2.387360   -7.514790   10.971940
  C     -3.335430   -6.902450   10.137850
  O     -3.740910   -5.594970   10.203660
  C     -2.865310   -4.736540   10.901860
  C     -2.663440   -5.190480   12.336170
  S     -1.673860   -6.722070   12.358670
  C     -1.161250   -9.756080   11.084600
  C     -0.202490   -9.524650   12.035560
  C      0.754330  -10.483040   12.378530
  C      1.834520  -10.320460   13.214050
  C      2.425370   -9.146070   13.796900
  C      2.390560   -7.857810   13.313160
  C      3.008460   -6.763080   13.947580
  N      3.464610   -5.822520   14.425530
  C      1.840160   -7.459100   12.079940
  N      1.469090   -7.048950   11.072480
  C      3.276330   -9.590430   14.902550
  C      3.364300  -11.003890   14.866270
  C      2.508440  -11.511560   13.770950
  O      2.360290  -12.665840   13.428720
  C      4.127800  -11.720380   15.753500
  C      4.831060  -11.009370   16.732800
  C      4.725320   -9.600590   16.769890
  C      3.958820   -8.873950   15.865640
  S      5.665620   -8.923050   18.065960
  C      6.183730  -10.521950   18.529730
  C      5.679420  -11.512600   17.757980
  Br     7.341830  -10.731520   19.991470
  H      1.090380   -8.903600   -4.881500
  H     -1.408500  -11.919920   -1.757650
  H      2.334320  -11.261620   -5.753160
  H     -3.014830   -6.801970   -0.631450
  H     -1.154910   -2.069940   -2.814620
  H     -2.888040   -0.836650   -1.389380
  H     -2.367910   -1.378580    0.202520
  H     -3.996810   -1.763990   -0.362220
  H     -4.405480   -5.430740   -0.061790
  H     -3.304120   -3.098530    1.570440
  H     -5.561910   -5.156790    1.976860
  H     -4.251190   -3.106570    3.829230
  H     -6.622140   -5.052340    4.116050
  H     -4.206390   -2.767030    5.887450
  H     -4.355390   -3.858630    7.264940
  H     -5.438300   -2.477220    7.121000
  H     -7.861680   -4.913700    6.186950
  H     -7.059250   -4.255970    7.630260
  H     -6.436880   -6.805080    6.283150
  H     -5.427780   -5.566850    8.750990
  H     -4.917430   -8.273080    7.397000
  H     -3.345540   -3.754780   10.873460
  H     -1.894900   -4.681100   10.389990
  H     -2.098750   -4.458680   12.909320
  H     -3.622220   -5.385410   12.817610
  H     -1.167090  -10.720000   10.590410
  H     -0.174420   -8.569140   12.532630
  H      0.612770  -11.493010   12.007630
  H      4.182430  -12.796170   15.695910
  H      3.907590   -7.800330   15.937740
  H      5.894270  -12.555640   17.902830

 Total Charge           Charge          ....    0
 Multiplicity           Mult            ....    1
 Number of Electrons    NEL             ....  558
 Basis Dimension        Dim             .... 1163

ORBITAL ENERGIES
----------------

  NO   OCC          E(Eh)            E(eV)
   0   2.0000    -482.884586    -13139.9576
   1   2.0000    -482.873850    -13139.6655
   2   2.0000     -88.974307     -2421.1140
   3   2.0000     -88.960971     -2420.7511
   4   2.0000     -88.960465     -2420.7373
   5   2.0000     -88.952337     -2420.5162
   6   2.0000     -88.940597     -2420.1967
   7   2.0000     -62.562292     -1702.4065
   8   2.0000     -62.551545     -1702.1141
   9   2.0000     -56.396243     -1534.6198
  10   2.0000     -56.393526     -1534.5459
  11   2.0000     -56.393495     -1534.5450
  12   2.0000     -56.385479     -1534.3269
  13   2.0000     -56.382798     -1534.2539
  14   2.0000     -56.382756     -1534.2528
  15   2.0000     -19.258608      -524.0534
  16   2.0000     -19.217162      -522.9256
  17   2.0000     -19.190553      -522.2015
  18   2.0000     -14.441000      -392.9596
  19   2.0000     -14.419665      -392.3790
  20   2.0000     -14.412169      -392.1751
  21   2.0000     -14.396086      -391.7374
  22   2.0000     -14.391979      -391.6256
  23   2.0000     -10.365967      -282.0723
  24   2.0000     -10.357741      -281.8485
  25   2.0000     -10.344391      -281.4852
  26   2.0000     -10.341497      -281.4064
  27   2.0000     -10.340621      -281.3826
  28   2.0000     -10.340487      -281.3789
  29   2.0000     -10.338481      -281.3244
  30   2.0000     -10.332960      -281.1741
  31   2.0000     -10.323841      -280.9260
  32   2.0000     -10.323638      -280.9205
  33   2.0000     -10.319351      -280.8038
  34   2.0000     -10.319202      -280.7998
  35   2.0000     -10.318779      -280.7882
  36   2.0000     -10.318332      -280.7761
  37   2.0000     -10.318213      -280.7728
  38   2.0000     -10.315964      -280.7117
  39   2.0000     -10.313816      -280.6532
  40   2.0000     -10.311058      -280.5782
  41   2.0000     -10.310379      -280.5597
  42   2.0000     -10.309315      -280.5307
  43   2.0000     -10.308939      -280.5205
  44   2.0000     -10.306113      -280.4436
  45   2.0000     -10.306024      -280.4412
  46   2.0000     -10.304114      -280.3892
  47   2.0000     -10.300422      -280.2887
  48   2.0000     -10.299556      -280.2652
  49   2.0000     -10.299365      -280.2600
  50   2.0000     -10.299121      -280.2533
  51   2.0000     -10.298341      -280.2321
  52   2.0000     -10.296493      -280.1818
  53   2.0000     -10.295466      -280.1539
  54   2.0000     -10.295428      -280.1528
  55   2.0000     -10.292700      -280.0786
  56   2.0000     -10.291508      -280.0462
  57   2.0000     -10.290393      -280.0158
  58   2.0000     -10.290356      -280.0148
  59   2.0000     -10.289441      -279.9899
  60   2.0000     -10.287867      -279.9471
  61   2.0000     -10.287243      -279.9301
  62   2.0000     -10.286657      -279.9142
  63   2.0000     -10.285757      -279.8897
  64   2.0000     -10.283280      -279.8223
  65   2.0000     -10.282897      -279.8118
  66   2.0000     -10.282030      -279.7883
  67   2.0000     -10.281046      -279.7615
  68   2.0000     -10.276727      -279.6440
  69   2.0000     -10.276568      -279.6396
  70   2.0000     -10.275540      -279.6117
  71   2.0000     -10.274249      -279.5765
  72   2.0000     -10.272776      -279.5365
  73   2.0000     -10.266030      -279.3529
  74   2.0000     -10.265240      -279.3314
  75   2.0000     -10.265200      -279.3303
  76   2.0000      -8.791713      -239.2347
  77   2.0000      -8.780949      -238.9418
  78   2.0000      -8.070290      -219.6038
  79   2.0000      -8.056925      -219.2401
  80   2.0000      -8.054522      -219.1747
  81   2.0000      -8.048304      -219.0055
  82   2.0000      -8.035535      -218.6580
  83   2.0000      -6.628019      -180.3576
  84   2.0000      -6.617167      -180.0623
  85   2.0000      -6.613457      -179.9613
  86   2.0000      -6.613231      -179.9552
  87   2.0000      -6.602703      -179.6687
  88   2.0000      -6.602560      -179.6648
  89   2.0000      -6.039991      -164.3565
  90   2.0000      -6.035689      -164.2395
  91   2.0000      -6.031516      -164.1259
  92   2.0000      -6.026628      -163.9929
  93   2.0000      -6.023800      -163.9159
  94   2.0000      -6.022363      -163.8768
  95   2.0000      -6.019190      -163.7905
  96   2.0000      -6.018155      -163.7623
  97   2.0000      -6.017657      -163.7488
  98   2.0000      -6.017064      -163.7326
  99   2.0000      -6.013907      -163.6467
 100   2.0000      -6.009792      -163.5348
 101   2.0000      -6.005904      -163.4289
 102   2.0000      -6.001709      -163.3148
 103   2.0000      -5.995391      -163.1429
 104   2.0000      -2.743884       -74.6649
 105   2.0000      -2.739780       -74.5532
 106   2.0000      -2.739675       -74.5504
 107   2.0000      -2.733070       -74.3706
 108   2.0000      -2.728984       -74.2594
 109   2.0000      -2.728866       -74.2562
 110   2.0000      -2.728067       -74.2345
 111   2.0000      -2.728056       -74.2342
 112   2.0000      -2.717373       -73.9435
 113   2.0000      -2.717362       -73.9432
 114   2.0000      -1.163806       -31.6688
 115   2.0000      -1.132401       -30.8142
 116   2.0000      -1.104766       -30.0622
 117   2.0000      -1.042965       -28.3805
 118   2.0000      -1.022042       -27.8112
 119   2.0000      -1.013630       -27.5823
 120   2.0000      -1.005000       -27.3474
 121   2.0000      -0.994962       -27.0743
 122   2.0000      -0.994716       -27.0676
 123   2.0000      -0.994038       -27.0492
 124   2.0000      -0.988716       -26.9043
 125   2.0000      -0.987377       -26.8679
 126   2.0000      -0.972773       -26.4705
 127   2.0000      -0.969186       -26.3729
 128   2.0000      -0.941415       -25.6172
 129   2.0000      -0.929938       -25.3049
 130   2.0000      -0.926633       -25.2150
 131   2.0000      -0.924276       -25.1508
 132   2.0000      -0.908513       -24.7219
 133   2.0000      -0.907313       -24.6892
 134   2.0000      -0.904073       -24.6011
 135   2.0000      -0.903447       -24.5840
 136   2.0000      -0.890451       -24.2304
 137   2.0000      -0.884534       -24.0694
 138   2.0000      -0.879012       -23.9191
 139   2.0000      -0.873170       -23.7602
 140   2.0000      -0.870393       -23.6846
 141   2.0000      -0.868370       -23.6295
 142   2.0000      -0.862747       -23.4765
 143   2.0000      -0.855534       -23.2803
 144   2.0000      -0.841686       -22.9034
 145   2.0000      -0.831277       -22.6202
 146   2.0000      -0.828102       -22.5338
 147   2.0000      -0.817747       -22.2520
 148   2.0000      -0.812442       -22.1077
 149   2.0000      -0.799730       -21.7618
 150   2.0000      -0.785628       -21.3780
 151   2.0000      -0.775861       -21.1123
 152   2.0000      -0.768372       -20.9085
 153   2.0000      -0.762230       -20.7413
 154   2.0000      -0.760445       -20.6928
 155   2.0000      -0.753262       -20.4973
 156   2.0000      -0.749655       -20.3992
 157   2.0000      -0.740688       -20.1551
 158   2.0000      -0.725995       -19.7553
 159   2.0000      -0.710351       -19.3296
 160   2.0000      -0.706309       -19.2196
 161   2.0000      -0.701518       -19.0893
 162   2.0000      -0.689727       -18.7684
 163   2.0000      -0.686393       -18.6777
 164   2.0000      -0.684497       -18.6261
 165   2.0000      -0.673766       -18.3341
 166   2.0000      -0.665549       -18.1105
 167   2.0000      -0.660501       -17.9732
 168   2.0000      -0.657028       -17.8786
 169   2.0000      -0.653054       -17.7705
 170   2.0000      -0.646532       -17.5930
 171   2.0000      -0.639980       -17.4147
 172   2.0000      -0.632534       -17.2121
 173   2.0000      -0.631707       -17.1896
 174   2.0000      -0.623320       -16.9614
 175   2.0000      -0.621275       -16.9057
 176   2.0000      -0.612004       -16.6535
 177   2.0000      -0.608989       -16.5714
 178   2.0000      -0.604287       -16.4435
 179   2.0000      -0.599738       -16.3197
 180   2.0000      -0.595070       -16.1927
 181   2.0000      -0.587793       -15.9946
 182   2.0000      -0.585218       -15.9246
 183   2.0000      -0.583998       -15.8914
 184   2.0000      -0.580440       -15.7946
 185   2.0000      -0.570801       -15.5323
 186   2.0000      -0.567455       -15.4412
 187   2.0000      -0.563495       -15.3335
 188   2.0000      -0.559754       -15.2317
 189   2.0000      -0.553716       -15.0674
 190   2.0000      -0.552037       -15.0217
 191   2.0000      -0.544653       -14.8208
 192   2.0000      -0.542897       -14.7730
 193   2.0000      -0.540364       -14.7040
 194   2.0000      -0.533454       -14.5160
 195   2.0000      -0.531351       -14.4588
 196   2.0000      -0.526196       -14.3185
 197   2.0000      -0.525162       -14.2904
 198   2.0000      -0.521927       -14.2024
 199   2.0000      -0.521490       -14.1905
 200   2.0000      -0.518137       -14.0992
 201   2.0000      -0.516318       -14.0497
 202   2.0000      -0.515484       -14.0270
 203   2.0000      -0.512984       -13.9590
 204   2.0000      -0.510053       -13.8792
 205   2.0000      -0.508023       -13.8240
 206   2.0000      -0.506727       -13.7887
 207   2.0000      -0.501752       -13.6534
 208   2.0000      -0.498746       -13.5716
 209   2.0000      -0.495811       -13.4917
 210   2.0000      -0.495147       -13.4736
 211   2.0000      -0.492707       -13.4072
 212   2.0000      -0.491800       -13.3826
 213   2.0000      -0.490926       -13.3588
 214   2.0000      -0.487024       -13.2526
 215   2.0000      -0.486380       -13.2351
 216   2.0000      -0.484147       -13.1743
 217   2.0000      -0.478842       -13.0300
 218   2.0000      -0.474654       -12.9160
 219   2.0000      -0.474130       -12.9017
 220   2.0000      -0.472657       -12.8616
 221   2.0000      -0.471014       -12.8169
 222   2.0000      -0.466984       -12.7073
 223   2.0000      -0.463896       -12.6232
 224   2.0000      -0.462063       -12.5734
 225   2.0000      -0.461911       -12.5692
 226   2.0000      -0.456940       -12.4340
 227   2.0000      -0.454737       -12.3740
 228   2.0000      -0.454234       -12.3603
 229   2.0000      -0.452251       -12.3064
 230   2.0000      -0.449016       -12.2183
 231   2.0000      -0.446026       -12.1370
 232   2.0000      -0.444444       -12.0939
 233   2.0000      -0.442665       -12.0455
 234   2.0000      -0.441312       -12.0087
 235   2.0000      -0.438345       -11.9280
 236   2.0000      -0.437616       -11.9081
 237   2.0000      -0.431573       -11.7437
 238   2.0000      -0.430263       -11.7081
 239   2.0000      -0.429534       -11.6882
 240   2.0000      -0.427959       -11.6454
 241   2.0000      -0.427026       -11.6200
 242   2.0000      -0.426389       -11.6026
 243   2.0000      -0.425248       -11.5716
 244   2.0000      -0.423222       -11.5165
 245   2.0000      -0.420935       -11.4542
 246   2.0000      -0.417120       -11.3504
 247   2.0000      -0.416261       -11.3270
 248   2.0000      -0.412917       -11.2361
 249   2.0000      -0.409784       -11.1508
 250   2.0000      -0.407547       -11.0899
 251   2.0000      -0.404372       -11.0035
 252   2.0000      -0.403539       -10.9809
 253   2.0000      -0.400169       -10.8892
 254   2.0000      -0.390682       -10.6310
 255   2.0000      -0.388044       -10.5592
 256   2.0000      -0.381101       -10.3703
 257   2.0000      -0.380444       -10.3524
 258   2.0000      -0.379616       -10.3299
 259   2.0000      -0.374798       -10.1988
 260   2.0000      -0.373947       -10.1756
 261   2.0000      -0.371660       -10.1134
 262   2.0000      -0.366139        -9.9632
 263   2.0000      -0.363482        -9.8909
 264   2.0000      -0.348794        -9.4912
 265   2.0000      -0.348429        -9.4812
 266   2.0000      -0.332520        -9.0483
 267   2.0000      -0.326732        -8.8908
 268   2.0000      -0.322139        -8.7659
 269   2.0000      -0.314356        -8.5541
 270   2.0000      -0.313502        -8.5308
 271   2.0000      -0.298823        -8.1314
 272   2.0000      -0.294543        -8.0149
 273   2.0000      -0.289212        -7.8699
 274   2.0000      -0.285779        -7.7764
 275   2.0000      -0.276706        -7.5296
 276   2.0000      -0.273067        -7.4305
 277   2.0000      -0.259697        -7.0667
 278   2.0000      -0.224385        -6.1058
 279   0.0000      -0.091601        -2.4926
 280   0.0000      -0.076194        -2.0733
 281   0.0000      -0.059987        -1.6323
 282   0.0000      -0.042401        -1.1538
 283   0.0000      -0.029176        -0.7939

MULLIKEN ATOMIC CHARGES
-----------------------
   0 C :    0.322628
   1 C :   -0.360749
   2 C :   -0.190981
   3 N :    0.147821
   4 C :   -0.179317
   5 N :    0.131441
   6 C :    0.008705
   7 C :   -0.010557
   8 C :   -0.072477
   9 C :    0.117176
  10 C :   -0.092451
  11 C :   -0.018945
  12 S :    0.186137
  13 C :   -0.123978
  14 C :    0.039005
  15 Br:    0.022914
  16 C :    0.149289
  17 O :   -0.171456
  18 C :   -0.095174
  19 C :   -0.026501
  20 C :   -0.111019
  21 S :    0.201715
  22 C :   -0.088458
  23 C :   -0.094156
  24 C :    0.108392
  25 C :    0.125536
  26 C :   -0.066324
  27 C :    0.023238
  28 C :    0.008032
  29 C :    0.014608
  30 C :    0.011379
  31 C :   -0.176638
  32 C :    0.095477
  33 C :    0.185179
  34 N :   -0.139473
  35 C :    0.059348
  36 C :   -0.007744
  37 C :   -0.105027
  38 S :    0.133522
  39 C :   -0.161958
  40 C :    0.001977
  41 C :    0.139095
  42 O :   -0.331697
  43 C :    0.210384
  44 C :   -0.073599
  45 S :    0.030074
  46 C :    0.070822
  47 C :   -0.020021
  48 C :    0.019739
  49 C :   -0.124701
  50 C :    0.297323
  51 C :   -0.355569
  52 C :   -0.188443
  53 N :    0.132285
  54 C :   -0.226862
  55 N :    0.164489
  56 C :    0.003167
  57 C :   -0.003344
  58 C :    0.134354
  59 O :   -0.157799
  60 C :   -0.077931
  61 C :    0.112656
  62 C :   -0.090076
  63 C :   -0.027743
  64 S :    0.173984
  65 C :   -0.124969
  66 C :    0.039825
  67 Br:    0.010981
  68 H :   -0.010118
  69 H :   -0.007132
  70 H :   -0.003003
  71 H :   -0.009897
  72 H :    0.019854
  73 H :    0.014015
  74 H :    0.035851
  75 H :    0.031877
  76 H :    0.024559
  77 H :   -0.011924
  78 H :    0.001977
  79 H :   -0.015020
  80 H :   -0.025007
  81 H :    0.010796
  82 H :    0.032691
  83 H :    0.021946
  84 H :    0.022227
  85 H :    0.008590
  86 H :    0.119546
  87 H :    0.024732
  88 H :   -0.030519
  89 H :    0.026271
  90 H :    0.047577
  91 H :    0.067753
  92 H :    0.070141
  93 H :   -0.007656
  94 H :    0.026802
  95 H :    0.005799
  96 H :   -0.013779
  97 H :   -0.008591
  98 H :   -0.006922
Sum of atomic charges:   -0.0000000

LOEWDIN ATOMIC CHARGES
----------------------
   0 C :    0.081722
   1 C :   -0.152483
   2 C :   -0.019085
   3 N :   -0.059323
   4 C :   -0.014723
   5 N :   -0.069052
   6 C :   -0.021623
   7 C :   -0.049070
   8 C :    0.020840
   9 C :   -0.032737
  10 C :   -0.144875
  11 C :   -0.008939
  12 S :    0.432834
  13 C :   -0.271735
  14 C :   -0.070644
  15 Br:    0.136445
  16 C :    0.081166
  17 O :   -0.164123
  18 C :   -0.115276
  19 C :    0.060205
  20 C :   -0.193386
  21 S :    0.512963
  22 C :   -0.166240
  23 C :   -0.066305
  24 C :   -0.046942
  25 C :   -0.016334
  26 C :   -0.033057
  27 C :   -0.002754
  28 C :   -0.021275
  29 C :   -0.018265
  30 C :   -0.047595
  31 C :   -0.035621
  32 C :   -0.048667
  33 C :    0.044983
  34 N :    0.006308
  35 C :    0.056702
  36 C :   -0.143528
  37 C :   -0.149177
  38 S :    0.437980
  39 C :   -0.216066
  40 C :   -0.180872
  41 C :   -0.029971
  42 O :   -0.109396
  43 C :    0.070001
  44 C :   -0.141825
  45 S :    0.353509
  46 C :    0.018630
  47 C :   -0.064880
  48 C :    0.068981
  49 C :   -0.119785
  50 C :    0.070607
  51 C :   -0.157494
  52 C :   -0.018770
  53 N :   -0.073343
  54 C :   -0.026903
  55 N :   -0.066278
  56 C :   -0.015297
  57 C :   -0.050318
  58 C :    0.078596
  59 O :   -0.159680
  60 C :    0.017278
  61 C :   -0.037857
  62 C :   -0.145557
  63 C :   -0.018074
  64 S :    0.423457
  65 C :   -0.276353
  66 C :   -0.070485
  67 Br:    0.126915
  68 H :    0.040759
  69 H :    0.040919
  70 H :    0.038795
  71 H :    0.047092
  72 H :    0.024449
  73 H :    0.033636
  74 H :    0.035418
  75 H :    0.036047
  76 H :    0.034985
  77 H :    0.028094
  78 H :    0.033551
  79 H :    0.024465
  80 H :    0.024676
  81 H :    0.028986
  82 H :    0.038931
  83 H :    0.034457
  84 H :    0.031612
  85 H :    0.027802
  86 H :    0.078733
  87 H :    0.026749
  88 H :    0.023734
  89 H :    0.027812
  90 H :    0.025593
  91 H :    0.039289
  92 H :    0.030687
  93 H :    0.034558
  94 H :    0.013683
  95 H :    0.040889
  96 H :    0.039177
  97 H :    0.039096
  98 H :    0.037240

  Mayer bond orders larger than 0.100000
B(  0-C ,  1-C ) :   1.6018 B(  0-C ,  6-C ) :   0.9988 B(  0-C , 18-C ) :   1.0959
B(  1-C ,  2-C ) :   1.1477 B(  1-C ,  4-C ) :   1.1524 B(  2-C ,  3-N ) :   2.9679
B(  4-C ,  5-N ) :   2.9563 B(  6-C ,  7-C ) :   1.2761 B(  6-C , 11-C ) :   1.4155
B(  7-C ,  8-C ) :   1.4274 B(  7-C , 16-C ) :   0.9514 B(  8-C ,  9-C ) :   1.2425
B(  8-C , 68-H ) :   1.0167 B(  9-C , 10-C ) :   1.3098 B(  9-C , 14-C ) :   1.1627
B( 10-C , 11-C ) :   1.3282 B( 10-C , 12-S ) :   1.0848 B( 11-C , 69-H ) :   0.9793
B( 12-S , 13-C ) :   1.0879 B( 13-C , 14-C ) :   1.6165 B( 13-C , 15-Br) :   1.0185
B( 14-C , 70-H ) :   1.0005 B( 16-C , 17-O ) :   2.1617 B( 16-C , 18-C ) :   0.9678
B( 18-C , 19-C ) :   1.5096 B( 19-C , 20-C ) :   1.2984 B( 19-C , 71-H ) :   0.9263
B( 20-C , 21-S ) :   1.1042 B( 20-C , 25-C ) :   1.3133 B( 21-S , 22-C ) :   1.1859
B( 22-C , 23-C ) :   1.5023 B( 22-C , 72-H ) :   0.9663 B( 23-C , 24-C ) :   1.0890
B( 23-C , 25-C ) :   1.3171 B( 24-C , 73-H ) :   0.9482 B( 24-C , 74-H ) :   0.9432
B( 24-C , 75-H ) :   0.9451 B( 25-C , 26-C ) :   1.0668 B( 26-C , 27-C ) :   1.6982
B( 26-C , 76-H ) :   0.9488 B( 27-C , 28-C ) :   1.1053 B( 27-C , 77-H ) :   0.9866
B( 28-C , 29-C ) :   1.6867 B( 28-C , 78-H ) :   0.9929 B( 29-C , 30-C ) :   1.0951
B( 29-C , 79-H ) :   0.9744 B( 30-C , 31-C ) :   1.7703 B( 30-C , 80-H ) :   0.9723
B( 31-C , 32-C ) :   1.0859 B( 31-C , 33-C ) :   1.0194 B( 32-C , 81-H ) :   0.9520
B( 32-C , 82-H ) :   0.9428 B( 32-C , 83-H ) :   0.9450 B( 33-C , 34-N ) :   1.0293
B( 33-C , 84-H ) :   0.9464 B( 33-C , 85-H ) :   0.9348 B( 34-N , 35-C ) :   1.2342
B( 34-N , 86-H ) :   0.9385 B( 35-C , 36-C ) :   1.5962 B( 35-C , 87-H ) :   0.9501
B( 36-C , 37-C ) :   1.1827 B( 36-C , 88-H ) :   0.9431 B( 37-C , 38-S ) :   1.1397
B( 37-C , 41-C ) :   1.4397 B( 38-S , 39-C ) :   1.0672 B( 39-C , 40-C ) :   1.4087
B( 39-C , 46-C ) :   1.2511 B( 40-C , 41-C ) :   1.3011 B( 40-C , 45-S ) :   1.0390
B( 41-C , 42-O ) :   1.0949 B( 42-O , 43-C ) :   0.9613 B( 43-C , 44-C ) :   1.0482
B( 43-C , 89-H ) :   0.9520 B( 43-C , 90-H ) :   0.9509 B( 44-C , 45-S ) :   1.0058
B( 44-C , 91-H ) :   0.9471 B( 44-C , 92-H ) :   0.9425 B( 46-C , 47-C ) :   1.5242
B( 46-C , 93-H ) :   0.9601 B( 47-C , 48-C ) :   1.2463 B( 47-C , 94-H ) :   0.9460
B( 48-C , 49-C ) :   1.4891 B( 48-C , 95-H ) :   0.9606 B( 49-C , 50-C ) :   1.0926
B( 49-C , 58-C ) :   0.9662 B( 50-C , 51-C ) :   1.5861 B( 50-C , 56-C ) :   1.0060
B( 51-C , 52-C ) :   1.1390 B( 51-C , 54-C ) :   1.1727 B( 52-C , 53-N ) :   2.9751
B( 54-C , 55-N ) :   2.9998 B( 56-C , 57-C ) :   1.2804 B( 56-C , 63-C ) :   1.4225
B( 57-C , 58-C ) :   0.9157 B( 57-C , 60-C ) :   1.4358 B( 58-C , 59-O ) :   2.2521
B( 60-C , 61-C ) :   1.2436 B( 60-C , 96-H ) :   1.0153 B( 61-C , 62-C ) :   1.3203
B( 61-C , 66-C ) :   1.1604 B( 62-C , 63-C ) :   1.3193 B( 62-C , 64-S ) :   1.0793
B( 63-C , 97-H ) :   0.9807 B( 64-S , 65-C ) :   1.0847 B( 65-C , 66-C ) :   1.6222
B( 65-C , 67-Br) :   1.0113 B( 66-C , 98-H ) :   1.0000

-----------------------------------------------------------------------------
         ABSORPTION SPECTRUM VIA TRANSITION ELECTRIC DIPOLE MOMENTS
-----------------------------------------------------------------------------
State   Energy  Wavelength   fosc         T2         TX        TY        TZ
        (cm-1)    (nm)                  (au**2)     (au)      (au)      (au)
-----------------------------------------------------------------------------
   0   16483.2    606.7   1.240884920  24.78370  -3.64116   0.77720  -3.30479
   1   18918.4    528.6   0.228316017   3.97309   1.17455  -1.29256  -0.96063
   2   21000.3    476.2   0.408883884   6.40988   0.76752  -2.15891  -1.07699
   3   24076.1    415.3   0.314032020   4.29401   1.08667  -1.20266   1.29104
   4   25741.8    388.5   0.061575080   0.78748  -0.36965   0.66275   0.46001
   5   26141.2    382.5   0.359796927   4.53114   0.68248   1.72465  -1.04447
   6   26254.4    380.9   0.129832529   1.62801  -0.11375   1.24117   0.27307
   7   27303.9    366.2   0.018848910   0.22727  -0.32595  -0.06883   0.34101
   8   28097.6    355.9   0.361653454   4.23739  -0.65077   1.13713  -1.58771
   9   28578.4    349.9   0.713659065   8.22108   1.69534  -1.87469  -1.35368
  10   29163.3    342.9   0.006228384   0.07031   0.15095  -0.21763  -0.01273
  11   29962.0    333.8   0.114860502   1.26205   0.83415   0.42791   0.61898
  12   30155.6    331.6   0.015169531   0.16561   0.15880   0.35104   0.13099
  13   30373.7    329.2   0.092226151   0.99961  -0.15625  -0.27985   0.94704
  14   30445.1    328.5   0.007175729   0.07759  -0.24449   0.09457   0.09421
  15   31029.2    322.3   0.030623902   0.32491   0.11498   0.13101  -0.54270
  16   31144.2    321.1   0.003318507   0.03508   0.18554  -0.00334  -0.02534
  17   31989.3    312.6   0.062491516   0.64312   0.08986   0.75782   0.24649
  18   32009.4    312.4   0.008313240   0.08550   0.16972   0.23092   0.05804
  19   32397.8    308.7   0.112982180   1.14807   0.52597  -0.93284  -0.03532
  20   32591.4    306.8   0.100415092   1.01431  -0.46119   0.22814  -0.86577
  21   32963.2    303.4   0.021950268   0.21922  -0.17366   0.42947  -0.06798
  22   33319.6    300.1   0.334989259   3.30984   0.19359   0.68495  -1.67428
  23   33438.2    299.1   0.384562661   3.78617   1.70895  -0.65712  -0.65868
  24   34555.0    289.4   0.146115509   1.39207   0.73337  -0.58072  -0.71903
  25   34619.2    288.9   0.250060003   2.37795  -0.79485   0.82131  -1.03518
  26   35239.4    283.8   0.069678684   0.65095   0.24513  -0.66565  -0.38441
  27   35301.3    283.3   0.073928197   0.68944   0.42556   0.03439  -0.71215
  28   35778.2    279.5   0.443991169   4.08537   0.54083   0.28305  -1.92685
  29   37409.2    267.3   0.019985426   0.17588   0.31883  -0.27064  -0.03127
  30   37623.2    265.8   0.076296898   0.66762  -0.32568   0.21422  -0.71809
  31   38099.0    262.5   0.040545201   0.35035  -0.11871   0.57717   0.05602
  32   38195.6    261.8   0.004033544   0.03477  -0.05936  -0.17671   0.00403
  33   38466.6    260.0   0.163937877   1.40304  -0.03745  -1.16205   0.22645
  34   38579.3    259.2   0.033797847   0.28841   0.05718  -0.02940   0.53318
  35   39341.1    254.2   0.115061586   0.96285   0.55419  -0.29821   0.75286
  36   39448.5    253.5   0.013902646   0.11602  -0.12501   0.21661  -0.23124
  37   39868.4    250.8   0.111126258   0.91762   0.23030   0.87381   0.31787
  38   39991.1    250.1   0.041540249   0.34196  -0.33399  -0.37875   0.29490

FINAL SINGLE POINT ENERGY     -9672.648322097528

DIPOLE MOMENT
-------------
                                X             Y             Z
Electronic contribution:    164.96166    -144.78202      27.13676
Nuclear contribution   :   -167.28599     147.49530     -29.30931
                        -----------------------------------------
Total Dipole Moment    :     -2.32432       2.71327      -2.17255
                        -----------------------------------------
Magnitude (a.u.)       :      4.18143
Magnitude (Debye)      :     10.62834

Rotational constants in cm-1:     0.000724     0.000193     0.000164
Rotational constants in MHz :    21.696232     5.793222     4.902639

                             ****ORCA TERMINATED NORMALLY****
TOTAL RUN TIME: 0 days 0 hours 8 minutes 41 seconds 151 msec
