                         Program Version 4.2.0 -  RELEASE  -
|  1> # ORCA input file
|  2> # SCF done       -204.459501905638          0.000593655985
|  3> ! CAM-B3LYP def2-SVP def2/J RIJCOSX Grid4 TightSCF
|  4> %maxcore 5000
|  5> %tddft
|  6>     Mode sTDDFT
|  7>     Ethresh 5.0
|  8>     maxcore 5000
|  9> end
| 10>
| 11> %pal
| 12>   nprocs 6
| 13>   end
| 14> * xyz 0 1
| 15>    C      -14.79075         7.39317        -4.41085
| 16>    C      -16.02583         6.79924        -4.43089
| 17>    C      -17.17210         7.36765        -5.02192
| 18>    N      -18.13637         7.76913        -5.49769
| 19>    C      -16.29117         5.52126        -3.89982
| 20>    N      -16.54663         4.47733        -3.49555
| 21>    C      -14.44963         8.68330        -5.00062
| 22>    C      -13.05602         8.90769        -4.84386
| 23>    C      -12.42700        10.02958        -5.32754
| 24>    C      -13.20214        10.96526        -6.02101
| 25>    C      -14.59373        10.73657        -6.16907
| 26>    C      -15.23226         9.61181        -5.65829
| 27>    S      -15.35445        11.99320        -7.08499
| 28>    C      -13.82097        12.78905        -7.27514
| 29>    C      -12.78531        12.15923        -6.66694
| 30>   Br      -13.71053        14.36140        -8.27643
| 31>    C      -12.46722         7.75713        -4.15985
| 32>    O      -11.28219         7.56782        -3.89184
| 33>    C      -13.57171         6.83402        -3.87454
| 34>    C      -13.35536         5.62997        -3.24963
| 35>    N      -12.10541         5.27985        -2.92260
| 36>    C      -11.66544         4.11761        -2.38736
| 37>    S      -12.73928         2.90963        -1.77091
| 38>    C      -11.36666         1.92427        -1.37896
| 39>    N      -11.60238         0.68095        -0.77266
| 40>    O      -10.63555        -0.00592        -0.50436
| 41>    O      -12.76393         0.38752        -0.55793
| 42>    C      -10.16542         2.48676        -1.71263
| 43>    C      -10.30851         3.75912        -2.30085
| 44>    C       -9.25737         4.59071        -2.80246
| 45>    C       -7.96485         4.22054        -2.97067
| 46>    C       -6.99456         5.07125        -3.56069
| 47>    S       -5.70132         4.36820        -4.47776
| 48>    C       -5.25035         5.89200        -5.18032
| 49>    C       -5.97039         6.94038        -4.56775
| 50>    C       -6.96351         6.47604        -3.65496
| 51>    C       -7.72275         7.40874        -2.92358
| 52>    C       -7.50023         8.74280        -3.11887
| 53>    F       -8.20657         9.64106        -2.41835
| 54>    C       -6.49855         9.19821        -4.00123
| 55>    F       -6.27381        10.51388        -4.10766
| 56>    C       -5.72882         8.31712        -4.70767
| 57>    C       -4.42701         5.97071        -6.31781
| 58>    C       -4.67907         6.92343        -7.27431
| 59>    C       -3.97181         7.19072        -8.44604
| 60>    C       -4.50181         8.04431        -9.39786
| 61>    C       -3.89603         8.63516       -10.52514
| 62>    C       -4.69974         9.51999       -11.19418
| 63>    C       -5.99604         9.62299       -10.65517
| 64>    S       -6.16516         8.58967        -9.26588
| 65>    C       -7.07151        10.42372       -11.02394
| 66>    C       -7.12042        11.59159       -11.80111
| 67>    C       -8.32636        12.23456       -11.73312
| 68>    C       -9.29261        11.59746       -10.91915
| 69>    S       -8.63238        10.11549       -10.29581
| 70>    C      -10.58486        12.06788       -10.71863
| 71>    C      -11.66055        11.53904       -10.01941
| 72>    C      -11.81308        10.47325        -9.14119
| 73>    C      -13.16312         9.88630        -9.00087
| 74>    O      -14.21340        10.37162        -9.37074
| 75>    C      -12.97176         8.60117        -8.29415
| 76>    C      -13.87947         7.62724        -8.00468
| 77>    C      -13.44843         6.47030        -7.31202
| 78>    C      -12.07835         6.35196        -6.94183
| 79>    C      -11.65852         5.20417        -6.24349
| 80>    C      -12.57442         4.24070        -5.92441
| 81>    C      -13.92454         4.33425        -6.28022
| 82>    C      -14.34503         5.43801        -6.97213
| 83>    F      -12.17125         3.16066        -5.21784
| 84>    C      -11.16084         7.38538        -7.25049
| 85>    C      -11.60648         8.49809        -7.90511
| 86>    C      -10.93009         9.73433        -8.30099
| 87>    C       -9.75724        10.20241        -7.73705
| 88>    C       -9.37136        11.55024        -7.85530
| 89>    N       -9.08607        12.66128        -7.91550
| 90>    C       -8.93202         9.42029        -6.91598
| 91>    N       -8.22202         8.79227        -6.26496
| 92>    H      -11.36768        10.17541        -5.18187
| 93>    H      -16.29284         9.48372        -5.79691
| 94>    H      -11.77191        12.51950        -6.68562
| 95>    H      -14.14999         4.93275        -3.01830
| 96>    H      -11.40812         6.00258        -3.19186
| 97>    H       -9.23009         1.99171        -1.52795
| 98>    H       -9.54170         5.57506        -3.14271
| 99>    H       -7.65363         3.20720        -2.76009
|100>    H       -8.44146         7.10112        -2.18324
|101>    H       -4.93619         8.68737        -5.33605
|102>    H       -3.68181         5.20441        -6.48038
|103>    H       -5.57583         7.51423        -7.12984
|104>    H       -2.99232         6.76414        -8.61071
|105>    H       -2.87656         8.42200       -10.79510
|106>    H       -4.39646        10.08133       -12.05978
|107>    H       -6.26385        11.95967       -12.33672
|108>    H       -8.54091        13.16648       -12.22501
|109>    H      -10.80506        12.96974       -11.27755
|110>    H      -12.61675        11.98815       -10.27735
|111>    H      -14.91444         7.73148        -8.29505
|112>    H      -10.62443         5.09555        -5.95433
|113>    H      -14.60246         3.54280        -6.00320
|114>    H      -15.37998         5.53195        -7.26657
|115>    H      -10.13120         7.26869        -6.95311
|116> *
|117>
|118>                          ****END OF INPUT****

CARTESIAN COORDINATES (ANGSTROEM)
---------------------------------
  C    -14.790750    7.393170   -4.410850
  C    -16.025830    6.799240   -4.430890
  C    -17.172100    7.367650   -5.021920
  N    -18.136370    7.769130   -5.497690
  C    -16.291170    5.521260   -3.899820
  N    -16.546630    4.477330   -3.495550
  C    -14.449630    8.683300   -5.000620
  C    -13.056020    8.907690   -4.843860
  C    -12.427000   10.029580   -5.327540
  C    -13.202140   10.965260   -6.021010
  C    -14.593730   10.736570   -6.169070
  C    -15.232260    9.611810   -5.658290
  S    -15.354450   11.993200   -7.084990
  C    -13.820970   12.789050   -7.275140
  C    -12.785310   12.159230   -6.666940
  Br   -13.710530   14.361400   -8.276430
  C    -12.467220    7.757130   -4.159850
  O    -11.282190    7.567820   -3.891840
  C    -13.571710    6.834020   -3.874540
  C    -13.355360    5.629970   -3.249630
  N    -12.105410    5.279850   -2.922600
  C    -11.665440    4.117610   -2.387360
  S    -12.739280    2.909630   -1.770910
  C    -11.366660    1.924270   -1.378960
  N    -11.602380    0.680950   -0.772660
  O    -10.635550   -0.005920   -0.504360
  O    -12.763930    0.387520   -0.557930
  C    -10.165420    2.486760   -1.712630
  C    -10.308510    3.759120   -2.300850
  C     -9.257370    4.590710   -2.802460
  C     -7.964850    4.220540   -2.970670
  C     -6.994560    5.071250   -3.560690
  S     -5.701320    4.368200   -4.477760
  C     -5.250350    5.892000   -5.180320
  C     -5.970390    6.940380   -4.567750
  C     -6.963510    6.476040   -3.654960
  C     -7.722750    7.408740   -2.923580
  C     -7.500230    8.742800   -3.118870
  F     -8.206570    9.641060   -2.418350
  C     -6.498550    9.198210   -4.001230
  F     -6.273810   10.513880   -4.107660
  C     -5.728820    8.317120   -4.707670
  C     -4.427010    5.970710   -6.317810
  C     -4.679070    6.923430   -7.274310
  C     -3.971810    7.190720   -8.446040
  C     -4.501810    8.044310   -9.397860
  C     -3.896030    8.635160  -10.525140
  C     -4.699740    9.519990  -11.194180
  C     -5.996040    9.622990  -10.655170
  S     -6.165160    8.589670   -9.265880
  C     -7.071510   10.423720  -11.023940
  C     -7.120420   11.591590  -11.801110
  C     -8.326360   12.234560  -11.733120
  C     -9.292610   11.597460  -10.919150
  S     -8.632380   10.115490  -10.295810
  C    -10.584860   12.067880  -10.718630
  C    -11.660550   11.539040  -10.019410
  C    -11.813080   10.473250   -9.141190
  C    -13.163120    9.886300   -9.000870
  O    -14.213400   10.371620   -9.370740
  C    -12.971760    8.601170   -8.294150
  C    -13.879470    7.627240   -8.004680
  C    -13.448430    6.470300   -7.312020
  C    -12.078350    6.351960   -6.941830
  C    -11.658520    5.204170   -6.243490
  C    -12.574420    4.240700   -5.924410
  C    -13.924540    4.334250   -6.280220
  C    -14.345030    5.438010   -6.972130
  F    -12.171250    3.160660   -5.217840
  C    -11.160840    7.385380   -7.250490
  C    -11.606480    8.498090   -7.905110
  C    -10.930090    9.734330   -8.300990
  C     -9.757240   10.202410   -7.737050
  C     -9.371360   11.550240   -7.855300
  N     -9.086070   12.661280   -7.915500
  C     -8.932020    9.420290   -6.915980
  N     -8.222020    8.792270   -6.264960
  H    -11.367680   10.175410   -5.181870
  H    -16.292840    9.483720   -5.796910
  H    -11.771910   12.519500   -6.685620
  H    -14.149990    4.932750   -3.018300
  H    -11.408120    6.002580   -3.191860
  H     -9.230090    1.991710   -1.527950
  H     -9.541700    5.575060   -3.142710
  H     -7.653630    3.207200   -2.760090
  H     -8.441460    7.101120   -2.183240
  H     -4.936190    8.687370   -5.336050
  H     -3.681810    5.204410   -6.480380
  H     -5.575830    7.514230   -7.129840
  H     -2.992320    6.764140   -8.610710
  H     -2.876560    8.422000  -10.795100
  H     -4.396460   10.081330  -12.059780
  H     -6.263850   11.959670  -12.336720
  H     -8.540910   13.166480  -12.225010
  H    -10.805060   12.969740  -11.277550
  H    -12.616750   11.988150  -10.277350
  H    -14.914440    7.731480   -8.295050
  H    -10.624430    5.095550   -5.954330
  H    -14.602460    3.542800   -6.003200
  H    -15.379980    5.531950   -7.266570
  H    -10.131200    7.268690   -6.953110

 Total Charge           Charge          ....    0
 Multiplicity           Mult            ....    1
 Number of Electrons    NEL             ....  588
 Basis Dimension        Dim             .... 1236

ORBITAL ENERGIES
----------------

  NO   OCC          E(Eh)            E(eV)
   0   2.0000    -482.876919    -13139.7490
   1   2.0000     -88.992886     -2421.6195
   2   2.0000     -88.984876     -2421.4016
   3   2.0000     -88.968057     -2420.9439
   4   2.0000     -88.966698     -2420.9069
   5   2.0000     -88.966287     -2420.8957
   6   2.0000     -62.554471     -1702.1937
   7   2.0000     -56.388405     -1534.4065
   8   2.0000     -56.385732     -1534.3338
   9   2.0000     -56.385688     -1534.3326
  10   2.0000     -24.790698      -674.5892
  11   2.0000     -24.788247      -674.5225
  12   2.0000     -24.787778      -674.5097
  13   2.0000     -19.241895      -523.5986
  14   2.0000     -19.240835      -523.5697
  15   2.0000     -19.233846      -523.3795
  16   2.0000     -19.201803      -522.5076
  17   2.0000     -14.653239      -398.7349
  18   2.0000     -14.495028      -394.4298
  19   2.0000     -14.421758      -392.4360
  20   2.0000     -14.415907      -392.2768
  21   2.0000     -14.409526      -392.1031
  22   2.0000     -14.399142      -391.8206
  23   2.0000     -10.379431      -282.4387
  24   2.0000     -10.376672      -282.3636
  25   2.0000     -10.370342      -282.1913
  26   2.0000     -10.370158      -282.1863
  27   2.0000     -10.369768      -282.1757
  28   2.0000     -10.367316      -282.1090
  29   2.0000     -10.350696      -281.6568
  30   2.0000     -10.350406      -281.6489
  31   2.0000     -10.348358      -281.5931
  32   2.0000     -10.345844      -281.5247
  33   2.0000     -10.342479      -281.4332
  34   2.0000     -10.341975      -281.4195
  35   2.0000     -10.331931      -281.1461
  36   2.0000     -10.325311      -280.9660
  37   2.0000     -10.325020      -280.9581
  38   2.0000     -10.324449      -280.9425
  39   2.0000     -10.324437      -280.9422
  40   2.0000     -10.321786      -280.8701
  41   2.0000     -10.319812      -280.8164
  42   2.0000     -10.319746      -280.8146
  43   2.0000     -10.319051      -280.7956
  44   2.0000     -10.316948      -280.7384
  45   2.0000     -10.316928      -280.7379
  46   2.0000     -10.316635      -280.7299
  47   2.0000     -10.316528      -280.7270
  48   2.0000     -10.315920      -280.7105
  49   2.0000     -10.313950      -280.6569
  50   2.0000     -10.310931      -280.5747
  51   2.0000     -10.308150      -280.4990
  52   2.0000     -10.307423      -280.4792
  53   2.0000     -10.306844      -280.4635
  54   2.0000     -10.305310      -280.4217
  55   2.0000     -10.304658      -280.4040
  56   2.0000     -10.304311      -280.3946
  57   2.0000     -10.303267      -280.3662
  58   2.0000     -10.302482      -280.3448
  59   2.0000     -10.302088      -280.3341
  60   2.0000     -10.300410      -280.2884
  61   2.0000     -10.300355      -280.2869
  62   2.0000     -10.299189      -280.2552
  63   2.0000     -10.299049      -280.2514
  64   2.0000     -10.295709      -280.1605
  65   2.0000     -10.295132      -280.1448
  66   2.0000     -10.294841      -280.1369
  67   2.0000     -10.294141      -280.1178
  68   2.0000     -10.294085      -280.1163
  69   2.0000     -10.292730      -280.0794
  70   2.0000     -10.292131      -280.0631
  71   2.0000     -10.291515      -280.0464
  72   2.0000     -10.289929      -280.0032
  73   2.0000     -10.289626      -279.9950
  74   2.0000     -10.286974      -279.9228
  75   2.0000     -10.286827      -279.9188
  76   2.0000     -10.286059      -279.8979
  77   2.0000     -10.285823      -279.8915
  78   2.0000     -10.282143      -279.7913
  79   2.0000     -10.279797      -279.7275
  80   2.0000     -10.277047      -279.6527
  81   2.0000      -8.783867      -239.0212
  82   2.0000      -8.088282      -220.0934
  83   2.0000      -8.080389      -219.8786
  84   2.0000      -8.064146      -219.4366
  85   2.0000      -8.062040      -219.3793
  86   2.0000      -8.061543      -219.3657
  87   2.0000      -6.620077      -180.1414
  88   2.0000      -6.605743      -179.7514
  89   2.0000      -6.605366      -179.7412
  90   2.0000      -6.057877      -164.8432
  91   2.0000      -6.053535      -164.7251
  92   2.0000      -6.049775      -164.6228
  93   2.0000      -6.049344      -164.6110
  94   2.0000      -6.045387      -164.5034
  95   2.0000      -6.043016      -164.4388
  96   2.0000      -6.033701      -164.1854
  97   2.0000      -6.031704      -164.1310
  98   2.0000      -6.030874      -164.1084
  99   2.0000      -6.029553      -164.0725
 100   2.0000      -6.027425      -164.0146
 101   2.0000      -6.026707      -163.9950
 102   2.0000      -6.025437      -163.9605
 103   2.0000      -6.023495      -163.9076
 104   2.0000      -6.023304      -163.9024
 105   2.0000      -2.735987       -74.4500
 106   2.0000      -2.731992       -74.3413
 107   2.0000      -2.731716       -74.3338
 108   2.0000      -2.720317       -74.0236
 109   2.0000      -2.720294       -74.0230
 110   2.0000      -1.323430       -36.0124
 111   2.0000      -1.310722       -35.6666
 112   2.0000      -1.302632       -35.4464
 113   2.0000      -1.295738       -35.2588
 114   2.0000      -1.148798       -31.2604
 115   2.0000      -1.142639       -31.0928
 116   2.0000      -1.115452       -30.3530
 117   2.0000      -1.104540       -30.0561
 118   2.0000      -1.023867       -27.8608
 119   2.0000      -1.018344       -27.7106
 120   2.0000      -1.016563       -27.6621
 121   2.0000      -1.013582       -27.5810
 122   2.0000      -1.012265       -27.5451
 123   2.0000      -1.008156       -27.4333
 124   2.0000      -0.997929       -27.1550
 125   2.0000      -0.993515       -27.0349
 126   2.0000      -0.991427       -26.9781
 127   2.0000      -0.988778       -26.9060
 128   2.0000      -0.982809       -26.7436
 129   2.0000      -0.967216       -26.3193
 130   2.0000      -0.951028       -25.8788
 131   2.0000      -0.943612       -25.6770
 132   2.0000      -0.939673       -25.5698
 133   2.0000      -0.927625       -25.2420
 134   2.0000      -0.919893       -25.0316
 135   2.0000      -0.911409       -24.8007
 136   2.0000      -0.906741       -24.6737
 137   2.0000      -0.901470       -24.5302
 138   2.0000      -0.892102       -24.2753
 139   2.0000      -0.884942       -24.0805
 140   2.0000      -0.882411       -24.0116
 141   2.0000      -0.879912       -23.9436
 142   2.0000      -0.877091       -23.8669
 143   2.0000      -0.869463       -23.6593
 144   2.0000      -0.860185       -23.4068
 145   2.0000      -0.854397       -23.2493
 146   2.0000      -0.850130       -23.1332
 147   2.0000      -0.844636       -22.9837
 148   2.0000      -0.842779       -22.9332
 149   2.0000      -0.835352       -22.7311
 150   2.0000      -0.828477       -22.5440
 151   2.0000      -0.824659       -22.4401
 152   2.0000      -0.816298       -22.2126
 153   2.0000      -0.801348       -21.8058
 154   2.0000      -0.792227       -21.5576
 155   2.0000      -0.775778       -21.1100
 156   2.0000      -0.763622       -20.7792
 157   2.0000      -0.756556       -20.5869
 158   2.0000      -0.750009       -20.4088
 159   2.0000      -0.742532       -20.2053
 160   2.0000      -0.741530       -20.1781
 161   2.0000      -0.736718       -20.0471
 162   2.0000      -0.721417       -19.6308
 163   2.0000      -0.719785       -19.5863
 164   2.0000      -0.708907       -19.2903
 165   2.0000      -0.702578       -19.1181
 166   2.0000      -0.701611       -19.0918
 167   2.0000      -0.693260       -18.8646
 168   2.0000      -0.690710       -18.7952
 169   2.0000      -0.680203       -18.5093
 170   2.0000      -0.676590       -18.4109
 171   2.0000      -0.674655       -18.3583
 172   2.0000      -0.670947       -18.2574
 173   2.0000      -0.658998       -17.9322
 174   2.0000      -0.658351       -17.9146
 175   2.0000      -0.653915       -17.7939
 176   2.0000      -0.650871       -17.7111
 177   2.0000      -0.639606       -17.4046
 178   2.0000      -0.638990       -17.3878
 179   2.0000      -0.637696       -17.3526
 180   2.0000      -0.634632       -17.2692
 181   2.0000      -0.632039       -17.1987
 182   2.0000      -0.628223       -17.0948
 183   2.0000      -0.626569       -17.0498
 184   2.0000      -0.622074       -16.9275
 185   2.0000      -0.618894       -16.8409
 186   2.0000      -0.617582       -16.8053
 187   2.0000      -0.612096       -16.6560
 188   2.0000      -0.608294       -16.5525
 189   2.0000      -0.603296       -16.4165
 190   2.0000      -0.600316       -16.3354
 191   2.0000      -0.593176       -16.1412
 192   2.0000      -0.585802       -15.9405
 193   2.0000      -0.583830       -15.8868
 194   2.0000      -0.579811       -15.7775
 195   2.0000      -0.578916       -15.7531
 196   2.0000      -0.577532       -15.7154
 197   2.0000      -0.573725       -15.6119
 198   2.0000      -0.569277       -15.4908
 199   2.0000      -0.565057       -15.3760
 200   2.0000      -0.559363       -15.2210
 201   2.0000      -0.557970       -15.1831
 202   2.0000      -0.554603       -15.0915
 203   2.0000      -0.553571       -15.0634
 204   2.0000      -0.550630       -14.9834
 205   2.0000      -0.547149       -14.8887
 206   2.0000      -0.546195       -14.8627
 207   2.0000      -0.542686       -14.7672
 208   2.0000      -0.541140       -14.7252
 209   2.0000      -0.537930       -14.6378
 210   2.0000      -0.537124       -14.6159
 211   2.0000      -0.535745       -14.5784
 212   2.0000      -0.531737       -14.4693
 213   2.0000      -0.528509       -14.3815
 214   2.0000      -0.523651       -14.2493
 215   2.0000      -0.523113       -14.2346
 216   2.0000      -0.519973       -14.1492
 217   2.0000      -0.518607       -14.1120
 218   2.0000      -0.517139       -14.0721
 219   2.0000      -0.515083       -14.0161
 220   2.0000      -0.514233       -13.9930
 221   2.0000      -0.511050       -13.9064
 222   2.0000      -0.509051       -13.8520
 223   2.0000      -0.505178       -13.7466
 224   2.0000      -0.502114       -13.6632
 225   2.0000      -0.501395       -13.6436
 226   2.0000      -0.497287       -13.5319
 227   2.0000      -0.494561       -13.4577
 228   2.0000      -0.492046       -13.3893
 229   2.0000      -0.491198       -13.3662
 230   2.0000      -0.490523       -13.3478
 231   2.0000      -0.486807       -13.2467
 232   2.0000      -0.484033       -13.1712
 233   2.0000      -0.480052       -13.0629
 234   2.0000      -0.475208       -12.9311
 235   2.0000      -0.474847       -12.9212
 236   2.0000      -0.472969       -12.8701
 237   2.0000      -0.472618       -12.8606
 238   2.0000      -0.467913       -12.7326
 239   2.0000      -0.467175       -12.7125
 240   2.0000      -0.464863       -12.6496
 241   2.0000      -0.459183       -12.4950
 242   2.0000      -0.457013       -12.4360
 243   2.0000      -0.454461       -12.3665
 244   2.0000      -0.453403       -12.3377
 245   2.0000      -0.452222       -12.3056
 246   2.0000      -0.450636       -12.2624
 247   2.0000      -0.448548       -12.2056
 248   2.0000      -0.448142       -12.1946
 249   2.0000      -0.445943       -12.1347
 250   2.0000      -0.442272       -12.0348
 251   2.0000      -0.438519       -11.9327
 252   2.0000      -0.437741       -11.9115
 253   2.0000      -0.435412       -11.8482
 254   2.0000      -0.434011       -11.8100
 255   2.0000      -0.432472       -11.7682
 256   2.0000      -0.431129       -11.7316
 257   2.0000      -0.429819       -11.6960
 258   2.0000      -0.428334       -11.6556
 259   2.0000      -0.427096       -11.6219
 260   2.0000      -0.423851       -11.5336
 261   2.0000      -0.422282       -11.4909
 262   2.0000      -0.414212       -11.2713
 263   2.0000      -0.412500       -11.2247
 264   2.0000      -0.410882       -11.1807
 265   2.0000      -0.409098       -11.1321
 266   2.0000      -0.404959       -11.0195
 267   2.0000      -0.403070       -10.9681
 268   2.0000      -0.391956       -10.6657
 269   2.0000      -0.388762       -10.5788
 270   2.0000      -0.384611       -10.4658
 271   2.0000      -0.380756       -10.3609
 272   2.0000      -0.376999       -10.2587
 273   2.0000      -0.373176       -10.1546
 274   2.0000      -0.370382       -10.0786
 275   2.0000      -0.368102       -10.0166
 276   2.0000      -0.365371        -9.9423
 277   2.0000      -0.360332        -9.8051
 278   2.0000      -0.355792        -9.6816
 279   2.0000      -0.352437        -9.5903
 280   2.0000      -0.344903        -9.3853
 281   2.0000      -0.342597        -9.3225
 282   2.0000      -0.335399        -9.1267
 283   2.0000      -0.331106        -9.0099
 284   2.0000      -0.324895        -8.8409
 285   2.0000      -0.318827        -8.6757
 286   2.0000      -0.315474        -8.5845
 287   2.0000      -0.309291        -8.4162
 288   2.0000      -0.298730        -8.1289
 289   2.0000      -0.292938        -7.9713
 290   2.0000      -0.285232        -7.7616
 291   2.0000      -0.280342        -7.6285
 292   2.0000      -0.256638        -6.9835
 293   2.0000      -0.223456        -6.0806
 294   0.0000      -0.121175        -3.2973
 295   0.0000      -0.087658        -2.3853
 296   0.0000      -0.072536        -1.9738
 297   0.0000      -0.067391        -1.8338
 298   0.0000      -0.052338        -1.4242

MULLIKEN ATOMIC CHARGES
-----------------------
   0 C :    0.343370
   1 C :   -0.363639
   2 C :   -0.198910
   3 N :    0.163983
   4 C :   -0.207747
   5 N :    0.151780
   6 C :    0.023544
   7 C :   -0.013020
   8 C :   -0.041804
   9 C :    0.075393
  10 C :   -0.080073
  11 C :   -0.040780
  12 S :    0.217856
  13 C :   -0.139388
  14 C :    0.067082
  15 Br:    0.026721
  16 C :    0.186206
  17 O :   -0.231629
  18 C :   -0.130497
  19 C :    0.023021
  20 N :   -0.015879
  21 C :   -0.108792
  22 S :    0.189363
  23 C :    0.006153
  24 N :    0.274059
  25 O :   -0.247804
  26 O :   -0.255387
  27 C :    0.000924
  28 C :    0.135178
  29 C :   -0.055688
  30 C :    0.044371
  31 C :   -0.140468
  32 S :    0.176981
  33 C :   -0.147817
  34 C :    0.131404
  35 C :    0.122534
  36 C :   -0.098914
  37 C :    0.236532
  38 F :   -0.174985
  39 C :    0.251219
  40 F :   -0.171574
  41 C :   -0.098439
  42 C :    0.058757
  43 C :   -0.071202
  44 C :    0.048526
  45 C :   -0.055618
  46 C :    0.059741
  47 C :    0.022832
  48 C :   -0.014977
  49 S :    0.102219
  50 C :   -0.070619
  51 C :    0.051701
  52 C :    0.027453
  53 C :   -0.015700
  54 S :    0.115638
  55 C :   -0.002113
  56 C :    0.016441
  57 C :   -0.122188
  58 C :    0.124273
  59 O :   -0.162090
  60 C :    0.021394
  61 C :   -0.079120
  62 C :    0.066802
  63 C :    0.117651
  64 C :   -0.130514
  65 C :    0.313592
  66 C :   -0.054357
  67 C :    0.005762
  68 F :   -0.201627
  69 C :   -0.116893
  70 C :    0.076574
  71 C :    0.250182
  72 C :   -0.413981
  73 C :   -0.202508
  74 N :    0.151900
  75 C :   -0.147755
  76 N :    0.124235
  77 H :   -0.003150
  78 H :   -0.008704
  79 H :    0.003211
  80 H :    0.041383
  81 H :    0.192817
  82 H :    0.012621
  83 H :    0.006739
  84 H :   -0.009942
  85 H :   -0.010562
  86 H :   -0.002871
  87 H :    0.001334
  88 H :    0.055719
  89 H :   -0.000485
  90 H :   -0.000613
  91 H :   -0.004324
  92 H :   -0.010218
  93 H :   -0.008493
  94 H :   -0.008044
  95 H :    0.019214
  96 H :   -0.015509
  97 H :   -0.016288
  98 H :    0.009390
  99 H :   -0.003816
 100 H :   -0.018262
Sum of atomic charges:   -0.0000000

LOEWDIN ATOMIC CHARGES
----------------------
   0 C :    0.083883
   1 C :   -0.152182
   2 C :   -0.023432
   3 N :   -0.053214
   4 C :   -0.018614
   5 N :   -0.059429
   6 C :   -0.020001
   7 C :   -0.053884
   8 C :    0.032918
   9 C :   -0.038209
  10 C :   -0.142236
  11 C :   -0.007577
  12 S :    0.463765
  13 C :   -0.271305
  14 C :   -0.066246
  15 Br:    0.145605
  16 C :    0.102373
  17 O :   -0.176981
  18 C :   -0.138884
  19 C :    0.112591
  20 N :    0.079268
  21 C :   -0.106121
  22 S :    0.480667
  23 C :   -0.199017
  24 N :    0.273057
  25 O :   -0.213840
  26 O :   -0.221456
  27 C :    0.003149
  28 C :   -0.090307
  29 C :   -0.017844
  30 C :   -0.040703
  31 C :   -0.155241
  32 S :    0.480143
  33 C :   -0.189215
  34 C :   -0.023904
  35 C :   -0.042568
  36 C :   -0.034386
  37 C :    0.073032
  38 F :   -0.051183
  39 C :    0.077555
  40 F :   -0.046717
  41 C :   -0.032539
  42 C :   -0.000597
  43 C :   -0.057976
  44 C :   -0.003562
  45 C :   -0.165987
  46 C :   -0.003662
  47 C :   -0.048720
  48 C :   -0.132445
  49 S :    0.425075
  50 C :   -0.209738
  51 C :   -0.018734
  52 C :   -0.046040
  53 C :   -0.115461
  54 S :    0.483724
  55 C :   -0.071419
  56 C :    0.029245
  57 C :   -0.113062
  58 C :    0.078212
  59 O :   -0.160716
  60 C :   -0.054238
  61 C :    0.029179
  62 C :   -0.029262
  63 C :   -0.002075
  64 C :   -0.053919
  65 C :    0.081197
  66 C :   -0.049003
  67 C :    0.005514
  68 F :   -0.072118
  69 C :   -0.006995
  70 C :   -0.006024
  71 C :    0.031894
  72 C :   -0.196593
  73 C :   -0.041556
  74 N :   -0.072919
  75 C :   -0.008510
  76 N :   -0.088714
  77 H :    0.042780
  78 H :    0.040519
  79 H :    0.041470
  80 H :    0.035614
  81 H :    0.079023
  82 H :    0.044879
  83 H :    0.032271
  84 H :    0.030785
  85 H :    0.039990
  86 H :    0.041950
  87 H :    0.034091
  88 H :    0.029113
  89 H :    0.038287
  90 H :    0.038357
  91 H :    0.035562
  92 H :    0.034325
  93 H :    0.034894
  94 H :    0.039664
  95 H :    0.041541
  96 H :    0.037767
  97 H :    0.037367
  98 H :    0.043437
  99 H :    0.036925
 100 H :    0.034627

  Mayer bond orders larger than 0.100000
B(  0-C ,  1-C ) :   1.6206 B(  0-C ,  6-C ) :   1.0106 B(  0-C , 18-C ) :   1.0895
B(  1-C ,  2-C ) :   1.1457 B(  1-C ,  4-C ) :   1.1603 B(  2-C ,  3-N ) :   2.9755
B(  4-C ,  5-N ) :   2.9442 B(  6-C ,  7-C ) :   1.2683 B(  6-C , 11-C ) :   1.4044
B(  7-C ,  8-C ) :   1.4136 B(  7-C , 16-C ) :   0.9948 B(  8-C ,  9-C ) :   1.2435
B(  8-C , 77-H ) :   1.0192 B(  9-C , 10-C ) :   1.2930 B(  9-C , 14-C ) :   1.1808
B( 10-C , 11-C ) :   1.3110 B( 10-C , 12-S ) :   1.1139 B( 11-C , 78-H ) :   0.9864
B( 12-S , 13-C ) :   1.0996 B( 13-C , 14-C ) :   1.6004 B( 13-C , 15-Br) :   1.0254
B( 14-C , 79-H ) :   0.9923 B( 16-C , 17-O ) :   1.9828 B( 16-C , 18-C ) :   1.0089
B( 17-O , 81-H ) :   0.1515 B( 18-C , 19-C ) :   1.4617 B( 19-C , 20-N ) :   1.3247
B( 19-C , 80-H ) :   0.9350 B( 20-N , 21-C ) :   1.2073 B( 20-N , 81-H ) :   0.8099
B( 21-C , 22-S ) :   1.1419 B( 21-C , 28-C ) :   1.3586 B( 22-S , 23-C ) :   1.0836
B( 23-C , 24-N ) :   0.9626 B( 23-C , 27-C ) :   1.5056 B( 24-N , 25-O ) :   1.5362
B( 24-N , 26-O ) :   1.5188 B( 25-O , 26-O ) :   0.2619 B( 27-C , 28-C ) :   1.2147
B( 27-C , 82-H ) :   0.9986 B( 28-C , 29-C ) :   1.1017 B( 29-C , 30-C ) :   1.6910
B( 29-C , 83-H ) :   0.9606 B( 30-C , 31-C ) :   1.1364 B( 30-C , 84-H ) :   0.9564
B( 31-C , 32-S ) :   1.1781 B( 31-C , 35-C ) :   1.3042 B( 32-S , 33-C ) :   1.1102
B( 33-C , 34-C ) :   1.2813 B( 33-C , 42-C ) :   1.2093 B( 34-C , 35-C ) :   1.2449
B( 34-C , 41-C ) :   1.1945 B( 35-C , 36-C ) :   1.1716 B( 36-C , 37-C ) :   1.4969
B( 36-C , 41-C ) :   0.1044 B( 36-C , 85-H ) :   0.9907 B( 37-C , 38-F ) :   1.1298
B( 37-C , 39-C ) :   1.1705 B( 39-C , 40-F ) :   1.1339 B( 39-C , 41-C ) :   1.4782
B( 41-C , 86-H ) :   0.9981 B( 42-C , 43-C ) :   1.5350 B( 42-C , 87-H ) :   0.9683
B( 43-C , 44-C ) :   1.2402 B( 43-C , 88-H ) :   0.9596 B( 44-C , 45-C ) :   1.4775
B( 44-C , 89-H ) :   0.9851 B( 45-C , 46-C ) :   1.1967 B( 45-C , 49-S ) :   1.0422
B( 46-C , 47-C ) :   1.5215 B( 46-C , 90-H ) :   0.9978 B( 47-C , 48-C ) :   1.2372
B( 47-C , 91-H ) :   0.9994 B( 48-C , 49-S ) :   1.1167 B( 48-C , 50-C ) :   1.3764
B( 50-C , 51-C ) :   1.2547 B( 50-C , 54-S ) :   1.0500 B( 51-C , 52-C ) :   1.5094
B( 51-C , 92-H ) :   0.9933 B( 52-C , 53-C ) :   1.2216 B( 52-C , 93-H ) :   0.9984
B( 53-C , 54-S ) :   1.1192 B( 53-C , 55-C ) :   1.3768 B( 55-C , 56-C ) :   1.4079
B( 55-C , 94-H ) :   0.9547 B( 56-C , 57-C ) :   1.3902 B( 56-C , 95-H ) :   0.9267
B( 57-C , 58-C ) :   0.9775 B( 57-C , 71-C ) :   1.1758 B( 58-C , 59-O ) :   2.2090
B( 58-C , 60-C ) :   0.9088 B( 60-C , 61-C ) :   1.4920 B( 60-C , 70-C ) :   1.2153
B( 61-C , 62-C ) :   1.1581 B( 61-C , 96-H ) :   1.0179 B( 62-C , 63-C ) :   1.2808
B( 62-C , 67-C ) :   1.2441 B( 63-C , 64-C ) :   1.1969 B( 63-C , 69-C ) :   1.1673
B( 64-C , 65-C ) :   1.4227 B( 64-C , 97-H ) :   1.0120 B( 65-C , 66-C ) :   1.2538
B( 65-C , 68-F ) :   1.0509 B( 66-C , 67-C ) :   1.4413 B( 66-C , 98-H ) :   0.9977
B( 67-C , 99-H ) :   0.9924 B( 69-C , 70-C ) :   1.4732 B( 69-C ,100-H ) :   1.0010
B( 70-C , 71-C ) :   0.9871 B( 71-C , 72-C ) :   1.4943 B( 72-C , 73-C ) :   1.1676
B( 72-C , 75-C ) :   1.1721 B( 73-C , 74-N ) :   2.9676 B( 75-C , 76-N ) :   2.9040

-----------------------------------------------------------------------------
         ABSORPTION SPECTRUM VIA TRANSITION ELECTRIC DIPOLE MOMENTS
-----------------------------------------------------------------------------
State   Energy  Wavelength   fosc         T2         TX        TY        TZ
        (cm-1)    (nm)                  (au**2)     (au)      (au)      (au)
-----------------------------------------------------------------------------
   0    7223.2   1384.4   0.198009001   9.02462  -1.23260   1.69236  -2.15435
   1   15435.9    647.8   0.341731700   7.28832  -2.13220  -0.21014   1.64253
   2   16920.7    591.0   0.255344372   4.96801   1.97677  -0.93131   0.43941
   3   18301.0    546.4   0.275149456   4.94960  -1.85174  -0.08381   1.23030
   4   19775.2    505.7   0.666955764  11.10329   2.46136   1.00191  -2.01026
   5   20496.8    487.9   0.019631620   0.31532   0.33715   0.17678  -0.41279
   6   21512.8    464.8   0.016731941   0.25605  -0.45878   0.04108   0.20949
   7   21889.6    456.8   0.580269780   8.72705   1.19920  -1.70896   2.09008
   8   22939.7    435.9   0.149199141   2.14118  -0.37805  -1.02024   0.97846
   9   23228.9    430.5   0.052244467   0.74044   0.60201  -0.16289  -0.59286
  10   24037.4    416.0   0.003520645   0.04822  -0.07738  -0.18656   0.08618
  11   24371.6    410.3   0.002742275   0.03704   0.01041  -0.01623   0.19150
  12   24931.8    401.1   0.120452828   1.59052  -1.08924   0.27568  -0.57278
  13   25524.5    391.8   0.016693822   0.21531  -0.08183   0.38727  -0.24216
  14   26300.2    380.2   0.057243066   0.71654  -0.76292  -0.36673  -0.00005
  15   26618.2    375.7   0.102554083   1.26838  -0.50443   0.49092  -0.87917
  16   26804.9    373.1   0.055226470   0.67828   0.42051  -0.36639   0.60598
  17   26945.3    371.1   0.196608160   2.40212  -0.31692   1.42603  -0.51779
  18   27296.2    366.4   0.040096508   0.48359   0.34078  -0.57407   0.19470
  19   27584.6    362.5   0.060198243   0.71844  -0.60377   0.52002  -0.28894
  20   28074.6    356.2   0.013927340   0.16332  -0.22636   0.32416  -0.08363
  21   28209.6    354.5   0.097872041   1.14219   0.41288   0.58566  -0.79292
  22   28429.1    351.8   0.031490630   0.36467  -0.31878   0.28209   0.42833
  23   28601.8    349.6   0.162756074   1.87335  -0.43995  -1.15423   0.58952
  24   28819.6    347.0   0.079164532   0.90431  -0.53122   0.61286  -0.49651
  25   29133.5    343.2   0.187015265   2.11329  -0.69157  -1.04992   0.72986
  26   29545.0    338.5   0.297834516   3.31869   0.23822  -1.67716   0.67014
  27   29948.8    333.9   0.027001761   0.29682  -0.34898  -0.31400   0.27646
  28   30209.5    331.0   0.028193937   0.30725   0.06743  -0.54757  -0.05358
  29   30612.2    326.7   0.143876983   1.54729  -0.32005  -0.92043   0.77309
  30   31064.0    321.9   0.160544600   1.70143   0.02712   1.05756  -0.76306
  31   31141.0    321.1   0.027170224   0.28723  -0.15937  -0.51092   0.02822
  32   31535.0    317.1   0.076510455   0.79874  -0.48508   0.74208   0.11289
  33   31831.8    314.2   0.038295879   0.39606   0.36399   0.43898  -0.26622
  34   31964.8    312.8   0.052944467   0.54529  -0.54629  -0.44446  -0.22206
  35   32142.5    311.1   0.110896347   1.13583   1.05505   0.02325   0.14888
  36   32378.7    308.8   0.079488206   0.80820   0.65728   0.52728  -0.31330
  37   32654.2    306.2   0.020280130   0.20446   0.35449   0.20748  -0.18906
  38   33057.1    302.5   0.212980227   2.12104  -0.94337  -0.96805   0.54219
  39   33212.9    301.1   0.026821788   0.26586  -0.38632  -0.33586  -0.06174
  40   33291.6    300.4   0.002236752   0.02212   0.13699   0.05175  -0.02598
  41   33576.3    297.8   0.054399080   0.53338  -0.64803   0.21268  -0.26116
  42   33797.3    295.9   0.008483747   0.08264   0.11384   0.21435  -0.15405
  43   33921.1    294.8   0.015754582   0.15290   0.03694   0.34374   0.18270
  44   34045.3    293.7   0.055198377   0.53376   0.05714   0.72825   0.01209
  45   34154.4    292.8   0.055191986   0.53199  -0.52322  -0.50449  -0.06102
  46   34591.6    289.1   0.001784482   0.01698  -0.12321   0.01006  -0.04123
  47   34663.3    288.5   0.073846201   0.70135   0.42157   0.62063  -0.37208
  48   34826.5    287.1   0.104646299   0.98921   0.96391   0.23032  -0.08388
  49   35177.4    284.3   0.027903012   0.26113   0.18831  -0.42118  -0.21973
  50   35354.7    282.8   0.001682004   0.01566   0.10259   0.05798  -0.04215
  51   35376.5    282.7   0.094790294   0.88211   0.65711   0.65339  -0.15301
  52   35489.9    281.8   0.031072663   0.28824   0.48339   0.12940  -0.19449
  53   35786.2    279.4   0.092493154   0.85088  -0.49273   0.74958  -0.21501
  54   36070.8    277.2   0.026049989   0.23775  -0.26106  -0.35530   0.20825
  55   36107.9    276.9   0.341994300   3.11811   0.82236   1.52521  -0.33996
  56   36464.9    274.2   0.128028783   1.15587  -0.65785  -0.85017  -0.01777
  57   36539.7    273.7   0.129827735   1.16971   0.69859  -0.78927   0.24237
  58   36952.7    270.6   0.046098110   0.41069  -0.50925   0.37991  -0.08382
  59   37067.6    269.8   0.002036449   0.01809  -0.04505  -0.03528   0.12171
  60   37329.5    267.9   0.087059413   0.76778   0.28867   0.81523  -0.14091
  61   37450.6    267.0   0.074800818   0.65754   0.78146   0.21491   0.02610
  62   37841.5    264.3   0.013785158   0.11993  -0.12724  -0.21078  -0.24353
  63   37980.3    263.3   0.031007592   0.26877   0.35706   0.23790  -0.29101
  64   38103.2    262.4   0.055918864   0.48314  -0.60348   0.30610  -0.15891
  65   38284.5    261.2   0.028444543   0.24460  -0.31857  -0.34626  -0.15236
  66   38353.5    260.7   0.016760223   0.14386  -0.33389   0.17480  -0.04274
  67   38452.7    260.1   0.079554458   0.68110  -0.59232   0.56484  -0.10589
  68   38748.7    258.1   0.035261149   0.29958   0.45336  -0.25339  -0.17275
  69   38833.2    257.5   0.016884566   0.14314  -0.34322  -0.12470  -0.09894
  70   38890.3    257.1   0.086913652   0.73574   0.63784  -0.52804   0.22376
  71   39171.7    255.3   0.038853118   0.32653   0.50521   0.22650  -0.14139
  72   39205.5    255.1   0.009953804   0.08358  -0.24895  -0.00546  -0.14689
  73   39334.8    254.2   0.020394042   0.17069   0.03887   0.40999  -0.03291
  74   39521.7    253.0   0.144972659   1.20761  -0.28994  -1.04475   0.17902
  75   39945.8    250.3   0.043685352   0.36003  -0.53024  -0.19879   0.19839
  76   40106.3    249.3   0.015180042   0.12460  -0.23173   0.14608  -0.22263
  77   40145.9    249.1   0.097563233   0.80006  -0.16145  -0.87971  -0.00966
  78   40201.2    248.7   0.009909109   0.08115   0.08703  -0.26474  -0.05904

FINAL SINGLE POINT ENERGY     -7713.723623000658

DIPOLE MOMENT
-------------
                                X             Y             Z
Electronic contribution:    -44.73175      64.33474      -0.31615
Nuclear contribution   :     49.58209     -63.87946      -2.04743
                        -----------------------------------------
Total Dipole Moment    :      4.85034       0.45528      -2.36358
                        -----------------------------------------
Magnitude (a.u.)       :      5.41475
Magnitude (Debye)      :     13.76321

Rotational constants in cm-1:     0.000942     0.000713     0.000473
Rotational constants in MHz :    28.255143    21.372553    14.189406

                             ****ORCA TERMINATED NORMALLY****
TOTAL RUN TIME: 0 days 0 hours 19 minutes 3 seconds 258 msec
