                         Program Version 4.2.0 -  RELEASE  -
|  1> # ORCA input file
|  2> # SCF done       -197.414909406445          0.000376678208
|  3> ! CAM-B3LYP def2-SVP def2/J RIJCOSX Grid4 TightSCF
|  4> %maxcore 5000
|  5> %tddft
|  6>     Mode sTDDFT
|  7>     Ethresh 5.0
|  8>     maxcore 5000
|  9> end
| 10>
| 11> %pal
| 12>   nprocs 6
| 13>   end
| 14> * xyz 0 1
| 15>    C       -4.93358         2.84318        -2.28304
| 16>    C       -3.73730         3.11651        -1.67162
| 17>    C       -2.57667         3.53031        -2.35656
| 18>    N       -1.60150         3.85570        -2.86710
| 19>    C       -3.53361         3.05715        -0.27678
| 20>    N       -3.31452         3.05767         0.85019
| 21>    C       -5.23719         3.00618        -3.69843
| 22>    C       -6.61667         2.74867        -3.89289
| 23>    C       -7.21112         2.79744        -5.13014
| 24>    C       -6.41293         3.15208        -6.22248
| 25>    C       -5.03808         3.42105        -6.01698
| 26>    C       -4.43167         3.34495        -4.76864
| 27>    S       -4.24643         3.86457        -7.49593
| 28>    C       -5.75244         3.70266        -8.35626
| 29>    C       -6.79580         3.32209        -7.58037
| 30>   Br       -5.81418         4.05900       -10.19462
| 31>    C       -7.25567         2.45263        -2.59826
| 32>    O       -8.43223         2.21870        -2.41061
| 33>    C       -6.14913         2.43100        -1.61145
| 34>    C       -6.20736         1.83034        -0.38047
| 35>    C       -7.36699         1.50918         0.36721
| 36>    C       -8.53271         2.25574         0.39719
| 37>    O       -9.63518         1.87469         1.10020
| 38>    C       -9.51523         0.71039         1.80517
| 39>    C       -8.28827        -0.01088         1.85600
| 40>    C       -8.35979        -1.11322         2.64238
| 41>    S       -9.93114        -1.28750         3.32950
| 42>    C      -10.49497         0.14021         2.55046
| 43>    O       -7.19024         0.38975         1.15423
| 44>    C       -8.62920         3.54158        -0.20511
| 45>    C       -9.79864         4.20340        -0.38572
| 46>    C       -9.88306         5.47684        -0.99096
| 47>    S       -8.46185         6.36519        -1.50519
| 48>    C       -9.41960         7.63376        -2.19201
| 49>    C      -10.73505         7.39794        -2.02110
| 50>    C      -11.02982         6.19295        -1.32197
| 51>    C      -12.41330         5.95256        -1.07568
| 52>    C      -13.25179         6.90370        -1.55811
| 53>    S      -12.29972         8.13947        -2.47606
| 54>    O      -12.46189         9.46075        -1.94647
| 55>    O      -12.53266         7.95492        -3.88689
| 56>    C      -14.65489         7.04046        -1.58167
| 57>    C      -15.55147         6.28029        -0.89864
| 58>    C      -16.97061         6.30017        -1.07692
| 59>    C      -17.61031         6.47195        -2.29375
| 60>    O      -18.97534         6.46749        -2.42246
| 61>    C      -19.66991         6.19532        -1.27989
| 62>    C      -19.01153         5.94333        -0.04234
| 63>    C      -19.87416         5.67646         0.96988
| 64>    S      -21.50676         5.73044         0.42524
| 65>    C      -21.02004         6.11678        -1.18185
| 66>    O      -17.65057         5.99336         0.07296
| 67>    C      -16.88711         6.47251        -3.51114
| 68>    C      -17.39527         6.49865        -4.77272
| 69>    C      -16.55138         6.38578        -5.90570
| 70>    C      -15.26441         5.92682        -5.97057
| 71>    C      -14.42672         5.18368        -5.05303
| 72>    C      -14.82559         4.23617        -4.14108
| 73>    C      -13.96231         3.59369        -3.23593
| 74>    N      -13.32698         3.09249        -2.41986
| 75>    C      -16.16094         3.81627        -3.97833
| 76>    N      -17.22277         3.40810        -3.82465
| 77>    C      -13.04190         5.46430        -5.40852
| 78>    C      -13.01866         6.17792        -6.63133
| 79>    C      -14.40517         6.38684        -7.09785
| 80>    O      -14.77374         6.87078        -8.14162
| 81>    C      -11.85222         6.61531        -7.20819
| 82>    C      -10.65418         6.33737        -6.54244
| 83>    C      -10.69018         5.60341        -5.33472
| 84>    C      -11.86666         5.15260        -4.75415
| 85>    S       -9.10028         5.37986        -4.67350
| 86>    C       -8.41970         6.28989        -5.99652
| 87>    C       -9.33063         6.71925        -6.89992
| 88>   Br       -6.57443         6.61468        -6.02852
| 89>    H       -8.25970         2.57486        -5.24975
| 90>    H       -3.37903         3.54728        -4.66217
| 91>    H       -7.79505         3.17404        -7.94811
| 92>    H       -5.29119         1.44992         0.05589
| 93>    H       -7.58761        -1.82250         2.85458
| 94>    H      -11.50234         0.47558         2.68202
| 95>    H       -7.70335         3.99934        -0.52230
| 96>    H      -10.72994         3.72634        -0.11726
| 97>    H       -8.93937         8.46398        -2.67000
| 98>    H      -12.74553         5.07042        -0.55221
| 99>    H      -14.99801         7.85600        -2.20543
|100>    H      -15.20561         5.62079        -0.11437
|101>    H      -19.64343         5.45444         1.99068
|102>    H      -21.74611         6.25829        -1.95455
|103>    H      -15.81864         6.40277        -3.40696
|104>    H      -18.44760         6.67804        -4.93413
|105>    H      -16.92926         6.79295        -6.83827
|106>    H      -11.86244         7.16736        -8.13477
|107>    H      -11.84171         4.61193        -3.82221
|108>    H       -9.08538         7.29208        -7.77572
|109> *
|110>
|111>                          ****END OF INPUT****

CARTESIAN COORDINATES (ANGSTROEM)
---------------------------------
  C     -4.933580    2.843180   -2.283040
  C     -3.737300    3.116510   -1.671620
  C     -2.576670    3.530310   -2.356560
  N     -1.601500    3.855700   -2.867100
  C     -3.533610    3.057150   -0.276780
  N     -3.314520    3.057670    0.850190
  C     -5.237190    3.006180   -3.698430
  C     -6.616670    2.748670   -3.892890
  C     -7.211120    2.797440   -5.130140
  C     -6.412930    3.152080   -6.222480
  C     -5.038080    3.421050   -6.016980
  C     -4.431670    3.344950   -4.768640
  S     -4.246430    3.864570   -7.495930
  C     -5.752440    3.702660   -8.356260
  C     -6.795800    3.322090   -7.580370
  Br    -5.814180    4.059000  -10.194620
  C     -7.255670    2.452630   -2.598260
  O     -8.432230    2.218700   -2.410610
  C     -6.149130    2.431000   -1.611450
  C     -6.207360    1.830340   -0.380470
  C     -7.366990    1.509180    0.367210
  C     -8.532710    2.255740    0.397190
  O     -9.635180    1.874690    1.100200
  C     -9.515230    0.710390    1.805170
  C     -8.288270   -0.010880    1.856000
  C     -8.359790   -1.113220    2.642380
  S     -9.931140   -1.287500    3.329500
  C    -10.494970    0.140210    2.550460
  O     -7.190240    0.389750    1.154230
  C     -8.629200    3.541580   -0.205110
  C     -9.798640    4.203400   -0.385720
  C     -9.883060    5.476840   -0.990960
  S     -8.461850    6.365190   -1.505190
  C     -9.419600    7.633760   -2.192010
  C    -10.735050    7.397940   -2.021100
  C    -11.029820    6.192950   -1.321970
  C    -12.413300    5.952560   -1.075680
  C    -13.251790    6.903700   -1.558110
  S    -12.299720    8.139470   -2.476060
  O    -12.461890    9.460750   -1.946470
  O    -12.532660    7.954920   -3.886890
  C    -14.654890    7.040460   -1.581670
  C    -15.551470    6.280290   -0.898640
  C    -16.970610    6.300170   -1.076920
  C    -17.610310    6.471950   -2.293750
  O    -18.975340    6.467490   -2.422460
  C    -19.669910    6.195320   -1.279890
  C    -19.011530    5.943330   -0.042340
  C    -19.874160    5.676460    0.969880
  S    -21.506760    5.730440    0.425240
  C    -21.020040    6.116780   -1.181850
  O    -17.650570    5.993360    0.072960
  C    -16.887110    6.472510   -3.511140
  C    -17.395270    6.498650   -4.772720
  C    -16.551380    6.385780   -5.905700
  C    -15.264410    5.926820   -5.970570
  C    -14.426720    5.183680   -5.053030
  C    -14.825590    4.236170   -4.141080
  C    -13.962310    3.593690   -3.235930
  N    -13.326980    3.092490   -2.419860
  C    -16.160940    3.816270   -3.978330
  N    -17.222770    3.408100   -3.824650
  C    -13.041900    5.464300   -5.408520
  C    -13.018660    6.177920   -6.631330
  C    -14.405170    6.386840   -7.097850
  O    -14.773740    6.870780   -8.141620
  C    -11.852220    6.615310   -7.208190
  C    -10.654180    6.337370   -6.542440
  C    -10.690180    5.603410   -5.334720
  C    -11.866660    5.152600   -4.754150
  S     -9.100280    5.379860   -4.673500
  C     -8.419700    6.289890   -5.996520
  C     -9.330630    6.719250   -6.899920
  Br    -6.574430    6.614680   -6.028520
  H     -8.259700    2.574860   -5.249750
  H     -3.379030    3.547280   -4.662170
  H     -7.795050    3.174040   -7.948110
  H     -5.291190    1.449920    0.055890
  H     -7.587610   -1.822500    2.854580
  H    -11.502340    0.475580    2.682020
  H     -7.703350    3.999340   -0.522300
  H    -10.729940    3.726340   -0.117260
  H     -8.939370    8.463980   -2.670000
  H    -12.745530    5.070420   -0.552210
  H    -14.998010    7.856000   -2.205430
  H    -15.205610    5.620790   -0.114370
  H    -19.643430    5.454440    1.990680
  H    -21.746110    6.258290   -1.954550
  H    -15.818640    6.402770   -3.406960
  H    -18.447600    6.678040   -4.934130
  H    -16.929260    6.792950   -6.838270
  H    -11.862440    7.167360   -8.134770
  H    -11.841710    4.611930   -3.822210
  H     -9.085380    7.292080   -7.775720

 Total Charge           Charge          ....    0
 Multiplicity           Mult            ....    1
 Number of Electrons    NEL             ....  602
 Basis Dimension        Dim             .... 1196

ORBITAL ENERGIES
----------------

  NO   OCC          E(Eh)            E(eV)
   0   2.0000    -482.889804    -13140.0996
   1   2.0000    -482.888065    -13140.0523
   2   2.0000     -89.155868     -2426.0545
   3   2.0000     -88.985608     -2421.4215
   4   2.0000     -88.979032     -2421.2425
   5   2.0000     -88.977589     -2421.2033
   6   2.0000     -88.967663     -2420.9332
   7   2.0000     -88.965285     -2420.8685
   8   2.0000     -62.567080     -1702.5368
   9   2.0000     -62.565800     -1702.5020
  10   2.0000     -56.401034     -1534.7502
  11   2.0000     -56.399754     -1534.7153
  12   2.0000     -56.398348     -1534.6771
  13   2.0000     -56.398311     -1534.6761
  14   2.0000     -56.397031     -1534.6412
  15   2.0000     -56.397009     -1534.6406
  16   2.0000     -19.299673      -525.1708
  17   2.0000     -19.291572      -524.9504
  18   2.0000     -19.285580      -524.7873
  19   2.0000     -19.284570      -524.7598
  20   2.0000     -19.222545      -523.0720
  21   2.0000     -19.208863      -522.6997
  22   2.0000     -19.207594      -522.6652
  23   2.0000     -19.207503      -522.6627
  24   2.0000     -14.419642      -392.3784
  25   2.0000     -14.419503      -392.3746
  26   2.0000     -14.417448      -392.3187
  27   2.0000     -14.411821      -392.1656
  28   2.0000     -10.379486      -282.4402
  29   2.0000     -10.371955      -282.2352
  30   2.0000     -10.371479      -282.2223
  31   2.0000     -10.363123      -281.9949
  32   2.0000     -10.362686      -281.9830
  33   2.0000     -10.361247      -281.9439
  34   2.0000     -10.360203      -281.9155
  35   2.0000     -10.359520      -281.8969
  36   2.0000     -10.352715      -281.7117
  37   2.0000     -10.351049      -281.6664
  38   2.0000     -10.349422      -281.6221
  39   2.0000     -10.348683      -281.6020
  40   2.0000     -10.347052      -281.5576
  41   2.0000     -10.344880      -281.4985
  42   2.0000     -10.340913      -281.3906
  43   2.0000     -10.337402      -281.2950
  44   2.0000     -10.336062      -281.2585
  45   2.0000     -10.335796      -281.2513
  46   2.0000     -10.328307      -281.0475
  47   2.0000     -10.325356      -280.9672
  48   2.0000     -10.324462      -280.9429
  49   2.0000     -10.322381      -280.8863
  50   2.0000     -10.322287      -280.8837
  51   2.0000     -10.322015      -280.8763
  52   2.0000     -10.321756      -280.8693
  53   2.0000     -10.320192      -280.8267
  54   2.0000     -10.315440      -280.6974
  55   2.0000     -10.313872      -280.6547
  56   2.0000     -10.313779      -280.6522
  57   2.0000     -10.313743      -280.6512
  58   2.0000     -10.311677      -280.5950
  59   2.0000     -10.311538      -280.5912
  60   2.0000     -10.311422      -280.5881
  61   2.0000     -10.309857      -280.5455
  62   2.0000     -10.308757      -280.5155
  63   2.0000     -10.308158      -280.4992
  64   2.0000     -10.307819      -280.4900
  65   2.0000     -10.306514      -280.4545
  66   2.0000     -10.305261      -280.4204
  67   2.0000     -10.304402      -280.3970
  68   2.0000     -10.303614      -280.3756
  69   2.0000     -10.303275      -280.3664
  70   2.0000     -10.303189      -280.3640
  71   2.0000     -10.303108      -280.3618
  72   2.0000     -10.302880      -280.3556
  73   2.0000     -10.301455      -280.3168
  74   2.0000     -10.300664      -280.2953
  75   2.0000     -10.298902      -280.2474
  76   2.0000     -10.297746      -280.2159
  77   2.0000     -10.296337      -280.1776
  78   2.0000     -10.296101      -280.1712
  79   2.0000     -10.291872      -280.0561
  80   2.0000     -10.288284      -279.9584
  81   2.0000     -10.287107      -279.9264
  82   2.0000      -8.796357      -239.3611
  83   2.0000      -8.795230      -239.3304
  84   2.0000      -8.220956      -223.7036
  85   2.0000      -8.080594      -219.8841
  86   2.0000      -8.074955      -219.7307
  87   2.0000      -8.072202      -219.6558
  88   2.0000      -8.063492      -219.4188
  89   2.0000      -8.061091      -219.3534
  90   2.0000      -6.632546      -180.4807
  91   2.0000      -6.631527      -180.4530
  92   2.0000      -6.618164      -180.0894
  93   2.0000      -6.617935      -180.0832
  94   2.0000      -6.616973      -180.0570
  95   2.0000      -6.616757      -180.0511
  96   2.0000      -6.190082      -168.4407
  97   2.0000      -6.189585      -168.4272
  98   2.0000      -6.189086      -168.4136
  99   2.0000      -6.050032      -164.6297
 100   2.0000      -6.045725      -164.5125
 101   2.0000      -6.044638      -164.4830
 102   2.0000      -6.042601      -164.4275
 103   2.0000      -6.041951      -164.4099
 104   2.0000      -6.040341      -164.3660
 105   2.0000      -6.037650      -164.2928
 106   2.0000      -6.036231      -164.2542
 107   2.0000      -6.033529      -164.1807
 108   2.0000      -6.032978      -164.1657
 109   2.0000      -6.030572      -164.1002
 110   2.0000      -6.028786      -164.0516
 111   2.0000      -6.026395      -163.9865
 112   2.0000      -6.025194      -163.9539
 113   2.0000      -6.022805      -163.8889
 114   2.0000      -2.748437       -74.7888
 115   2.0000      -2.747392       -74.7603
 116   2.0000      -2.744420       -74.6795
 117   2.0000      -2.744261       -74.6751
 118   2.0000      -2.743304       -74.6491
 119   2.0000      -2.743187       -74.6459
 120   2.0000      -2.732819       -74.3638
 121   2.0000      -2.732807       -74.3635
 122   2.0000      -2.731588       -74.3303
 123   2.0000      -2.731585       -74.3302
 124   2.0000      -1.221639       -33.2425
 125   2.0000      -1.216183       -33.0940
 126   2.0000      -1.212862       -33.0036
 127   2.0000      -1.181884       -32.1607
 128   2.0000      -1.179018       -32.0827
 129   2.0000      -1.137338       -30.9485
 130   2.0000      -1.124780       -30.6068
 131   2.0000      -1.090669       -29.6786
 132   2.0000      -1.026702       -27.9380
 133   2.0000      -1.024293       -27.8724
 134   2.0000      -1.021355       -27.7925
 135   2.0000      -1.016551       -27.6618
 136   2.0000      -1.013761       -27.5858
 137   2.0000      -0.999410       -27.1953
 138   2.0000      -0.997026       -27.1305
 139   2.0000      -0.996757       -27.1231
 140   2.0000      -0.994432       -27.0599
 141   2.0000      -0.993532       -27.0354
 142   2.0000      -0.987024       -26.8583
 143   2.0000      -0.966429       -26.2979
 144   2.0000      -0.951338       -25.8872
 145   2.0000      -0.946779       -25.7632
 146   2.0000      -0.939481       -25.5646
 147   2.0000      -0.936457       -25.4823
 148   2.0000      -0.917114       -24.9559
 149   2.0000      -0.913457       -24.8564
 150   2.0000      -0.911978       -24.8162
 151   2.0000      -0.907989       -24.7076
 152   2.0000      -0.890322       -24.2269
 153   2.0000      -0.889237       -24.1974
 154   2.0000      -0.886267       -24.1165
 155   2.0000      -0.883678       -24.0461
 156   2.0000      -0.872392       -23.7390
 157   2.0000      -0.868642       -23.6369
 158   2.0000      -0.855736       -23.2858
 159   2.0000      -0.840101       -22.8603
 160   2.0000      -0.834262       -22.7014
 161   2.0000      -0.832149       -22.6439
 162   2.0000      -0.830690       -22.6042
 163   2.0000      -0.828307       -22.5394
 164   2.0000      -0.823663       -22.4130
 165   2.0000      -0.818410       -22.2701
 166   2.0000      -0.808349       -21.9963
 167   2.0000      -0.790087       -21.4994
 168   2.0000      -0.780133       -21.2285
 169   2.0000      -0.774437       -21.0735
 170   2.0000      -0.763678       -20.7807
 171   2.0000      -0.762791       -20.7566
 172   2.0000      -0.750537       -20.4231
 173   2.0000      -0.747163       -20.3313
 174   2.0000      -0.727829       -19.8052
 175   2.0000      -0.722318       -19.6553
 176   2.0000      -0.712912       -19.3993
 177   2.0000      -0.709148       -19.2969
 178   2.0000      -0.700718       -19.0675
 179   2.0000      -0.698774       -19.0146
 180   2.0000      -0.696029       -18.9399
 181   2.0000      -0.693933       -18.8829
 182   2.0000      -0.685104       -18.6426
 183   2.0000      -0.684467       -18.6253
 184   2.0000      -0.677890       -18.4463
 185   2.0000      -0.672039       -18.2871
 186   2.0000      -0.664124       -18.0717
 187   2.0000      -0.659225       -17.9384
 188   2.0000      -0.658261       -17.9122
 189   2.0000      -0.648773       -17.6540
 190   2.0000      -0.639656       -17.4059
 191   2.0000      -0.638720       -17.3805
 192   2.0000      -0.629042       -17.1171
 193   2.0000      -0.622229       -16.9317
 194   2.0000      -0.617278       -16.7970
 195   2.0000      -0.612043       -16.6545
 196   2.0000      -0.611733       -16.6461
 197   2.0000      -0.604926       -16.4609
 198   2.0000      -0.602514       -16.3953
 199   2.0000      -0.595608       -16.2073
 200   2.0000      -0.594722       -16.1832
 201   2.0000      -0.591685       -16.1006
 202   2.0000      -0.585402       -15.9296
 203   2.0000      -0.581022       -15.8104
 204   2.0000      -0.579440       -15.7674
 205   2.0000      -0.574292       -15.6273
 206   2.0000      -0.572440       -15.5769
 207   2.0000      -0.567812       -15.4510
 208   2.0000      -0.562366       -15.3027
 209   2.0000      -0.557076       -15.1588
 210   2.0000      -0.553080       -15.0501
 211   2.0000      -0.551894       -15.0178
 212   2.0000      -0.548463       -14.9244
 213   2.0000      -0.547153       -14.8888
 214   2.0000      -0.541802       -14.7432
 215   2.0000      -0.541214       -14.7272
 216   2.0000      -0.537526       -14.6268
 217   2.0000      -0.536651       -14.6030
 218   2.0000      -0.533107       -14.5066
 219   2.0000      -0.532325       -14.4853
 220   2.0000      -0.530628       -14.4391
 221   2.0000      -0.528539       -14.3823
 222   2.0000      -0.527354       -14.3500
 223   2.0000      -0.523163       -14.2360
 224   2.0000      -0.521158       -14.1814
 225   2.0000      -0.519086       -14.1251
 226   2.0000      -0.518744       -14.1158
 227   2.0000      -0.514543       -14.0014
 228   2.0000      -0.513935       -13.9849
 229   2.0000      -0.511776       -13.9261
 230   2.0000      -0.508320       -13.8321
 231   2.0000      -0.507745       -13.8164
 232   2.0000      -0.503599       -13.7036
 233   2.0000      -0.500014       -13.6061
 234   2.0000      -0.498343       -13.5606
 235   2.0000      -0.496743       -13.5171
 236   2.0000      -0.496025       -13.4975
 237   2.0000      -0.494281       -13.4501
 238   2.0000      -0.490921       -13.3586
 239   2.0000      -0.488316       -13.2878
 240   2.0000      -0.486585       -13.2407
 241   2.0000      -0.483961       -13.1692
 242   2.0000      -0.482542       -13.1306
 243   2.0000      -0.479768       -13.0552
 244   2.0000      -0.474690       -12.9170
 245   2.0000      -0.471991       -12.8435
 246   2.0000      -0.470122       -12.7927
 247   2.0000      -0.465428       -12.6649
 248   2.0000      -0.461755       -12.5650
 249   2.0000      -0.459952       -12.5159
 250   2.0000      -0.456694       -12.4273
 251   2.0000      -0.453356       -12.3364
 252   2.0000      -0.451893       -12.2966
 253   2.0000      -0.450644       -12.2626
 254   2.0000      -0.446812       -12.1584
 255   2.0000      -0.445536       -12.1236
 256   2.0000      -0.444466       -12.0945
 257   2.0000      -0.443277       -12.0622
 258   2.0000      -0.442744       -12.0477
 259   2.0000      -0.442302       -12.0357
 260   2.0000      -0.440026       -11.9737
 261   2.0000      -0.439296       -11.9539
 262   2.0000      -0.435196       -11.8423
 263   2.0000      -0.433182       -11.7875
 264   2.0000      -0.430767       -11.7218
 265   2.0000      -0.428066       -11.6483
 266   2.0000      -0.427507       -11.6330
 267   2.0000      -0.426290       -11.5999
 268   2.0000      -0.421693       -11.4749
 269   2.0000      -0.421069       -11.4579
 270   2.0000      -0.417531       -11.3616
 271   2.0000      -0.412572       -11.2267
 272   2.0000      -0.411557       -11.1990
 273   2.0000      -0.409142       -11.1333
 274   2.0000      -0.401499       -10.9253
 275   2.0000      -0.395191       -10.7537
 276   2.0000      -0.394508       -10.7351
 277   2.0000      -0.390381       -10.6228
 278   2.0000      -0.388467       -10.5707
 279   2.0000      -0.379310       -10.3216
 280   2.0000      -0.377775       -10.2798
 281   2.0000      -0.377387       -10.2692
 282   2.0000      -0.373875       -10.1737
 283   2.0000      -0.370182       -10.0732
 284   2.0000      -0.362384        -9.8610
 285   2.0000      -0.361732        -9.8432
 286   2.0000      -0.350663        -9.5420
 287   2.0000      -0.349756        -9.5173
 288   2.0000      -0.331532        -9.0214
 289   2.0000      -0.329008        -8.9528
 290   2.0000      -0.321588        -8.7509
 291   2.0000      -0.320188        -8.7127
 292   2.0000      -0.313830        -8.5398
 293   2.0000      -0.312421        -8.5014
 294   2.0000      -0.309259        -8.4154
 295   2.0000      -0.300903        -8.1880
 296   2.0000      -0.296766        -8.0754
 297   2.0000      -0.294083        -8.0024
 298   2.0000      -0.289070        -7.8660
 299   2.0000      -0.265470        -7.2238
 300   2.0000      -0.251297        -6.8381
 301   0.0000      -0.108817        -2.9611
 302   0.0000      -0.094860        -2.5813
 303   0.0000      -0.075892        -2.0651
 304   0.0000      -0.062498        -1.7007
 305   0.0000      -0.050361        -1.3704

MULLIKEN ATOMIC CHARGES
-----------------------
   0 C :    0.286349
   1 C :   -0.334074
   2 C :   -0.184338
   3 N :    0.154417
   4 C :   -0.218022
   5 N :    0.171681
   6 C :    0.030245
   7 C :   -0.016618
   8 C :   -0.067508
   9 C :    0.109021
  10 C :   -0.081392
  11 C :   -0.035147
  12 S :    0.182525
  13 C :   -0.122229
  14 C :    0.045122
  15 Br:    0.023851
  16 C :    0.130539
  17 O :   -0.144576
  18 C :   -0.135192
  19 C :   -0.018955
  20 C :    0.152195
  21 C :    0.199271
  22 O :   -0.232877
  23 C :    0.209060
  24 C :    0.223134
  25 C :   -0.168091
  26 S :    0.122969
  27 C :   -0.162342
  28 O :   -0.245510
  29 C :   -0.037348
  30 C :    0.025398
  31 C :   -0.111102
  32 S :    0.131592
  33 C :   -0.143057
  34 C :    0.064460
  35 C :    0.059253
  36 C :    0.062574
  37 C :   -0.107791
  38 S :    0.773542
  39 O :   -0.437545
  40 O :   -0.451245
  41 C :    0.063597
  42 C :   -0.017699
  43 C :    0.158952
  44 C :    0.169477
  45 O :   -0.243545
  46 C :    0.224163
  47 C :    0.209944
  48 C :   -0.163430
  49 S :    0.120165
  50 C :   -0.166837
  51 O :   -0.237843
  52 C :   -0.046661
  53 C :    0.024815
  54 C :    0.049036
  55 C :   -0.109675
  56 C :    0.249601
  57 C :   -0.363918
  58 C :   -0.156101
  59 N :    0.121261
  60 C :   -0.212270
  61 N :    0.173741
  62 C :    0.062656
  63 C :    0.016182
  64 C :    0.127670
  65 O :   -0.144103
  66 C :   -0.071299
  67 C :    0.122026
  68 C :   -0.076502
  69 C :   -0.050926
  70 S :    0.160730
  71 C :   -0.132913
  72 C :    0.045705
  73 Br:    0.021718
  74 H :   -0.008406
  75 H :   -0.007160
  76 H :   -0.001939
  77 H :    0.047203
  78 H :    0.032217
  79 H :    0.031357
  80 H :    0.030732
  81 H :    0.018196
  82 H :    0.046163
  83 H :    0.012323
  84 H :    0.029197
  85 H :    0.027945
  86 H :    0.029605
  87 H :    0.031343
  88 H :    0.046304
  89 H :    0.007954
  90 H :    0.026343
  91 H :   -0.012329
  92 H :   -0.013083
  93 H :   -0.003918
Sum of atomic charges:   -0.0000000

LOEWDIN ATOMIC CHARGES
----------------------
   0 C :    0.072434
   1 C :   -0.137870
   2 C :   -0.018951
   3 N :   -0.050517
   4 C :   -0.028061
   5 N :   -0.047412
   6 C :   -0.022007
   7 C :   -0.053213
   8 C :    0.013753
   9 C :   -0.038196
  10 C :   -0.147544
  11 C :   -0.012398
  12 S :    0.433076
  13 C :   -0.272525
  14 C :   -0.070534
  15 Br:    0.138047
  16 C :    0.071902
  17 O :   -0.136597
  18 C :   -0.100871
  19 C :    0.054470
  20 C :    0.009416
  21 C :    0.079486
  22 O :   -0.027968
  23 C :   -0.010431
  24 C :   -0.005693
  25 C :   -0.204528
  26 S :    0.449519
  27 C :   -0.200082
  28 O :   -0.054981
  29 C :   -0.019590
  30 C :   -0.007034
  31 C :   -0.151431
  32 S :    0.455321
  33 C :   -0.147456
  34 C :   -0.207921
  35 C :   -0.077892
  36 C :    0.012569
  37 C :   -0.168547
  38 S :    1.175611
  39 O :   -0.486300
  40 O :   -0.497719
  41 C :   -0.031571
  42 C :   -0.008832
  43 C :    0.044580
  44 C :    0.029499
  45 O :   -0.044381
  46 C :   -0.004129
  47 C :   -0.008893
  48 C :   -0.202970
  49 S :    0.447645
  50 C :   -0.203019
  51 O :   -0.043485
  52 C :    0.017608
  53 C :   -0.035301
  54 C :    0.072838
  55 C :   -0.092204
  56 C :    0.072655
  57 C :   -0.158680
  58 C :   -0.009144
  59 N :   -0.078091
  60 C :   -0.021193
  61 N :   -0.048439
  62 C :   -0.008265
  63 C :   -0.042418
  64 C :    0.085438
  65 O :   -0.143326
  66 C :    0.025530
  67 C :   -0.031368
  68 C :   -0.143479
  69 C :   -0.016313
  70 S :    0.452544
  71 C :   -0.280510
  72 C :   -0.067104
  73 Br:    0.144036
  74 H :    0.035022
  75 H :    0.040473
  76 H :    0.039287
  77 H :    0.053041
  78 H :    0.032562
  79 H :    0.032319
  80 H :    0.030390
  81 H :    0.044129
  82 H :    0.037849
  83 H :    0.040434
  84 H :    0.038904
  85 H :    0.042928
  86 H :    0.031457
  87 H :    0.032152
  88 H :    0.038721
  89 H :    0.037194
  90 H :    0.046942
  91 H :    0.040632
  92 H :    0.035573
  93 H :    0.039399

  Mayer bond orders larger than 0.100000
B(  0-C ,  1-C ) :   1.6494 B(  0-C ,  6-C ) :   1.0132 B(  0-C , 18-C ) :   1.0591
B(  1-C ,  2-C ) :   1.1380 B(  1-C ,  4-C ) :   1.1410 B(  2-C ,  3-N ) :   2.9754
B(  4-C ,  5-N ) :   3.0113 B(  6-C ,  7-C ) :   1.2699 B(  6-C , 11-C ) :   1.4075
B(  7-C ,  8-C ) :   1.4209 B(  7-C , 16-C ) :   0.9423 B(  8-C ,  9-C ) :   1.2451
B(  8-C , 74-H ) :   1.0110 B(  9-C , 10-C ) :   1.3082 B(  9-C , 14-C ) :   1.1641
B( 10-C , 11-C ) :   1.3221 B( 10-C , 12-S ) :   1.0842 B( 11-C , 75-H ) :   0.9817
B( 12-S , 13-C ) :   1.0856 B( 13-C , 14-C ) :   1.6140 B( 13-C , 15-Br) :   1.0195
B( 14-C , 76-H ) :   1.0011 B( 16-C , 17-O ) :   2.1957 B( 16-C , 18-C ) :   0.9597
B( 18-C , 19-C ) :   1.5449 B( 19-C , 20-C ) :   1.2137 B( 19-C , 77-H ) :   0.9393
B( 20-C , 21-C ) :   1.4200 B( 20-C , 28-O ) :   1.0549 B( 21-C , 22-O ) :   1.1320
B( 21-C , 29-C ) :   1.1858 B( 22-O , 23-C ) :   1.0242 B( 23-C , 24-C ) :   1.2049
B( 23-C , 27-C ) :   1.5732 B( 24-C , 25-C ) :   1.5776 B( 24-C , 28-O ) :   1.0528
B( 25-C , 26-S ) :   1.1439 B( 25-C , 78-H ) :   0.9707 B( 26-S , 27-C ) :   1.1535
B( 27-C , 79-H ) :   0.9724 B( 29-C , 30-C ) :   1.6426 B( 29-C , 80-H ) :   0.9448
B( 30-C , 31-C ) :   1.1626 B( 30-C , 81-H ) :   0.9718 B( 31-C , 32-S ) :   1.1111
B( 31-C , 35-C ) :   1.4241 B( 32-S , 33-C ) :   1.1504 B( 33-C , 34-C ) :   1.6282
B( 33-C , 82-H ) :   0.9790 B( 34-C , 35-C ) :   1.2191 B( 34-C , 38-S ) :   0.7654
B( 35-C , 36-C ) :   1.1222 B( 36-C , 37-C ) :   1.6321 B( 36-C , 83-H ) :   0.9805
B( 37-C , 38-S ) :   0.8532 B( 37-C , 41-C ) :   1.1428 B( 38-S , 39-O ) :   1.7479
B( 38-S , 40-O ) :   1.6912 B( 41-C , 42-C ) :   1.6817 B( 41-C , 84-H ) :   0.9361
B( 42-C , 43-C ) :   1.1353 B( 42-C , 85-H ) :   0.9523 B( 43-C , 44-C ) :   1.4442
B( 43-C , 51-O ) :   1.0761 B( 44-C , 45-O ) :   1.1003 B( 44-C , 52-C ) :   1.2226
B( 45-O , 46-C ) :   1.0436 B( 46-C , 47-C ) :   1.2028 B( 46-C , 50-C ) :   1.5779
B( 47-C , 48-C ) :   1.5772 B( 47-C , 51-O ) :   1.0381 B( 48-C , 49-S ) :   1.1494
B( 48-C , 86-H ) :   0.9715 B( 49-S , 50-C ) :   1.1451 B( 50-C , 87-H ) :   0.9717
B( 52-C , 53-C ) :   1.5975 B( 52-C , 88-H ) :   0.9353 B( 53-C , 54-C ) :   1.1611
B( 53-C , 89-H ) :   0.9788 B( 54-C , 55-C ) :   1.6330 B( 54-C , 90-H ) :   0.9370
B( 55-C , 56-C ) :   1.0414 B( 55-C , 64-C ) :   0.9457 B( 56-C , 57-C ) :   1.6094
B( 56-C , 62-C ) :   1.0381 B( 57-C , 58-C ) :   1.1439 B( 57-C , 60-C ) :   1.1721
B( 58-C , 59-N ) :   2.9340 B( 60-C , 61-N ) :   2.9997 B( 62-C , 63-C ) :   1.2788
B( 62-C , 69-C ) :   1.3945 B( 63-C , 64-C ) :   0.9191 B( 63-C , 66-C ) :   1.4248
B( 64-C , 65-O ) :   2.2652 B( 66-C , 67-C ) :   1.2489 B( 66-C , 91-H ) :   1.0130
B( 67-C , 68-C ) :   1.3125 B( 67-C , 72-C ) :   1.1561 B( 68-C , 69-C ) :   1.3281
B( 68-C , 70-S ) :   1.0791 B( 69-C , 92-H ) :   0.9845 B( 70-S , 71-C ) :   1.0859
B( 71-C , 72-C ) :   1.6170 B( 71-C , 73-Br) :   1.0169 B( 72-C , 93-H ) :   1.0003

-----------------------------------------------------------------------------
         ABSORPTION SPECTRUM VIA TRANSITION ELECTRIC DIPOLE MOMENTS
-----------------------------------------------------------------------------
State   Energy  Wavelength   fosc         T2         TX        TY        TZ
        (cm-1)    (nm)                  (au**2)     (au)      (au)      (au)
-----------------------------------------------------------------------------
   0   14412.5    693.8   0.206899584   4.72602  -1.78188   0.29251  -1.21052
   1   16900.2    591.7   0.591791683  11.52796   2.73560  -1.24864  -1.57651
   2   19510.5    512.5   0.074953625   1.26473  -0.98618   0.34472  -0.41635
   3   22171.8    451.0   0.086007256   1.27706   0.84210  -0.60158   0.45389
   4   22680.8    440.9   0.182922172   2.65512   0.97834  -1.29764   0.11867
   5   23445.8    426.5   0.048272766   0.67782   0.81943   0.02644  -0.07521
   6   24215.4    413.0   0.037176191   0.50542  -0.20167  -0.30235  -0.61101
   7   25039.1    399.4   0.085038681   1.11808   0.76813  -0.69640   0.20756
   8   25480.2    392.5   0.081161487   1.04863   0.56206  -0.42725   0.74174
   9   26043.7    384.0   0.090937434   1.14952  -0.18461  -0.08315   1.05286
  10   26511.2    377.2   0.090892526   1.12869  -0.59732  -0.76831  -0.42614
  11   26834.0    372.7   0.023887146   0.29306   0.22106   0.06341   0.49007
  12   27389.2    365.1   0.033818669   0.40649   0.16861   0.49538  -0.36423
  13   27551.3    363.0   0.256870877   3.06936  -1.54077   0.40120   0.73105
  14   27755.9    360.3   0.020357172   0.24146  -0.04652  -0.01942  -0.48879
  15   28255.3    353.9   0.376343720   4.38491   2.07242  -0.14351   0.26346
  16   28833.0    346.8   0.251216315   2.86836  -1.34362   0.04501   1.03006
  17   28867.4    346.4   0.057345938   0.65399  -0.80395  -0.06834   0.05464
  18   28971.2    345.2   0.102415406   1.16379   0.40930   0.54034  -0.83922
  19   29703.3    336.7   0.063267235   0.70121   0.22762  -0.06220   0.80345
  20   29849.6    335.0   0.025033359   0.27609   0.13707  -0.18960   0.47049
  21   30214.0    331.0   0.146876397   1.60037   1.20417   0.35863  -0.14742
  22   30756.5    325.1   0.059123469   0.63285   0.08545   0.08970   0.78581
  23   31150.6    321.0   0.174060501   1.83954  -1.21549  -0.59114  -0.11263
  24   31355.8    318.9   0.067984290   0.71378   0.20736  -0.67352   0.46601
  25   31763.5    314.8   0.334800388   3.47003   0.62621  -0.40352   1.70735
  26   32151.8    311.0   0.102416243   1.04867   0.54880   0.25656  -0.82563
  27   32371.8    308.9   0.017831032   0.18134   0.38188  -0.09890  -0.16039
  28   32462.5    308.0   0.013522434   0.13714   0.10405  -0.10683   0.33896
  29   32654.9    306.2   0.128874858   1.29926   0.76347   0.59715  -0.59982
  30   32911.9    303.8   0.311843989   3.11932   0.77471   0.71956  -1.41470
  31   33427.0    299.2   0.339909118   3.34766   1.80986  -0.04679  -0.26431
  32   33783.0    296.0   0.029455181   0.28704   0.23410   0.37937   0.29718
  33   33925.2    294.8   0.060239540   0.58457   0.41180  -0.28122   0.57957
  34   34176.2    292.6   0.047261977   0.45526  -0.32074   0.16957  -0.56889
  35   34866.0    286.8   0.012603973   0.11901  -0.32873   0.10144  -0.02558
  36   35161.2    284.4   0.163348892   1.52943   0.36694  -0.60458   1.01453
  37   35296.4    283.3   0.077481150   0.72267   0.51184   0.36517  -0.57214
  38   35524.5    281.5   0.213869212   1.98196  -0.93226  -0.74797   0.74390
  39   35559.1    281.2   0.055212678   0.51117   0.60623   0.10992  -0.36273
  40   35768.9    279.6   0.019796598   0.18221  -0.42671  -0.00625   0.00909
  41   36024.3    277.6   0.023048087   0.21063  -0.10628  -0.09801   0.43558
  42   36150.2    276.6   0.053690294   0.48895   0.64484   0.25040   0.10210
  43   36324.4    275.3   0.094280899   0.85448  -0.11994   0.64522  -0.65098
  44   36641.1    272.9   0.061860630   0.55580  -0.64527  -0.07118  -0.36656
  45   36834.3    271.5   0.029338381   0.26222   0.39720   0.31252  -0.08237
  46   37080.0    269.7   0.029595421   0.26276  -0.28326  -0.05358   0.42386
  47   37232.3    268.6   0.003048320   0.02695   0.11177   0.11581  -0.03239
  48   37402.9    267.4   0.028152753   0.24779  -0.11320  -0.17979   0.45017
  49   37727.6    265.1   0.021485026   0.18748   0.21770  -0.04528  -0.37153
  50   37773.9    264.7   0.019400179   0.16908   0.17426  -0.28803   0.23612
  51   37965.6    263.4   0.067461836   0.58498  -0.53881  -0.08031  -0.53686
  52   38091.5    262.5   0.016167600   0.13973   0.00788  -0.27385   0.25431
  53   38401.0    260.4   0.011846634   0.10156  -0.17790  -0.09928   0.24507
  54   38650.6    258.7   0.166711923   1.41999   1.17416   0.14975  -0.13757
  55   38797.4    257.7   0.142173667   1.20640  -0.94933  -0.41265  -0.36727
  56   39110.2    255.7   0.001452606   0.01223  -0.05565  -0.09440  -0.01482
  57   39347.4    254.1   0.013029253   0.10901  -0.11950   0.28867  -0.10678
  58   39641.1    252.3   0.128806643   1.06971  -0.77107   0.47105  -0.50327
  59   40079.1    249.5   0.046110655   0.37876  -0.17580  -0.14102   0.57268
  60   40153.3    249.0   0.012097838   0.09919  -0.30948   0.01250  -0.05706

FINAL SINGLE POINT ENERGY    -10423.026853095527

DIPOLE MOMENT
-------------
                                X             Y             Z
Electronic contribution:    106.62590      10.64943    -100.86430
Nuclear contribution   :   -107.80518     -11.05018     101.20630
                        -----------------------------------------
Total Dipole Moment    :     -1.17927      -0.40075       0.34200
                        -----------------------------------------
Magnitude (a.u.)       :      1.29161
Magnitude (Debye)      :      3.28301

Rotational constants in cm-1:     0.000947     0.000493     0.000369
Rotational constants in MHz :    28.401806    14.771729    11.052933

                             ****ORCA TERMINATED NORMALLY****
TOTAL RUN TIME: 0 days 0 hours 11 minutes 55 seconds 224 msec
