                         Program Version 4.2.0 -  RELEASE  -
|  1> # ORCA input file
|  2> # SCF done       -196.758987376088          0.000689515068
|  3> ! CAM-B3LYP def2-SVP def2/J RIJCOSX Grid4 TightSCF
|  4> %maxcore 5000
|  5> %tddft
|  6>     Mode sTDDFT
|  7>     Ethresh 5.0
|  8>     maxcore 5000
|  9> end
| 10>
| 11> %pal
| 12>   nprocs 6
| 13>   end
| 14> * xyz 0 1
| 15>    C       -1.12962        -0.71951        -2.24875
| 16>    C        0.09606        -0.48556        -2.80995
| 17>    C        0.76566        -1.40120        -3.64885
| 18>    N        1.34063        -2.10972        -4.34472
| 19>    C        0.85007         0.68700        -2.58643
| 20>    N        1.50953         1.61358        -2.43335
| 21>    C       -1.93257        -1.92370        -2.37622
| 22>    C       -3.01651        -1.85269        -1.46336
| 23>    C       -3.97126        -2.83881        -1.38450
| 24>    C       -3.86502        -3.92691        -2.25908
| 25>    C       -2.78619        -3.97644        -3.17608
| 26>    C       -1.80687        -2.99481        -3.24124
| 27>    S       -2.87563        -5.37643        -4.19766
| 28>    C       -4.33790        -5.87798        -3.39119
| 29>    C       -4.73753        -5.04009        -2.40359
| 30>   Br       -5.19863        -7.44997        -3.93951
| 31>    C       -2.97138        -0.56721        -0.73318
| 32>    O       -3.75837        -0.15983         0.08657
| 33>    C       -1.83604         0.17892        -1.35305
| 34>    C       -1.70980         1.52723        -1.32677
| 35>    C       -2.37963         2.40729        -0.42905
| 36>    O       -2.75674         3.62102        -0.91274
| 37>    C       -2.66641         2.37574         0.91806
| 38>    C       -2.54913         1.56637         2.14323
| 39>    O       -2.06204         0.48748         2.33710
| 40>    N       -3.11666         2.38259         3.11882
| 41>    C       -3.54199         3.63791         2.68637
| 42>    O       -4.03291         4.48244         3.38694
| 43>    C       -3.23205         3.63195         1.25178
| 44>    C       -3.30085         4.36910         0.08293
| 45>    C       -3.85701         5.63217        -0.28112
| 46>    C       -4.26276         5.79332        -1.56454
| 47>    C       -4.74280         6.93768        -2.23985
| 48>    S       -5.52385         6.66445        -3.76581
| 49>    C       -5.52624         8.36463        -4.15839
| 50>    C       -5.01023         9.10047        -3.08179
| 51>    C       -4.57530         8.30109        -2.00354
| 52>    O       -3.94376         8.73884        -0.88305
| 53>    C       -3.09995         9.86462        -1.07249
| 54>    C       -3.85160        11.19948        -1.06970
| 55>    C       -5.14409        11.11181        -1.88610
| 56>    O       -4.98425        10.45913        -3.13673
| 57>    C       -5.81672         8.82029        -5.45225
| 58>    C       -6.38844         8.03960        -6.43696
| 59>    C       -6.23956         8.14959        -7.83741
| 60>    C       -6.68665         7.05817        -8.53236
| 61>    C       -7.31234         6.08929        -7.72813
| 62>    S       -7.30369         6.59549        -6.05424
| 63>    C       -7.83141         4.83735        -8.03408
| 64>    C       -8.69954         4.10295        -7.20461
| 65>    C       -8.94111         2.83482        -7.64311
| 66>    C       -8.20039         2.48103        -8.79294
| 67>    S       -7.34191         3.87436        -9.41212
| 68>    C       -8.03371         1.17765        -9.22213
| 69>    C       -7.01142         0.72427       -10.04836
| 70>    C       -6.62283        -0.59492       -10.16418
| 71>    C       -7.28165        -1.79855        -9.73260
| 72>    C       -8.63198        -2.05362        -9.75745
| 73>    C       -9.20341        -3.27933        -9.36644
| 74>    N       -9.71667        -4.25334        -9.03863
| 75>    C       -9.58482        -1.14597       -10.26252
| 76>    N      -10.39278        -0.44763       -10.68435
| 77>    C       -6.23764        -2.77091        -9.41782
| 78>    C       -4.99706        -2.26595        -9.88160
| 79>    C       -5.21003        -0.92016       -10.46568
| 80>    O       -4.38895        -0.20811       -11.00024
| 81>    C       -3.81579        -2.94087        -9.69637
| 82>    C       -3.85775        -4.15286        -8.99488
| 83>    C       -5.10071        -4.63934        -8.52764
| 84>    C       -6.30183        -3.97147        -8.74046
| 85>    S       -4.91760        -6.12584        -7.64688
| 86>    C       -3.19540        -6.07700        -7.91644
| 87>    C       -2.77830        -5.00514        -8.63096
| 88>   Br       -2.11440        -7.44217        -7.21806
| 89>    H       -4.78533        -2.76607        -0.68053
| 90>    H       -1.00479        -3.06959        -3.95687
| 91>    H       -5.61588        -5.19750        -1.80470
| 92>    H       -1.10820         2.02675        -2.07726
| 93>    H       -3.19310         2.09286         4.08372
| 94>    H       -3.96790         6.39140         0.47460
| 95>    H       -4.22480         4.91587        -2.20007
| 96>    H       -2.38664         9.83189        -0.24604
| 97>    H       -2.55001         9.74930        -2.01504
| 98>    H       -3.19043        11.96071        -1.48410
| 99>    H       -4.11729        11.48370        -0.05152
|100>    H       -5.50436        12.11385        -2.12981
|101>    H       -5.91547        10.59249        -1.30402
|102>    H       -5.46110         9.80883        -5.70828
|103>    H       -5.73945         8.99006        -8.28508
|104>    H       -6.59964         6.93256        -9.59730
|105>    H       -9.12223         4.53732        -6.31560
|106>    H       -9.57827         2.12590        -7.14585
|107>    H       -8.65166         0.45023        -8.71387
|108>    H       -6.33948         1.45660       -10.48212
|109>    H       -2.88313        -2.54015       -10.06143
|110>    H       -7.22639        -4.37614        -8.36255
|111>    H       -1.75154        -4.81829        -8.88768
|112> *
|113>
|114>                          ****END OF INPUT****

CARTESIAN COORDINATES (ANGSTROEM)
---------------------------------
  C     -1.129620   -0.719510   -2.248750
  C      0.096060   -0.485560   -2.809950
  C      0.765660   -1.401200   -3.648850
  N      1.340630   -2.109720   -4.344720
  C      0.850070    0.687000   -2.586430
  N      1.509530    1.613580   -2.433350
  C     -1.932570   -1.923700   -2.376220
  C     -3.016510   -1.852690   -1.463360
  C     -3.971260   -2.838810   -1.384500
  C     -3.865020   -3.926910   -2.259080
  C     -2.786190   -3.976440   -3.176080
  C     -1.806870   -2.994810   -3.241240
  S     -2.875630   -5.376430   -4.197660
  C     -4.337900   -5.877980   -3.391190
  C     -4.737530   -5.040090   -2.403590
  Br    -5.198630   -7.449970   -3.939510
  C     -2.971380   -0.567210   -0.733180
  O     -3.758370   -0.159830    0.086570
  C     -1.836040    0.178920   -1.353050
  C     -1.709800    1.527230   -1.326770
  C     -2.379630    2.407290   -0.429050
  O     -2.756740    3.621020   -0.912740
  C     -2.666410    2.375740    0.918060
  C     -2.549130    1.566370    2.143230
  O     -2.062040    0.487480    2.337100
  N     -3.116660    2.382590    3.118820
  C     -3.541990    3.637910    2.686370
  O     -4.032910    4.482440    3.386940
  C     -3.232050    3.631950    1.251780
  C     -3.300850    4.369100    0.082930
  C     -3.857010    5.632170   -0.281120
  C     -4.262760    5.793320   -1.564540
  C     -4.742800    6.937680   -2.239850
  S     -5.523850    6.664450   -3.765810
  C     -5.526240    8.364630   -4.158390
  C     -5.010230    9.100470   -3.081790
  C     -4.575300    8.301090   -2.003540
  O     -3.943760    8.738840   -0.883050
  C     -3.099950    9.864620   -1.072490
  C     -3.851600   11.199480   -1.069700
  C     -5.144090   11.111810   -1.886100
  O     -4.984250   10.459130   -3.136730
  C     -5.816720    8.820290   -5.452250
  C     -6.388440    8.039600   -6.436960
  C     -6.239560    8.149590   -7.837410
  C     -6.686650    7.058170   -8.532360
  C     -7.312340    6.089290   -7.728130
  S     -7.303690    6.595490   -6.054240
  C     -7.831410    4.837350   -8.034080
  C     -8.699540    4.102950   -7.204610
  C     -8.941110    2.834820   -7.643110
  C     -8.200390    2.481030   -8.792940
  S     -7.341910    3.874360   -9.412120
  C     -8.033710    1.177650   -9.222130
  C     -7.011420    0.724270  -10.048360
  C     -6.622830   -0.594920  -10.164180
  C     -7.281650   -1.798550   -9.732600
  C     -8.631980   -2.053620   -9.757450
  C     -9.203410   -3.279330   -9.366440
  N     -9.716670   -4.253340   -9.038630
  C     -9.584820   -1.145970  -10.262520
  N    -10.392780   -0.447630  -10.684350
  C     -6.237640   -2.770910   -9.417820
  C     -4.997060   -2.265950   -9.881600
  C     -5.210030   -0.920160  -10.465680
  O     -4.388950   -0.208110  -11.000240
  C     -3.815790   -2.940870   -9.696370
  C     -3.857750   -4.152860   -8.994880
  C     -5.100710   -4.639340   -8.527640
  C     -6.301830   -3.971470   -8.740460
  S     -4.917600   -6.125840   -7.646880
  C     -3.195400   -6.077000   -7.916440
  C     -2.778300   -5.005140   -8.630960
  Br    -2.114400   -7.442170   -7.218060
  H     -4.785330   -2.766070   -0.680530
  H     -1.004790   -3.069590   -3.956870
  H     -5.615880   -5.197500   -1.804700
  H     -1.108200    2.026750   -2.077260
  H     -3.193100    2.092860    4.083720
  H     -3.967900    6.391400    0.474600
  H     -4.224800    4.915870   -2.200070
  H     -2.386640    9.831890   -0.246040
  H     -2.550010    9.749300   -2.015040
  H     -3.190430   11.960710   -1.484100
  H     -4.117290   11.483700   -0.051520
  H     -5.504360   12.113850   -2.129810
  H     -5.915470   10.592490   -1.304020
  H     -5.461100    9.808830   -5.708280
  H     -5.739450    8.990060   -8.285080
  H     -6.599640    6.932560   -9.597300
  H     -9.122230    4.537320   -6.315600
  H     -9.578270    2.125900   -7.145850
  H     -8.651660    0.450230   -8.713870
  H     -6.339480    1.456600  -10.482120
  H     -2.883130   -2.540150  -10.061430
  H     -7.226390   -4.376140   -8.362550
  H     -1.751540   -4.818290   -8.887680

 Total Charge           Charge          ....    0
 Multiplicity           Mult            ....    1
 Number of Electrons    NEL             ....  594
 Basis Dimension        Dim             .... 1207

ORBITAL ENERGIES
----------------

  NO   OCC          E(Eh)            E(eV)
   0   2.0000    -482.886933    -13140.0215
   1   2.0000    -482.880693    -13139.8517
   2   2.0000     -88.977783     -2421.2086
   3   2.0000     -88.973213     -2421.0842
   4   2.0000     -88.967657     -2420.9330
   5   2.0000     -88.967634     -2420.9324
   6   2.0000     -88.964722     -2420.8531
   7   2.0000     -62.564537     -1702.4676
   8   2.0000     -62.558297     -1702.2978
   9   2.0000     -56.398502     -1534.6813
  10   2.0000     -56.395788     -1534.6074
  11   2.0000     -56.395716     -1534.6055
  12   2.0000     -56.392231     -1534.5106
  13   2.0000     -56.389575     -1534.4383
  14   2.0000     -56.389500     -1534.4363
  15   2.0000     -19.317121      -525.6456
  16   2.0000     -19.272693      -524.4366
  17   2.0000     -19.271860      -524.4140
  18   2.0000     -19.223358      -523.0942
  19   2.0000     -19.210907      -522.7554
  20   2.0000     -19.210807      -522.7526
  21   2.0000     -19.198139      -522.4079
  22   2.0000     -14.454501      -393.3270
  23   2.0000     -14.421287      -392.4232
  24   2.0000     -14.419614      -392.3776
  25   2.0000     -14.402347      -391.9078
  26   2.0000     -14.398641      -391.8069
  27   2.0000     -10.401257      -283.0326
  28   2.0000     -10.399821      -282.9935
  29   2.0000     -10.374789      -282.3124
  30   2.0000     -10.371694      -282.2282
  31   2.0000     -10.365296      -282.0540
  32   2.0000     -10.362242      -281.9709
  33   2.0000     -10.361210      -281.9429
  34   2.0000     -10.360184      -281.9149
  35   2.0000     -10.350705      -281.6570
  36   2.0000     -10.350661      -281.6558
  37   2.0000     -10.350231      -281.6441
  38   2.0000     -10.348229      -281.5896
  39   2.0000     -10.346996      -281.5561
  40   2.0000     -10.346652      -281.5467
  41   2.0000     -10.337790      -281.3056
  42   2.0000     -10.329740      -281.0865
  43   2.0000     -10.329028      -281.0671
  44   2.0000     -10.328576      -281.0548
  45   2.0000     -10.328489      -281.0525
  46   2.0000     -10.326421      -280.9962
  47   2.0000     -10.326130      -280.9883
  48   2.0000     -10.325295      -280.9656
  49   2.0000     -10.324284      -280.9380
  50   2.0000     -10.323390      -280.9137
  51   2.0000     -10.322007      -280.8761
  52   2.0000     -10.321100      -280.8514
  53   2.0000     -10.316568      -280.7281
  54   2.0000     -10.315698      -280.7044
  55   2.0000     -10.313071      -280.6329
  56   2.0000     -10.312486      -280.6170
  57   2.0000     -10.312444      -280.6159
  58   2.0000     -10.311434      -280.5884
  59   2.0000     -10.310107      -280.5523
  60   2.0000     -10.309286      -280.5299
  61   2.0000     -10.305933      -280.4387
  62   2.0000     -10.305331      -280.4223
  63   2.0000     -10.305299      -280.4215
  64   2.0000     -10.303319      -280.3676
  65   2.0000     -10.302922      -280.3568
  66   2.0000     -10.301506      -280.3182
  67   2.0000     -10.301124      -280.3078
  68   2.0000     -10.300790      -280.2988
  69   2.0000     -10.298679      -280.2413
  70   2.0000     -10.298453      -280.2352
  71   2.0000     -10.297236      -280.2020
  72   2.0000     -10.296706      -280.1876
  73   2.0000     -10.296008      -280.1686
  74   2.0000     -10.295107      -280.1441
  75   2.0000     -10.295101      -280.1439
  76   2.0000     -10.294646      -280.1316
  77   2.0000     -10.290453      -280.0175
  78   2.0000     -10.289285      -279.9857
  79   2.0000     -10.283189      -279.8198
  80   2.0000     -10.280901      -279.7575
  81   2.0000     -10.277888      -279.6756
  82   2.0000      -8.793929      -239.2950
  83   2.0000      -8.787670      -239.1247
  84   2.0000      -8.073474      -219.6904
  85   2.0000      -8.068752      -219.5619
  86   2.0000      -8.064313      -219.4411
  87   2.0000      -8.063518      -219.4195
  88   2.0000      -8.060820      -219.3461
  89   2.0000      -6.630250      -180.4183
  90   2.0000      -6.623877      -180.2449
  91   2.0000      -6.615651      -180.0210
  92   2.0000      -6.615443      -180.0154
  93   2.0000      -6.609453      -179.8524
  94   2.0000      -6.609255      -179.8470
  95   2.0000      -6.043170      -164.4430
  96   2.0000      -6.038816      -164.3245
  97   2.0000      -6.038109      -164.3053
  98   2.0000      -6.034764      -164.2143
  99   2.0000      -6.034209      -164.1992
 100   2.0000      -6.033947      -164.1920
 101   2.0000      -6.033228      -164.1725
 102   2.0000      -6.030511      -164.0986
 103   2.0000      -6.030257      -164.0916
 104   2.0000      -6.029858      -164.0808
 105   2.0000      -6.028927      -164.0554
 106   2.0000      -6.026472      -163.9886
 107   2.0000      -6.025272      -163.9560
 108   2.0000      -6.024747      -163.9417
 109   2.0000      -6.021829      -163.8623
 110   2.0000      -2.746121       -74.7257
 111   2.0000      -2.742006       -74.6138
 112   2.0000      -2.741887       -74.6105
 113   2.0000      -2.739735       -74.5520
 114   2.0000      -2.735747       -74.4435
 115   2.0000      -2.735573       -74.4387
 116   2.0000      -2.730267       -74.2943
 117   2.0000      -2.730243       -74.2937
 118   2.0000      -2.724117       -74.1270
 119   2.0000      -2.724098       -74.1265
 120   2.0000      -1.235476       -33.6190
 121   2.0000      -1.189875       -32.3781
 122   2.0000      -1.164502       -31.6877
 123   2.0000      -1.156127       -31.4598
 124   2.0000      -1.139730       -31.0136
 125   2.0000      -1.134799       -30.8794
 126   2.0000      -1.113096       -30.2889
 127   2.0000      -1.043357       -28.3912
 128   2.0000      -1.027614       -27.9628
 129   2.0000      -1.018550       -27.7161
 130   2.0000      -1.017177       -27.6788
 131   2.0000      -1.011857       -27.5340
 132   2.0000      -1.005343       -27.3568
 133   2.0000      -1.000192       -27.2166
 134   2.0000      -0.999012       -27.1845
 135   2.0000      -0.995177       -27.0802
 136   2.0000      -0.991414       -26.9778
 137   2.0000      -0.979535       -26.6545
 138   2.0000      -0.976545       -26.5731
 139   2.0000      -0.951251       -25.8848
 140   2.0000      -0.938801       -25.5461
 141   2.0000      -0.933694       -25.4071
 142   2.0000      -0.927364       -25.2349
 143   2.0000      -0.920570       -25.0500
 144   2.0000      -0.912700       -24.8358
 145   2.0000      -0.909196       -24.7405
 146   2.0000      -0.904715       -24.6185
 147   2.0000      -0.898169       -24.4404
 148   2.0000      -0.896191       -24.3866
 149   2.0000      -0.889570       -24.2064
 150   2.0000      -0.880328       -23.9549
 151   2.0000      -0.875348       -23.8194
 152   2.0000      -0.872408       -23.7394
 153   2.0000      -0.860047       -23.4031
 154   2.0000      -0.858467       -23.3601
 155   2.0000      -0.848220       -23.0812
 156   2.0000      -0.835351       -22.7311
 157   2.0000      -0.832768       -22.6608
 158   2.0000      -0.831028       -22.6134
 159   2.0000      -0.825567       -22.4648
 160   2.0000      -0.818994       -22.2860
 161   2.0000      -0.805421       -21.9166
 162   2.0000      -0.791380       -21.5346
 163   2.0000      -0.779274       -21.2051
 164   2.0000      -0.772470       -21.0200
 165   2.0000      -0.766111       -20.8469
 166   2.0000      -0.764711       -20.8088
 167   2.0000      -0.754298       -20.5255
 168   2.0000      -0.747853       -20.3501
 169   2.0000      -0.736255       -20.0345
 170   2.0000      -0.723237       -19.6803
 171   2.0000      -0.716546       -19.4982
 172   2.0000      -0.707430       -19.2502
 173   2.0000      -0.705076       -19.1861
 174   2.0000      -0.699809       -19.0428
 175   2.0000      -0.695665       -18.9300
 176   2.0000      -0.689894       -18.7730
 177   2.0000      -0.683489       -18.5987
 178   2.0000      -0.678633       -18.4665
 179   2.0000      -0.676176       -18.3997
 180   2.0000      -0.663012       -18.0415
 181   2.0000      -0.661064       -17.9885
 182   2.0000      -0.653415       -17.7803
 183   2.0000      -0.650601       -17.7038
 184   2.0000      -0.641622       -17.4594
 185   2.0000      -0.638448       -17.3731
 186   2.0000      -0.634658       -17.2699
 187   2.0000      -0.629656       -17.1338
 188   2.0000      -0.626109       -17.0373
 189   2.0000      -0.620853       -16.8943
 190   2.0000      -0.612888       -16.6775
 191   2.0000      -0.611812       -16.6483
 192   2.0000      -0.611323       -16.6349
 193   2.0000      -0.602724       -16.4010
 194   2.0000      -0.600752       -16.3473
 195   2.0000      -0.596929       -16.2433
 196   2.0000      -0.596516       -16.2320
 197   2.0000      -0.592893       -16.1334
 198   2.0000      -0.589346       -16.0369
 199   2.0000      -0.584717       -15.9110
 200   2.0000      -0.582707       -15.8563
 201   2.0000      -0.576633       -15.6910
 202   2.0000      -0.570254       -15.5174
 203   2.0000      -0.569250       -15.4901
 204   2.0000      -0.559685       -15.2298
 205   2.0000      -0.554927       -15.1003
 206   2.0000      -0.553537       -15.0625
 207   2.0000      -0.548726       -14.9316
 208   2.0000      -0.547783       -14.9059
 209   2.0000      -0.543262       -14.7829
 210   2.0000      -0.539410       -14.6781
 211   2.0000      -0.538429       -14.6514
 212   2.0000      -0.533191       -14.5089
 213   2.0000      -0.530178       -14.4269
 214   2.0000      -0.528923       -14.3927
 215   2.0000      -0.526721       -14.3328
 216   2.0000      -0.525450       -14.2982
 217   2.0000      -0.524287       -14.2666
 218   2.0000      -0.522091       -14.2068
 219   2.0000      -0.520727       -14.1697
 220   2.0000      -0.517690       -14.0871
 221   2.0000      -0.517547       -14.0832
 222   2.0000      -0.515117       -14.0171
 223   2.0000      -0.513729       -13.9793
 224   2.0000      -0.510811       -13.8999
 225   2.0000      -0.510245       -13.8845
 226   2.0000      -0.507634       -13.8134
 227   2.0000      -0.500153       -13.6099
 228   2.0000      -0.498301       -13.5595
 229   2.0000      -0.498030       -13.5521
 230   2.0000      -0.496757       -13.5175
 231   2.0000      -0.496266       -13.5041
 232   2.0000      -0.492853       -13.4112
 233   2.0000      -0.487450       -13.2642
 234   2.0000      -0.486600       -13.2411
 235   2.0000      -0.484646       -13.1879
 236   2.0000      -0.483137       -13.1468
 237   2.0000      -0.481197       -13.0940
 238   2.0000      -0.480549       -13.0764
 239   2.0000      -0.477820       -13.0022
 240   2.0000      -0.476900       -12.9771
 241   2.0000      -0.475783       -12.9467
 242   2.0000      -0.469075       -12.7642
 243   2.0000      -0.464946       -12.6518
 244   2.0000      -0.461383       -12.5549
 245   2.0000      -0.457266       -12.4429
 246   2.0000      -0.453321       -12.3355
 247   2.0000      -0.451870       -12.2960
 248   2.0000      -0.450765       -12.2659
 249   2.0000      -0.448485       -12.2039
 250   2.0000      -0.448145       -12.1946
 251   2.0000      -0.445917       -12.1340
 252   2.0000      -0.442839       -12.0503
 253   2.0000      -0.436620       -11.8810
 254   2.0000      -0.433538       -11.7972
 255   2.0000      -0.432491       -11.7687
 256   2.0000      -0.432078       -11.7574
 257   2.0000      -0.431283       -11.7358
 258   2.0000      -0.430050       -11.7023
 259   2.0000      -0.428610       -11.6631
 260   2.0000      -0.427321       -11.6280
 261   2.0000      -0.426771       -11.6130
 262   2.0000      -0.422669       -11.5014
 263   2.0000      -0.418579       -11.3901
 264   2.0000      -0.416541       -11.3347
 265   2.0000      -0.413777       -11.2594
 266   2.0000      -0.412060       -11.2127
 267   2.0000      -0.410353       -11.1663
 268   2.0000      -0.406610       -11.0644
 269   2.0000      -0.397755       -10.8235
 270   2.0000      -0.396751       -10.7961
 271   2.0000      -0.394331       -10.7303
 272   2.0000      -0.391309       -10.6481
 273   2.0000      -0.385417       -10.4877
 274   2.0000      -0.381529       -10.3819
 275   2.0000      -0.378126       -10.2893
 276   2.0000      -0.375695       -10.2232
 277   2.0000      -0.370621       -10.0851
 278   2.0000      -0.369660       -10.0590
 279   2.0000      -0.367703       -10.0057
 280   2.0000      -0.361404        -9.8343
 281   2.0000      -0.355153        -9.6642
 282   2.0000      -0.350060        -9.5256
 283   2.0000      -0.348163        -9.4740
 284   2.0000      -0.344237        -9.3672
 285   2.0000      -0.343737        -9.3536
 286   2.0000      -0.341145        -9.2830
 287   2.0000      -0.326910        -8.8957
 288   2.0000      -0.319711        -8.6998
 289   2.0000      -0.317490        -8.6393
 290   2.0000      -0.310780        -8.4568
 291   2.0000      -0.305393        -8.3102
 292   2.0000      -0.298191        -8.1142
 293   2.0000      -0.295581        -8.0432
 294   2.0000      -0.284536        -7.7426
 295   2.0000      -0.271583        -7.3902
 296   2.0000      -0.221146        -6.0177
 297   0.0000      -0.117169        -3.1883
 298   0.0000      -0.097237        -2.6460
 299   0.0000      -0.068826        -1.8728
 300   0.0000      -0.062402        -1.6980
 301   0.0000      -0.051255        -1.3947

MULLIKEN ATOMIC CHARGES
-----------------------
   0 C :    0.271246
   1 C :   -0.321517
   2 C :   -0.183377
   3 N :    0.155729
   4 C :   -0.202794
   5 N :    0.165949
   6 C :    0.020491
   7 C :   -0.025460
   8 C :   -0.065046
   9 C :    0.113648
  10 C :   -0.088250
  11 C :   -0.019025
  12 S :    0.191892
  13 C :   -0.122076
  14 C :    0.040394
  15 Br:    0.031223
  16 C :    0.168467
  17 O :   -0.135226
  18 C :   -0.069327
  19 C :   -0.047492
  20 C :    0.101032
  21 O :   -0.205606
  22 C :   -0.005438
  23 C :    0.182506
  24 O :   -0.129054
  25 N :   -0.169008
  26 C :    0.165996
  27 O :   -0.139084
  28 C :   -0.049094
  29 C :    0.089521
  30 C :   -0.021168
  31 C :    0.033358
  32 C :   -0.124177
  33 S :    0.133265
  34 C :   -0.151056
  35 C :    0.133159
  36 C :    0.175825
  37 O :   -0.310933
  38 C :    0.181422
  39 C :   -0.011944
  40 C :    0.184370
  41 O :   -0.313444
  42 C :    0.042989
  43 C :   -0.070130
  44 C :    0.066400
  45 C :    0.020909
  46 C :   -0.053005
  47 S :    0.093746
  48 C :   -0.073406
  49 C :    0.031577
  50 C :    0.033035
  51 C :   -0.028154
  52 S :    0.130860
  53 C :   -0.002568
  54 C :    0.053694
  55 C :   -0.144775
  56 C :    0.256889
  57 C :   -0.341184
  58 C :   -0.182091
  59 N :    0.139865
  60 C :   -0.214840
  61 N :    0.162492
  62 C :    0.017338
  63 C :   -0.003822
  64 C :    0.135021
  65 O :   -0.154150
  66 C :   -0.079083
  67 C :    0.114399
  68 C :   -0.088160
  69 C :   -0.029481
  70 S :    0.174373
  71 C :   -0.130617
  72 C :    0.040459
  73 Br:    0.014453
  74 H :   -0.006081
  75 H :   -0.002035
  76 H :   -0.001979
  77 H :    0.044696
  78 H :    0.139824
  79 H :    0.028590
  80 H :    0.015635
  81 H :    0.037954
  82 H :    0.030120
  83 H :    0.026563
  84 H :    0.027714
  85 H :    0.033960
  86 H :    0.031101
  87 H :    0.014887
  88 H :    0.002458
  89 H :    0.006882
  90 H :    0.009960
  91 H :    0.005097
  92 H :    0.007188
  93 H :    0.008330
  94 H :   -0.012159
  95 H :   -0.008178
  96 H :   -0.003457
Sum of atomic charges:   -0.0000000

LOEWDIN ATOMIC CHARGES
----------------------
   0 C :    0.072691
   1 C :   -0.131403
   2 C :   -0.018306
   3 N :   -0.046563
   4 C :   -0.024926
   5 N :   -0.045359
   6 C :   -0.021611
   7 C :   -0.049343
   8 C :    0.024240
   9 C :   -0.030315
  10 C :   -0.144154
  11 C :   -0.008422
  12 S :    0.442250
  13 C :   -0.268928
  14 C :   -0.070420
  15 Br:    0.142967
  16 C :    0.087378
  17 O :   -0.122906
  18 C :   -0.060888
  19 C :    0.043015
  20 C :    0.044684
  21 O :    0.021770
  22 C :   -0.054148
  23 C :    0.087673
  24 O :   -0.142423
  25 N :   -0.004181
  26 C :    0.084418
  27 O :   -0.157701
  28 C :   -0.102327
  29 C :    0.083950
  30 C :   -0.037407
  31 C :   -0.013538
  32 C :   -0.190623
  33 S :    0.444252
  34 C :   -0.198365
  35 C :   -0.000652
  36 C :   -0.005518
  37 O :   -0.101247
  38 C :    0.085247
  39 C :   -0.060275
  40 C :    0.086135
  41 O :   -0.106202
  42 C :   -0.036775
  43 C :   -0.163725
  44 C :   -0.004836
  45 C :   -0.045419
  46 C :   -0.147562
  47 S :    0.399763
  48 C :   -0.196205
  49 C :   -0.023186
  50 C :   -0.032268
  51 C :   -0.107695
  52 S :    0.404937
  53 C :   -0.067671
  54 C :    0.051651
  55 C :   -0.102488
  56 C :    0.066622
  57 C :   -0.155732
  58 C :   -0.020879
  59 N :   -0.065282
  60 C :   -0.026999
  61 N :   -0.057595
  62 C :   -0.014925
  63 C :   -0.049790
  64 C :    0.077866
  65 O :   -0.155312
  66 C :    0.017822
  67 C :   -0.037393
  68 C :   -0.146071
  69 C :   -0.017236
  70 S :    0.424634
  71 C :   -0.279603
  72 C :   -0.069164
  73 Br:    0.129029
  74 H :    0.042383
  75 H :    0.041722
  76 H :    0.039460
  77 H :    0.053644
  78 H :    0.095470
  79 H :    0.046330
  80 H :    0.033153
  81 H :    0.032659
  82 H :    0.021382
  83 H :    0.035332
  84 H :    0.036032
  85 H :    0.031346
  86 H :    0.022112
  87 H :    0.046554
  88 H :    0.039197
  89 H :    0.038068
  90 H :    0.033082
  91 H :    0.039598
  92 H :    0.037772
  93 H :    0.035851
  94 H :    0.039863
  95 H :    0.039343
  96 H :    0.038618

  Mayer bond orders larger than 0.100000
B(  0-C ,  1-C ) :   1.6710 B(  0-C ,  6-C ) :   1.0205 B(  0-C , 18-C ) :   1.0408
B(  1-C ,  2-C ) :   1.1325 B(  1-C ,  4-C ) :   1.1349 B(  2-C ,  3-N ) :   2.9821
B(  4-C ,  5-N ) :   3.0102 B(  6-C ,  7-C ) :   1.2661 B(  6-C , 11-C ) :   1.4078
B(  7-C ,  8-C ) :   1.4278 B(  7-C , 16-C ) :   0.9428 B(  8-C ,  9-C ) :   1.2518
B(  8-C , 74-H ) :   1.0156 B(  9-C , 10-C ) :   1.2984 B(  9-C , 14-C ) :   1.1677
B( 10-C , 11-C ) :   1.3346 B( 10-C , 12-S ) :   1.0859 B( 11-C , 75-H ) :   0.9818
B( 12-S , 13-C ) :   1.0904 B( 13-C , 14-C ) :   1.6129 B( 13-C , 15-Br) :   1.0255
B( 14-C , 76-H ) :   1.0004 B( 16-C , 17-O ) :   2.2213 B( 16-C , 18-C ) :   0.9249
B( 18-C , 19-C ) :   1.6746 B( 19-C , 20-C ) :   1.1316 B( 19-C , 77-H ) :   0.9396
B( 20-C , 21-O ) :   1.1151 B( 20-C , 22-C ) :   1.4677 B( 21-O , 29-C ) :   1.1630
B( 22-C , 23-C ) :   0.8610 B( 22-C , 28-C ) :   1.2981 B( 23-C , 24-O ) :   2.2738
B( 23-C , 25-N ) :   1.0791 B( 25-N , 26-C ) :   1.0742 B( 25-N , 78-H ) :   0.9147
B( 26-C , 27-O ) :   2.2794 B( 26-C , 28-C ) :   0.8750 B( 28-C , 29-C ) :   1.3748
B( 29-C , 30-C ) :   1.1583 B( 30-C , 31-C ) :   1.6728 B( 30-C , 79-H ) :   0.9701
B( 31-C , 32-C ) :   1.1430 B( 31-C , 80-H ) :   0.9418 B( 32-C , 33-S ) :   1.1170
B( 32-C , 34-C ) :   0.1018 B( 32-C , 36-C ) :   1.4131 B( 33-S , 34-C ) :   1.0828
B( 34-C , 35-C ) :   1.4074 B( 34-C , 42-C ) :   1.2218 B( 35-C , 36-C ) :   1.2189
B( 35-C , 41-O ) :   1.1774 B( 36-C , 37-O ) :   1.1664 B( 37-O , 38-C ) :   0.9474
B( 38-C , 39-C ) :   1.0939 B( 38-C , 81-H ) :   0.9592 B( 38-C , 82-H ) :   0.9365
B( 39-C , 40-C ) :   1.0962 B( 39-C , 83-H ) :   0.9340 B( 39-C , 84-H ) :   0.9334
B( 40-C , 41-O ) :   0.9458 B( 40-C , 85-H ) :   0.9590 B( 40-C , 86-H ) :   0.9364
B( 42-C , 43-C ) :   1.4878 B( 42-C , 87-H ) :   0.9768 B( 43-C , 44-C ) :   1.1766
B( 43-C , 47-S ) :   1.0489 B( 44-C , 45-C ) :   1.5500 B( 44-C , 88-H ) :   0.9974
B( 45-C , 46-C ) :   1.2002 B( 45-C , 89-H ) :   0.9997 B( 46-C , 47-S ) :   1.0776
B( 46-C , 48-C ) :   1.4662 B( 48-C , 49-C ) :   1.2058 B( 48-C , 52-S ) :   1.0452
B( 49-C , 50-C ) :   1.5391 B( 49-C , 90-H ) :   0.9924 B( 50-C , 51-C ) :   1.1822
B( 50-C , 91-H ) :   1.0016 B( 51-C , 52-S ) :   1.0889 B( 51-C , 53-C ) :   1.4863
B( 53-C , 54-C ) :   1.2506 B( 53-C , 92-H ) :   0.9576 B( 54-C , 55-C ) :   1.5342
B( 54-C , 93-H ) :   0.9521 B( 55-C , 56-C ) :   1.0847 B( 55-C , 64-C ) :   0.9658
B( 56-C , 57-C ) :   1.6146 B( 56-C , 62-C ) :   1.0065 B( 57-C , 58-C ) :   1.1344
B( 57-C , 60-C ) :   1.1571 B( 58-C , 59-N ) :   2.9830 B( 60-C , 61-N ) :   3.0171
B( 62-C , 63-C ) :   1.2703 B( 62-C , 69-C ) :   1.4256 B( 63-C , 64-C ) :   0.9157
B( 63-C , 66-C ) :   1.4370 B( 64-C , 65-O ) :   2.2518 B( 66-C , 67-C ) :   1.2427
B( 66-C , 94-H ) :   1.0167 B( 67-C , 68-C ) :   1.3186 B( 67-C , 72-C ) :   1.1606
B( 68-C , 69-C ) :   1.3154 B( 68-C , 70-S ) :   1.0786 B( 69-C , 95-H ) :   0.9856
B( 70-S , 71-C ) :   1.0841 B( 71-C , 72-C ) :   1.6198 B( 71-C , 73-Br) :   1.0136
B( 72-C , 96-H ) :   1.0011

-----------------------------------------------------------------------------
         ABSORPTION SPECTRUM VIA TRANSITION ELECTRIC DIPOLE MOMENTS
-----------------------------------------------------------------------------
State   Energy  Wavelength   fosc         T2         TX        TY        TZ
        (cm-1)    (nm)                  (au**2)     (au)      (au)      (au)
-----------------------------------------------------------------------------
   0    9123.8   1096.0   0.724107704  26.12770  -1.48909  -3.52774  -3.38605
   1   15448.8    647.3   0.349756376   7.45326  -0.56151   2.64428   0.38181
   2   18921.7    528.5   0.070758653   1.23111  -0.18215   0.98122   0.48490
   3   20199.8    495.1   0.866822018  14.12726  -1.11211   3.36796  -1.24391
   4   22095.5    452.6   0.313541671   4.67161   0.74257  -2.02498  -0.14022
   5   23390.2    427.5   0.103345307   1.45456   0.54813  -0.99776   0.39823
   6   23555.6    424.5   0.213880913   2.98919   0.32138  -0.64608  -1.57114
   7   24265.0    412.1   0.238770345   3.23948  -0.98946   0.94447  -1.16979
   8   25079.2    398.7   0.074951245   0.98388  -0.43525   0.40990  -0.79147
   9   26251.1    380.9   0.207942192   2.60778  -0.95054  -1.29879  -0.13184
  10   26370.4    379.2   0.025424326   0.31740  -0.34495  -0.43706  -0.08598
  11   26785.5    373.3   0.034480545   0.42379  -0.61515  -0.17351   0.12357
  12   27333.9    365.8   0.032050747   0.38602   0.57801   0.04779   0.22281
  13   28118.4    355.6   0.005952335   0.06969  -0.16856   0.13257   0.15396
  14   28240.8    354.1   0.011090867   0.12929   0.02910  -0.34598  -0.09348
  15   29053.7    344.2   0.008517100   0.09651  -0.20012   0.23748  -0.00787
  16   29253.8    341.8   0.016043568   0.18055  -0.22110   0.01049  -0.36270
  17   29443.2    339.6   0.015689025   0.17542   0.30345   0.02800  -0.28733
  18   29678.7    336.9   0.235083496   2.60768  -0.63033  -1.48600  -0.04652
  19   30089.3    332.3   0.048792658   0.53385  -0.69998  -0.03852   0.20589
  20   30963.2    323.0   0.105821910   1.12514   0.15701  -1.03647   0.16194
  21   31411.6    318.4   0.218097922   2.28580   0.27954   1.20494   0.86936
  22   31525.9    317.2   0.085882054   0.89683  -0.49627   0.29587  -0.75034
  23   31974.5    312.7   0.242685239   2.49870  -1.32345   0.69748  -0.51060
  24   32323.4    309.4   0.110447965   1.12490  -0.98568   0.27744  -0.27634
  25   32455.2    308.1   0.062816843   0.63719  -0.33190   0.71171  -0.14315
  26   32787.7    305.0   0.053875003   0.54094  -0.62602  -0.13183  -0.36285
  27   32982.3    303.2   0.361237411   3.60568  -0.98093  -1.59942   0.29208
  28   33321.4    300.1   0.012514869   0.12365   0.33234   0.00270   0.11483
  29   33377.6    299.6   0.112887564   1.11344   1.02728  -0.21934  -0.10011
  30   33580.0    297.8   0.039915045   0.39132   0.52771  -0.19052   0.27667
  31   33800.2    295.9   0.200137451   1.94933  -1.35957   0.06082   0.31177
  32   34045.3    293.7   0.016371588   0.15831  -0.12763  -0.31802   0.20220
  33   34161.0    292.7   0.039667296   0.38228   0.25681   0.54220  -0.14947
  34   34320.1    291.4   0.024751418   0.23743  -0.26986  -0.39315  -0.10017
  35   34669.0    288.4   0.024280000   0.23056   0.38395  -0.28296   0.05542
  36   35052.0    285.3   0.008628393   0.08104  -0.20960  -0.14023  -0.13206
  37   36071.5    277.2   0.067159864   0.61294   0.67565  -0.02313   0.39485
  38   36228.3    276.0   0.063391210   0.57604   0.12607  -0.57520  -0.47885
  39   36416.9    274.6   0.027085365   0.24485   0.13444   0.38383  -0.28187
  40   36657.0    272.8   0.012778042   0.11476  -0.05356   0.20390  -0.26517
  41   36785.1    271.8   0.026004566   0.23273   0.24749  -0.20721   0.35853
  42   37059.9    269.8   0.067245003   0.59735  -0.12019   0.22201   0.73049
  43   37488.4    266.7   0.061804621   0.54275   0.69921  -0.13378   0.18962
  44   37642.0    265.7   0.066679603   0.58317  -0.63424   0.38973  -0.17035
  45   37863.5    264.1   0.068543462   0.59597   0.63012   0.26478   0.35889
  46   38013.6    263.1   0.019694486   0.17056   0.27706   0.28297  -0.11717
  47   38212.8    261.7   0.118933841   1.02464  -0.30054   0.53918   0.80225
  48   38356.1    260.7   0.068869286   0.59111  -0.32729  -0.59452  -0.36129
  49   38525.9    259.6   0.039031317   0.33353   0.32767   0.45641   0.13362
  50   38834.8    257.5   0.094201732   0.79857  -0.28295   0.25427   0.80861
  51   38889.1    257.1   0.099099597   0.83892  -0.85410  -0.16259   0.28810
  52   39420.8    253.7   0.051258949   0.42808  -0.30670   0.22727   0.53137
  53   39519.2    253.0   0.015963443   0.13298  -0.07626  -0.35301  -0.05052
  54   39827.6    251.1   0.008796692   0.07271   0.03099   0.25833  -0.07084
  55   39878.3    250.8   0.008362536   0.06904   0.04496   0.20601  -0.15677
  56   40240.1    248.5   0.051170414   0.41864   0.40201  -0.48920  -0.13304

FINAL SINGLE POINT ENERGY    -10044.533355651542

DIPOLE MOMENT
-------------
                                X             Y             Z
Electronic contribution:     22.40004    -219.71234     -25.38790
Nuclear contribution   :    -22.34887     224.40810      27.50496
                        -----------------------------------------
Total Dipole Moment    :      0.05118       4.69576       2.11706
                        -----------------------------------------
Magnitude (a.u.)       :      5.15118
Magnitude (Debye)      :     13.09326

Rotational constants in cm-1:     0.000762     0.000407     0.000297
Rotational constants in MHz :    22.833933    12.208132     8.905444

                             ****ORCA TERMINATED NORMALLY****
TOTAL RUN TIME: 0 days 0 hours 11 minutes 24 seconds 368 msec
