                         Program Version 4.2.0 -  RELEASE  -
|  1> # ORCA input file
|  2> # SCF done       -196.035811708382          0.000903253198
|  3> ! CAM-B3LYP def2-SVP def2/J RIJCOSX Grid4 TightSCF
|  4> %maxcore 5000
|  5> %tddft
|  6>     Mode sTDDFT
|  7>     Ethresh 5.0
|  8>     maxcore 5000
|  9> end
| 10>
| 11> %pal
| 12>   nprocs 6
| 13>   end
| 14> * xyz 0 1
| 15>    C       -3.03057        -1.20475         0.18406
| 16>    C       -2.74806        -2.00025         1.26992
| 17>    C       -2.02667        -3.20861         1.19734
| 18>    N       -1.44899        -4.20125         1.20730
| 19>    C       -3.14108        -1.74505         2.59829
| 20>    N       -3.42715        -1.60661         3.70311
| 21>    C       -2.63102        -1.49353        -1.19198
| 22>    C       -3.15181        -0.48148        -2.03521
| 23>    C       -2.94061        -0.46310        -3.39139
| 24>    C       -2.17115        -1.49298        -3.94496
| 25>    C       -1.65342        -2.49824        -3.09600
| 26>    C       -1.87194        -2.51797        -1.72282
| 27>    S       -0.72493        -3.66891        -3.98290
| 28>    C       -1.04198        -2.80379        -5.46292
| 29>    C       -1.80240        -1.69479        -5.30329
| 30>   Br       -0.33452        -3.44231        -7.07890
| 31>    C       -3.89565         0.49040        -1.21208
| 32>    O       -4.49301         1.47380        -1.62222
| 33>    C       -3.77013         0.03528         0.16981
| 34>    C       -4.22907         0.70469         1.28873
| 35>    C       -4.89203         1.91830         1.41072
| 36>    S       -5.40021         2.95670         0.10651
| 37>    C       -5.99061         4.17195         1.19059
| 38>    C       -5.81111         3.78883         2.54539
| 39>    C       -5.21101         2.50938         2.66943
| 40>    C       -4.98945         1.96510         3.94233
| 41>    C       -5.36023         2.69053         5.04594
| 42>    F       -5.16106         2.18540         6.27001
| 43>    C       -5.95127         3.96069         4.92058
| 44>    F       -6.30085         4.63462         6.02662
| 45>    C       -6.17882         4.51255         3.68724
| 46>    C       -6.52243         5.38295         0.73502
| 47>    C       -6.85411         5.62224        -0.57677
| 48>    C       -7.28550         6.83405        -1.12270
| 49>    S       -8.16034         6.80329        -2.62937
| 50>    C       -8.38389         8.52815        -2.65817
| 51>    C       -7.75041         9.12116        -1.52945
| 52>    C       -7.13355         8.16927        -0.67366
| 53>    C       -6.39809         8.62858         0.42789
| 54>    C       -6.34921         9.97128         0.70253
| 55>    C       -5.57197        10.48344         1.88239
| 56>    F       -4.98977         9.49204         2.57802
| 57>    F       -4.58343        11.31982         1.52804
| 58>    F       -6.34175        11.14753         2.75886
| 59>    C       -7.01455        10.92444        -0.11424
| 60>    O       -6.89619        12.20687         0.27912
| 61>    C       -7.51035        13.21865        -0.48501
| 62>    C       -7.69530        10.48725        -1.23239
| 63>    C       -9.07666         9.19226        -3.65825
| 64>    C       -9.78456         8.63994        -4.71171
| 65>    C      -10.45368         9.36941        -5.71637
| 66>    C      -11.13030         8.59519        -6.61579
| 67>    C      -11.03591         7.21516        -6.35497
| 68>    S      -10.02783         6.92604        -4.95348
| 69>    C      -11.65337         6.17690        -7.03568
| 70>    C      -12.46541         6.26168        -8.18667
| 71>    C      -12.96414         5.06255        -8.59738
| 72>    C      -12.57929         3.96518        -7.78690
| 73>    S      -11.53036         4.51874        -6.49406
| 74>    C      -12.97800         2.66496        -7.95944
| 75>    C      -12.65395         1.55678        -7.16122
| 76>    S      -11.61874         1.58530        -5.74132
| 77>    C      -11.80037        -0.09123        -5.42152
| 78>    C      -12.62045        -0.68097        -6.35617
| 79>    C      -13.09170         0.25142        -7.32737
| 80>    O      -13.89367        -0.35080        -8.22675
| 81>    C      -13.94166        -1.65600        -7.84317
| 82>    N      -14.72935        -2.54025        -8.62190
| 83>    O      -14.75758        -3.70000        -8.25776
| 84>    O      -15.30883        -2.08587        -9.58336
| 85>    C      -13.19895        -1.92689        -6.72606
| 86>    H       -3.34976         0.32288        -4.00661
| 87>    H       -1.45198        -3.30547        -1.12010
| 88>    H       -2.09084        -1.04411        -6.10855
| 89>    H       -4.01084         0.23317         2.23611
| 90>    H       -4.54500         0.99330         4.08799
| 91>    H       -6.63668         5.48556         3.61987
| 92>    H       -6.71752         6.14078         1.47841
| 93>    H       -6.83025         4.77875        -1.25660
| 94>    H       -5.84373         7.94054         1.04310
| 95>    H       -7.28097        14.14923         0.03000
| 96>    H       -8.59525        13.08307        -0.52665
| 97>    H       -7.10216        13.25429        -1.49954
| 98>    H       -8.17884        11.19238        -1.88686
| 99>    H       -9.08271        10.27292        -3.61123
|100>    H      -10.42167        10.44422        -5.74671
|101>    H      -11.70094         8.98547        -7.43862
|102>    H      -12.65943         7.19712        -8.67918
|103>    H      -13.60370         4.92787        -9.45130
|104>    H      -13.63105         2.45079        -8.79563
|105>    H      -11.30356        -0.53260        -4.58284
|106>    H      -13.09569        -2.88166        -6.25389
|107> *
|108>
|109>                          ****END OF INPUT****

CARTESIAN COORDINATES (ANGSTROEM)
---------------------------------
  C     -3.030570   -1.204750    0.184060
  C     -2.748060   -2.000250    1.269920
  C     -2.026670   -3.208610    1.197340
  N     -1.448990   -4.201250    1.207300
  C     -3.141080   -1.745050    2.598290
  N     -3.427150   -1.606610    3.703110
  C     -2.631020   -1.493530   -1.191980
  C     -3.151810   -0.481480   -2.035210
  C     -2.940610   -0.463100   -3.391390
  C     -2.171150   -1.492980   -3.944960
  C     -1.653420   -2.498240   -3.096000
  C     -1.871940   -2.517970   -1.722820
  S     -0.724930   -3.668910   -3.982900
  C     -1.041980   -2.803790   -5.462920
  C     -1.802400   -1.694790   -5.303290
  Br    -0.334520   -3.442310   -7.078900
  C     -3.895650    0.490400   -1.212080
  O     -4.493010    1.473800   -1.622220
  C     -3.770130    0.035280    0.169810
  C     -4.229070    0.704690    1.288730
  C     -4.892030    1.918300    1.410720
  S     -5.400210    2.956700    0.106510
  C     -5.990610    4.171950    1.190590
  C     -5.811110    3.788830    2.545390
  C     -5.211010    2.509380    2.669430
  C     -4.989450    1.965100    3.942330
  C     -5.360230    2.690530    5.045940
  F     -5.161060    2.185400    6.270010
  C     -5.951270    3.960690    4.920580
  F     -6.300850    4.634620    6.026620
  C     -6.178820    4.512550    3.687240
  C     -6.522430    5.382950    0.735020
  C     -6.854110    5.622240   -0.576770
  C     -7.285500    6.834050   -1.122700
  S     -8.160340    6.803290   -2.629370
  C     -8.383890    8.528150   -2.658170
  C     -7.750410    9.121160   -1.529450
  C     -7.133550    8.169270   -0.673660
  C     -6.398090    8.628580    0.427890
  C     -6.349210    9.971280    0.702530
  C     -5.571970   10.483440    1.882390
  F     -4.989770    9.492040    2.578020
  F     -4.583430   11.319820    1.528040
  F     -6.341750   11.147530    2.758860
  C     -7.014550   10.924440   -0.114240
  O     -6.896190   12.206870    0.279120
  C     -7.510350   13.218650   -0.485010
  C     -7.695300   10.487250   -1.232390
  C     -9.076660    9.192260   -3.658250
  C     -9.784560    8.639940   -4.711710
  C    -10.453680    9.369410   -5.716370
  C    -11.130300    8.595190   -6.615790
  C    -11.035910    7.215160   -6.354970
  S    -10.027830    6.926040   -4.953480
  C    -11.653370    6.176900   -7.035680
  C    -12.465410    6.261680   -8.186670
  C    -12.964140    5.062550   -8.597380
  C    -12.579290    3.965180   -7.786900
  S    -11.530360    4.518740   -6.494060
  C    -12.978000    2.664960   -7.959440
  C    -12.653950    1.556780   -7.161220
  S    -11.618740    1.585300   -5.741320
  C    -11.800370   -0.091230   -5.421520
  C    -12.620450   -0.680970   -6.356170
  C    -13.091700    0.251420   -7.327370
  O    -13.893670   -0.350800   -8.226750
  C    -13.941660   -1.656000   -7.843170
  N    -14.729350   -2.540250   -8.621900
  O    -14.757580   -3.700000   -8.257760
  O    -15.308830   -2.085870   -9.583360
  C    -13.198950   -1.926890   -6.726060
  H     -3.349760    0.322880   -4.006610
  H     -1.451980   -3.305470   -1.120100
  H     -2.090840   -1.044110   -6.108550
  H     -4.010840    0.233170    2.236110
  H     -4.545000    0.993300    4.087990
  H     -6.636680    5.485560    3.619870
  H     -6.717520    6.140780    1.478410
  H     -6.830250    4.778750   -1.256600
  H     -5.843730    7.940540    1.043100
  H     -7.280970   14.149230    0.030000
  H     -8.595250   13.083070   -0.526650
  H     -7.102160   13.254290   -1.499540
  H     -8.178840   11.192380   -1.886860
  H     -9.082710   10.272920   -3.611230
  H    -10.421670   10.444220   -5.746710
  H    -11.700940    8.985470   -7.438620
  H    -12.659430    7.197120   -8.679180
  H    -13.603700    4.927870   -9.451300
  H    -13.631050    2.450790   -8.795630
  H    -11.303560   -0.532600   -4.582840
  H    -13.095690   -2.881660   -6.253890

 Total Charge           Charge          ....    0
 Multiplicity           Mult            ....    1
 Number of Electrons    NEL             ....  564
 Basis Dimension        Dim             .... 1141

ORBITAL ENERGIES
----------------

  NO   OCC          E(Eh)            E(eV)
   0   2.0000    -482.879989    -13139.8325
   1   2.0000     -88.988794     -2421.5082
   2   2.0000     -88.980225     -2421.2750
   3   2.0000     -88.967989     -2420.9420
   4   2.0000     -88.967952     -2420.9411
   5   2.0000     -88.967216     -2420.9210
   6   2.0000     -88.967012     -2420.9155
   7   2.0000     -62.557679     -1702.2810
   8   2.0000     -56.391618     -1534.4939
   9   2.0000     -56.388924     -1534.4206
  10   2.0000     -56.388886     -1534.4196
  11   2.0000     -24.797181      -674.7656
  12   2.0000     -24.788808      -674.5377
  13   2.0000     -24.788624      -674.5327
  14   2.0000     -24.786896      -674.4857
  15   2.0000     -24.786387      -674.4719
  16   2.0000     -19.320915      -525.7488
  17   2.0000     -19.267008      -524.2819
  18   2.0000     -19.251425      -523.8579
  19   2.0000     -19.249209      -523.7976
  20   2.0000     -19.208214      -522.6821
  21   2.0000     -14.663342      -399.0098
  22   2.0000     -14.406145      -392.0111
  23   2.0000     -14.400268      -391.8512
  24   2.0000     -10.514223      -286.1065
  25   2.0000     -10.396444      -282.9016
  26   2.0000     -10.371606      -282.2257
  27   2.0000     -10.368196      -282.1330
  28   2.0000     -10.360449      -281.9222
  29   2.0000     -10.359712      -281.9021
  30   2.0000     -10.356437      -281.8130
  31   2.0000     -10.351431      -281.6768
  32   2.0000     -10.339540      -281.3532
  33   2.0000     -10.333110      -281.1782
  34   2.0000     -10.330451      -281.1059
  35   2.0000     -10.328063      -281.0409
  36   2.0000     -10.327625      -281.0290
  37   2.0000     -10.327493      -281.0254
  38   2.0000     -10.326990      -281.0117
  39   2.0000     -10.326260      -280.9918
  40   2.0000     -10.325861      -280.9810
  41   2.0000     -10.324496      -280.9438
  42   2.0000     -10.321810      -280.8707
  43   2.0000     -10.320593      -280.8376
  44   2.0000     -10.320050      -280.8228
  45   2.0000     -10.316249      -280.7194
  46   2.0000     -10.311270      -280.5839
  47   2.0000     -10.310456      -280.5618
  48   2.0000     -10.309382      -280.5326
  49   2.0000     -10.308893      -280.5192
  50   2.0000     -10.307037      -280.4687
  51   2.0000     -10.306827      -280.4630
  52   2.0000     -10.306392      -280.4512
  53   2.0000     -10.305827      -280.4358
  54   2.0000     -10.305215      -280.4192
  55   2.0000     -10.304836      -280.4088
  56   2.0000     -10.304723      -280.4058
  57   2.0000     -10.303659      -280.3768
  58   2.0000     -10.303342      -280.3682
  59   2.0000     -10.303278      -280.3664
  60   2.0000     -10.302454      -280.3440
  61   2.0000     -10.302208      -280.3373
  62   2.0000     -10.300344      -280.2866
  63   2.0000     -10.298413      -280.2341
  64   2.0000     -10.297093      -280.1981
  65   2.0000     -10.296358      -280.1782
  66   2.0000     -10.295076      -280.1433
  67   2.0000     -10.294821      -280.1363
  68   2.0000     -10.293983      -280.1135
  69   2.0000     -10.292264      -280.0667
  70   2.0000     -10.292187      -280.0646
  71   2.0000     -10.289908      -280.0026
  72   2.0000     -10.288811      -279.9728
  73   2.0000     -10.282071      -279.7894
  74   2.0000     -10.279084      -279.7081
  75   2.0000      -8.787091      -239.1089
  76   2.0000      -8.083356      -219.9593
  77   2.0000      -8.075152      -219.7361
  78   2.0000      -8.063954      -219.4313
  79   2.0000      -8.063845      -219.4284
  80   2.0000      -8.063209      -219.4111
  81   2.0000      -8.060428      -219.3354
  82   2.0000      -6.623325      -180.2298
  83   2.0000      -6.608847      -179.8359
  84   2.0000      -6.608678      -179.8313
  85   2.0000      -6.052697      -164.7023
  86   2.0000      -6.048265      -164.5817
  87   2.0000      -6.045766      -164.5137
  88   2.0000      -6.044216      -164.4715
  89   2.0000      -6.040129      -164.3603
  90   2.0000      -6.037716      -164.2946
  91   2.0000      -6.033667      -164.1844
  92   2.0000      -6.033536      -164.1809
  93   2.0000      -6.032955      -164.1651
  94   2.0000      -6.029713      -164.0768
  95   2.0000      -6.029356      -164.0671
  96   2.0000      -6.029352      -164.0670
  97   2.0000      -6.028843      -164.0532
  98   2.0000      -6.025190      -163.9537
  99   2.0000      -6.025136      -163.9523
 100   2.0000      -6.025013      -163.9489
 101   2.0000      -6.024140      -163.9252
 102   2.0000      -6.022963      -163.8932
 103   2.0000      -2.739243       -74.5386
 104   2.0000      -2.735108       -74.4261
 105   2.0000      -2.735015       -74.4235
 106   2.0000      -2.723500       -74.1102
 107   2.0000      -2.723479       -74.1096
 108   2.0000      -1.382412       -37.6173
 109   2.0000      -1.335047       -36.3285
 110   2.0000      -1.309610       -35.6363
 111   2.0000      -1.294513       -35.2255
 112   2.0000      -1.285931       -34.9919
 113   2.0000      -1.281245       -34.8645
 114   2.0000      -1.241052       -33.7708
 115   2.0000      -1.175098       -31.9760
 116   2.0000      -1.151576       -31.3360
 117   2.0000      -1.122889       -30.5554
 118   2.0000      -1.018776       -27.7223
 119   2.0000      -1.014084       -27.5946
 120   2.0000      -1.013121       -27.5684
 121   2.0000      -1.007866       -27.4254
 122   2.0000      -1.006816       -27.3968
 123   2.0000      -1.002702       -27.2849
 124   2.0000      -0.991277       -26.9740
 125   2.0000      -0.983020       -26.7493
 126   2.0000      -0.978298       -26.6208
 127   2.0000      -0.957629       -26.0584
 128   2.0000      -0.947346       -25.7786
 129   2.0000      -0.945490       -25.7281
 130   2.0000      -0.934926       -25.4406
 131   2.0000      -0.926675       -25.2161
 132   2.0000      -0.915071       -24.9003
 133   2.0000      -0.905739       -24.6464
 134   2.0000      -0.898734       -24.4558
 135   2.0000      -0.894394       -24.3377
 136   2.0000      -0.884182       -24.0598
 137   2.0000      -0.878758       -23.9122
 138   2.0000      -0.876261       -23.8443
 139   2.0000      -0.871430       -23.7128
 140   2.0000      -0.865737       -23.5579
 141   2.0000      -0.861229       -23.4352
 142   2.0000      -0.848804       -23.0971
 143   2.0000      -0.847124       -23.0514
 144   2.0000      -0.842926       -22.9372
 145   2.0000      -0.836590       -22.7648
 146   2.0000      -0.825670       -22.4676
 147   2.0000      -0.820446       -22.3255
 148   2.0000      -0.808137       -21.9905
 149   2.0000      -0.805275       -21.9126
 150   2.0000      -0.794919       -21.6308
 151   2.0000      -0.786582       -21.4040
 152   2.0000      -0.779049       -21.1990
 153   2.0000      -0.763646       -20.7799
 154   2.0000      -0.749952       -20.4072
 155   2.0000      -0.742074       -20.1929
 156   2.0000      -0.738395       -20.0927
 157   2.0000      -0.727232       -19.7890
 158   2.0000      -0.721408       -19.6305
 159   2.0000      -0.718769       -19.5587
 160   2.0000      -0.707243       -19.2451
 161   2.0000      -0.703510       -19.1435
 162   2.0000      -0.688978       -18.7481
 163   2.0000      -0.686422       -18.6785
 164   2.0000      -0.683633       -18.6026
 165   2.0000      -0.677762       -18.4429
 166   2.0000      -0.676729       -18.4147
 167   2.0000      -0.667441       -18.1620
 168   2.0000      -0.664862       -18.0918
 169   2.0000      -0.664260       -18.0754
 170   2.0000      -0.656280       -17.8583
 171   2.0000      -0.655689       -17.8422
 172   2.0000      -0.649614       -17.6769
 173   2.0000      -0.648670       -17.6512
 174   2.0000      -0.647910       -17.6305
 175   2.0000      -0.641241       -17.4491
 176   2.0000      -0.638738       -17.3810
 177   2.0000      -0.635585       -17.2952
 178   2.0000      -0.625617       -17.0239
 179   2.0000      -0.618617       -16.8334
 180   2.0000      -0.617683       -16.8080
 181   2.0000      -0.615828       -16.7575
 182   2.0000      -0.611447       -16.6383
 183   2.0000      -0.609641       -16.5892
 184   2.0000      -0.606309       -16.4985
 185   2.0000      -0.604403       -16.4466
 186   2.0000      -0.598536       -16.2870
 187   2.0000      -0.593031       -16.1372
 188   2.0000      -0.588970       -16.0267
 189   2.0000      -0.580575       -15.7982
 190   2.0000      -0.579426       -15.7670
 191   2.0000      -0.577458       -15.7134
 192   2.0000      -0.575412       -15.6578
 193   2.0000      -0.574590       -15.6354
 194   2.0000      -0.566092       -15.4041
 195   2.0000      -0.563748       -15.3404
 196   2.0000      -0.560152       -15.2425
 197   2.0000      -0.553846       -15.0709
 198   2.0000      -0.550908       -14.9910
 199   2.0000      -0.546177       -14.8622
 200   2.0000      -0.541658       -14.7393
 201   2.0000      -0.541481       -14.7344
 202   2.0000      -0.536431       -14.5970
 203   2.0000      -0.535800       -14.5799
 204   2.0000      -0.535593       -14.5742
 205   2.0000      -0.531813       -14.4714
 206   2.0000      -0.531311       -14.4577
 207   2.0000      -0.526921       -14.3382
 208   2.0000      -0.522989       -14.2313
 209   2.0000      -0.522612       -14.2210
 210   2.0000      -0.520960       -14.1760
 211   2.0000      -0.519579       -14.1385
 212   2.0000      -0.515876       -14.0377
 213   2.0000      -0.514159       -13.9910
 214   2.0000      -0.511777       -13.9262
 215   2.0000      -0.509606       -13.8671
 216   2.0000      -0.507952       -13.8221
 217   2.0000      -0.506422       -13.7804
 218   2.0000      -0.504441       -13.7265
 219   2.0000      -0.501070       -13.6348
 220   2.0000      -0.500313       -13.6142
 221   2.0000      -0.497175       -13.5288
 222   2.0000      -0.496015       -13.4972
 223   2.0000      -0.490413       -13.3448
 224   2.0000      -0.490392       -13.3442
 225   2.0000      -0.487231       -13.2582
 226   2.0000      -0.486767       -13.2456
 227   2.0000      -0.483823       -13.1655
 228   2.0000      -0.483141       -13.1469
 229   2.0000      -0.477044       -12.9810
 230   2.0000      -0.475057       -12.9270
 231   2.0000      -0.473321       -12.8797
 232   2.0000      -0.469485       -12.7753
 233   2.0000      -0.466102       -12.6833
 234   2.0000      -0.465733       -12.6732
 235   2.0000      -0.463210       -12.6046
 236   2.0000      -0.462064       -12.5734
 237   2.0000      -0.459742       -12.5102
 238   2.0000      -0.454183       -12.3589
 239   2.0000      -0.450043       -12.2463
 240   2.0000      -0.447213       -12.1693
 241   2.0000      -0.442834       -12.0501
 242   2.0000      -0.440629       -11.9901
 243   2.0000      -0.439884       -11.9699
 244   2.0000      -0.437348       -11.9009
 245   2.0000      -0.435496       -11.8505
 246   2.0000      -0.431519       -11.7422
 247   2.0000      -0.430182       -11.7059
 248   2.0000      -0.426888       -11.6162
 249   2.0000      -0.423306       -11.5187
 250   2.0000      -0.420927       -11.4540
 251   2.0000      -0.419307       -11.4099
 252   2.0000      -0.417512       -11.3611
 253   2.0000      -0.415775       -11.3138
 254   2.0000      -0.412149       -11.2151
 255   2.0000      -0.407657       -11.0929
 256   2.0000      -0.402579       -10.9547
 257   2.0000      -0.400796       -10.9062
 258   2.0000      -0.397054       -10.8044
 259   2.0000      -0.395168       -10.7531
 260   2.0000      -0.394349       -10.7308
 261   2.0000      -0.388447       -10.5702
 262   2.0000      -0.384569       -10.4646
 263   2.0000      -0.379099       -10.3158
 264   2.0000      -0.378802       -10.3077
 265   2.0000      -0.369464       -10.0536
 266   2.0000      -0.360543        -9.8109
 267   2.0000      -0.357104        -9.7173
 268   2.0000      -0.356592        -9.7034
 269   2.0000      -0.348317        -9.4782
 270   2.0000      -0.342550        -9.3213
 271   2.0000      -0.330682        -8.9983
 272   2.0000      -0.326310        -8.8793
 273   2.0000      -0.324366        -8.8264
 274   2.0000      -0.317243        -8.6326
 275   2.0000      -0.315063        -8.5733
 276   2.0000      -0.311104        -8.4656
 277   2.0000      -0.306788        -8.3481
 278   2.0000      -0.285922        -7.7803
 279   2.0000      -0.278112        -7.5678
 280   2.0000      -0.249422        -6.7871
 281   2.0000      -0.210951        -5.7403
 282   0.0000      -0.118517        -3.2250
 283   0.0000      -0.084524        -2.3000
 284   0.0000      -0.068751        -1.8708
 285   0.0000      -0.056709        -1.5431
 286   0.0000      -0.043322        -1.1788

MULLIKEN ATOMIC CHARGES
-----------------------
   0 C :    0.322532
   1 C :   -0.369227
   2 C :   -0.186039
   3 N :    0.138735
   4 C :   -0.183885
   5 N :    0.133596
   6 C :    0.009745
   7 C :   -0.004678
   8 C :   -0.079768
   9 C :    0.117885
  10 C :   -0.094539
  11 C :   -0.023784
  12 S :    0.182379
  13 C :   -0.123517
  14 C :    0.036139
  15 Br:    0.015653
  16 C :    0.148234
  17 O :   -0.196960
  18 C :   -0.105382
  19 C :   -0.037610
  20 C :   -0.075249
  21 S :    0.196413
  22 C :   -0.049149
  23 C :    0.123022
  24 C :    0.128696
  25 C :   -0.115821
  26 C :    0.228749
  27 F :   -0.166726
  28 C :    0.216653
  29 F :   -0.176173
  30 C :   -0.109595
  31 C :   -0.057176
  32 C :    0.043409
  33 C :   -0.107818
  34 S :    0.144688
  35 C :   -0.080414
  36 C :    0.140644
  37 C :    0.129944
  38 C :   -0.069634
  39 C :   -0.158513
  40 C :    0.541449
  41 F :   -0.162162
  42 F :   -0.161220
  43 F :   -0.161970
  44 C :    0.252906
  45 O :   -0.290717
  46 C :    0.180695
  47 C :   -0.172659
  48 C :   -0.028518
  49 C :   -0.034761
  50 C :    0.022727
  51 C :    0.032603
  52 C :   -0.042642
  53 S :    0.084257
  54 C :   -0.028553
  55 C :    0.022907
  56 C :    0.044468
  57 C :   -0.033255
  58 S :    0.076245
  59 C :   -0.000067
  60 C :   -0.194559
  61 S :    0.148142
  62 C :   -0.121180
  63 C :    0.120212
  64 C :    0.197408
  65 O :   -0.181418
  66 C :    0.236450
  67 N :    0.273063
  68 O :   -0.245243
  69 O :   -0.227502
  70 C :   -0.067072
  71 H :   -0.017202
  72 H :   -0.008139
  73 H :   -0.007622
  74 H :   -0.019666
  75 H :    0.014876
  76 H :   -0.009784
  77 H :   -0.002899
  78 H :    0.009931
  79 H :   -0.010923
  80 H :    0.049158
  81 H :    0.027967
  82 H :    0.026640
  83 H :   -0.042056
  84 H :   -0.015555
  85 H :   -0.008647
  86 H :   -0.010139
  87 H :   -0.008251
  88 H :   -0.002286
  89 H :    0.012023
  90 H :    0.040367
  91 H :    0.016714
Sum of atomic charges:   -0.0000000

LOEWDIN ATOMIC CHARGES
----------------------
   0 C :    0.076563
   1 C :   -0.160755
   2 C :   -0.019593
   3 N :   -0.067366
   4 C :   -0.016700
   5 N :   -0.070460
   6 C :   -0.017956
   7 C :   -0.048729
   8 C :    0.015828
   9 C :   -0.036723
  10 C :   -0.146315
  11 C :   -0.012422
  12 S :    0.429813
  13 C :   -0.274960
  14 C :   -0.071774
  15 Br:    0.130619
  16 C :    0.079917
  17 O :   -0.185377
  18 C :   -0.127568
  19 C :    0.039489
  20 C :   -0.196936
  21 S :    0.532399
  22 C :   -0.138450
  23 C :   -0.055502
  24 C :   -0.014436
  25 C :   -0.037707
  26 C :    0.073779
  27 F :   -0.046369
  28 C :    0.057099
  29 F :   -0.055114
  30 C :   -0.032462
  31 C :   -0.068787
  32 C :   -0.017300
  33 C :   -0.179641
  34 S :    0.470189
  35 C :   -0.165206
  36 C :   -0.026579
  37 C :   -0.046657
  38 C :    0.014820
  39 C :   -0.092395
  40 C :    0.168993
  41 F :   -0.061175
  42 F :   -0.060907
  43 F :   -0.060913
  44 C :    0.065963
  45 O :   -0.085115
  46 C :    0.081624
  47 C :   -0.073683
  48 C :   -0.080318
  49 C :   -0.147614
  50 C :   -0.037380
  51 C :   -0.030740
  52 C :   -0.184877
  53 S :    0.385653
  54 C :   -0.163373
  55 C :   -0.038685
  56 C :   -0.018388
  57 C :   -0.157774
  58 S :    0.374981
  59 C :   -0.051356
  60 C :   -0.208145
  61 S :    0.477652
  62 C :   -0.178324
  63 C :   -0.084196
  64 C :    0.025865
  65 O :    0.004211
  66 C :    0.027071
  67 N :    0.271521
  68 O :   -0.206474
  69 O :   -0.189762
  70 C :   -0.006526
  71 H :    0.038034
  72 H :    0.040563
  73 H :    0.037032
  74 H :    0.045647
  75 H :    0.047504
  76 H :    0.040504
  77 H :    0.031079
  78 H :    0.029926
  79 H :    0.034553
  80 H :    0.035104
  81 H :    0.018049
  82 H :    0.017679
  83 H :    0.027330
  84 H :    0.038157
  85 H :    0.034453
  86 H :    0.033637
  87 H :    0.034191
  88 H :    0.037753
  89 H :    0.049426
  90 H :    0.032341
  91 H :    0.048953

  Mayer bond orders larger than 0.100000
B(  0-C ,  1-C ) :   1.5806 B(  0-C ,  6-C ) :   0.9871 B(  0-C , 18-C ) :   1.1251
B(  1-C ,  2-C ) :   1.1505 B(  1-C ,  4-C ) :   1.1532 B(  2-C ,  3-N ) :   2.9618
B(  4-C ,  5-N ) :   2.9693 B(  6-C ,  7-C ) :   1.2772 B(  6-C , 11-C ) :   1.4262
B(  7-C ,  8-C ) :   1.4307 B(  7-C , 16-C ) :   0.9529 B(  8-C ,  9-C ) :   1.2365
B(  8-C , 71-H ) :   1.0163 B(  9-C , 10-C ) :   1.3176 B(  9-C , 14-C ) :   1.1611
B( 10-C , 11-C ) :   1.3164 B( 10-C , 12-S ) :   1.0848 B( 11-C , 72-H ) :   0.9788
B( 12-S , 13-C ) :   1.0864 B( 13-C , 14-C ) :   1.6200 B( 13-C , 15-Br) :   1.0141
B( 14-C , 73-H ) :   0.9997 B( 16-C , 17-O ) :   2.1157 B( 16-C , 18-C ) :   0.9963
B( 18-C , 19-C ) :   1.4068 B( 19-C , 20-C ) :   1.3933 B( 19-C , 74-H ) :   0.9315
B( 20-C , 21-S ) :   1.0739 B( 20-C , 24-C ) :   1.1994 B( 21-S , 22-C ) :   1.1501
B( 22-C , 23-C ) :   1.2090 B( 22-C , 31-C ) :   1.2811 B( 23-C , 24-C ) :   1.2639
B( 23-C , 30-C ) :   1.2036 B( 24-C , 25-C ) :   1.2161 B( 25-C , 26-C ) :   1.4509
B( 25-C , 30-C ) :   0.1118 B( 25-C , 75-H ) :   0.9875 B( 26-C , 27-F ) :   1.1512
B( 26-C , 28-C ) :   1.1946 B( 28-C , 29-F ) :   1.1317 B( 28-C , 30-C ) :   1.4674
B( 30-C , 76-H ) :   0.9967 B( 31-C , 32-C ) :   1.5065 B( 31-C , 77-H ) :   0.9635
B( 32-C , 33-C ) :   1.2609 B( 32-C , 78-H ) :   0.9502 B( 33-C , 34-S ) :   1.1167
B( 33-C , 37-C ) :   1.2508 B( 34-S , 35-C ) :   1.1245 B( 35-C , 36-C ) :   1.2289
B( 35-C , 48-C ) :   1.2902 B( 36-C , 37-C ) :   1.2614 B( 36-C , 47-C ) :   1.2127
B( 37-C , 38-C ) :   1.1966 B( 38-C , 39-C ) :   1.5510 B( 38-C , 79-H ) :   0.9917
B( 39-C , 40-C ) :   0.9312 B( 39-C , 44-C ) :   1.2432 B( 40-C , 41-F ) :   1.1507
B( 40-C , 42-F ) :   1.1745 B( 40-C , 43-F ) :   1.1707 B( 44-C , 45-O ) :   1.2190
B( 44-C , 47-C ) :   1.4144 B( 45-O , 46-C ) :   0.9531 B( 46-C , 80-H ) :   0.9780
B( 46-C , 81-H ) :   0.9683 B( 46-C , 82-H ) :   0.9682 B( 47-C , 83-H ) :   0.9935
B( 48-C , 49-C ) :   1.4802 B( 48-C , 84-H ) :   0.9600 B( 49-C , 50-C ) :   1.1847
B( 49-C , 53-S ) :   1.0593 B( 50-C , 51-C ) :   1.5478 B( 50-C , 85-H ) :   1.0000
B( 51-C , 52-C ) :   1.2151 B( 51-C , 86-H ) :   0.9935 B( 52-C , 53-S ) :   1.0426
B( 52-C , 54-C ) :   1.4742 B( 54-C , 55-C ) :   1.2003 B( 54-C , 58-S ) :   1.0586
B( 55-C , 56-C ) :   1.5754 B( 55-C , 87-H ) :   0.9938 B( 56-C , 57-C ) :   1.1501
B( 56-C , 88-H ) :   1.0011 B( 57-C , 58-S ) :   1.0308 B( 57-C , 59-C ) :   1.5557
B( 59-C , 60-C ) :   1.1875 B( 59-C , 89-H ) :   0.9732 B( 60-C , 61-S ) :   1.1015
B( 60-C , 62-C ) :   0.1061 B( 60-C , 64-C ) :   1.4306 B( 61-S , 62-C ) :   1.1967
B( 62-C , 63-C ) :   1.4130 B( 62-C , 90-H ) :   0.9750 B( 63-C , 64-C ) :   1.2347
B( 63-C , 70-C ) :   1.0588 B( 64-C , 65-O ) :   1.1322 B( 65-O , 66-C ) :   1.1168
B( 66-C , 67-N ) :   0.9139 B( 66-C , 70-C ) :   1.5827 B( 67-N , 68-O ) :   1.5362
B( 67-N , 69-O ) :   1.5157 B( 68-O , 69-O ) :   0.2818 B( 70-C , 91-H ) :   1.0263

-----------------------------------------------------------------------------
         ABSORPTION SPECTRUM VIA TRANSITION ELECTRIC DIPOLE MOMENTS
-----------------------------------------------------------------------------
State   Energy  Wavelength   fosc         T2         TX        TY        TZ
        (cm-1)    (nm)                  (au**2)     (au)      (au)      (au)
-----------------------------------------------------------------------------
   0    7481.4   1336.6   0.692049960  30.45285  -4.04289   1.17110  -3.56881
   1   14519.7    688.7   0.100426485   2.27701   0.18148   1.44303   0.40217
   2   16228.3    616.2   1.778606246  36.08136   0.29571  -5.83527  -1.39412
   3   18819.1    531.4   0.099515815   1.74088   0.13939   0.79511   1.04367
   4   20575.9    486.0   0.093133344   1.49012   0.45661   0.83366   0.76592
   5   20993.2    476.3   0.073725960   1.15616  -0.00463  -0.82497   0.68961
   6   22855.2    437.5   0.176750451   2.54596  -0.46061  -1.14955   1.00615
   7   23757.6    420.9   0.222515975   3.08344  -0.25058  -1.02704   1.40208
   8   25016.3    399.7   0.112061597   1.47472   0.26174  -0.16567  -1.17421
   9   26446.5    378.1   0.065597822   0.81658   0.34738  -0.31285  -0.77333
  10   26532.7    376.9   0.004097843   0.05085  -0.07806  -0.02404   0.21017
  11   27140.3    368.5   0.051155453   0.62052  -0.45605  -0.62749   0.13709
  12   27346.6    365.7   0.007416891   0.08929  -0.20779  -0.04862  -0.20916
  13   28223.2    354.3   0.053574329   0.62492   0.17711   0.05720  -0.76830
  14   28594.4    349.7   0.101550018   1.16916   0.14564  -0.94341   0.50786
  15   28717.0    348.2   0.069547193   0.79729  -0.10562   0.50387  -0.72955
  16   29181.2    342.7   0.022551938   0.25442  -0.42554  -0.25089  -0.10194
  17   29427.2    339.8   0.019266620   0.21554   0.06130  -0.05545  -0.45685
  18   29487.0    339.1   0.041393163   0.46214  -0.33069  -0.02398  -0.59347
  19   29807.6    335.5   0.106713761   1.17861  -0.63917   0.04875  -0.87618
  20   30576.1    327.1   0.033445654   0.36011   0.05730  -0.30249   0.51510
  21   31153.0    321.0   0.018421094   0.19467   0.13226   0.39420  -0.14758
  22   31567.2    316.8   0.690773417   7.20402   0.63794  -0.45004  -2.56798
  23   32038.1    312.1   0.037136488   0.38160  -0.40093   0.19017   0.42975
  24   32349.5    309.1   0.000741519   0.00755   0.08288   0.01020  -0.02395
  25   32692.9    305.9   0.093605469   0.94259   0.03639  -0.93156   0.27103
  26   33230.5    300.9   0.001213536   0.01202   0.06050  -0.06701   0.06222
  27   33580.4    297.8   0.019187498   0.18811  -0.25923   0.20031  -0.28423
  28   33759.8    296.2   0.077080296   0.75166  -0.43290  -0.49057  -0.56885
  29   34404.2    290.7   0.060987968   0.58359  -0.02313  -0.63264  -0.42758
  30   34834.6    287.1   0.054094864   0.51123  -0.40137  -0.57236   0.15013
  31   35238.7    283.8   0.056631842   0.52907  -0.19677   0.23152  -0.66087
  32   35339.3    283.0   0.012508665   0.11653  -0.09897   0.26394  -0.19254
  33   35627.8    280.7   0.052855304   0.48840   0.11388  -0.38229   0.57384
  34   35684.8    280.2   0.096974748   0.89464  -0.15507   0.22412  -0.90574
  35   36039.1    277.5   0.001700905   0.01554   0.02482  -0.12215  -0.00110
  36   36154.3    276.6   0.032142565   0.29268  -0.22852   0.40603  -0.27496
  37   36441.8    274.4   0.091135342   0.82331   0.31970   0.38492   0.75693
  38   36634.6    273.0   0.117026837   1.05164   0.20991  -0.46894   0.88751
  39   36956.3    270.6   0.094179154   0.83896  -0.23820   0.21925  -0.85683
  40   37462.2    266.9   0.135790041   1.19330   0.68854   0.82185   0.20922
  41   38037.1    262.9   0.049106773   0.42502  -0.00497  -0.30301   0.57722
  42   38233.0    261.6   0.005227564   0.04501  -0.04079  -0.11938  -0.17058
  43   38343.5    260.8   0.073624365   0.63213   0.66025   0.40573   0.17771
  44   38515.9    259.6   0.247982488   2.11961   0.33381   0.99420   1.00983
  45   38992.9    256.5   0.091416881   0.77182  -0.64809   0.57719  -0.13656
  46   39137.8    255.5   0.016503572   0.13882  -0.32083  -0.16183  -0.09852
  47   39791.1    251.3   0.019218043   0.15900   0.32209  -0.18114  -0.14981

FINAL SINGLE POINT ENERGY     -7954.217916628664

DIPOLE MOMENT
-------------
                                X             Y             Z
Electronic contribution:     87.07037     -80.70449     -11.47875
Nuclear contribution   :    -89.59480      85.72103       7.59381
                        -----------------------------------------
Total Dipole Moment    :     -2.52443       5.01654      -3.88493
                        -----------------------------------------
Magnitude (a.u.)       :      6.82870
Magnitude (Debye)      :     17.35717

Rotational constants in cm-1:     0.000472     0.000445     0.000277
Rotational constants in MHz :    14.161641    13.352476     8.311667

                             ****ORCA TERMINATED NORMALLY****
TOTAL RUN TIME: 0 days 0 hours 9 minutes 32 seconds 798 msec
