                         Program Version 4.2.0 -  RELEASE  -
|  1> # ORCA input file
|  2> # SCF done       -187.604566983035          0.000634212567
|  3> ! CAM-B3LYP def2-SVP def2/J RIJCOSX Grid4 TightSCF
|  4> %maxcore 5000
|  5> %tddft
|  6>     Mode sTDDFT
|  7>     Ethresh 5.0
|  8>     maxcore 5000
|  9> end
| 10>
| 11> %pal
| 12>   nprocs 6
| 13>   end
| 14> * xyz 0 1
| 15>    C       -7.04574        -1.70608         1.00107
| 16>    C       -6.05584        -1.84556         1.93746
| 17>    C       -5.88470        -2.99190         2.74203
| 18>    N       -5.69388        -3.89903         3.41884
| 19>    C       -5.09997        -0.85790         2.25724
| 20>    N       -4.30983        -0.09344         2.58845
| 21>    C       -8.10567        -2.66876         0.73351
| 22>    C       -9.02840        -2.09087        -0.17237
| 23>    C      -10.14729        -2.75503        -0.61304
| 24>    C      -10.36565        -4.05280        -0.13932
| 25>    C       -9.43364        -4.62525         0.75963
| 26>    C       -8.30333        -3.95316         1.20683
| 27>    S       -9.88765        -6.24144         1.20769
| 28>    C      -11.30454        -6.12735         0.19795
| 29>    C      -11.43321        -4.94096        -0.44281
| 30>   Br      -12.47896        -7.58492         0.08381
| 31>    C       -8.57176        -0.73879        -0.55279
| 32>    O       -9.11106         0.00429        -1.34309
| 33>    C       -7.28516        -0.54142         0.16469
| 34>    C       -6.41231         0.47943        -0.05304
| 35>    C       -6.62405         1.63061        -0.88394
| 36>    C       -5.61848         1.96786        -1.75837
| 37>    S       -6.06820         3.10561        -2.94677
| 38>    C       -7.65031         3.23620        -2.23103
| 39>    C       -7.80226         2.44141        -1.08900
| 40>    C       -8.97906         2.57421        -0.31725
| 41>    C       -8.98010         2.04772         1.09543
| 42>    C       -8.83015         3.20868         2.08470
| 43>    C      -10.05608         3.30161        -0.81261
| 44>    C      -11.38198         3.25737        -0.09820
| 45>    C      -12.35220         2.35361        -0.86286
| 46>    C       -9.93687         4.02305        -2.02768
| 47>    C      -10.87993         4.84319        -2.76162
| 48>    C      -10.31334         5.39422        -3.87480
| 49>    S       -8.66309         5.00051        -4.11851
| 50>    C       -8.69695         4.01486        -2.69173
| 51>    C      -12.26599         5.13433        -2.45112
| 52>    C      -13.21413         5.30356        -3.38718
| 53>    C      -14.59624         5.63860        -3.13594
| 54>    C      -15.43461         5.92113        -4.21240
| 55>    C      -16.77002         6.24910        -4.04248
| 56>    N      -17.49653         6.49130        -5.25689
| 57>    O      -16.85792         6.88394        -6.21464
| 58>    O      -18.69581         6.28438        -5.28590
| 59>    C      -17.35231         6.33193        -2.74935
| 60>    C      -16.48692         6.02952        -1.67843
| 61>    C      -15.17139         5.69153        -1.85587
| 62>    C      -18.70039         6.74564        -2.55091
| 63>    C      -19.42839         6.89136        -1.40155
| 64>    C      -20.78623         7.32690        -1.39862
| 65>    C      -21.36271         7.40014        -0.17189
| 66>    C      -20.50102         7.02966         0.88805
| 67>    S      -18.92997         6.58711         0.25684
| 68>    C      -20.77134         6.99515         2.23807
| 69>    C      -21.98362         7.31869         2.89455
| 70>    C      -21.93029         7.18403         4.24497
| 71>    C      -20.67166         6.74784         4.74133
| 72>    S      -19.55706         6.51118         3.40749
| 73>    C      -20.35694         6.54236         6.05587
| 74>    C      -19.12277         6.11897         6.58216
| 75>    S      -17.68796         5.74732         5.64105
| 76>    C      -16.73583         5.35090         7.01424
| 77>    C      -17.46805         5.49024         8.16991
| 78>    C      -18.80509         5.92066         7.91532
| 79>    O      -19.49885         6.04820         9.06491
| 80>    C      -18.62283         5.70534        10.04838
| 81>    N      -19.08746         5.74799        11.38571
| 82>    O      -18.28519         5.43798        12.24589
| 83>    O      -20.23502         6.08495        11.57815
| 84>    C      -17.38322         5.35848         9.58357
| 85>    H      -10.83178        -2.28844        -1.30411
| 86>    H       -7.61944        -4.43392         1.88610
| 87>    H      -12.24554        -4.70151        -1.10443
| 88>    H       -5.40322         0.37779         0.32865
| 89>    H       -4.64856         1.51053        -1.81285
| 90>    H       -8.13183         1.38790         1.24802
| 91>    H       -9.88155         1.47213         1.31031
| 92>    H       -7.88883         3.72398         1.90690
| 93>    H       -8.82620         2.83049         3.10455
| 94>    H       -9.63448         3.93239         1.98491
| 95>    H      -11.79126         4.26069         0.01215
| 96>    H      -11.26801         2.85738         0.90489
| 97>    H      -12.55156         2.74097        -1.85844
| 98>    H      -13.29581         2.27084        -0.32746
| 99>    H      -11.91749         1.36184        -0.96495
|100>    H      -10.78526         6.06854        -4.56241
|101>    H      -12.52396         5.25492        -1.41247
|102>    H      -12.95437         5.17788        -4.42999
|103>    H      -15.04796         5.88188        -5.22086
|104>    H      -16.87418         6.06451        -0.67441
|105>    H      -14.57652         5.45648        -0.98757
|106>    H      -19.26143         6.97819        -3.44600
|107>    H      -21.28750         7.56654        -2.31956
|108>    H      -22.37775         7.70772         0.00343
|109>    H      -22.85417         7.63880         2.35113
|110>    H      -22.75036         7.38276         4.91179
|111>    H      -21.12964         6.72285         6.79172
|112>    H      -15.71748         5.04710         6.89015
|113>    H      -16.54800         5.05743        10.18107
|114> *
|115>
|116>                          ****END OF INPUT****

CARTESIAN COORDINATES (ANGSTROEM)
---------------------------------
  C     -7.045740   -1.706080    1.001070
  C     -6.055840   -1.845560    1.937460
  C     -5.884700   -2.991900    2.742030
  N     -5.693880   -3.899030    3.418840
  C     -5.099970   -0.857900    2.257240
  N     -4.309830   -0.093440    2.588450
  C     -8.105670   -2.668760    0.733510
  C     -9.028400   -2.090870   -0.172370
  C    -10.147290   -2.755030   -0.613040
  C    -10.365650   -4.052800   -0.139320
  C     -9.433640   -4.625250    0.759630
  C     -8.303330   -3.953160    1.206830
  S     -9.887650   -6.241440    1.207690
  C    -11.304540   -6.127350    0.197950
  C    -11.433210   -4.940960   -0.442810
  Br   -12.478960   -7.584920    0.083810
  C     -8.571760   -0.738790   -0.552790
  O     -9.111060    0.004290   -1.343090
  C     -7.285160   -0.541420    0.164690
  C     -6.412310    0.479430   -0.053040
  C     -6.624050    1.630610   -0.883940
  C     -5.618480    1.967860   -1.758370
  S     -6.068200    3.105610   -2.946770
  C     -7.650310    3.236200   -2.231030
  C     -7.802260    2.441410   -1.089000
  C     -8.979060    2.574210   -0.317250
  C     -8.980100    2.047720    1.095430
  C     -8.830150    3.208680    2.084700
  C    -10.056080    3.301610   -0.812610
  C    -11.381980    3.257370   -0.098200
  C    -12.352200    2.353610   -0.862860
  C     -9.936870    4.023050   -2.027680
  C    -10.879930    4.843190   -2.761620
  C    -10.313340    5.394220   -3.874800
  S     -8.663090    5.000510   -4.118510
  C     -8.696950    4.014860   -2.691730
  C    -12.265990    5.134330   -2.451120
  C    -13.214130    5.303560   -3.387180
  C    -14.596240    5.638600   -3.135940
  C    -15.434610    5.921130   -4.212400
  C    -16.770020    6.249100   -4.042480
  N    -17.496530    6.491300   -5.256890
  O    -16.857920    6.883940   -6.214640
  O    -18.695810    6.284380   -5.285900
  C    -17.352310    6.331930   -2.749350
  C    -16.486920    6.029520   -1.678430
  C    -15.171390    5.691530   -1.855870
  C    -18.700390    6.745640   -2.550910
  C    -19.428390    6.891360   -1.401550
  C    -20.786230    7.326900   -1.398620
  C    -21.362710    7.400140   -0.171890
  C    -20.501020    7.029660    0.888050
  S    -18.929970    6.587110    0.256840
  C    -20.771340    6.995150    2.238070
  C    -21.983620    7.318690    2.894550
  C    -21.930290    7.184030    4.244970
  C    -20.671660    6.747840    4.741330
  S    -19.557060    6.511180    3.407490
  C    -20.356940    6.542360    6.055870
  C    -19.122770    6.118970    6.582160
  S    -17.687960    5.747320    5.641050
  C    -16.735830    5.350900    7.014240
  C    -17.468050    5.490240    8.169910
  C    -18.805090    5.920660    7.915320
  O    -19.498850    6.048200    9.064910
  C    -18.622830    5.705340   10.048380
  N    -19.087460    5.747990   11.385710
  O    -18.285190    5.437980   12.245890
  O    -20.235020    6.084950   11.578150
  C    -17.383220    5.358480    9.583570
  H    -10.831780   -2.288440   -1.304110
  H     -7.619440   -4.433920    1.886100
  H    -12.245540   -4.701510   -1.104430
  H     -5.403220    0.377790    0.328650
  H     -4.648560    1.510530   -1.812850
  H     -8.131830    1.387900    1.248020
  H     -9.881550    1.472130    1.310310
  H     -7.888830    3.723980    1.906900
  H     -8.826200    2.830490    3.104550
  H     -9.634480    3.932390    1.984910
  H    -11.791260    4.260690    0.012150
  H    -11.268010    2.857380    0.904890
  H    -12.551560    2.740970   -1.858440
  H    -13.295810    2.270840   -0.327460
  H    -11.917490    1.361840   -0.964950
  H    -10.785260    6.068540   -4.562410
  H    -12.523960    5.254920   -1.412470
  H    -12.954370    5.177880   -4.429990
  H    -15.047960    5.881880   -5.220860
  H    -16.874180    6.064510   -0.674410
  H    -14.576520    5.456480   -0.987570
  H    -19.261430    6.978190   -3.446000
  H    -21.287500    7.566540   -2.319560
  H    -22.377750    7.707720    0.003430
  H    -22.854170    7.638800    2.351130
  H    -22.750360    7.382760    4.911790
  H    -21.129640    6.722850    6.791720
  H    -15.717480    5.047100    6.890150
  H    -16.548000    5.057430   10.181070

 Total Charge           Charge          ....    0
 Multiplicity           Mult            ....    1
 Number of Electrons    NEL             ....  554
 Basis Dimension        Dim             .... 1167

ORBITAL ENERGIES
----------------

  NO   OCC          E(Eh)            E(eV)
   0   2.0000    -482.889168    -13140.0823
   1   2.0000     -88.981047     -2421.2974
   2   2.0000     -88.979626     -2421.2587
   3   2.0000     -88.969316     -2420.9782
   4   2.0000     -88.955959     -2420.6147
   5   2.0000     -88.955954     -2420.6146
   6   2.0000     -88.955550     -2420.6036
   7   2.0000     -62.566884     -1702.5315
   8   2.0000     -56.400837     -1534.7448
   9   2.0000     -56.398113     -1534.6707
  10   2.0000     -56.398083     -1534.6699
  11   2.0000     -19.313332      -525.5425
  12   2.0000     -19.246666      -523.7284
  13   2.0000     -19.244249      -523.6626
  14   2.0000     -19.239505      -523.5335
  15   2.0000     -19.238058      -523.4942
  16   2.0000     -19.220877      -523.0266
  17   2.0000     -14.658182      -398.8694
  18   2.0000     -14.644569      -398.4990
  19   2.0000     -14.420224      -392.3943
  20   2.0000     -14.419464      -392.3736
  21   2.0000     -10.390526      -282.7406
  22   2.0000     -10.371040      -282.2103
  23   2.0000     -10.363171      -281.9962
  24   2.0000     -10.350848      -281.6609
  25   2.0000     -10.347170      -281.5608
  26   2.0000     -10.345920      -281.5268
  27   2.0000     -10.329919      -281.0914
  28   2.0000     -10.327410      -281.0231
  29   2.0000     -10.325434      -280.9693
  30   2.0000     -10.322898      -280.9003
  31   2.0000     -10.322660      -280.8939
  32   2.0000     -10.322216      -280.8818
  33   2.0000     -10.320967      -280.8478
  34   2.0000     -10.319148      -280.7983
  35   2.0000     -10.318783      -280.7883
  36   2.0000     -10.318119      -280.7703
  37   2.0000     -10.317713      -280.7593
  38   2.0000     -10.317036      -280.7408
  39   2.0000     -10.315772      -280.7064
  40   2.0000     -10.312495      -280.6172
  41   2.0000     -10.312137      -280.6075
  42   2.0000     -10.310239      -280.5559
  43   2.0000     -10.308834      -280.5176
  44   2.0000     -10.305200      -280.4187
  45   2.0000     -10.304963      -280.4123
  46   2.0000     -10.302776      -280.3528
  47   2.0000     -10.302627      -280.3487
  48   2.0000     -10.302296      -280.3397
  49   2.0000     -10.300664      -280.2953
  50   2.0000     -10.300627      -280.2943
  51   2.0000     -10.299022      -280.2506
  52   2.0000     -10.297629      -280.2127
  53   2.0000     -10.296708      -280.1877
  54   2.0000     -10.295618      -280.1580
  55   2.0000     -10.294672      -280.1323
  56   2.0000     -10.294636      -280.1313
  57   2.0000     -10.293677      -280.1052
  58   2.0000     -10.291073      -280.0343
  59   2.0000     -10.290975      -280.0317
  60   2.0000     -10.290331      -280.0141
  61   2.0000     -10.287494      -279.9370
  62   2.0000     -10.286893      -279.9206
  63   2.0000     -10.285724      -279.8888
  64   2.0000     -10.284908      -279.8666
  65   2.0000     -10.284332      -279.8509
  66   2.0000     -10.281110      -279.7632
  67   2.0000     -10.280372      -279.7431
  68   2.0000     -10.278333      -279.6877
  69   2.0000     -10.277685      -279.6700
  70   2.0000     -10.268719      -279.4260
  71   2.0000     -10.265895      -279.3492
  72   2.0000     -10.257333      -279.1162
  73   2.0000     -10.255014      -279.0531
  74   2.0000      -8.796322      -239.3601
  75   2.0000      -8.075674      -219.7503
  76   2.0000      -8.075589      -219.7479
  77   2.0000      -8.065451      -219.4721
  78   2.0000      -8.052275      -219.1135
  79   2.0000      -8.052226      -219.1122
  80   2.0000      -8.051312      -219.0873
  81   2.0000      -6.632625      -180.4829
  82   2.0000      -6.618056      -180.0865
  83   2.0000      -6.617849      -180.0808
  84   2.0000      -6.045288      -164.5006
  85   2.0000      -6.045007      -164.4930
  86   2.0000      -6.040997      -164.3839
  87   2.0000      -6.040569      -164.3722
  88   2.0000      -6.038097      -164.3050
  89   2.0000      -6.036821      -164.2703
  90   2.0000      -6.034803      -164.2153
  91   2.0000      -6.030570      -164.1001
  92   2.0000      -6.027389      -164.0136
  93   2.0000      -6.022039      -163.8680
  94   2.0000      -6.021746      -163.8600
  95   2.0000      -6.021055      -163.8412
  96   2.0000      -6.017912      -163.7557
  97   2.0000      -6.017535      -163.7455
  98   2.0000      -6.017057      -163.7324
  99   2.0000      -6.013977      -163.6486
 100   2.0000      -6.013023      -163.6227
 101   2.0000      -6.012262      -163.6020
 102   2.0000      -2.748527       -74.7912
 103   2.0000      -2.744399       -74.6789
 104   2.0000      -2.744241       -74.6746
 105   2.0000      -2.732662       -74.3595
 106   2.0000      -2.732649       -74.3592
 107   2.0000      -1.329880       -36.1879
 108   2.0000      -1.318284       -35.8723
 109   2.0000      -1.233377       -33.5619
 110   2.0000      -1.146331       -31.1932
 111   2.0000      -1.135916       -30.9099
 112   2.0000      -1.135568       -30.9004
 113   2.0000      -1.027357       -27.9558
 114   2.0000      -1.017821       -27.6963
 115   2.0000      -1.010975       -27.5100
 116   2.0000      -1.007093       -27.4044
 117   2.0000      -0.999513       -27.1981
 118   2.0000      -0.998538       -27.1716
 119   2.0000      -0.994051       -27.0495
 120   2.0000      -0.986827       -26.8529
 121   2.0000      -0.981351       -26.7039
 122   2.0000      -0.977743       -26.6057
 123   2.0000      -0.947254       -25.7761
 124   2.0000      -0.939066       -25.5533
 125   2.0000      -0.931065       -25.3356
 126   2.0000      -0.922102       -25.0917
 127   2.0000      -0.912717       -24.8363
 128   2.0000      -0.910779       -24.7836
 129   2.0000      -0.907235       -24.6871
 130   2.0000      -0.895348       -24.3637
 131   2.0000      -0.890270       -24.2255
 132   2.0000      -0.889651       -24.2086
 133   2.0000      -0.881972       -23.9997
 134   2.0000      -0.875866       -23.8335
 135   2.0000      -0.867039       -23.5933
 136   2.0000      -0.860091       -23.4043
 137   2.0000      -0.857651       -23.3379
 138   2.0000      -0.847706       -23.0672
 139   2.0000      -0.836430       -22.7604
 140   2.0000      -0.834018       -22.6948
 141   2.0000      -0.830952       -22.6114
 142   2.0000      -0.826489       -22.4899
 143   2.0000      -0.818719       -22.2785
 144   2.0000      -0.801225       -21.8024
 145   2.0000      -0.795818       -21.6553
 146   2.0000      -0.787863       -21.4388
 147   2.0000      -0.785006       -21.3611
 148   2.0000      -0.771243       -20.9866
 149   2.0000      -0.767459       -20.8836
 150   2.0000      -0.759495       -20.6669
 151   2.0000      -0.740254       -20.1433
 152   2.0000      -0.724634       -19.7183
 153   2.0000      -0.718647       -19.5554
 154   2.0000      -0.711656       -19.3651
 155   2.0000      -0.710360       -19.3299
 156   2.0000      -0.707143       -19.2423
 157   2.0000      -0.701639       -19.0926
 158   2.0000      -0.696511       -18.9530
 159   2.0000      -0.694091       -18.8872
 160   2.0000      -0.688257       -18.7284
 161   2.0000      -0.678763       -18.4701
 162   2.0000      -0.678634       -18.4666
 163   2.0000      -0.662098       -18.0166
 164   2.0000      -0.656356       -17.8603
 165   2.0000      -0.652267       -17.7491
 166   2.0000      -0.649539       -17.6749
 167   2.0000      -0.646850       -17.6017
 168   2.0000      -0.643428       -17.5086
 169   2.0000      -0.639016       -17.3885
 170   2.0000      -0.636050       -17.3078
 171   2.0000      -0.630952       -17.1691
 172   2.0000      -0.629370       -17.1260
 173   2.0000      -0.627487       -17.0748
 174   2.0000      -0.621517       -16.9123
 175   2.0000      -0.618557       -16.8318
 176   2.0000      -0.609568       -16.5872
 177   2.0000      -0.606724       -16.5098
 178   2.0000      -0.605569       -16.4784
 179   2.0000      -0.602788       -16.4027
 180   2.0000      -0.596140       -16.2218
 181   2.0000      -0.594392       -16.1742
 182   2.0000      -0.587989       -16.0000
 183   2.0000      -0.587841       -15.9960
 184   2.0000      -0.582417       -15.8484
 185   2.0000      -0.573663       -15.6102
 186   2.0000      -0.570263       -15.5176
 187   2.0000      -0.564882       -15.3712
 188   2.0000      -0.561198       -15.2710
 189   2.0000      -0.557006       -15.1569
 190   2.0000      -0.555504       -15.1160
 191   2.0000      -0.549638       -14.9564
 192   2.0000      -0.545076       -14.8323
 193   2.0000      -0.542469       -14.7613
 194   2.0000      -0.540789       -14.7156
 195   2.0000      -0.534090       -14.5333
 196   2.0000      -0.531429       -14.4609
 197   2.0000      -0.529067       -14.3967
 198   2.0000      -0.526605       -14.3296
 199   2.0000      -0.524809       -14.2808
 200   2.0000      -0.519818       -14.1450
 201   2.0000      -0.518325       -14.1043
 202   2.0000      -0.513840       -13.9823
 203   2.0000      -0.513099       -13.9621
 204   2.0000      -0.510661       -13.8958
 205   2.0000      -0.509840       -13.8734
 206   2.0000      -0.507330       -13.8052
 207   2.0000      -0.504953       -13.7405
 208   2.0000      -0.501677       -13.6513
 209   2.0000      -0.499169       -13.5831
 210   2.0000      -0.497125       -13.5274
 211   2.0000      -0.496354       -13.5065
 212   2.0000      -0.495422       -13.4811
 213   2.0000      -0.490845       -13.3566
 214   2.0000      -0.489842       -13.3293
 215   2.0000      -0.488011       -13.2794
 216   2.0000      -0.481708       -13.1079
 217   2.0000      -0.478936       -13.0325
 218   2.0000      -0.477986       -13.0066
 219   2.0000      -0.474343       -12.9075
 220   2.0000      -0.470890       -12.8136
 221   2.0000      -0.466150       -12.6846
 222   2.0000      -0.463094       -12.6014
 223   2.0000      -0.462069       -12.5735
 224   2.0000      -0.459819       -12.5123
 225   2.0000      -0.458662       -12.4808
 226   2.0000      -0.458300       -12.4710
 227   2.0000      -0.455434       -12.3930
 228   2.0000      -0.452689       -12.3183
 229   2.0000      -0.451746       -12.2926
 230   2.0000      -0.449951       -12.2438
 231   2.0000      -0.447549       -12.1784
 232   2.0000      -0.445077       -12.1112
 233   2.0000      -0.443429       -12.0663
 234   2.0000      -0.442456       -12.0398
 235   2.0000      -0.439373       -11.9559
 236   2.0000      -0.434344       -11.8191
 237   2.0000      -0.432201       -11.7608
 238   2.0000      -0.430921       -11.7260
 239   2.0000      -0.429076       -11.6758
 240   2.0000      -0.428186       -11.6515
 241   2.0000      -0.426171       -11.5967
 242   2.0000      -0.421814       -11.4781
 243   2.0000      -0.420694       -11.4477
 244   2.0000      -0.413657       -11.2562
 245   2.0000      -0.412115       -11.2142
 246   2.0000      -0.408548       -11.1172
 247   2.0000      -0.406830       -11.0704
 248   2.0000      -0.400343       -10.8939
 249   2.0000      -0.393357       -10.7038
 250   2.0000      -0.392179       -10.6717
 251   2.0000      -0.392037       -10.6679
 252   2.0000      -0.386677       -10.5220
 253   2.0000      -0.383201       -10.4274
 254   2.0000      -0.382224       -10.4009
 255   2.0000      -0.380861       -10.3638
 256   2.0000      -0.378767       -10.3068
 257   2.0000      -0.378283       -10.2936
 258   2.0000      -0.376095       -10.2341
 259   2.0000      -0.374217       -10.1830
 260   2.0000      -0.366773        -9.9804
 261   2.0000      -0.363196        -9.8831
 262   2.0000      -0.353665        -9.6237
 263   2.0000      -0.348168        -9.4741
 264   2.0000      -0.344553        -9.3758
 265   2.0000      -0.340908        -9.2766
 266   2.0000      -0.339040        -9.2257
 267   2.0000      -0.335377        -9.1261
 268   2.0000      -0.321559        -8.7501
 269   2.0000      -0.320078        -8.7098
 270   2.0000      -0.310095        -8.4381
 271   2.0000      -0.308884        -8.4052
 272   2.0000      -0.297380        -8.0921
 273   2.0000      -0.285225        -7.7614
 274   2.0000      -0.273378        -7.4390
 275   2.0000      -0.262891        -7.1536
 276   2.0000      -0.221547        -6.0286
 277   0.0000      -0.091544        -2.4910
 278   0.0000      -0.090540        -2.4637
 279   0.0000      -0.064446        -1.7537
 280   0.0000      -0.061703        -1.6790
 281   0.0000      -0.043047        -1.1714

MULLIKEN ATOMIC CHARGES
-----------------------
   0 C :    0.306616
   1 C :   -0.343183
   2 C :   -0.183983
   3 N :    0.152052
   4 C :   -0.206595
   5 N :    0.164124
   6 C :    0.017195
   7 C :   -0.018961
   8 C :   -0.075726
   9 C :    0.120228
  10 C :   -0.089769
  11 C :   -0.023697
  12 S :    0.188767
  13 C :   -0.122693
  14 C :    0.037079
  15 Br:    0.027130
  16 C :    0.148884
  17 O :   -0.134365
  18 C :   -0.093364
  19 C :   -0.058503
  20 C :    0.030207
  21 C :   -0.076527
  22 S :    0.159543
  23 C :   -0.154865
  24 C :    0.159463
  25 C :   -0.103388
  26 C :    0.037881
  27 C :    0.047025
  28 C :   -0.145930
  29 C :    0.040705
  30 C :    0.027248
  31 C :    0.136975
  32 C :    0.068256
  33 C :   -0.120626
  34 S :    0.128474
  35 C :   -0.152699
  36 C :   -0.013796
  37 C :   -0.003526
  38 C :    0.112484
  39 C :   -0.080634
  40 C :    0.133090
  41 N :    0.248219
  42 O :   -0.237227
  43 O :   -0.239911
  44 C :    0.102428
  45 C :   -0.046594
  46 C :    0.014393
  47 C :   -0.069870
  48 C :   -0.006358
  49 C :    0.032147
  50 C :    0.037489
  51 C :   -0.036854
  52 S :    0.048917
  53 C :   -0.031408
  54 C :    0.029024
  55 C :    0.042670
  56 C :   -0.028108
  57 S :    0.061083
  58 C :   -0.006881
  59 C :   -0.192284
  60 S :    0.141310
  61 C :   -0.125834
  62 C :    0.120785
  63 C :    0.194854
  64 O :   -0.185377
  65 C :    0.235256
  66 N :    0.273904
  67 O :   -0.249546
  68 O :   -0.228772
  69 C :   -0.068566
  70 H :   -0.009896
  71 H :   -0.004654
  72 H :   -0.001582
  73 H :    0.031970
  74 H :    0.034129
  75 H :    0.002977
  76 H :    0.008047
  77 H :    0.013807
  78 H :    0.013411
  79 H :    0.009132
  80 H :   -0.002271
  81 H :   -0.006297
  82 H :    0.026333
  83 H :    0.008634
  84 H :    0.015955
  85 H :    0.022951
  86 H :   -0.001780
  87 H :   -0.016847
  88 H :   -0.001410
  89 H :   -0.016194
  90 H :   -0.025138
  91 H :    0.003055
  92 H :   -0.001843
  93 H :   -0.010132
  94 H :   -0.010184
  95 H :   -0.005591
  96 H :    0.007292
  97 H :    0.032618
  98 H :    0.014020
Sum of atomic charges:   -0.0000000

LOEWDIN ATOMIC CHARGES
----------------------
   0 C :    0.076026
   1 C :   -0.139740
   2 C :   -0.018718
   3 N :   -0.051213
   4 C :   -0.024942
   5 N :   -0.049503
   6 C :   -0.022647
   7 C :   -0.050196
   8 C :    0.020749
   9 C :   -0.031527
  10 C :   -0.144095
  11 C :   -0.009129
  12 S :    0.433980
  13 C :   -0.270462
  14 C :   -0.070690
  15 Br:    0.139271
  16 C :    0.081678
  17 O :   -0.124408
  18 C :   -0.096922
  19 C :    0.076136
  20 C :   -0.068276
  21 C :   -0.137065
  22 S :    0.445243
  23 C :   -0.178365
  24 C :   -0.030871
  25 C :   -0.009595
  26 C :   -0.035129
  27 C :   -0.046225
  28 C :   -0.013694
  29 C :   -0.029682
  30 C :   -0.050035
  31 C :   -0.035870
  32 C :   -0.062492
  33 C :   -0.164764
  34 S :    0.416667
  35 C :   -0.177696
  36 C :   -0.007508
  37 C :   -0.023377
  38 C :   -0.026062
  39 C :    0.004642
  40 C :   -0.028296
  41 N :    0.287923
  42 O :   -0.204284
  43 O :   -0.203392
  44 C :   -0.011041
  45 C :   -0.017341
  46 C :    0.007260
  47 C :   -0.060051
  48 C :   -0.132404
  49 C :   -0.022829
  50 C :   -0.031455
  51 C :   -0.177777
  52 S :    0.379629
  53 C :   -0.171646
  54 C :   -0.034051
  55 C :   -0.024711
  56 C :   -0.152599
  57 S :    0.361719
  58 C :   -0.064912
  59 C :   -0.205031
  60 S :    0.473827
  61 C :   -0.188659
  62 C :   -0.084100
  63 C :    0.021260
  64 O :    0.001558
  65 C :    0.026332
  66 N :    0.271899
  67 O :   -0.209600
  68 O :   -0.190936
  69 C :   -0.008819
  70 H :    0.040946
  71 H :    0.041316
  72 H :    0.039401
  73 H :    0.048384
  74 H :    0.030171
  75 H :    0.025701
  76 H :    0.023820
  77 H :    0.027320
  78 H :    0.024111
  79 H :    0.020070
  80 H :    0.019397
  81 H :    0.025842
  82 H :    0.025379
  83 H :    0.021601
  84 H :    0.027848
  85 H :    0.023975
  86 H :    0.024616
  87 H :    0.028784
  88 H :    0.037613
  89 H :    0.013329
  90 H :    0.029985
  91 H :    0.033563
  92 H :    0.037899
  93 H :    0.033739
  94 H :    0.033697
  95 H :    0.036471
  96 H :    0.047418
  97 H :    0.029087
  98 H :    0.047548

  Mayer bond orders larger than 0.100000
B(  0-C ,  1-C ) :   1.6492 B(  0-C ,  6-C ) :   1.0109 B(  0-C , 18-C ) :   1.0492
B(  1-C ,  2-C ) :   1.1352 B(  1-C ,  4-C ) :   1.1468 B(  2-C ,  3-N ) :   2.9739
B(  4-C ,  5-N ) :   2.9875 B(  6-C ,  7-C ) :   1.2706 B(  6-C , 11-C ) :   1.4037
B(  7-C ,  8-C ) :   1.4234 B(  7-C , 16-C ) :   0.9414 B(  8-C ,  9-C ) :   1.2435
B(  8-C , 70-H ) :   1.0186 B(  9-C , 10-C ) :   1.3036 B(  9-C , 14-C ) :   1.1632
B( 10-C , 11-C ) :   1.3311 B( 10-C , 12-S ) :   1.0865 B( 11-C , 71-H ) :   0.9811
B( 12-S , 13-C ) :   1.0866 B( 13-C , 14-C ) :   1.6183 B( 13-C , 15-Br) :   1.0213
B( 14-C , 72-H ) :   1.0001 B( 16-C , 17-O ) :   2.2123 B( 16-C , 18-C ) :   0.9383
B( 18-C , 19-C ) :   1.6346 B( 19-C , 20-C ) :   1.0983 B( 19-C , 73-H ) :   0.9424
B( 20-C , 21-C ) :   1.5264 B( 20-C , 24-C ) :   1.1201 B( 21-C , 22-S ) :   1.1727
B( 21-C , 74-H ) :   0.9674 B( 22-S , 23-C ) :   1.0575 B( 23-C , 24-C ) :   1.3945
B( 23-C , 35-C ) :   1.3815 B( 24-C , 25-C ) :   1.2861 B( 25-C , 26-C ) :   1.0756
B( 25-C , 28-C ) :   1.5005 B( 26-C , 27-C ) :   1.1008 B( 26-C , 75-H ) :   0.9166
B( 26-C , 76-H ) :   0.9076 B( 27-C , 77-H ) :   0.9623 B( 27-C , 78-H ) :   0.9658
B( 27-C , 79-H ) :   0.9690 B( 28-C , 29-C ) :   1.0724 B( 28-C , 31-C ) :   1.2534
B( 29-C , 30-C ) :   1.1053 B( 29-C , 80-H ) :   0.9234 B( 29-C , 81-H ) :   0.9096
B( 30-C , 82-H ) :   0.9646 B( 30-C , 83-H ) :   0.9653 B( 30-C , 84-H ) :   0.9550
B( 31-C , 32-C ) :   1.1474 B( 31-C , 35-C ) :   1.3695 B( 32-C , 33-C ) :   1.6107
B( 32-C , 36-C ) :   1.0167 B( 33-C , 34-S ) :   1.1170 B( 33-C , 85-H ) :   0.9631
B( 34-S , 35-C ) :   1.0792 B( 36-C , 37-C ) :   1.7599 B( 36-C , 86-H ) :   0.9528
B( 37-C , 38-C ) :   1.0648 B( 37-C , 87-H ) :   0.9852 B( 38-C , 39-C ) :   1.2985
B( 38-C , 46-C ) :   1.3022 B( 39-C , 40-C ) :   1.3681 B( 39-C , 88-H ) :   0.9993
B( 40-C , 41-N ) :   0.8888 B( 40-C , 44-C ) :   1.3225 B( 41-N , 42-O ) :   1.5512
B( 41-N , 43-O ) :   1.5042 B( 42-O , 43-O ) :   0.2592 B( 44-C , 45-C ) :   1.2751
B( 44-C , 47-C ) :   1.1391 B( 45-C , 46-C ) :   1.4687 B( 45-C , 89-H ) :   0.9709
B( 46-C , 90-H ) :   0.9846 B( 47-C , 48-C ) :   1.5871 B( 47-C , 91-H ) :   0.9502
B( 48-C , 49-C ) :   1.1327 B( 48-C , 52-S ) :   1.0321 B( 49-C , 50-C ) :   1.6030
B( 49-C , 92-H ) :   1.0011 B( 50-C , 51-C ) :   1.1730 B( 50-C , 93-H ) :   0.9919
B( 51-C , 52-S ) :   1.0318 B( 51-C , 53-C ) :   1.5327 B( 53-C , 54-C ) :   1.1746
B( 53-C , 57-S ) :   1.0388 B( 54-C , 55-C ) :   1.6048 B( 54-C , 94-H ) :   0.9921
B( 55-C , 56-C ) :   1.1335 B( 55-C , 95-H ) :   1.0000 B( 56-C , 57-S ) :   1.0311
B( 56-C , 58-C ) :   1.5788 B( 58-C , 59-C ) :   1.1714 B( 58-C , 96-H ) :   0.9734
B( 59-C , 60-S ) :   1.1073 B( 59-C , 61-C ) :   0.1088 B( 59-C , 63-C ) :   1.4438
B( 60-S , 61-C ) :   1.1889 B( 61-C , 62-C ) :   1.4203 B( 61-C , 97-H ) :   0.9740
B( 62-C , 63-C ) :   1.2299 B( 62-C , 69-C ) :   1.0595 B( 63-C , 64-O ) :   1.1240
B( 64-O , 65-C ) :   1.1197 B( 65-C , 66-N ) :   0.9152 B( 65-C , 69-C ) :   1.5813
B( 66-N , 67-O ) :   1.5337 B( 66-N , 68-O ) :   1.5162 B( 67-O , 68-O ) :   0.2806
B( 69-C , 98-H ) :   1.0247

-----------------------------------------------------------------------------
         ABSORPTION SPECTRUM VIA TRANSITION ELECTRIC DIPOLE MOMENTS
-----------------------------------------------------------------------------
State   Energy  Wavelength   fosc         T2         TX        TY        TZ
        (cm-1)    (nm)                  (au**2)     (au)      (au)      (au)
-----------------------------------------------------------------------------
   0   14747.8    678.1   1.220109824  27.23625   1.58896  -0.14984  -4.96880
   1   20010.4    499.7   0.136507851   2.24584  -1.31926   0.42249   0.57174
   2   20681.2    483.5   0.004078802   0.06493  -0.09967   0.18051  -0.14970
   3   22683.0    440.9   0.371770992   5.39574   0.26557  -1.98839   1.17111
   4   23467.5    426.1   0.105233075   1.47625  -0.46766  -0.11950   1.11502
   5   24093.6    415.0   0.049815081   0.68067   0.26637   0.59069  -0.51068
   6   24692.8    405.0   0.287285548   3.83018   1.82638  -0.55353   0.43372
   7   26363.8    379.3   0.028324547   0.35370   0.31592  -0.38026   0.33059
   8   26864.5    372.2   0.033459693   0.41003  -0.24582   0.33948  -0.48410
   9   27490.5    363.8   0.344574018   4.12644  -1.44872   0.73062  -1.22223
  10   27709.9    360.9   0.025454486   0.30242  -0.05669  -0.30822   0.45189
  11   28663.8    348.9   0.457859823   5.25866  -1.30028  -1.88691  -0.08669
  12   29397.6    340.2   0.056940417   0.63765   0.42783  -0.63317   0.23175
  13   29565.1    338.2   0.726495959   8.08963   2.77958  -0.52063   0.30418
  14   30017.0    333.1   0.003049809   0.03345   0.10058  -0.06664   0.13744
  15   30095.5    332.3   0.039296752   0.42986  -0.47806   0.06081  -0.44455
  16   30587.0    326.9   0.055775699   0.60032   0.64350   0.14013   0.40816
  17   31994.7    312.6   0.025943112   0.26694  -0.21305   0.12606  -0.45350
  18   32178.8    310.8   0.003450379   0.03530  -0.01826   0.08582  -0.16614
  19   32205.8    310.5   0.020931202   0.21396   0.01035   0.05347  -0.45934
  20   32521.7    307.5   0.025769791   0.26086   0.11275   0.42197  -0.26476
  21   32946.2    303.5   0.000020216   0.00020  -0.01221  -0.00097  -0.00721
  22   33271.5    300.6   0.001252934   0.01240  -0.07574  -0.06318   0.05166
  23   33359.0    299.8   0.025984056   0.25643   0.12141  -0.04254  -0.48977
  24   33682.9    296.9   0.154359582   1.50869   0.81186  -0.33970   0.85684
  25   33807.9    295.8   0.573983024   5.58928  -1.93100  -0.94108  -0.98736
  26   34013.2    294.0   0.009659392   0.09349  -0.12432   0.25932   0.10389
  27   34823.2    287.2   0.262510701   2.48172  -0.06213  -1.41334   0.69306
  28   35305.9    283.2   0.084869645   0.79137   0.06996  -0.24606   0.85201
  29   35682.7    280.2   0.229965304   2.12168  -1.30464   0.11510   0.63745
  30   36750.6    272.1   0.097091624   0.86975  -0.23668   0.23979  -0.86962
  31   36978.8    270.4   0.097577753   0.86871  -0.35068  -0.30113  -0.80935
  32   37082.0    269.7   0.048676225   0.43214   0.09567  -0.59792  -0.25590
  33   37094.8    269.6   0.086594550   0.76852  -0.23167  -0.60029   0.59540
  34   37373.3    267.6   0.110674601   0.97490  -0.98243  -0.02151   0.09626
  35   37431.4    267.2   0.026581007   0.23378  -0.01629  -0.08487   0.47573
  36   37626.1    265.8   0.012345687   0.10802  -0.19783  -0.15371  -0.21273
  37   37798.5    264.6   0.066513109   0.57931   0.50176   0.19432  -0.53831
  38   38069.7    262.7   0.069746376   0.60314  -0.26097   0.08072   0.72699
  39   38320.2    261.0   0.014011710   0.12038   0.21579   0.17771   0.20550
  40   38485.3    259.8   0.088226853   0.75471  -0.39237   0.29242  -0.71781
  41   38590.5    259.1   0.028331487   0.24169   0.28176  -0.22560  -0.33378
  42   39176.1    255.3   0.032767528   0.27536   0.32159  -0.09466  -0.40371
  43   39300.7    254.4   0.347399498   2.91008   0.23726  -1.43746   0.88741
  44   39602.0    252.5   0.157047764   1.30554  -0.46091   0.01656   1.04539
  45   39795.8    251.3   0.088803748   0.73463   0.44266  -0.15462  -0.71748

FINAL SINGLE POINT ENERGY     -7666.146231221067

DIPOLE MOMENT
-------------
                                X             Y             Z
Electronic contribution:     10.92106    -126.07784       3.44833
Nuclear contribution   :    -11.73388     125.92519      -4.85090
                        -----------------------------------------
Total Dipole Moment    :     -0.81282      -0.15265      -1.40257
                        -----------------------------------------
Magnitude (a.u.)       :      1.62824
Magnitude (Debye)      :      4.13867

Rotational constants in cm-1:     0.000625     0.000310     0.000262
Rotational constants in MHz :    18.742727     9.297580     7.843211

                             ****ORCA TERMINATED NORMALLY****
TOTAL RUN TIME: 0 days 0 hours 9 minutes 36 seconds 225 msec
