                         Program Version 4.2.0 -  RELEASE  -
|  1> # ORCA input file
|  2> # SCF done       -201.534416203721          0.000948083055
|  3> ! CAM-B3LYP def2-SVP def2/J RIJCOSX Grid4 TightSCF
|  4> %maxcore 5000
|  5> %tddft
|  6>     Mode sTDDFT
|  7>     Ethresh 5.0
|  8>     maxcore 5000
|  9> end
| 10>
| 11> %pal
| 12>   nprocs 6
| 13>   end
| 14> * xyz 0 1
| 15>    C      -14.10088         0.32539         2.65470
| 16>    C      -13.33988        -0.80190         2.48201
| 17>    C      -13.72743        -2.08731         2.90836
| 18>    N      -14.00868        -3.14629         3.25053
| 19>    C      -12.14350        -0.79247         1.73781
| 20>    N      -11.22404        -0.83819         1.05170
| 21>    C      -15.47459         0.38910         3.12839
| 22>    C      -15.98002         1.68516         2.85524
| 23>    C      -17.26784         2.05070         3.16132
| 24>    C      -18.09202         1.09492         3.76614
| 25>    C      -17.57410        -0.19356         4.04026
| 26>    C      -16.27220        -0.56610         3.72812
| 27>    S      -18.76055        -1.21165         4.79756
| 28>    C      -19.92164         0.08743         4.73397
| 29>    C      -19.44704         1.22627         4.17536
| 30>   Br      -21.64961        -0.18163         5.41110
| 31>    C      -14.92144         2.51228         2.23770
| 32>    O      -15.01194         3.67769         1.91045
| 33>    C      -13.72058         1.65075         2.21434
| 34>    C      -12.43567         2.10808         2.10352
| 35>    C      -12.02490         3.31400         1.49680
| 36>    S      -10.62718         4.14706         2.12035
| 37>    C      -10.63908         5.28573         0.80574
| 38>    C      -11.69516         5.02098        -0.06311
| 39>    C      -12.47267         3.91827         0.32697
| 40>    C      -13.55907         3.38027        -0.53497
| 41>    C      -13.30646         3.76836        -1.98562
| 42>    C      -13.21007         5.28363        -2.08642
| 43>    C      -12.01998         5.84184        -1.28307
| 44>    C      -12.40693         7.22296        -0.80539
| 45>    O      -11.85673         8.24655        -1.09731
| 46>    C       -9.58608         6.24408         0.81905
| 47>    C       -9.25506         7.14261        -0.13406
| 48>    N       -8.22158         8.01554         0.02529
| 49>    C       -7.94293         9.01101        -0.84476
| 50>    S       -8.48512         8.91048        -2.49295
| 51>    C       -7.67502        10.40540        -2.84666
| 52>    N       -7.76116        10.90303        -4.15163
| 53>    O       -7.19929        11.95536        -4.39467
| 54>    O       -8.39452        10.23596        -4.95194
| 55>    C       -7.04354        10.94788        -1.76434
| 56>    C       -7.20359        10.18404        -0.58680
| 57>    C       -6.74050        10.66566         0.67433
| 58>    C       -7.05082        10.16936         1.90080
| 59>    C       -6.53779        10.65782         3.11677
| 60>    C       -6.67246         9.95458         4.28608
| 61>    C       -6.11218        10.22907         5.55765
| 62>    C       -6.20767         9.19908         6.44428
| 63>    C       -6.84410         8.05108         5.91424
| 64>    S       -7.44656         8.37244         4.31518
| 65>    C       -6.85902         6.76459         6.42006
| 66>    C       -6.22699         6.26483         7.57635
| 67>    C       -6.15317         4.90413         7.60729
| 68>    C       -6.69796         4.26459         6.46750
| 69>    S       -7.46789         5.43961         5.44197
| 70>    C       -6.65458         2.89880         6.23457
| 71>    C       -7.01691         2.15292         5.12309
| 72>    C       -7.25658         2.42824         3.78100
| 73>    C       -6.94709         3.48405         2.88156
| 74>    C       -6.08775         4.56369         3.07113
| 75>    C       -6.16750         5.71403         2.28143
| 76>    N       -6.31845         6.70701         1.71317
| 77>    C       -5.08314         4.58455         4.05120
| 78>    N       -4.22310         4.59867         4.81346
| 79>    C       -7.62175         3.21245         1.61103
| 80>    C       -8.30426         1.97606         1.70716
| 81>    C       -8.07190         1.41852         3.05421
| 82>    O       -8.49988         0.37727         3.50335
| 83>    C       -9.03549         1.44539         0.67431
| 84>    C       -9.10762         2.18441        -0.51333
| 85>    C       -8.39204         3.39665        -0.61474
| 86>    C       -7.62536         3.91406         0.42263
| 87>    S       -8.60961         4.14262        -2.16902
| 88>    C       -9.64139         2.82180        -2.65988
| 89>    C       -9.81875         1.87759        -1.70661
| 90>   Br      -10.37765         2.82958        -4.39013
| 91>    H      -17.63151         3.04205         2.94072
| 92>    H      -15.91510        -1.55643         3.95842
| 93>    H      -20.02726         2.12311         4.05708
| 94>    H      -11.64382         1.52071         2.55762
| 95>    H      -14.51342         3.80074        -0.20176
| 96>    H      -13.62529         2.29585        -0.41664
| 97>    H      -14.12077         3.40967        -2.61539
| 98>    H      -12.38195         3.30860        -2.33355
| 99>    H      -14.13998         5.71347        -1.70529
|100>    H      -13.10269         5.59123        -3.12680
|101>    H      -11.13905         5.90354        -1.92987
|102>    H      -13.28600         7.21076        -0.13468
|103>    H       -8.96958         6.21080         1.70939
|104>    H       -9.81123         7.26873        -1.04755
|105>    H       -7.56813         7.83512         0.79726
|106>    H       -6.51005        11.88013        -1.81386
|107>    H       -6.10185        11.53801         0.62059
|108>    H       -7.72331         9.33025         1.99462
|109>    H       -5.95832        11.57067         3.12664
|110>    H       -5.62147        11.16403         5.76340
|111>    H       -5.80352         9.21450         7.44017
|112>    H       -5.80769         6.91377         8.32344
|113>    H       -5.66524         4.33990         8.38146
|114>    H       -6.33053         2.31999         7.09212
|115>    H       -7.19656         1.10108         5.33954
|116>    H       -9.54641         0.49944         0.77475
|117>    H       -7.07595         4.82805         0.27764
|118>    H      -10.41934         0.99499        -1.83068
|119> *
|120>
|121>                          ****END OF INPUT****

CARTESIAN COORDINATES (ANGSTROEM)
---------------------------------
  C    -14.100880    0.325390    2.654700
  C    -13.339880   -0.801900    2.482010
  C    -13.727430   -2.087310    2.908360
  N    -14.008680   -3.146290    3.250530
  C    -12.143500   -0.792470    1.737810
  N    -11.224040   -0.838190    1.051700
  C    -15.474590    0.389100    3.128390
  C    -15.980020    1.685160    2.855240
  C    -17.267840    2.050700    3.161320
  C    -18.092020    1.094920    3.766140
  C    -17.574100   -0.193560    4.040260
  C    -16.272200   -0.566100    3.728120
  S    -18.760550   -1.211650    4.797560
  C    -19.921640    0.087430    4.733970
  C    -19.447040    1.226270    4.175360
  Br   -21.649610   -0.181630    5.411100
  C    -14.921440    2.512280    2.237700
  O    -15.011940    3.677690    1.910450
  C    -13.720580    1.650750    2.214340
  C    -12.435670    2.108080    2.103520
  C    -12.024900    3.314000    1.496800
  S    -10.627180    4.147060    2.120350
  C    -10.639080    5.285730    0.805740
  C    -11.695160    5.020980   -0.063110
  C    -12.472670    3.918270    0.326970
  C    -13.559070    3.380270   -0.534970
  C    -13.306460    3.768360   -1.985620
  C    -13.210070    5.283630   -2.086420
  C    -12.019980    5.841840   -1.283070
  C    -12.406930    7.222960   -0.805390
  O    -11.856730    8.246550   -1.097310
  C     -9.586080    6.244080    0.819050
  C     -9.255060    7.142610   -0.134060
  N     -8.221580    8.015540    0.025290
  C     -7.942930    9.011010   -0.844760
  S     -8.485120    8.910480   -2.492950
  C     -7.675020   10.405400   -2.846660
  N     -7.761160   10.903030   -4.151630
  O     -7.199290   11.955360   -4.394670
  O     -8.394520   10.235960   -4.951940
  C     -7.043540   10.947880   -1.764340
  C     -7.203590   10.184040   -0.586800
  C     -6.740500   10.665660    0.674330
  C     -7.050820   10.169360    1.900800
  C     -6.537790   10.657820    3.116770
  C     -6.672460    9.954580    4.286080
  C     -6.112180   10.229070    5.557650
  C     -6.207670    9.199080    6.444280
  C     -6.844100    8.051080    5.914240
  S     -7.446560    8.372440    4.315180
  C     -6.859020    6.764590    6.420060
  C     -6.226990    6.264830    7.576350
  C     -6.153170    4.904130    7.607290
  C     -6.697960    4.264590    6.467500
  S     -7.467890    5.439610    5.441970
  C     -6.654580    2.898800    6.234570
  C     -7.016910    2.152920    5.123090
  C     -7.256580    2.428240    3.781000
  C     -6.947090    3.484050    2.881560
  C     -6.087750    4.563690    3.071130
  C     -6.167500    5.714030    2.281430
  N     -6.318450    6.707010    1.713170
  C     -5.083140    4.584550    4.051200
  N     -4.223100    4.598670    4.813460
  C     -7.621750    3.212450    1.611030
  C     -8.304260    1.976060    1.707160
  C     -8.071900    1.418520    3.054210
  O     -8.499880    0.377270    3.503350
  C     -9.035490    1.445390    0.674310
  C     -9.107620    2.184410   -0.513330
  C     -8.392040    3.396650   -0.614740
  C     -7.625360    3.914060    0.422630
  S     -8.609610    4.142620   -2.169020
  C     -9.641390    2.821800   -2.659880
  C     -9.818750    1.877590   -1.706610
  Br   -10.377650    2.829580   -4.390130
  H    -17.631510    3.042050    2.940720
  H    -15.915100   -1.556430    3.958420
  H    -20.027260    2.123110    4.057080
  H    -11.643820    1.520710    2.557620
  H    -14.513420    3.800740   -0.201760
  H    -13.625290    2.295850   -0.416640
  H    -14.120770    3.409670   -2.615390
  H    -12.381950    3.308600   -2.333550
  H    -14.139980    5.713470   -1.705290
  H    -13.102690    5.591230   -3.126800
  H    -11.139050    5.903540   -1.929870
  H    -13.286000    7.210760   -0.134680
  H     -8.969580    6.210800    1.709390
  H     -9.811230    7.268730   -1.047550
  H     -7.568130    7.835120    0.797260
  H     -6.510050   11.880130   -1.813860
  H     -6.101850   11.538010    0.620590
  H     -7.723310    9.330250    1.994620
  H     -5.958320   11.570670    3.126640
  H     -5.621470   11.164030    5.763400
  H     -5.803520    9.214500    7.440170
  H     -5.807690    6.913770    8.323440
  H     -5.665240    4.339900    8.381460
  H     -6.330530    2.319990    7.092120
  H     -7.196560    1.101080    5.339540
  H     -9.546410    0.499440    0.774750
  H     -7.075950    4.828050    0.277640
  H    -10.419340    0.994990   -1.830680

 Total Charge           Charge          ....    0
 Multiplicity           Mult            ....    1
 Number of Electrons    NEL             ....  618
 Basis Dimension        Dim             .... 1264

ORBITAL ENERGIES
----------------

  NO   OCC          E(Eh)            E(eV)
   0   2.0000    -482.886073    -13139.9981
   1   2.0000    -482.883395    -13139.9252
   2   2.0000     -88.982470     -2421.3361
   3   2.0000     -88.976108     -2421.1630
   4   2.0000     -88.971602     -2421.0404
   5   2.0000     -88.970736     -2421.0168
   6   2.0000     -88.968481     -2420.9555
   7   2.0000     -88.961652     -2420.7696
   8   2.0000     -62.563792     -1702.4473
   9   2.0000     -62.560795     -1702.3658
  10   2.0000     -56.397742     -1534.6606
  11   2.0000     -56.395027     -1534.5867
  12   2.0000     -56.394994     -1534.5858
  13   2.0000     -56.394748     -1534.5791
  14   2.0000     -56.392086     -1534.5067
  15   2.0000     -56.392002     -1534.5044
  16   2.0000     -19.233461      -523.3691
  17   2.0000     -19.232331      -523.3383
  18   2.0000     -19.223621      -523.1013
  19   2.0000     -19.215220      -522.8727
  20   2.0000     -19.202109      -522.5160
  21   2.0000     -14.644791      -398.5050
  22   2.0000     -14.475085      -393.8871
  23   2.0000     -14.422956      -392.4686
  24   2.0000     -14.416228      -392.2855
  25   2.0000     -14.414223      -392.2310
  26   2.0000     -14.399081      -391.8189
  27   2.0000     -10.372266      -282.2437
  28   2.0000     -10.366283      -282.0809
  29   2.0000     -10.362302      -281.9726
  30   2.0000     -10.359266      -281.8900
  31   2.0000     -10.352140      -281.6960
  32   2.0000     -10.349556      -281.6257
  33   2.0000     -10.346030      -281.5298
  34   2.0000     -10.340721      -281.3853
  35   2.0000     -10.339037      -281.3395
  36   2.0000     -10.339027      -281.3392
  37   2.0000     -10.335282      -281.2373
  38   2.0000     -10.334463      -281.2150
  39   2.0000     -10.332193      -281.1533
  40   2.0000     -10.326179      -280.9896
  41   2.0000     -10.325613      -280.9742
  42   2.0000     -10.325606      -280.9740
  43   2.0000     -10.325102      -280.9603
  44   2.0000     -10.324034      -280.9312
  45   2.0000     -10.321925      -280.8739
  46   2.0000     -10.321407      -280.8598
  47   2.0000     -10.320333      -280.8305
  48   2.0000     -10.316862      -280.7361
  49   2.0000     -10.315725      -280.7051
  50   2.0000     -10.315479      -280.6985
  51   2.0000     -10.314929      -280.6835
  52   2.0000     -10.310615      -280.5661
  53   2.0000     -10.308929      -280.5202
  54   2.0000     -10.307746      -280.4880
  55   2.0000     -10.307649      -280.4854
  56   2.0000     -10.307535      -280.4823
  57   2.0000     -10.306061      -280.4422
  58   2.0000     -10.304939      -280.4116
  59   2.0000     -10.304188      -280.3912
  60   2.0000     -10.303381      -280.3693
  61   2.0000     -10.302002      -280.3317
  62   2.0000     -10.301093      -280.3070
  63   2.0000     -10.298882      -280.2468
  64   2.0000     -10.297071      -280.1975
  65   2.0000     -10.295734      -280.1612
  66   2.0000     -10.295108      -280.1441
  67   2.0000     -10.294547      -280.1289
  68   2.0000     -10.294476      -280.1269
  69   2.0000     -10.293685      -280.1054
  70   2.0000     -10.293459      -280.0993
  71   2.0000     -10.292878      -280.0834
  72   2.0000     -10.290511      -280.0190
  73   2.0000     -10.290036      -280.0061
  74   2.0000     -10.289685      -279.9966
  75   2.0000     -10.289282      -279.9856
  76   2.0000     -10.288240      -279.9572
  77   2.0000     -10.285735      -279.8891
  78   2.0000     -10.281414      -279.7715
  79   2.0000     -10.279835      -279.7285
  80   2.0000     -10.277370      -279.6615
  81   2.0000     -10.275716      -279.6164
  82   2.0000     -10.268184      -279.4115
  83   2.0000     -10.265941      -279.3505
  84   2.0000      -8.793222      -239.2757
  85   2.0000      -8.790060      -239.1897
  86   2.0000      -8.077819      -219.8086
  87   2.0000      -8.072006      -219.6504
  88   2.0000      -8.066805      -219.5089
  89   2.0000      -8.065624      -219.4768
  90   2.0000      -8.064714      -219.4520
  91   2.0000      -8.056663      -219.2330
  92   2.0000      -6.629522      -180.3985
  93   2.0000      -6.626247      -180.3094
  94   2.0000      -6.614959      -180.0022
  95   2.0000      -6.614759      -179.9967
  96   2.0000      -6.611861      -179.9179
  97   2.0000      -6.611645      -179.9120
  98   2.0000      -6.047464      -164.5599
  99   2.0000      -6.043050      -164.4397
 100   2.0000      -6.041709      -164.4033
 101   2.0000      -6.039295      -164.3376
 102   2.0000      -6.037412      -164.2863
 103   2.0000      -6.036546      -164.2628
 104   2.0000      -6.035081      -164.2229
 105   2.0000      -6.034410      -164.2046
 106   2.0000      -6.033261      -164.1734
 107   2.0000      -6.032255      -164.1460
 108   2.0000      -6.030956      -164.1107
 109   2.0000      -6.030327      -164.0935
 110   2.0000      -6.028144      -164.0341
 111   2.0000      -6.027326      -164.0119
 112   2.0000      -6.026034      -163.9767
 113   2.0000      -6.025677      -163.9670
 114   2.0000      -6.021938      -163.8653
 115   2.0000      -6.018642      -163.7756
 116   2.0000      -2.745399       -74.7061
 117   2.0000      -2.742075       -74.6157
 118   2.0000      -2.741305       -74.5947
 119   2.0000      -2.741151       -74.5905
 120   2.0000      -2.738124       -74.5081
 121   2.0000      -2.737983       -74.5043
 122   2.0000      -2.729582       -74.2757
 123   2.0000      -2.729570       -74.2754
 124   2.0000      -2.726533       -74.1927
 125   2.0000      -2.726501       -74.1919
 126   2.0000      -1.313979       -35.7552
 127   2.0000      -1.138724       -30.9863
 128   2.0000      -1.133112       -30.8335
 129   2.0000      -1.129659       -30.7396
 130   2.0000      -1.116062       -30.3696
 131   2.0000      -1.088434       -29.6178
 132   2.0000      -1.023059       -27.8389
 133   2.0000      -1.020479       -27.7686
 134   2.0000      -1.016295       -27.6548
 135   2.0000      -1.013457       -27.5776
 136   2.0000      -1.009607       -27.4728
 137   2.0000      -1.003428       -27.3047
 138   2.0000      -0.999570       -27.1997
 139   2.0000      -0.996293       -27.1105
 140   2.0000      -0.994387       -27.0586
 141   2.0000      -0.988930       -26.9102
 142   2.0000      -0.985459       -26.8157
 143   2.0000      -0.976610       -26.5749
 144   2.0000      -0.943807       -25.6823
 145   2.0000      -0.937468       -25.5098
 146   2.0000      -0.932867       -25.3846
 147   2.0000      -0.928466       -25.2648
 148   2.0000      -0.917171       -24.9575
 149   2.0000      -0.910032       -24.7632
 150   2.0000      -0.908515       -24.7219
 151   2.0000      -0.900110       -24.4932
 152   2.0000      -0.899022       -24.4636
 153   2.0000      -0.888076       -24.1658
 154   2.0000      -0.886036       -24.1103
 155   2.0000      -0.880178       -23.9508
 156   2.0000      -0.874889       -23.8069
 157   2.0000      -0.872807       -23.7503
 158   2.0000      -0.867142       -23.5961
 159   2.0000      -0.857601       -23.3365
 160   2.0000      -0.854067       -23.2403
 161   2.0000      -0.848322       -23.0840
 162   2.0000      -0.842077       -22.9141
 163   2.0000      -0.834619       -22.7111
 164   2.0000      -0.829338       -22.5674
 165   2.0000      -0.826890       -22.5008
 166   2.0000      -0.818635       -22.2762
 167   2.0000      -0.808216       -21.9927
 168   2.0000      -0.798081       -21.7169
 169   2.0000      -0.778299       -21.1786
 170   2.0000      -0.769490       -20.9389
 171   2.0000      -0.757972       -20.6255
 172   2.0000      -0.751575       -20.4514
 173   2.0000      -0.746334       -20.3088
 174   2.0000      -0.741824       -20.1861
 175   2.0000      -0.733969       -19.9723
 176   2.0000      -0.724118       -19.7043
 177   2.0000      -0.712495       -19.3880
 178   2.0000      -0.709235       -19.2993
 179   2.0000      -0.700884       -19.0720
 180   2.0000      -0.692854       -18.8535
 181   2.0000      -0.691790       -18.8246
 182   2.0000      -0.690171       -18.7805
 183   2.0000      -0.681945       -18.5567
 184   2.0000      -0.678741       -18.4695
 185   2.0000      -0.671748       -18.2792
 186   2.0000      -0.667015       -18.1504
 187   2.0000      -0.662647       -18.0315
 188   2.0000      -0.654427       -17.8079
 189   2.0000      -0.652754       -17.7623
 190   2.0000      -0.650044       -17.6886
 191   2.0000      -0.647164       -17.6102
 192   2.0000      -0.642776       -17.4908
 193   2.0000      -0.635618       -17.2960
 194   2.0000      -0.629218       -17.1219
 195   2.0000      -0.626050       -17.0357
 196   2.0000      -0.625726       -17.0269
 197   2.0000      -0.621107       -16.9012
 198   2.0000      -0.620178       -16.8759
 199   2.0000      -0.613067       -16.6824
 200   2.0000      -0.611234       -16.6325
 201   2.0000      -0.609073       -16.5737
 202   2.0000      -0.598985       -16.2992
 203   2.0000      -0.592421       -16.1206
 204   2.0000      -0.588478       -16.0133
 205   2.0000      -0.586144       -15.9498
 206   2.0000      -0.584477       -15.9044
 207   2.0000      -0.577674       -15.7193
 208   2.0000      -0.572884       -15.5890
 209   2.0000      -0.569373       -15.4934
 210   2.0000      -0.565108       -15.3774
 211   2.0000      -0.560440       -15.2503
 212   2.0000      -0.558396       -15.1947
 213   2.0000      -0.545570       -14.8457
 214   2.0000      -0.543872       -14.7995
 215   2.0000      -0.543319       -14.7845
 216   2.0000      -0.540036       -14.6951
 217   2.0000      -0.539720       -14.6865
 218   2.0000      -0.537860       -14.6359
 219   2.0000      -0.535116       -14.5612
 220   2.0000      -0.533805       -14.5256
 221   2.0000      -0.529927       -14.4200
 222   2.0000      -0.528396       -14.3784
 223   2.0000      -0.526846       -14.3362
 224   2.0000      -0.523961       -14.2577
 225   2.0000      -0.523205       -14.2371
 226   2.0000      -0.518263       -14.1026
 227   2.0000      -0.516985       -14.0679
 228   2.0000      -0.516306       -14.0494
 229   2.0000      -0.514512       -14.0006
 230   2.0000      -0.512542       -13.9470
 231   2.0000      -0.509795       -13.8722
 232   2.0000      -0.508047       -13.8247
 233   2.0000      -0.504021       -13.7151
 234   2.0000      -0.501570       -13.6484
 235   2.0000      -0.499462       -13.5910
 236   2.0000      -0.498545       -13.5661
 237   2.0000      -0.496516       -13.5109
 238   2.0000      -0.494364       -13.4523
 239   2.0000      -0.492086       -13.3903
 240   2.0000      -0.490501       -13.3472
 241   2.0000      -0.488786       -13.3005
 242   2.0000      -0.488036       -13.2801
 243   2.0000      -0.486990       -13.2517
 244   2.0000      -0.481082       -13.0909
 245   2.0000      -0.480262       -13.0686
 246   2.0000      -0.475802       -12.9472
 247   2.0000      -0.475233       -12.9318
 248   2.0000      -0.471724       -12.8363
 249   2.0000      -0.469998       -12.7893
 250   2.0000      -0.466721       -12.7001
 251   2.0000      -0.462341       -12.5809
 252   2.0000      -0.460298       -12.5254
 253   2.0000      -0.458830       -12.4854
 254   2.0000      -0.458023       -12.4634
 255   2.0000      -0.454958       -12.3800
 256   2.0000      -0.453789       -12.3482
 257   2.0000      -0.448545       -12.2055
 258   2.0000      -0.446600       -12.1526
 259   2.0000      -0.445334       -12.1181
 260   2.0000      -0.444652       -12.0996
 261   2.0000      -0.440683       -11.9916
 262   2.0000      -0.439387       -11.9563
 263   2.0000      -0.438134       -11.9222
 264   2.0000      -0.436880       -11.8881
 265   2.0000      -0.434166       -11.8143
 266   2.0000      -0.432143       -11.7592
 267   2.0000      -0.430432       -11.7126
 268   2.0000      -0.429863       -11.6972
 269   2.0000      -0.428539       -11.6612
 270   2.0000      -0.426206       -11.5976
 271   2.0000      -0.420850       -11.4519
 272   2.0000      -0.418232       -11.3807
 273   2.0000      -0.415466       -11.3054
 274   2.0000      -0.413622       -11.2552
 275   2.0000      -0.413116       -11.2414
 276   2.0000      -0.410333       -11.1657
 277   2.0000      -0.407597       -11.0913
 278   2.0000      -0.405287       -11.0284
 279   2.0000      -0.402142       -10.9428
 280   2.0000      -0.398438       -10.8420
 281   2.0000      -0.393263       -10.7012
 282   2.0000      -0.388877       -10.5819
 283   2.0000      -0.386340       -10.5129
 284   2.0000      -0.380946       -10.3661
 285   2.0000      -0.376112       -10.2345
 286   2.0000      -0.375476       -10.2172
 287   2.0000      -0.373056       -10.1514
 288   2.0000      -0.371887       -10.1196
 289   2.0000      -0.368817       -10.0360
 290   2.0000      -0.361886        -9.8474
 291   2.0000      -0.361126        -9.8267
 292   2.0000      -0.356482        -9.7004
 293   2.0000      -0.350475        -9.5369
 294   2.0000      -0.341617        -9.2959
 295   2.0000      -0.339844        -9.2476
 296   2.0000      -0.337365        -9.1802
 297   2.0000      -0.331796        -9.0286
 298   2.0000      -0.327390        -8.9087
 299   2.0000      -0.320507        -8.7214
 300   2.0000      -0.318331        -8.6622
 301   2.0000      -0.315187        -8.5767
 302   2.0000      -0.307017        -8.3544
 303   2.0000      -0.301445        -8.2027
 304   2.0000      -0.294169        -8.0047
 305   2.0000      -0.285466        -7.7679
 306   2.0000      -0.282473        -7.6865
 307   2.0000      -0.254627        -6.9288
 308   2.0000      -0.233749        -6.3606
 309   0.0000      -0.110592        -3.0094
 310   0.0000      -0.090003        -2.4491
 311   0.0000      -0.064642        -1.7590
 312   0.0000      -0.062727        -1.7069
 313   0.0000      -0.049274        -1.3408

MULLIKEN ATOMIC CHARGES
-----------------------
   0 C :    0.270201
   1 C :   -0.322964
   2 C :   -0.179192
   3 N :    0.148930
   4 C :   -0.161327
   5 N :    0.140547
   6 C :    0.019867
   7 C :   -0.007946
   8 C :   -0.077514
   9 C :    0.118001
  10 C :   -0.087296
  11 C :   -0.024567
  12 S :    0.185898
  13 C :   -0.124857
  14 C :    0.038864
  15 Br:    0.023081
  16 C :    0.145163
  17 O :   -0.160127
  18 C :   -0.123364
  19 C :    0.000875
  20 C :   -0.131389
  21 S :    0.133866
  22 C :   -0.116721
  23 C :   -0.077109
  24 C :   -0.004672
  25 C :    0.102048
  26 C :    0.051541
  27 C :    0.055537
  28 C :   -0.041820
  29 C :    0.163903
  30 O :   -0.182557
  31 C :    0.050936
  32 C :    0.034895
  33 N :   -0.058621
  34 C :   -0.086284
  35 S :    0.167358
  36 C :    0.003355
  37 N :    0.274846
  38 O :   -0.254485
  39 O :   -0.264414
  40 C :    0.007176
  41 C :    0.109694
  42 C :    0.009438
  43 C :   -0.012734
  44 C :    0.032469
  45 C :   -0.051732
  46 C :    0.065628
  47 C :    0.025958
  48 C :   -0.011831
  49 S :    0.092492
  50 C :   -0.071427
  51 C :    0.050054
  52 C :    0.057093
  53 C :   -0.048144
  54 S :    0.128819
  55 C :   -0.002086
  56 C :    0.017126
  57 C :   -0.135682
  58 C :    0.299520
  59 C :   -0.394336
  60 C :   -0.107737
  61 N :    0.065669
  62 C :   -0.207405
  63 N :    0.152742
  64 C :    0.016268
  65 C :    0.018648
  66 C :    0.123859
  67 O :   -0.150496
  68 C :   -0.080565
  69 C :    0.117617
  70 C :   -0.085828
  71 C :   -0.048947
  72 S :    0.156908
  73 C :   -0.136406
  74 C :    0.047690
  75 Br:    0.018903
  76 H :   -0.012979
  77 H :   -0.004708
  78 H :   -0.003667
  79 H :    0.041304
  80 H :    0.039669
  81 H :    0.012218
  82 H :    0.002451
  83 H :    0.010625
  84 H :    0.002500
  85 H :    0.018023
  86 H :    0.021359
  87 H :    0.006321
  88 H :   -0.024117
  89 H :    0.046486
  90 H :    0.155344
  91 H :    0.009029
  92 H :   -0.006658
  93 H :    0.007746
  94 H :    0.000013
  95 H :    0.002451
  96 H :   -0.002308
  97 H :   -0.006185
  98 H :   -0.004516
  99 H :   -0.000083
 100 H :    0.028596
 101 H :   -0.030169
 102 H :   -0.023849
 103 H :    0.004197
Sum of atomic charges:   -0.0000000

LOEWDIN ATOMIC CHARGES
----------------------
   0 C :    0.077476
   1 C :   -0.143626
   2 C :   -0.019546
   3 N :   -0.052381
   4 C :   -0.002298
   5 N :   -0.056914
   6 C :   -0.021430
   7 C :   -0.047992
   8 C :    0.019641
   9 C :   -0.033159
  10 C :   -0.145165
  11 C :   -0.009473
  12 S :    0.432767
  13 C :   -0.272161
  14 C :   -0.070777
  15 Br:    0.136465
  16 C :    0.082846
  17 O :   -0.145284
  18 C :   -0.107529
  19 C :    0.052015
  20 C :   -0.195090
  21 S :    0.474593
  22 C :   -0.127057
  23 C :   -0.077007
  24 C :    0.004778
  25 C :   -0.030485
  26 C :   -0.027400
  27 C :   -0.013876
  28 C :   -0.062986
  29 C :    0.122903
  30 O :   -0.129066
  31 C :   -0.103812
  32 C :    0.041906
  33 N :    0.051489
  34 C :   -0.076312
  35 S :    0.474583
  36 C :   -0.212576
  37 N :    0.273757
  38 O :   -0.220004
  39 O :   -0.230637
  40 C :    0.004961
  41 C :   -0.108610
  42 C :    0.022599
  43 C :   -0.056708
  44 C :    0.002938
  45 C :   -0.161253
  46 C :    0.002496
  47 C :   -0.042710
  48 C :   -0.128137
  49 S :    0.408998
  50 C :   -0.204970
  51 C :   -0.007903
  52 C :   -0.038890
  53 C :   -0.105125
  54 S :    0.468508
  55 C :   -0.078048
  56 C :    0.042986
  57 C :   -0.119579
  58 C :    0.050766
  59 C :   -0.196101
  60 C :    0.027942
  61 N :   -0.113312
  62 C :   -0.039223
  63 N :   -0.073359
  64 C :   -0.025252
  65 C :   -0.065384
  66 C :    0.080504
  67 O :   -0.147779
  68 C :    0.024467
  69 C :   -0.038548
  70 C :   -0.144122
  71 C :   -0.028524
  72 S :    0.421324
  73 C :   -0.281628
  74 C :   -0.060144
  75 Br:    0.133465
  76 H :    0.039968
  77 H :    0.041284
  78 H :    0.038609
  79 H :    0.044620
  80 H :    0.037748
  81 H :    0.033475
  82 H :    0.027137
  83 H :    0.017981
  84 H :    0.023398
  85 H :    0.032206
  86 H :    0.027272
  87 H :    0.000503
  88 H :    0.026216
  89 H :    0.016214
  90 H :    0.073440
  91 H :    0.045133
  92 H :    0.036513
  93 H :    0.015635
  94 H :    0.039313
  95 H :    0.040057
  96 H :    0.036098
  97 H :    0.035653
  98 H :    0.037081
  99 H :    0.041578
 100 H :    0.046998
 101 H :    0.034497
 102 H :    0.031158
 103 H :    0.042396

  Mayer bond orders larger than 0.100000
B(  0-C ,  1-C ) :   1.6410 B(  0-C ,  6-C ) :   1.0173 B(  0-C , 18-C ) :   1.0613
B(  1-C ,  2-C ) :   1.1297 B(  1-C ,  4-C ) :   1.1508 B(  2-C ,  3-N ) :   2.9821
B(  4-C ,  5-N ) :   2.9338 B(  5-N ,101-H ) :   0.1004 B(  6-C ,  7-C ) :   1.2728
B(  6-C , 11-C ) :   1.4125 B(  7-C ,  8-C ) :   1.4305 B(  7-C , 16-C ) :   0.9362
B(  8-C ,  9-C ) :   1.2420 B(  8-C , 76-H ) :   1.0171 B(  9-C , 10-C ) :   1.3111
B(  9-C , 14-C ) :   1.1633 B( 10-C , 11-C ) :   1.3222 B( 10-C , 12-S ) :   1.0835
B( 11-C , 77-H ) :   0.9840 B( 12-S , 13-C ) :   1.0886 B( 13-C , 14-C ) :   1.6173
B( 13-C , 15-Br) :   1.0186 B( 14-C , 78-H ) :   1.0003 B( 16-C , 17-O ) :   2.1727
B( 16-C , 18-C ) :   0.9697 B( 18-C , 19-C ) :   1.5682 B( 19-C , 20-C ) :   1.1907
B( 19-C , 79-H ) :   0.9435 B( 20-C , 21-S ) :   1.0700 B( 20-C , 24-C ) :   1.4474
B( 21-S , 22-C ) :   1.1776 B( 22-C , 23-C ) :   1.4203 B( 22-C , 31-C ) :   1.1768
B( 23-C , 24-C ) :   1.3628 B( 23-C , 28-C ) :   0.9898 B( 24-C , 25-C ) :   1.0740
B( 25-C , 26-C ) :   1.0806 B( 25-C , 80-H ) :   0.8810 B( 25-C , 81-H ) :   0.9061
B( 26-C , 27-C ) :   1.0939 B( 26-C , 82-H ) :   0.9286 B( 26-C , 83-H ) :   0.9373
B( 27-C , 28-C ) :   1.0381 B( 27-C , 84-H ) :   0.9291 B( 27-C , 85-H ) :   0.9298
B( 28-C , 29-C ) :   0.9438 B( 28-C , 86-H ) :   0.8853 B( 29-C , 30-O ) :   2.1424
B( 29-C , 87-H ) :   0.9420 B( 31-C , 32-C ) :   1.6452 B( 31-C , 88-H ) :   0.9215
B( 32-C , 33-N ) :   1.1491 B( 32-C , 89-H ) :   0.9418 B( 33-N , 34-C ) :   1.2374
B( 33-N , 90-H ) :   0.8436 B( 34-C , 35-S ) :   1.1640 B( 34-C , 41-C ) :   1.3189
B( 35-S , 36-C ) :   1.0728 B( 36-C , 37-N ) :   0.9726 B( 36-C , 40-C ) :   1.5008
B( 37-N , 38-O ) :   1.5326 B( 37-N , 39-O ) :   1.5123 B( 38-O , 39-O ) :   0.2571
B( 40-C , 41-C ) :   1.2005 B( 40-C , 91-H ) :   1.0051 B( 41-C , 42-C ) :   1.1334
B( 42-C , 43-C ) :   1.6157 B( 42-C , 92-H ) :   0.9754 B( 43-C , 44-C ) :   1.1745
B( 43-C , 93-H ) :   0.9536 B( 44-C , 45-C ) :   1.5540 B( 44-C , 94-H ) :   0.9873
B( 45-C , 46-C ) :   1.1554 B( 45-C , 49-S ) :   1.0243 B( 46-C , 47-C ) :   1.5763
B( 46-C , 95-H ) :   0.9973 B( 47-C , 48-C ) :   1.2022 B( 47-C , 96-H ) :   0.9930
B( 48-C , 49-S ) :   1.1157 B( 48-C , 50-C ) :   1.4387 B( 50-C , 51-C ) :   1.2235
B( 50-C , 54-S ) :   1.0359 B( 51-C , 52-C ) :   1.5447 B( 51-C , 97-H ) :   0.9899
B( 52-C , 53-C ) :   1.1894 B( 52-C , 98-H ) :   0.9964 B( 53-C , 54-S ) :   1.1321
B( 53-C , 55-C ) :   1.4003 B( 55-C , 56-C ) :   1.3960 B( 55-C , 99-H ) :   0.9500
B( 56-C , 57-C ) :   1.3976 B( 56-C ,100-H ) :   0.9225 B( 57-C , 58-C ) :   1.2067
B( 57-C , 66-C ) :   0.9627 B( 58-C , 59-C ) :   1.4475 B( 58-C , 64-C ) :   1.0159
B( 59-C , 60-C ) :   1.1944 B( 59-C , 62-C ) :   1.1555 B( 60-C , 61-N ) :   2.8352
B( 61-N , 90-H ) :   0.1620 B( 62-C , 63-N ) :   3.0088 B( 64-C , 65-C ) :   1.2623
B( 64-C , 71-C ) :   1.4323 B( 65-C , 66-C ) :   0.9199 B( 65-C , 68-C ) :   1.4200
B( 66-C , 67-O ) :   2.2300 B( 68-C , 69-C ) :   1.2222 B( 68-C ,101-H ) :   1.0006
B( 69-C , 70-C ) :   1.3354 B( 69-C , 74-C ) :   1.1605 B( 70-C , 71-C ) :   1.3113
B( 70-C , 72-S ) :   1.0767 B( 71-C ,102-H ) :   0.9725 B( 72-S , 73-C ) :   1.0768
B( 73-C , 74-C ) :   1.6089 B( 73-C , 75-Br) :   1.0113 B( 74-C ,103-H ) :   1.0016

-----------------------------------------------------------------------------
         ABSORPTION SPECTRUM VIA TRANSITION ELECTRIC DIPOLE MOMENTS
-----------------------------------------------------------------------------
State   Energy  Wavelength   fosc         T2         TX        TY        TZ
        (cm-1)    (nm)                  (au**2)     (au)      (au)      (au)
-----------------------------------------------------------------------------
   0   10419.0    959.8   0.190376926   6.01537  -0.84586   2.17518  -0.75398
   1   16683.0    599.4   0.435959207   8.60297   1.10662   2.58054   0.84805
   2   17866.7    559.7   0.580659819  10.69927   1.85303   2.60460  -0.69399
   3   20354.0    491.3   0.078019966   1.26192   0.22721  -0.25725   1.06963
   4   20871.7    479.1   0.402419190   6.34741   1.24755   1.79758  -1.24889
   5   21847.6    457.7   0.246521024   3.71471   0.65245   1.37833  -1.17865
   6   23020.2    434.4   0.195999086   2.80299  -0.17188  -0.75640   1.48368
   7   23968.1    417.2   0.143079877   1.96526   0.81070   0.79923   0.81808
   8   24873.1    402.0   0.127008344   1.68104  -0.20296  -0.69840  -1.07335
   9   25035.6    399.4   0.609905629   8.02009  -0.32693  -0.80126   2.69652
  10   26068.0    383.6   0.021003620   0.26525   0.42763  -0.17732   0.22571
  11   26293.1    380.3   0.151328544   1.89476   0.32816   0.73318  -1.11782
  12   26773.4    373.5   0.124026761   1.52506   0.25729  -0.24037   1.18367
  13   27378.8    365.2   0.116473975   1.40052   0.20336   0.61138  -0.99266
  14   28106.0    355.8   0.227686620   2.66695   1.02538   0.23297  -1.24951
  15   28262.3    353.8   0.118711270   1.38280   0.22803   0.63485  -0.96321
  16   28557.1    350.2   0.273756276   3.15592  -1.61463  -0.33042   0.66311
  17   28782.1    347.4   0.123883927   1.41699  -0.98527   0.62813  -0.22732
  18   29259.7    341.8   0.088337776   0.99392   0.53030   0.78267   0.31644
  19   29294.5    341.4   0.015289944   0.17183  -0.20699   0.25685  -0.25102
  20   29829.6    335.2   0.193682691   2.13756   0.82353   0.36893   1.15033
  21   29984.8    333.5   0.026166310   0.28729   0.20667  -0.48308  -0.10587
  22   30115.3    332.1   0.026801510   0.29299   0.31540   0.35044   0.26590
  23   30370.4    329.3   0.049378014   0.53525   0.09550  -0.63051  -0.35860
  24   30834.3    324.3   0.078618384   0.83939  -0.50473  -0.00266  -0.76461
  25   30858.8    324.1   0.012626807   0.13471  -0.12684  -0.30996   0.15015
  26   31099.9    321.5   0.049796216   0.52712   0.71986   0.09393   0.01043
  27   31364.9    318.8   0.184173889   1.93312   0.70122   0.13471   1.19301
  28   31525.1    317.2   0.297885352   3.11077   0.43131   0.24894   1.69197
  29   31849.0    314.0   0.131241406   1.35660  -0.02754  -0.07518  -1.16198
  30   32279.3    309.8   0.028024056   0.28581  -0.39457   0.10680   0.34456
  31   32472.4    308.0   0.000992212   0.01006   0.08202  -0.05654   0.01165
  32   32668.6    306.1   0.026083025   0.26285  -0.16566   0.48136   0.06083
  33   33275.6    300.5   0.037304357   0.36907  -0.31289  -0.46659  -0.23122
  34   33526.4    298.3   0.300056713   2.94641  -1.66189   0.13131   0.40902
  35   33740.3    296.4   0.020661634   0.20160   0.28041  -0.20819  -0.28218
  36   33907.2    294.9   0.171787785   1.66792   1.15936  -0.52382  -0.22229
  37   34056.2    293.6   0.055609566   0.53756  -0.24425   0.56344  -0.40056
  38   34145.4    292.9   0.022115947   0.21323   0.00005   0.45020   0.10272
  39   34447.5    290.3   0.134726864   1.28758  -0.16693  -1.11312  -0.14375
  40   34704.0    288.2   0.092759598   0.87994   0.08643   0.66821   0.65266
  41   35050.2    285.3   0.089598810   0.84156   0.29323   0.86881   0.02722
  42   35150.6    284.5   0.092129883   0.86287   0.79033   0.47816  -0.09803
  43   35325.9    283.1   0.067629176   0.63025   0.24696   0.75140   0.06829
  44   35775.5    279.5   0.092561115   0.85176   0.15073  -0.85652   0.30888
  45   36038.4    277.5   0.010008583   0.09143   0.07817   0.28480   0.06486
  46   36254.4    275.8   0.007714188   0.07005   0.01986   0.26312   0.02054
  47   36561.4    273.5   0.059093503   0.53210  -0.66935  -0.28072  -0.07259
  48   36663.8    272.7   0.018691801   0.16784  -0.24853   0.22237   0.23796
  49   36724.3    272.3   0.104710698   0.93867   0.51625   0.48464   0.66127
  50   36924.8    270.8   0.002579568   0.02300   0.09295   0.10230   0.06239
  51   37223.3    268.6   0.016257895   0.14379   0.35268   0.04566  -0.13160
  52   37350.1    267.7   0.048341522   0.42609  -0.60451  -0.17336   0.17497
  53   37445.0    267.1   0.028881591   0.25392  -0.27802   0.26966   0.32236
  54   37474.8    266.8   0.046738013   0.41059  -0.09769  -0.59067   0.22838
  55   37764.7    264.8   0.018473839   0.16104  -0.07242   0.13939  -0.36928
  56   37833.0    264.3   0.108344235   0.94278   0.35777   0.90078  -0.05814
  57   37985.2    263.3   0.028644527   0.24826  -0.07866   0.41336  -0.26684
  58   38105.5    262.4   0.000655426   0.00566   0.02294   0.06321   0.03376
  59   38731.4    258.2   0.043985403   0.37387  -0.28546  -0.52456  -0.13124
  60   38810.8    257.7   0.038106737   0.32324  -0.04090   0.56648   0.02582
  61   39155.2    255.4   0.037416317   0.31459  -0.02044   0.55365  -0.08743
  62   39272.6    254.6   0.005381999   0.04512   0.09181   0.06761  -0.17921
  63   39503.2    253.1   0.025869589   0.21559   0.24139   0.37222  -0.13701
  64   39650.2    252.2   0.073634712   0.61138   0.34789  -0.59752   0.36514
  65   39858.4    250.9   0.009932598   0.08204   0.08796   0.04051   0.26956
  66   40081.0    249.5   0.034956496   0.28712   0.30953   0.37767  -0.22063
  67   40237.3    248.5   0.068883638   0.56359   0.05846   0.62600  -0.41024

FINAL SINGLE POINT ENERGY    -10426.018510148742

DIPOLE MOMENT
-------------
                                X             Y             Z
Electronic contribution:   -112.66196     -80.80664     -20.02792
Nuclear contribution   :    111.69944      83.18949      22.79943
                        -----------------------------------------
Total Dipole Moment    :     -0.96251       2.38285       2.77150
                        -----------------------------------------
Magnitude (a.u.)       :      3.77963
Magnitude (Debye)      :      9.60706

Rotational constants in cm-1:     0.000890     0.000390     0.000342
Rotational constants in MHz :    26.691150    11.696474    10.252197

                             ****ORCA TERMINATED NORMALLY****
TOTAL RUN TIME: 0 days 0 hours 15 minutes 40 seconds 206 msec
