                         Program Version 4.2.0 -  RELEASE  -
|  1> # ORCA input file
|  2> # SCF done       -162.641550449796          0.001268866297
|  3> ! CAM-B3LYP def2-SVP def2/J RIJCOSX Grid4 TightSCF
|  4> %maxcore 5000
|  5> %tddft
|  6>     Mode sTDDFT
|  7>     Ethresh 5.0
|  8>     maxcore 5000
|  9> end
| 10>
| 11> %pal
| 12>   nprocs 6
| 13>   end
| 14> * xyz 0 1
| 15>    C       -9.45745        -3.50767         2.66561
| 16>    C      -10.31442        -2.75738         3.43723
| 17>    C       -9.89610        -1.91510         4.48267
| 18>    N       -9.60549        -1.22997         5.35895
| 19>    C      -11.71538        -2.81867         3.32582
| 20>    N      -12.86379        -2.83909         3.28984
| 21>    C       -8.00414        -3.52523         2.77123
| 22>    C       -7.50499        -4.53475         1.91345
| 23>    C       -6.16212        -4.73476         1.71422
| 24>    C       -5.27063        -3.93509         2.43712
| 25>    C       -5.78026        -2.98475         3.35117
| 26>    C       -7.13915        -2.74977         3.51871
| 27>    S       -4.50257        -2.16879         4.20229
| 28>    C       -3.31942        -3.09141         3.31267
| 29>    C       -3.84910        -3.95793         2.42007
| 30>   Br       -1.49695        -2.85194         3.66999
| 31>    C       -8.63895        -5.28192         1.33016
| 32>    O       -8.56166        -6.27052         0.62919
| 33>    C       -9.84598        -4.51830         1.71998
| 34>    C      -11.07207        -4.71299         1.12920
| 35>    C      -11.44039        -5.95575         0.55615
| 36>    S      -12.21154        -6.10292        -0.99650
| 37>    C      -12.07587        -7.81572        -0.92500
| 38>    C      -11.51810        -8.27450         0.22871
| 39>    C      -11.31283        -9.71224         0.56526
| 40>    C      -11.18510        -7.21202         1.11288
| 41>    C      -10.76089        -7.32785         2.47865
| 42>    C      -11.23593        -6.47786         3.42792
| 43>    C      -10.65044        -6.24063         4.68676
| 44>    C      -11.14279        -5.29043         5.54612
| 45>    C      -10.45918        -4.66250         6.59805
| 46>    C       -9.09461        -4.63521         6.78972
| 47>    C       -8.39160        -3.89390         7.77012
| 48>    C       -7.03149        -3.96145         7.66981
| 49>    C       -6.58610        -4.77055         6.60717
| 50>    S       -7.95006        -5.43510         5.73493
| 51>    C       -5.31749        -5.11796         6.18363
| 52>    C       -4.03630        -4.80655         6.68517
| 53>    C       -3.01848        -5.35229         5.96156
| 54>    C       -3.43934        -6.11073         4.83449
| 55>    S       -5.18767        -6.13623         4.77213
| 56>    C       -2.62572        -6.62274         3.86066
| 57>    C       -2.95900        -7.26485         2.64273
| 58>    S       -1.79243        -7.01218         1.35687
| 59>    C       -2.73509        -7.93103         0.21800
| 60>    C       -3.86449        -8.44658         0.82949
| 61>    C       -3.99839        -8.06802         2.18279
| 62>    C       -5.04250        -8.74520         2.99897
| 63>    S       -6.72735        -7.98545         2.85148
| 64>    C       -5.08951       -10.21176         2.57217
| 65>    C       -5.54981       -10.34386         1.12438
| 66>    C       -4.80471        -9.40008         0.15775
| 67>    C       -2.21867        -8.06334        -1.10677
| 68>    C       -2.92549        -8.34876        -2.21982
| 69>    C       -2.38383        -8.49883        -3.54568
| 70>    C       -1.17506        -8.95643        -3.90542
| 71>    C       -0.12478        -9.45444        -2.96524
| 72>    C       -0.80380        -9.05165        -5.36288
| 73>    N        0.49926        -8.46781        -5.58483
| 74>    C        1.26527        -8.83348        -6.66727
| 75>    C        2.21672        -8.08735        -7.21670
| 76>    H       -5.79878        -5.48819         1.03317
| 77>    H       -7.48190        -1.99128         4.20319
| 78>    H       -3.26400        -4.59451         1.78217
| 79>    H      -11.76654        -3.88520         1.04234
| 80>    H      -12.42918        -8.39719        -1.75474
| 81>    H      -11.60205       -10.34787        -0.26767
| 82>    H      -11.90560        -9.98186         1.43885
| 83>    H      -10.26505        -9.89087         0.80231
| 84>    H      -10.02592        -8.08038         2.72791
| 85>    H      -12.07445        -5.84072         3.16660
| 86>    H       -9.74137        -6.77719         4.91468
| 87>    H      -12.14757        -4.92788         5.35930
| 88>    H      -11.04053        -4.03851         7.26446
| 89>    H       -8.91553        -3.31871         8.51276
| 90>    H       -6.34676        -3.44600         8.31961
| 91>    H       -3.90168        -4.18801         7.55461
| 92>    H       -1.97396        -5.21833         6.18225
| 93>    H       -1.57195        -6.39109         3.96885
| 94>    H       -4.82384        -8.66384         4.06478
| 95>    H       -6.72711        -7.80274         1.53562
| 96>    H       -5.77236       -10.76111         3.22153
| 97>    H       -4.08772       -10.63288         2.69344
| 98>    H       -5.40983       -11.37646         0.80264
| 99>    H       -6.61986       -10.13528         1.08509
|100>    H       -5.53991        -8.82739        -0.41722
|101>    H       -4.22623        -9.98614        -0.56044
|102>    H       -1.16620        -7.83685        -1.19680
|103>    H       -4.00306        -8.41138        -2.16206
|104>    H       -3.08054        -8.25013        -4.33876
|105>    H       -0.57263        -9.86905        -2.06460
|106>    H        0.54826        -8.64818        -2.67487
|107>    H        0.47746       -10.21600        -3.45559
|108>    H       -1.58306        -8.58084        -5.98403
|109>    H       -0.74320       -10.10847        -5.65016
|110>    H        0.55986        -7.48816        -5.34274
|111>    H        1.07463        -9.83948        -7.01896
|112>    H        2.41880        -7.08603        -6.87671
|113>    H        2.83309        -8.46557        -8.00957
|114> *
|115>
|116>                          ****END OF INPUT****

CARTESIAN COORDINATES (ANGSTROEM)
---------------------------------
  C     -9.457450   -3.507670    2.665610
  C    -10.314420   -2.757380    3.437230
  C     -9.896100   -1.915100    4.482670
  N     -9.605490   -1.229970    5.358950
  C    -11.715380   -2.818670    3.325820
  N    -12.863790   -2.839090    3.289840
  C     -8.004140   -3.525230    2.771230
  C     -7.504990   -4.534750    1.913450
  C     -6.162120   -4.734760    1.714220
  C     -5.270630   -3.935090    2.437120
  C     -5.780260   -2.984750    3.351170
  C     -7.139150   -2.749770    3.518710
  S     -4.502570   -2.168790    4.202290
  C     -3.319420   -3.091410    3.312670
  C     -3.849100   -3.957930    2.420070
  Br    -1.496950   -2.851940    3.669990
  C     -8.638950   -5.281920    1.330160
  O     -8.561660   -6.270520    0.629190
  C     -9.845980   -4.518300    1.719980
  C    -11.072070   -4.712990    1.129200
  C    -11.440390   -5.955750    0.556150
  S    -12.211540   -6.102920   -0.996500
  C    -12.075870   -7.815720   -0.925000
  C    -11.518100   -8.274500    0.228710
  C    -11.312830   -9.712240    0.565260
  C    -11.185100   -7.212020    1.112880
  C    -10.760890   -7.327850    2.478650
  C    -11.235930   -6.477860    3.427920
  C    -10.650440   -6.240630    4.686760
  C    -11.142790   -5.290430    5.546120
  C    -10.459180   -4.662500    6.598050
  C     -9.094610   -4.635210    6.789720
  C     -8.391600   -3.893900    7.770120
  C     -7.031490   -3.961450    7.669810
  C     -6.586100   -4.770550    6.607170
  S     -7.950060   -5.435100    5.734930
  C     -5.317490   -5.117960    6.183630
  C     -4.036300   -4.806550    6.685170
  C     -3.018480   -5.352290    5.961560
  C     -3.439340   -6.110730    4.834490
  S     -5.187670   -6.136230    4.772130
  C     -2.625720   -6.622740    3.860660
  C     -2.959000   -7.264850    2.642730
  S     -1.792430   -7.012180    1.356870
  C     -2.735090   -7.931030    0.218000
  C     -3.864490   -8.446580    0.829490
  C     -3.998390   -8.068020    2.182790
  C     -5.042500   -8.745200    2.998970
  S     -6.727350   -7.985450    2.851480
  C     -5.089510  -10.211760    2.572170
  C     -5.549810  -10.343860    1.124380
  C     -4.804710   -9.400080    0.157750
  C     -2.218670   -8.063340   -1.106770
  C     -2.925490   -8.348760   -2.219820
  C     -2.383830   -8.498830   -3.545680
  C     -1.175060   -8.956430   -3.905420
  C     -0.124780   -9.454440   -2.965240
  C     -0.803800   -9.051650   -5.362880
  N      0.499260   -8.467810   -5.584830
  C      1.265270   -8.833480   -6.667270
  C      2.216720   -8.087350   -7.216700
  H     -5.798780   -5.488190    1.033170
  H     -7.481900   -1.991280    4.203190
  H     -3.264000   -4.594510    1.782170
  H    -11.766540   -3.885200    1.042340
  H    -12.429180   -8.397190   -1.754740
  H    -11.602050  -10.347870   -0.267670
  H    -11.905600   -9.981860    1.438850
  H    -10.265050   -9.890870    0.802310
  H    -10.025920   -8.080380    2.727910
  H    -12.074450   -5.840720    3.166600
  H     -9.741370   -6.777190    4.914680
  H    -12.147570   -4.927880    5.359300
  H    -11.040530   -4.038510    7.264460
  H     -8.915530   -3.318710    8.512760
  H     -6.346760   -3.446000    8.319610
  H     -3.901680   -4.188010    7.554610
  H     -1.973960   -5.218330    6.182250
  H     -1.571950   -6.391090    3.968850
  H     -4.823840   -8.663840    4.064780
  H     -6.727110   -7.802740    1.535620
  H     -5.772360  -10.761110    3.221530
  H     -4.087720  -10.632880    2.693440
  H     -5.409830  -11.376460    0.802640
  H     -6.619860  -10.135280    1.085090
  H     -5.539910   -8.827390   -0.417220
  H     -4.226230   -9.986140   -0.560440
  H     -1.166200   -7.836850   -1.196800
  H     -4.003060   -8.411380   -2.162060
  H     -3.080540   -8.250130   -4.338760
  H     -0.572630   -9.869050   -2.064600
  H      0.548260   -8.648180   -2.674870
  H      0.477460  -10.216000   -3.455590
  H     -1.583060   -8.580840   -5.984030
  H     -0.743200  -10.108470   -5.650160
  H      0.559860   -7.488160   -5.342740
  H      1.074630   -9.839480   -7.018960
  H      2.418800   -7.086030   -6.876710
  H      2.833090   -8.465570   -8.009570

 Total Charge           Charge          ....    0
 Multiplicity           Mult            ....    1
 Number of Electrons    NEL             ....  498
 Basis Dimension        Dim             .... 1086

ORBITAL ENERGIES
----------------

  NO   OCC          E(Eh)            E(eV)
   0   2.0000    -482.879808    -13139.8276
   1   2.0000     -88.963513     -2420.8203
   2   2.0000     -88.952756     -2420.5275
   3   2.0000     -88.951627     -2420.4968
   4   2.0000     -88.940901     -2420.2050
   5   2.0000     -88.939815     -2420.1754
   6   2.0000     -88.907963     -2419.3087
   7   2.0000     -62.557319     -1702.2712
   8   2.0000     -56.391225     -1534.4832
   9   2.0000     -56.388625     -1534.4125
  10   2.0000     -56.388539     -1534.4102
  11   2.0000     -19.203854      -522.5634
  12   2.0000     -14.408266      -392.0688
  13   2.0000     -14.402850      -391.9215
  14   2.0000     -14.400296      -391.8520
  15   2.0000     -10.354058      -281.7482
  16   2.0000     -10.345600      -281.5181
  17   2.0000     -10.324293      -280.9383
  18   2.0000     -10.322249      -280.8827
  19   2.0000     -10.312052      -280.6052
  20   2.0000     -10.310690      -280.5681
  21   2.0000     -10.307101      -280.4705
  22   2.0000     -10.306969      -280.4669
  23   2.0000     -10.306570      -280.4560
  24   2.0000     -10.305410      -280.4245
  25   2.0000     -10.304721      -280.4057
  26   2.0000     -10.303727      -280.3787
  27   2.0000     -10.302087      -280.3340
  28   2.0000     -10.301822      -280.3268
  29   2.0000     -10.300222      -280.2833
  30   2.0000     -10.298395      -280.2336
  31   2.0000     -10.294952      -280.1399
  32   2.0000     -10.294294      -280.1220
  33   2.0000     -10.291597      -280.0486
  34   2.0000     -10.291065      -280.0341
  35   2.0000     -10.289312      -279.9864
  36   2.0000     -10.288838      -279.9735
  37   2.0000     -10.287716      -279.9430
  38   2.0000     -10.286439      -279.9082
  39   2.0000     -10.284841      -279.8648
  40   2.0000     -10.284571      -279.8574
  41   2.0000     -10.282977      -279.8140
  42   2.0000     -10.282525      -279.8017
  43   2.0000     -10.282358      -279.7972
  44   2.0000     -10.281705      -279.7794
  45   2.0000     -10.280640      -279.7504
  46   2.0000     -10.279815      -279.7280
  47   2.0000     -10.278971      -279.7050
  48   2.0000     -10.278140      -279.6824
  49   2.0000     -10.277165      -279.6559
  50   2.0000     -10.276780      -279.6454
  51   2.0000     -10.275808      -279.6189
  52   2.0000     -10.275610      -279.6136
  53   2.0000     -10.271498      -279.5017
  54   2.0000     -10.270427      -279.4725
  55   2.0000     -10.269908      -279.4584
  56   2.0000     -10.268107      -279.4094
  57   2.0000     -10.266044      -279.3533
  58   2.0000     -10.265636      -279.3421
  59   2.0000     -10.264690      -279.3164
  60   2.0000     -10.264607      -279.3142
  61   2.0000     -10.263136      -279.2741
  62   2.0000     -10.262061      -279.2449
  63   2.0000     -10.259201      -279.1671
  64   2.0000     -10.228452      -278.3303
  65   2.0000      -8.786671      -239.0975
  66   2.0000      -8.058950      -219.2952
  67   2.0000      -8.048764      -219.0180
  68   2.0000      -8.047027      -218.9707
  69   2.0000      -8.036191      -218.6759
  70   2.0000      -8.035106      -218.6464
  71   2.0000      -8.002365      -217.7554
  72   2.0000      -6.622692      -180.2126
  73   2.0000      -6.608594      -179.8290
  74   2.0000      -6.608322      -179.8216
  75   2.0000      -6.028653      -164.0480
  76   2.0000      -6.024496      -163.9349
  77   2.0000      -6.020175      -163.8173
  78   2.0000      -6.018118      -163.7613
  79   2.0000      -6.016276      -163.7112
  80   2.0000      -6.013839      -163.6449
  81   2.0000      -6.012336      -163.6040
  82   2.0000      -6.010851      -163.5636
  83   2.0000      -6.009074      -163.5152
  84   2.0000      -6.005915      -163.4293
  85   2.0000      -6.004854      -163.4004
  86   2.0000      -6.001762      -163.3163
  87   2.0000      -6.000683      -163.2869
  88   2.0000      -5.997323      -163.1955
  89   2.0000      -5.996039      -163.1605
  90   2.0000      -5.972659      -162.5243
  91   2.0000      -5.968894      -162.4219
  92   2.0000      -5.962258      -162.2413
  93   2.0000      -2.738648       -74.5224
  94   2.0000      -2.734652       -74.4137
  95   2.0000      -2.734503       -74.4096
  96   2.0000      -2.723262       -74.1037
  97   2.0000      -2.723254       -74.1035
  98   2.0000      -1.117541       -30.4098
  99   2.0000      -1.011806       -27.5326
 100   2.0000      -1.008824       -27.4515
 101   2.0000      -1.000049       -27.2127
 102   2.0000      -0.994852       -27.0713
 103   2.0000      -0.988849       -26.9079
 104   2.0000      -0.985668       -26.8214
 105   2.0000      -0.980626       -26.6842
 106   2.0000      -0.974310       -26.5123
 107   2.0000      -0.968709       -26.3599
 108   2.0000      -0.930325       -25.3154
 109   2.0000      -0.925930       -25.1958
 110   2.0000      -0.915628       -24.9155
 111   2.0000      -0.909581       -24.7510
 112   2.0000      -0.897783       -24.4299
 113   2.0000      -0.895025       -24.3549
 114   2.0000      -0.892189       -24.2777
 115   2.0000      -0.880412       -23.9572
 116   2.0000      -0.870859       -23.6973
 117   2.0000      -0.866385       -23.5755
 118   2.0000      -0.861194       -23.4343
 119   2.0000      -0.856663       -23.3110
 120   2.0000      -0.846533       -23.0353
 121   2.0000      -0.841647       -22.9024
 122   2.0000      -0.827340       -22.5131
 123   2.0000      -0.825511       -22.4633
 124   2.0000      -0.820969       -22.3397
 125   2.0000      -0.814674       -22.1684
 126   2.0000      -0.813709       -22.1422
 127   2.0000      -0.806521       -21.9466
 128   2.0000      -0.793428       -21.5903
 129   2.0000      -0.783277       -21.3141
 130   2.0000      -0.777877       -21.1671
 131   2.0000      -0.770066       -20.9546
 132   2.0000      -0.756542       -20.5866
 133   2.0000      -0.746203       -20.3052
 134   2.0000      -0.743366       -20.2280
 135   2.0000      -0.737994       -20.0818
 136   2.0000      -0.722491       -19.6600
 137   2.0000      -0.706925       -19.2364
 138   2.0000      -0.697591       -18.9824
 139   2.0000      -0.691652       -18.8208
 140   2.0000      -0.689072       -18.7506
 141   2.0000      -0.676788       -18.4163
 142   2.0000      -0.669787       -18.2258
 143   2.0000      -0.669285       -18.2122
 144   2.0000      -0.664454       -18.0807
 145   2.0000      -0.658260       -17.9122
 146   2.0000      -0.648645       -17.6505
 147   2.0000      -0.643283       -17.5046
 148   2.0000      -0.641281       -17.4501
 149   2.0000      -0.635417       -17.2906
 150   2.0000      -0.628577       -17.1045
 151   2.0000      -0.616185       -16.7673
 152   2.0000      -0.612415       -16.6647
 153   2.0000      -0.610366       -16.6089
 154   2.0000      -0.605680       -16.4814
 155   2.0000      -0.603890       -16.4327
 156   2.0000      -0.593251       -16.1432
 157   2.0000      -0.585713       -15.9381
 158   2.0000      -0.582338       -15.8462
 159   2.0000      -0.576860       -15.6971
 160   2.0000      -0.569170       -15.4879
 161   2.0000      -0.568258       -15.4631
 162   2.0000      -0.561580       -15.2814
 163   2.0000      -0.557267       -15.1640
 164   2.0000      -0.554751       -15.0955
 165   2.0000      -0.548142       -14.9157
 166   2.0000      -0.542980       -14.7752
 167   2.0000      -0.539356       -14.6766
 168   2.0000      -0.534157       -14.5352
 169   2.0000      -0.531842       -14.4721
 170   2.0000      -0.530234       -14.4284
 171   2.0000      -0.527844       -14.3634
 172   2.0000      -0.522840       -14.2272
 173   2.0000      -0.517635       -14.0856
 174   2.0000      -0.515071       -14.0158
 175   2.0000      -0.513241       -13.9660
 176   2.0000      -0.511033       -13.9059
 177   2.0000      -0.508806       -13.8453
 178   2.0000      -0.507296       -13.8042
 179   2.0000      -0.504282       -13.7222
 180   2.0000      -0.501390       -13.6435
 181   2.0000      -0.497517       -13.5381
 182   2.0000      -0.495915       -13.4945
 183   2.0000      -0.492805       -13.4099
 184   2.0000      -0.491433       -13.3726
 185   2.0000      -0.488939       -13.3047
 186   2.0000      -0.487917       -13.2769
 187   2.0000      -0.484974       -13.1968
 188   2.0000      -0.483884       -13.1671
 189   2.0000      -0.479502       -13.0479
 190   2.0000      -0.478090       -13.0095
 191   2.0000      -0.474955       -12.9242
 192   2.0000      -0.473622       -12.8879
 193   2.0000      -0.469307       -12.7705
 194   2.0000      -0.466608       -12.6970
 195   2.0000      -0.462930       -12.5970
 196   2.0000      -0.461457       -12.5569
 197   2.0000      -0.460585       -12.5332
 198   2.0000      -0.454417       -12.3653
 199   2.0000      -0.453773       -12.3478
 200   2.0000      -0.449305       -12.2262
 201   2.0000      -0.446180       -12.1412
 202   2.0000      -0.444689       -12.1006
 203   2.0000      -0.442655       -12.0453
 204   2.0000      -0.440142       -11.9769
 205   2.0000      -0.437709       -11.9107
 206   2.0000      -0.437399       -11.9022
 207   2.0000      -0.434160       -11.8141
 208   2.0000      -0.433185       -11.7876
 209   2.0000      -0.432668       -11.7735
 210   2.0000      -0.431318       -11.7368
 211   2.0000      -0.428903       -11.6710
 212   2.0000      -0.426254       -11.5990
 213   2.0000      -0.424597       -11.5539
 214   2.0000      -0.420422       -11.4403
 215   2.0000      -0.417897       -11.3715
 216   2.0000      -0.416349       -11.3294
 217   2.0000      -0.412806       -11.2330
 218   2.0000      -0.412182       -11.2160
 219   2.0000      -0.411234       -11.1902
 220   2.0000      -0.408644       -11.1198
 221   2.0000      -0.402736       -10.9590
 222   2.0000      -0.398181       -10.8351
 223   2.0000      -0.396664       -10.7938
 224   2.0000      -0.392924       -10.6920
 225   2.0000      -0.391647       -10.6573
 226   2.0000      -0.387879       -10.5547
 227   2.0000      -0.386270       -10.5109
 228   2.0000      -0.382529       -10.4091
 229   2.0000      -0.376602       -10.2479
 230   2.0000      -0.368826       -10.0363
 231   2.0000      -0.367764       -10.0074
 232   2.0000      -0.360000        -9.7961
 233   2.0000      -0.350498        -9.5375
 234   2.0000      -0.336076        -9.1451
 235   2.0000      -0.332041        -9.0353
 236   2.0000      -0.328196        -8.9307
 237   2.0000      -0.322592        -8.7782
 238   2.0000      -0.316184        -8.6038
 239   2.0000      -0.310581        -8.4513
 240   2.0000      -0.305656        -8.3173
 241   2.0000      -0.301004        -8.1907
 242   2.0000      -0.288472        -7.8497
 243   2.0000      -0.286758        -7.8031
 244   2.0000      -0.277211        -7.5433
 245   2.0000      -0.266214        -7.2440
 246   2.0000      -0.259728        -7.0675
 247   2.0000      -0.245857        -6.6901
 248   2.0000      -0.204821        -5.5735
 249   0.0000      -0.090274        -2.4565
 250   0.0000      -0.067523        -1.8374
 251   0.0000      -0.048943        -1.3318
 252   0.0000      -0.028063        -0.7636
 253   0.0000      -0.006369        -0.1733

MULLIKEN ATOMIC CHARGES
-----------------------
   0 C :    0.309084
   1 C :   -0.351123
   2 C :   -0.188002
   3 N :    0.138751
   4 C :   -0.205849
   5 N :    0.144069
   6 C :    0.036267
   7 C :    0.010679
   8 C :   -0.069692
   9 C :    0.130461
  10 C :   -0.098539
  11 C :   -0.032802
  12 S :    0.168769
  13 C :   -0.132473
  14 C :    0.072922
  15 Br:    0.003855
  16 C :    0.157042
  17 O :   -0.171180
  18 C :   -0.118125
  19 C :   -0.010538
  20 C :   -0.169170
  21 S :    0.131170
  22 C :   -0.115958
  23 C :   -0.077941
  24 C :    0.120384
  25 C :    0.163190
  26 C :   -0.072891
  27 C :    0.055169
  28 C :   -0.050742
  29 C :    0.010537
  30 C :    0.013709
  31 C :   -0.032350
  32 C :    0.051087
  33 C :    0.029997
  34 C :   -0.051741
  35 S :    0.056016
  36 C :   -0.035873
  37 C :    0.043558
  38 C :    0.037720
  39 C :   -0.009151
  40 S :    0.069475
  41 C :    0.002662
  42 C :   -0.184691
  43 S :    0.101233
  44 C :   -0.131161
  45 C :   -0.102700
  46 C :    0.102146
  47 C :   -0.234011
  48 S :   -0.036517
  49 C :    0.131776
  50 C :    0.005399
  51 C :    0.107973
  52 C :    0.032242
  53 C :   -0.006025
  54 C :   -0.000366
  55 C :   -0.219580
  56 C :    0.119114
  57 C :    0.219055
  58 N :   -0.204858
  59 C :    0.045941
  60 C :   -0.084579
  61 H :   -0.029913
  62 H :   -0.012922
  63 H :   -0.020761
  64 H :    0.039753
  65 H :    0.019041
  66 H :    0.006193
  67 H :    0.032633
  68 H :    0.032672
  69 H :   -0.002718
  70 H :    0.014509
  71 H :    0.018812
  72 H :    0.012039
  73 H :   -0.007752
  74 H :   -0.007750
  75 H :   -0.014446
  76 H :   -0.015483
  77 H :   -0.012895
  78 H :   -0.009542
  79 H :    0.044956
  80 H :    0.073095
  81 H :    0.007646
  82 H :    0.011755
  83 H :    0.006217
  84 H :    0.002439
  85 H :    0.034281
  86 H :    0.016617
  87 H :   -0.018203
  88 H :   -0.003904
  89 H :   -0.022039
  90 H :    0.024371
  91 H :    0.030215
  92 H :    0.008401
  93 H :   -0.003111
  94 H :    0.016376
  95 H :    0.107620
  96 H :   -0.003033
  97 H :   -0.007698
  98 H :    0.009706
Sum of atomic charges:   -0.0000000

LOEWDIN ATOMIC CHARGES
----------------------
   0 C :    0.077341
   1 C :   -0.155326
   2 C :   -0.016369
   3 N :   -0.072945
   4 C :   -0.019748
   5 N :   -0.071475
   6 C :   -0.019016
   7 C :   -0.048840
   8 C :    0.018202
   9 C :   -0.039825
  10 C :   -0.144328
  11 C :   -0.014863
  12 S :    0.424167
  13 C :   -0.276868
  14 C :   -0.063445
  15 Br:    0.128956
  16 C :    0.088806
  17 O :   -0.155692
  18 C :   -0.098174
  19 C :    0.062642
  20 C :   -0.191667
  21 S :    0.437582
  22 C :   -0.168945
  23 C :   -0.056238
  24 C :   -0.042682
  25 C :   -0.007491
  26 C :   -0.037662
  27 C :   -0.000588
  28 C :   -0.051976
  29 C :   -0.019366
  30 C :   -0.061819
  31 C :   -0.135552
  32 C :   -0.023951
  33 C :   -0.034261
  34 C :   -0.185128
  35 S :    0.407500
  36 C :   -0.177327
  37 C :   -0.035537
  38 C :   -0.030722
  39 C :   -0.151093
  40 S :    0.422603
  41 C :   -0.083671
  42 C :   -0.173949
  43 S :    0.423146
  44 C :   -0.172457
  45 C :   -0.055252
  46 C :   -0.077157
  47 C :   -0.127344
  48 S :    0.181612
  49 C :   -0.032904
  50 C :   -0.037841
  51 C :   -0.034415
  52 C :   -0.048593
  53 C :   -0.025028
  54 C :   -0.060312
  55 C :   -0.024968
  56 C :   -0.051022
  57 C :    0.042369
  58 N :   -0.046275
  59 C :    0.020565
  60 C :   -0.154887
  61 H :    0.032717
  62 H :    0.038764
  63 H :    0.027604
  64 H :    0.043042
  65 H :    0.023395
  66 H :    0.031507
  67 H :    0.039020
  68 H :    0.037614
  69 H :    0.026350
  70 H :    0.031856
  71 H :    0.013607
  72 H :    0.035938
  73 H :    0.036393
  74 H :    0.036094
  75 H :    0.032425
  76 H :    0.032258
  77 H :    0.030725
  78 H :    0.031161
  79 H :    0.021663
  80 H :   -0.036007
  81 H :    0.025629
  82 H :    0.024770
  83 H :    0.026257
  84 H :    0.016440
  85 H :    0.034364
  86 H :    0.035610
  87 H :    0.026847
  88 H :    0.029526
  89 H :    0.025606
  90 H :    0.031493
  91 H :    0.036256
  92 H :    0.030933
  93 H :    0.011850
  94 H :    0.029876
  95 H :    0.071560
  96 H :    0.022074
  97 H :    0.013004
  98 H :    0.021279

  Mayer bond orders larger than 0.100000
B(  0-C ,  1-C ) :   1.6130 B(  0-C ,  6-C ) :   1.0057 B(  0-C , 18-C ) :   1.0961
B(  1-C ,  2-C ) :   1.1506 B(  1-C ,  4-C ) :   1.1594 B(  2-C ,  3-N ) :   2.9584
B(  4-C ,  5-N ) :   2.9415 B(  6-C ,  7-C ) :   1.2724 B(  6-C , 11-C ) :   1.3997
B(  7-C ,  8-C ) :   1.4100 B(  7-C , 16-C ) :   0.9418 B(  8-C ,  9-C ) :   1.2532
B(  8-C , 61-H ) :   1.0144 B(  9-C , 10-C ) :   1.3058 B(  9-C , 14-C ) :   1.1688
B( 10-C , 11-C ) :   1.3230 B( 10-C , 12-S ) :   1.0847 B( 11-C , 62-H ) :   0.9844
B( 12-S , 13-C ) :   1.0765 B( 13-C , 14-C ) :   1.6118 B( 13-C , 15-Br) :   1.0123
B( 14-C , 63-H ) :   0.9897 B( 16-C , 17-O ) :   2.1620 B( 16-C , 18-C ) :   0.9694
B( 18-C , 19-C ) :   1.5723 B( 19-C , 20-C ) :   1.1467 B( 19-C , 64-H ) :   0.9464
B( 20-C , 21-S ) :   1.0948 B( 20-C , 25-C ) :   1.4200 B( 21-S , 22-C ) :   1.1622
B( 22-C , 23-C ) :   1.5649 B( 22-C , 65-H ) :   0.9646 B( 23-C , 24-C ) :   1.0964
B( 23-C , 25-C ) :   1.2628 B( 24-C , 66-H ) :   0.9501 B( 24-C , 67-H ) :   0.9429
B( 24-C , 68-H ) :   0.9457 B( 25-C , 26-C ) :   1.0934 B( 26-C , 27-C ) :   1.6594
B( 26-C , 69-H ) :   0.9488 B( 27-C , 28-C ) :   1.1872 B( 27-C , 70-H ) :   0.9688
B( 28-C , 29-C ) :   1.5634 B( 28-C , 71-H ) :   0.9623 B( 29-C , 30-C ) :   1.2299
B( 29-C , 72-H ) :   0.9577 B( 30-C , 31-C ) :   1.5338 B( 30-C , 73-H ) :   0.9630
B( 31-C , 32-C ) :   1.1663 B( 31-C , 35-S ) :   1.0506 B( 32-C , 33-C ) :   1.5709
B( 32-C , 74-H ) :   0.9960 B( 33-C , 34-C ) :   1.1982 B( 33-C , 75-H ) :   0.9963
B( 34-C , 35-S ) :   1.0400 B( 34-C , 36-C ) :   1.4808 B( 36-C , 37-C ) :   1.1770
B( 36-C , 40-S ) :   1.0592 B( 37-C , 38-C ) :   1.5891 B( 37-C , 76-H ) :   0.9969
B( 38-C , 39-C ) :   1.1319 B( 38-C , 77-H ) :   0.9992 B( 39-C , 40-S ) :   1.0403
B( 39-C , 41-C ) :   1.6245 B( 41-C , 42-C ) :   1.1215 B( 41-C , 78-H ) :   0.9407
B( 42-C , 43-S ) :   1.1131 B( 42-C , 46-C ) :   1.4846 B( 43-S , 44-C ) :   1.1038
B( 44-C , 45-C ) :   1.5299 B( 44-C , 52-C ) :   1.1078 B( 45-C , 46-C ) :   1.2720
B( 45-C , 51-C ) :   1.0893 B( 46-C , 47-C ) :   0.9271 B( 47-C , 48-S ) :   1.0375
B( 47-C , 49-C ) :   1.0223 B( 47-C , 79-H ) :   0.9181 B( 48-S , 80-H ) :   0.9341
B( 49-C , 50-C ) :   1.1113 B( 49-C , 81-H ) :   0.9320 B( 49-C , 82-H ) :   0.9312
B( 50-C , 51-C ) :   1.0526 B( 50-C , 83-H ) :   0.9386 B( 50-C , 84-H ) :   0.9270
B( 51-C , 85-H ) :   0.9027 B( 51-C , 86-H ) :   0.9080 B( 52-C , 53-C ) :   1.7246
B( 52-C , 87-H ) :   0.9482 B( 53-C , 54-C ) :   1.0961 B( 53-C , 88-H ) :   0.9602
B( 54-C , 55-C ) :   1.8215 B( 54-C , 89-H ) :   0.9471 B( 55-C , 56-C ) :   1.0749
B( 55-C , 57-C ) :   1.0493 B( 56-C , 90-H ) :   0.9447 B( 56-C , 91-H ) :   0.9377
B( 56-C , 92-H ) :   0.9430 B( 57-C , 58-N ) :   1.0054 B( 57-C , 93-H ) :   0.9390
B( 57-C , 94-H ) :   0.9208 B( 58-N , 59-C ) :   1.1512 B( 58-N , 95-H ) :   0.9453
B( 59-C , 60-C ) :   1.9113 B( 59-C , 96-H ) :   0.9596 B( 60-C , 97-H ) :   0.9606
B( 60-C , 98-H ) :   0.9526

-----------------------------------------------------------------------------
         ABSORPTION SPECTRUM VIA TRANSITION ELECTRIC DIPOLE MOMENTS
-----------------------------------------------------------------------------
State   Energy  Wavelength   fosc         T2         TX        TY        TZ
        (cm-1)    (nm)                  (au**2)     (au)      (au)      (au)
-----------------------------------------------------------------------------
   0    8723.4   1146.3   0.154000094   5.81181  -2.12297   1.11866  -0.23109
   1   14705.7    680.0   0.270453642   6.05457   2.22608  -0.07430  -1.04577
   2   16124.0    620.2   0.286855864   5.85690  -1.98030   0.24783   1.36890
   3   17279.9    578.7   0.134525291   2.56294   1.35384   0.36334  -0.77332
   4   21475.3    465.7   0.072550946   1.11219  -0.04099  -0.74775  -0.74255
   5   22128.1    451.9   0.001854787   0.02759  -0.01399  -0.16069  -0.03972
   6   23700.6    421.9   0.119737025   1.66320   0.69846  -0.29284  -1.04384
   7   24171.3    413.7   0.142073606   1.93504  -0.30414  -0.87002  -1.04192
   8   24869.1    402.1   0.763149239  10.10242   0.32844   1.41945   2.82484
   9   25167.6    397.3   0.287825059   3.76497  -0.67341  -0.83960  -1.61449
  10   26492.9    377.5   0.015652593   0.19451  -0.09476   0.31230   0.29664
  11   27329.3    365.9   0.083199841   1.00223   0.74163   0.21809   0.63613
  12   27841.2    359.2   0.127754032   1.51064   0.58750   0.33899   1.02498
  13   27996.7    357.2   0.127003205   1.49342   0.87419   0.38876   0.76031
  14   28493.1    351.0   0.004714470   0.05447   0.19037   0.11707   0.06726
  15   28700.5    348.4   0.012194413   0.13988  -0.08292  -0.11175   0.34715
  16   28833.4    346.8   0.164439470   1.87753   0.01379   0.58932   1.23695
  17   29519.8    338.8   0.081727853   0.91145   0.44729   0.52795   0.65776
  18   29810.9    335.4   0.091567352   1.01121  -0.96475  -0.20986  -0.19086
  19   30380.2    329.2   0.140067316   1.51782   1.14199   0.46216  -0.00973
  20   30681.4    325.9   0.258078523   2.76919  -1.64633   0.19722   0.14103
  21   31087.2    321.7   0.133607797   1.41490   1.18250  -0.03428  -0.12418
  22   31947.4    313.0   0.022776448   0.23471  -0.40347  -0.24277  -0.11396
  23   32333.8    309.3   0.071629475   0.72931   0.09409  -0.38216  -0.75790
  24   32711.9    305.7   0.041037182   0.41300  -0.52810  -0.03341   0.36468
  25   32778.2    305.1   0.051075828   0.51299  -0.28567   0.35927   0.54983
  26   32849.7    304.4   0.021868992   0.21917  -0.02230  -0.25778   0.39015
  27   33202.4    301.2   0.081218002   0.80530  -0.63266  -0.46622  -0.43322
  28   33286.8    300.4   0.017379518   0.17189  -0.06455  -0.39722  -0.09968
  29   33383.6    299.5   0.058289531   0.57482  -0.67730   0.27846   0.19634
  30   33760.9    296.2   0.072149945   0.70355  -0.25997   0.58028   0.54703
  31   33921.1    294.8   0.037800536   0.36686   0.57355  -0.15825  -0.11339
  32   34807.6    287.3   0.042158591   0.39874  -0.50301   0.24843   0.28983
  33   35083.1    285.0   0.019058480   0.17884  -0.34101  -0.16523  -0.18776
  34   35289.4    283.4   0.141166215   1.31693  -1.07555  -0.26533  -0.29953
  35   35561.9    281.2   0.019347580   0.17911  -0.17720  -0.07445  -0.37705
  36   35833.0    279.1   0.053852137   0.49476  -0.66442   0.15067   0.17493
  37   36261.5    275.8   0.067381643   0.61175   0.30003   0.16167  -0.70398
  38   36661.4    272.8   0.058702611   0.52714  -0.45343   0.03176  -0.56615
  39   36772.9    271.9   0.017347782   0.15531  -0.16780  -0.11056  -0.33901
  40   36979.2    270.4   0.028707463   0.25557  -0.37322   0.34097   0.00440
  41   37386.0    267.5   0.224870209   1.98015   0.10653   0.78503   1.16298
  42   37765.7    264.8   0.007479491   0.06520  -0.17121  -0.18619   0.03495
  43   37971.5    263.4   0.023931150   0.20748  -0.32656   0.23629   0.21215
  44   38217.1    261.7   0.085768981   0.73884  -0.26037   0.28238   0.76896
  45   38272.5    261.3   0.024844994   0.21371  -0.14186  -0.43969  -0.01611
  46   38373.9    260.6   0.029759124   0.25531  -0.47879  -0.00849   0.16123
  47   38424.0    260.3   0.000598727   0.00513   0.05026   0.01289  -0.04937
  48   38513.6    259.6   0.022517294   0.19248  -0.25279  -0.10559  -0.34267
  49   38889.7    257.1   0.004944467   0.04186   0.15615  -0.11342   0.06789
  50   39122.5    255.6   0.025022374   0.21056  -0.25222   0.27551   0.26654
  51   39411.7    253.7   0.025793576   0.21546  -0.13391   0.30896   0.31948
  52   39687.7    252.0   0.033321437   0.27640   0.43555   0.03463  -0.29240
  53   40001.3    250.0   0.028029501   0.23068  -0.19723   0.39695   0.18498
  54   40257.4    248.4   0.039894862   0.32625  -0.32447   0.46108   0.09150

FINAL SINGLE POINT ENERGY     -7127.082616039496

DIPOLE MOMENT
-------------
                                X             Y             Z
Electronic contribution:     15.59750      90.45151      69.63231
Nuclear contribution   :    -13.84066     -92.37084     -70.18011
                        -----------------------------------------
Total Dipole Moment    :      1.75683      -1.91933      -0.54780
                        -----------------------------------------
Magnitude (a.u.)       :      2.65902
Magnitude (Debye)      :      6.75869

Rotational constants in cm-1:     0.001387     0.000791     0.000604
Rotational constants in MHz :    41.575056    23.708981    18.101965

                             ****ORCA TERMINATED NORMALLY****
TOTAL RUN TIME: 0 days 0 hours 18 minutes 31 seconds 388 msec
