                         Program Version 4.2.0 -  RELEASE  -
|  1> # ORCA input file
|  2> # SCF done       -185.434944762945          0.000749541104
|  3> ! CAM-B3LYP def2-SVP def2/J RIJCOSX Grid4 TightSCF
|  4> %maxcore 5000
|  5> %tddft
|  6>     Mode sTDDFT
|  7>     Ethresh 5.0
|  8>     maxcore 5000
|  9> end
| 10>
| 11> %pal
| 12>   nprocs 6
| 13>   end
| 14> * xyz 0 1
| 15>    C       -3.23719         2.77753        -2.83064
| 16>    C       -2.13647         2.24047        -2.20999
| 17>    C       -0.85450         2.20278        -2.79123
| 18>    N        0.21904         2.18124        -3.20093
| 19>    C       -2.10714         1.71860        -0.90129
| 20>    N       -2.00110         1.26134         0.14720
| 21>    C       -3.25136         3.32644        -4.18369
| 22>    C       -4.50862         3.93671        -4.41261
| 23>    C       -4.82266         4.57920        -5.58569
| 24>    C       -3.84048         4.63134        -6.58112
| 25>    C       -2.59148         4.01003        -6.34800
| 26>    C       -2.28192         3.34585        -5.16744
| 27>    S       -1.51767         4.21168        -7.69768
| 28>    C       -2.73884         5.12804        -8.54259
| 29>    C       -3.89796         5.26040        -7.85577
| 30>   Br       -2.35949         5.81772       -10.23803
| 31>    C       -5.34572         3.76928        -3.21100
| 32>    O       -6.47420         4.20460        -3.05404
| 33>    C       -4.54889         2.99036        -2.26276
| 34>    C       -4.99767         2.52264        -1.04929
| 35>    C       -6.22688         2.72064        -0.41905
| 36>    S       -7.56059         3.74313        -0.92375
| 37>    C       -8.52452         3.35407         0.48416
| 38>    C       -7.84179         2.44059         1.30423
| 39>    C       -6.57016         2.11043         0.79416
| 40>    S       -5.77849         0.99968         1.85006
| 41>    C       -7.20778         1.07533         2.86943
| 42>    N       -8.15923         1.83338         2.47681
| 43>    C       -9.77601         3.94723         0.65960
| 44>    C      -10.63987         3.64906         1.69156
| 45>    C      -11.86316         4.26806         1.95264
| 46>    C      -12.38421         5.42850         1.40051
| 47>    C      -13.64107         5.99475         1.70790
| 48>    C      -13.89992         7.18570         1.08306
| 49>    C      -12.85077         7.62392         0.25876
| 50>    S      -11.54152         6.47084         0.27833
| 51>    C      -12.71708         8.78036        -0.50282
| 52>    C      -13.60386         9.84701        -0.72383
| 53>    C      -13.08808        10.82784        -1.52942
| 54>    C      -11.77102        10.58242        -1.97288
| 55>    S      -11.21323         9.05226        -1.34883
| 56>    C      -10.98240        11.40060        -2.76340
| 57>    C       -9.67051        11.13977        -3.14325
| 58>    S       -8.80096         9.68498        -2.68885
| 59>    C       -7.32430        10.16477        -3.49397
| 60>    C       -7.51611        11.41333        -4.09951
| 61>    C       -8.81339        11.93921        -3.90594
| 62>    S       -8.94732        13.47094        -4.69137
| 63>    C       -7.27500        13.26929        -5.19995
| 64>    N       -6.68682        12.19892        -4.83212
| 65>    C       -6.20114         9.33667        -3.50948
| 66>    C       -6.17750         8.13175        -2.84995
| 67>    C       -5.13976         7.19803        -2.78065
| 68>    C       -4.00874         6.99555        -3.53825
| 69>    C       -3.56034         7.44650        -4.82919
| 70>    C       -4.33276         7.91619        -5.86670
| 71>    C       -3.82152         8.31065        -7.11784
| 72>    N       -3.46590         8.66231        -8.15221
| 73>    C       -5.73867         7.94035        -5.86315
| 74>    N       -6.88367         7.92013        -5.95537
| 75>    C       -2.15738         7.05625        -4.97137
| 76>    C       -1.80526         6.22625        -3.87839
| 77>    C       -2.96137         6.11931        -2.97188
| 78>    O       -3.04950         5.44177        -1.96434
| 79>    C       -0.58116         5.61289        -3.77823
| 80>    C        0.33718         5.81738        -4.81282
| 81>    C       -0.01018         6.67253        -5.88495
| 82>    C       -1.24564         7.30339        -5.97914
| 83>    S        1.26902         6.77980        -7.05425
| 84>    C        2.23036         5.67232        -6.10886
| 85>    C        1.63175         5.25267        -4.96935
| 86>   Br        3.93180         5.18108        -6.71992
| 87>    H       -5.79014         5.03691        -5.72650
| 88>    H       -1.31850         2.88008        -5.04728
| 89>    H       -4.75915         5.78276        -8.23163
| 90>    H       -4.32391         1.89064        -0.48205
| 91>    H       -7.24671         0.49836         3.77235
| 92>    H      -10.05663         4.65943        -0.10252
| 93>    H      -10.34789         2.84561         2.35470
| 94>    H      -12.48255         3.81148         2.71487
| 95>    H      -14.32294         5.51005         2.38449
| 96>    H      -14.80442         7.75294         1.21024
| 97>    H      -14.58914         9.87342        -0.29398
| 98>    H      -13.61793        11.72111        -1.80958
| 99>    H      -11.41234        12.33195        -3.10852
|100>    H       -6.80702        14.03252        -5.78951
|101>    H       -5.33271         9.71770        -4.02880
|102>    H       -7.05115         7.88977        -2.25553
|103>    H       -5.20462         6.50762        -1.94339
|104>    H       -0.33961         4.97658        -2.94179
|105>    H       -1.46100         7.94792        -6.81526
|106>    H        2.06931         4.56092        -4.27291
|107> *
|108>
|109>                          ****END OF INPUT****

CARTESIAN COORDINATES (ANGSTROEM)
---------------------------------
  C     -3.237190    2.777530   -2.830640
  C     -2.136470    2.240470   -2.209990
  C     -0.854500    2.202780   -2.791230
  N      0.219040    2.181240   -3.200930
  C     -2.107140    1.718600   -0.901290
  N     -2.001100    1.261340    0.147200
  C     -3.251360    3.326440   -4.183690
  C     -4.508620    3.936710   -4.412610
  C     -4.822660    4.579200   -5.585690
  C     -3.840480    4.631340   -6.581120
  C     -2.591480    4.010030   -6.348000
  C     -2.281920    3.345850   -5.167440
  S     -1.517670    4.211680   -7.697680
  C     -2.738840    5.128040   -8.542590
  C     -3.897960    5.260400   -7.855770
  Br    -2.359490    5.817720  -10.238030
  C     -5.345720    3.769280   -3.211000
  O     -6.474200    4.204600   -3.054040
  C     -4.548890    2.990360   -2.262760
  C     -4.997670    2.522640   -1.049290
  C     -6.226880    2.720640   -0.419050
  S     -7.560590    3.743130   -0.923750
  C     -8.524520    3.354070    0.484160
  C     -7.841790    2.440590    1.304230
  C     -6.570160    2.110430    0.794160
  S     -5.778490    0.999680    1.850060
  C     -7.207780    1.075330    2.869430
  N     -8.159230    1.833380    2.476810
  C     -9.776010    3.947230    0.659600
  C    -10.639870    3.649060    1.691560
  C    -11.863160    4.268060    1.952640
  C    -12.384210    5.428500    1.400510
  C    -13.641070    5.994750    1.707900
  C    -13.899920    7.185700    1.083060
  C    -12.850770    7.623920    0.258760
  S    -11.541520    6.470840    0.278330
  C    -12.717080    8.780360   -0.502820
  C    -13.603860    9.847010   -0.723830
  C    -13.088080   10.827840   -1.529420
  C    -11.771020   10.582420   -1.972880
  S    -11.213230    9.052260   -1.348830
  C    -10.982400   11.400600   -2.763400
  C     -9.670510   11.139770   -3.143250
  S     -8.800960    9.684980   -2.688850
  C     -7.324300   10.164770   -3.493970
  C     -7.516110   11.413330   -4.099510
  C     -8.813390   11.939210   -3.905940
  S     -8.947320   13.470940   -4.691370
  C     -7.275000   13.269290   -5.199950
  N     -6.686820   12.198920   -4.832120
  C     -6.201140    9.336670   -3.509480
  C     -6.177500    8.131750   -2.849950
  C     -5.139760    7.198030   -2.780650
  C     -4.008740    6.995550   -3.538250
  C     -3.560340    7.446500   -4.829190
  C     -4.332760    7.916190   -5.866700
  C     -3.821520    8.310650   -7.117840
  N     -3.465900    8.662310   -8.152210
  C     -5.738670    7.940350   -5.863150
  N     -6.883670    7.920130   -5.955370
  C     -2.157380    7.056250   -4.971370
  C     -1.805260    6.226250   -3.878390
  C     -2.961370    6.119310   -2.971880
  O     -3.049500    5.441770   -1.964340
  C     -0.581160    5.612890   -3.778230
  C      0.337180    5.817380   -4.812820
  C     -0.010180    6.672530   -5.884950
  C     -1.245640    7.303390   -5.979140
  S      1.269020    6.779800   -7.054250
  C      2.230360    5.672320   -6.108860
  C      1.631750    5.252670   -4.969350
  Br     3.931800    5.181080   -6.719920
  H     -5.790140    5.036910   -5.726500
  H     -1.318500    2.880080   -5.047280
  H     -4.759150    5.782760   -8.231630
  H     -4.323910    1.890640   -0.482050
  H     -7.246710    0.498360    3.772350
  H    -10.056630    4.659430   -0.102520
  H    -10.347890    2.845610    2.354700
  H    -12.482550    3.811480    2.714870
  H    -14.322940    5.510050    2.384490
  H    -14.804420    7.752940    1.210240
  H    -14.589140    9.873420   -0.293980
  H    -13.617930   11.721110   -1.809580
  H    -11.412340   12.331950   -3.108520
  H     -6.807020   14.032520   -5.789510
  H     -5.332710    9.717700   -4.028800
  H     -7.051150    7.889770   -2.255530
  H     -5.204620    6.507620   -1.943390
  H     -0.339610    4.976580   -2.941790
  H     -1.461000    7.947920   -6.815260
  H      2.069310    4.560920   -4.272910

 Total Charge           Charge          ....    0
 Multiplicity           Mult            ....    1
 Number of Electrons    NEL             ....  600
 Basis Dimension        Dim             .... 1176

ORBITAL ENERGIES
----------------

  NO   OCC          E(Eh)            E(eV)
   0   2.0000    -482.874174    -13139.6743
   1   2.0000    -482.871653    -13139.6057
   2   2.0000     -88.972072     -2421.0532
   3   2.0000     -88.970721     -2421.0164
   4   2.0000     -88.970530     -2421.0112
   5   2.0000     -88.966349     -2420.8974
   6   2.0000     -88.964786     -2420.8549
   7   2.0000     -88.964318     -2420.8422
   8   2.0000     -88.963751     -2420.8267
   9   2.0000     -88.963514     -2420.8203
  10   2.0000     -62.551894     -1702.1236
  11   2.0000     -62.549311     -1702.0533
  12   2.0000     -56.385834     -1534.3365
  13   2.0000     -56.383269     -1534.2668
  14   2.0000     -56.383141     -1534.2633
  15   2.0000     -56.383097     -1534.2621
  16   2.0000     -56.380566     -1534.1932
  17   2.0000     -56.380489     -1534.1911
  18   2.0000     -19.212176      -522.7899
  19   2.0000     -19.204860      -522.5908
  20   2.0000     -14.424472      -392.5098
  21   2.0000     -14.423542      -392.4845
  22   2.0000     -14.408178      -392.0665
  23   2.0000     -14.407128      -392.0379
  24   2.0000     -14.405368      -391.9900
  25   2.0000     -14.404179      -391.9576
  26   2.0000     -10.358771      -281.8765
  27   2.0000     -10.353162      -281.7239
  28   2.0000     -10.348418      -281.5948
  29   2.0000     -10.346378      -281.5393
  30   2.0000     -10.346269      -281.5363
  31   2.0000     -10.343794      -281.4689
  32   2.0000     -10.331590      -281.1369
  33   2.0000     -10.330447      -281.1058
  34   2.0000     -10.329076      -281.0685
  35   2.0000     -10.329034      -281.0673
  36   2.0000     -10.328576      -281.0548
  37   2.0000     -10.326043      -280.9859
  38   2.0000     -10.325634      -280.9748
  39   2.0000     -10.325581      -280.9733
  40   2.0000     -10.321962      -280.8749
  41   2.0000     -10.320967      -280.8478
  42   2.0000     -10.317034      -280.7408
  43   2.0000     -10.316358      -280.7224
  44   2.0000     -10.314513      -280.6722
  45   2.0000     -10.314094      -280.6608
  46   2.0000     -10.313988      -280.6579
  47   2.0000     -10.313949      -280.6568
  48   2.0000     -10.312205      -280.6094
  49   2.0000     -10.312160      -280.6081
  50   2.0000     -10.311728      -280.5964
  51   2.0000     -10.311294      -280.5846
  52   2.0000     -10.309977      -280.5487
  53   2.0000     -10.309510      -280.5360
  54   2.0000     -10.307939      -280.4933
  55   2.0000     -10.304272      -280.3935
  56   2.0000     -10.303501      -280.3725
  57   2.0000     -10.302564      -280.3470
  58   2.0000     -10.301073      -280.3064
  59   2.0000     -10.300433      -280.2890
  60   2.0000     -10.299961      -280.2762
  61   2.0000     -10.299612      -280.2667
  62   2.0000     -10.296930      -280.1937
  63   2.0000     -10.296150      -280.1725
  64   2.0000     -10.295669      -280.1594
  65   2.0000     -10.294453      -280.1263
  66   2.0000     -10.294263      -280.1211
  67   2.0000     -10.294042      -280.1151
  68   2.0000     -10.293761      -280.1075
  69   2.0000     -10.290788      -280.0266
  70   2.0000     -10.289942      -280.0036
  71   2.0000     -10.287868      -279.9471
  72   2.0000     -10.286420      -279.9077
  73   2.0000     -10.284487      -279.8551
  74   2.0000     -10.283918      -279.8396
  75   2.0000     -10.282902      -279.8120
  76   2.0000     -10.282039      -279.7885
  77   2.0000     -10.281138      -279.7640
  78   2.0000     -10.279850      -279.7289
  79   2.0000     -10.279232      -279.7121
  80   2.0000      -8.781338      -238.9524
  81   2.0000      -8.778748      -238.8819
  82   2.0000      -8.068324      -219.5503
  83   2.0000      -8.066622      -219.5039
  84   2.0000      -8.065208      -219.4655
  85   2.0000      -8.060116      -219.3269
  86   2.0000      -8.060058      -219.3253
  87   2.0000      -8.060031      -219.3246
  88   2.0000      -8.059407      -219.3076
  89   2.0000      -8.058945      -219.2950
  90   2.0000      -6.617567      -180.0732
  91   2.0000      -6.615057      -180.0049
  92   2.0000      -6.603115      -179.6799
  93   2.0000      -6.602908      -179.6743
  94   2.0000      -6.600548      -179.6100
  95   2.0000      -6.600206      -179.6007
  96   2.0000      -6.037683      -164.2937
  97   2.0000      -6.035942      -164.2463
  98   2.0000      -6.034576      -164.2092
  99   2.0000      -6.033687      -164.1850
 100   2.0000      -6.031878      -164.1357
 101   2.0000      -6.030469      -164.0974
 102   2.0000      -6.029945      -164.0831
 103   2.0000      -6.029788      -164.0789
 104   2.0000      -6.029761      -164.0781
 105   2.0000      -6.029726      -164.0772
 106   2.0000      -6.029033      -164.0583
 107   2.0000      -6.028479      -164.0433
 108   2.0000      -6.028411      -164.0414
 109   2.0000      -6.027114      -164.0061
 110   2.0000      -6.025530      -163.9630
 111   2.0000      -6.025464      -163.9612
 112   2.0000      -6.025425      -163.9601
 113   2.0000      -6.024835      -163.9441
 114   2.0000      -6.023964      -163.9204
 115   2.0000      -6.021423      -163.8513
 116   2.0000      -6.021361      -163.8496
 117   2.0000      -6.021238      -163.8462
 118   2.0000      -6.021014      -163.8401
 119   2.0000      -6.020728      -163.8323
 120   2.0000      -2.733488       -74.3820
 121   2.0000      -2.730961       -74.3132
 122   2.0000      -2.729389       -74.2705
 123   2.0000      -2.729229       -74.2661
 124   2.0000      -2.726877       -74.2021
 125   2.0000      -2.726636       -74.1955
 126   2.0000      -2.717735       -73.9533
 127   2.0000      -2.717724       -73.9530
 128   2.0000      -2.715076       -73.8810
 129   2.0000      -2.715074       -73.8809
 130   2.0000      -1.127171       -30.6719
 131   2.0000      -1.118494       -30.4358
 132   2.0000      -1.080019       -29.3888
 133   2.0000      -1.077027       -29.3074
 134   2.0000      -1.014639       -27.6097
 135   2.0000      -1.014469       -27.6051
 136   2.0000      -1.010262       -27.4906
 137   2.0000      -1.003654       -27.3108
 138   2.0000      -1.002603       -27.2822
 139   2.0000      -0.995895       -27.0997
 140   2.0000      -0.986350       -26.8400
 141   2.0000      -0.985449       -26.8154
 142   2.0000      -0.983603       -26.7652
 143   2.0000      -0.982702       -26.7407
 144   2.0000      -0.978582       -26.6286
 145   2.0000      -0.977552       -26.6005
 146   2.0000      -0.934368       -25.4254
 147   2.0000      -0.933222       -25.3942
 148   2.0000      -0.926898       -25.2222
 149   2.0000      -0.924953       -25.1693
 150   2.0000      -0.907594       -24.6969
 151   2.0000      -0.899354       -24.4727
 152   2.0000      -0.897658       -24.4265
 153   2.0000      -0.896669       -24.3996
 154   2.0000      -0.893512       -24.3137
 155   2.0000      -0.888391       -24.1743
 156   2.0000      -0.874969       -23.8091
 157   2.0000      -0.874141       -23.7866
 158   2.0000      -0.873667       -23.7737
 159   2.0000      -0.867779       -23.6135
 160   2.0000      -0.860569       -23.4173
 161   2.0000      -0.848292       -23.0832
 162   2.0000      -0.840687       -22.8763
 163   2.0000      -0.837227       -22.7821
 164   2.0000      -0.831465       -22.6253
 165   2.0000      -0.828378       -22.5413
 166   2.0000      -0.819417       -22.2975
 167   2.0000      -0.818131       -22.2625
 168   2.0000      -0.816152       -22.2086
 169   2.0000      -0.798513       -21.7286
 170   2.0000      -0.784433       -21.3455
 171   2.0000      -0.771805       -21.0019
 172   2.0000      -0.754908       -20.5421
 173   2.0000      -0.749403       -20.3923
 174   2.0000      -0.744618       -20.2621
 175   2.0000      -0.734964       -19.9994
 176   2.0000      -0.720282       -19.5999
 177   2.0000      -0.714576       -19.4446
 178   2.0000      -0.705833       -19.2067
 179   2.0000      -0.700561       -19.0632
 180   2.0000      -0.694026       -18.8854
 181   2.0000      -0.687182       -18.6992
 182   2.0000      -0.685063       -18.6415
 183   2.0000      -0.680726       -18.5235
 184   2.0000      -0.676662       -18.4129
 185   2.0000      -0.671417       -18.2702
 186   2.0000      -0.664949       -18.0942
 187   2.0000      -0.651451       -17.7269
 188   2.0000      -0.649883       -17.6842
 189   2.0000      -0.648097       -17.6356
 190   2.0000      -0.643384       -17.5074
 191   2.0000      -0.636061       -17.3081
 192   2.0000      -0.634297       -17.2601
 193   2.0000      -0.630390       -17.1538
 194   2.0000      -0.626641       -17.0518
 195   2.0000      -0.613662       -16.6986
 196   2.0000      -0.611774       -16.6472
 197   2.0000      -0.607215       -16.5232
 198   2.0000      -0.600253       -16.3337
 199   2.0000      -0.591975       -16.1085
 200   2.0000      -0.589148       -16.0315
 201   2.0000      -0.582802       -15.8588
 202   2.0000      -0.580603       -15.7990
 203   2.0000      -0.578955       -15.7542
 204   2.0000      -0.572541       -15.5796
 205   2.0000      -0.568823       -15.4785
 206   2.0000      -0.564323       -15.3560
 207   2.0000      -0.556710       -15.1489
 208   2.0000      -0.554357       -15.0848
 209   2.0000      -0.552318       -15.0293
 210   2.0000      -0.546671       -14.8757
 211   2.0000      -0.544763       -14.8238
 212   2.0000      -0.538164       -14.6442
 213   2.0000      -0.535539       -14.5728
 214   2.0000      -0.534795       -14.5525
 215   2.0000      -0.532910       -14.5012
 216   2.0000      -0.531891       -14.4735
 217   2.0000      -0.529629       -14.4120
 218   2.0000      -0.528749       -14.3880
 219   2.0000      -0.525475       -14.2989
 220   2.0000      -0.522525       -14.2186
 221   2.0000      -0.516954       -14.0670
 222   2.0000      -0.515827       -14.0364
 223   2.0000      -0.513262       -13.9666
 224   2.0000      -0.511176       -13.9098
 225   2.0000      -0.508029       -13.8242
 226   2.0000      -0.505879       -13.7657
 227   2.0000      -0.503168       -13.6919
 228   2.0000      -0.501623       -13.6498
 229   2.0000      -0.498709       -13.5706
 230   2.0000      -0.494842       -13.4653
 231   2.0000      -0.491538       -13.3754
 232   2.0000      -0.489865       -13.3299
 233   2.0000      -0.485130       -13.2010
 234   2.0000      -0.484807       -13.1923
 235   2.0000      -0.483838       -13.1659
 236   2.0000      -0.483101       -13.1458
 237   2.0000      -0.481798       -13.1104
 238   2.0000      -0.473893       -12.8953
 239   2.0000      -0.473195       -12.8763
 240   2.0000      -0.466319       -12.6892
 241   2.0000      -0.463695       -12.6178
 242   2.0000      -0.462293       -12.5796
 243   2.0000      -0.460031       -12.5181
 244   2.0000      -0.457114       -12.4387
 245   2.0000      -0.453120       -12.3300
 246   2.0000      -0.450081       -12.2473
 247   2.0000      -0.449492       -12.2313
 248   2.0000      -0.447581       -12.1793
 249   2.0000      -0.446580       -12.1521
 250   2.0000      -0.443726       -12.0744
 251   2.0000      -0.442180       -12.0323
 252   2.0000      -0.440903       -11.9976
 253   2.0000      -0.439902       -11.9703
 254   2.0000      -0.438987       -11.9454
 255   2.0000      -0.436066       -11.8660
 256   2.0000      -0.435406       -11.8480
 257   2.0000      -0.433189       -11.7877
 258   2.0000      -0.432021       -11.7559
 259   2.0000      -0.429366       -11.6836
 260   2.0000      -0.426841       -11.6149
 261   2.0000      -0.425941       -11.5904
 262   2.0000      -0.420750       -11.4492
 263   2.0000      -0.418902       -11.3989
 264   2.0000      -0.417524       -11.3614
 265   2.0000      -0.416368       -11.3300
 266   2.0000      -0.413576       -11.2540
 267   2.0000      -0.409606       -11.1460
 268   2.0000      -0.404543       -11.0082
 269   2.0000      -0.401221       -10.9178
 270   2.0000      -0.397340       -10.8122
 271   2.0000      -0.395757       -10.7691
 272   2.0000      -0.390866       -10.6360
 273   2.0000      -0.389513       -10.5992
 274   2.0000      -0.379798       -10.3348
 275   2.0000      -0.374791       -10.1986
 276   2.0000      -0.373848       -10.1729
 277   2.0000      -0.368738       -10.0339
 278   2.0000      -0.363511        -9.8916
 279   2.0000      -0.361176        -9.8281
 280   2.0000      -0.360946        -9.8218
 281   2.0000      -0.359968        -9.7952
 282   2.0000      -0.358460        -9.7542
 283   2.0000      -0.354701        -9.6519
 284   2.0000      -0.346249        -9.4219
 285   2.0000      -0.342484        -9.3195
 286   2.0000      -0.338561        -9.2127
 287   2.0000      -0.329382        -8.9629
 288   2.0000      -0.328304        -8.9336
 289   2.0000      -0.324681        -8.8350
 290   2.0000      -0.319561        -8.6957
 291   2.0000      -0.316983        -8.6255
 292   2.0000      -0.310757        -8.4561
 293   2.0000      -0.305560        -8.3147
 294   2.0000      -0.299445        -8.1483
 295   2.0000      -0.283118        -7.7040
 296   2.0000      -0.280696        -7.6381
 297   2.0000      -0.279455        -7.6044
 298   2.0000      -0.248015        -6.7488
 299   2.0000      -0.214286        -5.8310
 300   0.0000      -0.119020        -3.2387
 301   0.0000      -0.088276        -2.4021
 302   0.0000      -0.070697        -1.9238
 303   0.0000      -0.053197        -1.4476
 304   0.0000      -0.047778        -1.3001

MULLIKEN ATOMIC CHARGES
-----------------------
   0 C :    0.357744
   1 C :   -0.360936
   2 C :   -0.198163
   3 N :    0.132977
   4 C :   -0.192485
   5 N :    0.141718
   6 C :   -0.014757
   7 C :   -0.008327
   8 C :   -0.083271
   9 C :    0.111200
  10 C :   -0.103695
  11 C :    0.001344
  12 S :    0.177645
  13 C :   -0.139811
  14 C :    0.057393
  15 Br:    0.034866
  16 C :    0.152706
  17 O :   -0.189851
  18 C :   -0.059091
  19 C :   -0.044686
  20 C :   -0.130929
  21 S :    0.211951
  22 C :   -0.138389
  23 C :    0.097545
  24 C :   -0.033353
  25 S :    0.135403
  26 C :    0.016618
  27 N :   -0.047706
  28 C :    0.010715
  29 C :    0.013467
  30 C :    0.017546
  31 C :   -0.029171
  32 C :    0.039784
  33 C :    0.027218
  34 C :   -0.032972
  35 S :    0.080406
  36 C :   -0.022918
  37 C :    0.034306
  38 C :    0.032477
  39 C :   -0.031207
  40 S :    0.067183
  41 C :    0.002878
  42 C :   -0.128932
  43 S :    0.099884
  44 C :   -0.126943
  45 C :    0.104916
  46 C :   -0.018550
  47 S :    0.102618
  48 C :    0.021303
  49 N :   -0.042288
  50 C :    0.042239
  51 C :   -0.009535
  52 C :    0.058670
  53 C :   -0.132056
  54 C :    0.308037
  55 C :   -0.378615
  56 C :   -0.190783
  57 N :    0.157916
  58 C :   -0.215425
  59 N :    0.164267
  60 C :    0.010784
  61 C :    0.018278
  62 C :    0.128719
  63 O :   -0.173102
  64 C :   -0.076577
  65 C :    0.087802
  66 C :   -0.073695
  67 C :   -0.045159
  68 S :    0.175797
  69 C :   -0.126326
  70 C :    0.047622
  71 Br:    0.019181
  72 H :   -0.002602
  73 H :   -0.013440
  74 H :    0.006637
  75 H :    0.002629
  76 H :    0.046673
  77 H :   -0.008151
  78 H :    0.010691
  79 H :   -0.005783
  80 H :   -0.004704
  81 H :   -0.008781
  82 H :   -0.009493
  83 H :   -0.007073
  84 H :   -0.009266
  85 H :    0.051271
  86 H :    0.021435
  87 H :    0.008249
  88 H :    0.021875
  89 H :   -0.005341
  90 H :   -0.006725
  91 H :    0.008481
Sum of atomic charges:   -0.0000000

LOEWDIN ATOMIC CHARGES
----------------------
   0 C :    0.085737
   1 C :   -0.152487
   2 C :   -0.010954
   3 N :   -0.078118
   4 C :   -0.019111
   5 N :   -0.064084
   6 C :   -0.022232
   7 C :   -0.051726
   8 C :    0.021569
   9 C :   -0.037286
  10 C :   -0.146623
  11 C :   -0.009989
  12 S :    0.436415
  13 C :   -0.272466
  14 C :   -0.067589
  15 Br:    0.146896
  16 C :    0.086335
  17 O :   -0.171271
  18 C :   -0.097008
  19 C :    0.042833
  20 C :   -0.202285
  21 S :    0.517416
  22 C :   -0.153342
  23 C :   -0.075260
  24 C :   -0.179561
  25 S :    0.417431
  26 C :   -0.097153
  27 N :   -0.084330
  28 C :   -0.049756
  29 C :   -0.011070
  30 C :   -0.044566
  31 C :   -0.143424
  32 C :   -0.022214
  33 C :   -0.038108
  34 C :   -0.168001
  35 S :    0.414383
  36 C :   -0.178735
  37 C :   -0.031082
  38 C :   -0.032633
  39 C :   -0.146006
  40 S :    0.396639
  41 C :   -0.074825
  42 C :   -0.167093
  43 S :    0.456578
  44 C :   -0.175366
  45 C :   -0.048176
  46 C :   -0.212230
  47 S :    0.386496
  48 C :   -0.086398
  49 N :   -0.081684
  50 C :    0.032887
  51 C :   -0.058999
  52 C :    0.063163
  53 C :   -0.107916
  54 C :    0.072124
  55 C :   -0.159424
  56 C :   -0.021344
  57 N :   -0.065676
  58 C :   -0.019397
  59 N :   -0.052110
  60 C :   -0.018067
  61 C :   -0.053226
  62 C :    0.081789
  63 O :   -0.160226
  64 C :    0.024138
  65 C :   -0.037254
  66 C :   -0.148500
  67 C :   -0.017938
  68 S :    0.425779
  69 C :   -0.274531
  70 C :   -0.063740
  71 Br:    0.133639
  72 H :    0.042700
  73 H :    0.037941
  74 H :    0.040728
  75 H :    0.044834
  76 H :    0.022216
  77 H :    0.011541
  78 H :    0.037348
  79 H :    0.038654
  80 H :    0.036388
  81 H :    0.034254
  82 H :    0.034627
  83 H :    0.035637
  84 H :    0.040055
  85 H :    0.023935
  86 H :    0.045742
  87 H :    0.026262
  88 H :    0.043893
  89 H :    0.040536
  90 H :    0.039293
  91 H :    0.043761

  Mayer bond orders larger than 0.100000
B(  0-C ,  1-C ) :   1.5983 B(  0-C ,  6-C ) :   0.9880 B(  0-C , 18-C ) :   1.0932
B(  1-C ,  2-C ) :   1.1678 B(  1-C ,  4-C ) :   1.1469 B(  2-C ,  3-N ) :   2.9346
B(  4-C ,  5-N ) :   2.9616 B(  6-C ,  7-C ) :   1.2781 B(  6-C , 11-C ) :   1.4226
B(  7-C ,  8-C ) :   1.4109 B(  7-C , 16-C ) :   0.9549 B(  8-C ,  9-C ) :   1.2234
B(  8-C , 72-H ) :   1.0210 B(  9-C , 10-C ) :   1.3160 B(  9-C , 14-C ) :   1.1692
B( 10-C , 11-C ) :   1.3201 B( 10-C , 12-S ) :   1.0874 B( 11-C , 73-H ) :   0.9739
B( 12-S , 13-C ) :   1.0856 B( 13-C , 14-C ) :   1.6148 B( 13-C , 15-Br) :   1.0300
B( 14-C , 74-H ) :   0.9922 B( 16-C , 17-O ) :   2.0937 B( 16-C , 18-C ) :   0.9916
B( 18-C , 19-C ) :   1.4853 B( 19-C , 20-C ) :   1.3133 B( 19-C , 75-H ) :   0.9377
B( 20-C , 21-S ) :   1.0804 B( 20-C , 24-C ) :   1.3638 B( 21-S , 22-C ) :   1.1197
B( 22-C , 23-C ) :   1.2801 B( 22-C , 28-C ) :   1.2743 B( 23-C , 24-C ) :   1.3268
B( 23-C , 27-N ) :   1.3091 B( 24-C , 25-S ) :   1.0981 B( 25-S , 26-C ) :   1.1013
B( 25-S , 27-N ) :   0.1021 B( 26-C , 27-N ) :   1.7610 B( 26-C , 76-H ) :   0.9643
B( 28-C , 29-C ) :   1.5076 B( 28-C , 77-H ) :   0.9220 B( 29-C , 30-C ) :   1.2732
B( 29-C , 78-H ) :   0.9567 B( 30-C , 31-C ) :   1.4776 B( 30-C , 79-H ) :   0.9654
B( 31-C , 32-C ) :   1.1948 B( 31-C , 35-S ) :   1.0562 B( 32-C , 33-C ) :   1.5328
B( 32-C , 80-H ) :   0.9989 B( 33-C , 34-C ) :   1.2342 B( 33-C , 81-H ) :   0.9954
B( 34-C , 35-S ) :   1.0661 B( 34-C , 36-C ) :   1.4290 B( 36-C , 37-C ) :   1.2334
B( 36-C , 40-S ) :   1.0556 B( 37-C , 38-C ) :   1.5362 B( 37-C , 82-H ) :   0.9943
B( 38-C , 39-C ) :   1.1900 B( 38-C , 83-H ) :   0.9999 B( 39-C , 40-S ) :   1.0676
B( 39-C , 41-C ) :   1.4729 B( 41-C , 42-C ) :   1.2856 B( 41-C , 84-H ) :   0.9699
B( 42-C , 43-S ) :   1.1059 B( 42-C , 46-C ) :   1.3887 B( 43-S , 44-C ) :   1.0802
B( 44-C , 45-C ) :   1.3061 B( 44-C , 50-C ) :   1.3386 B( 45-C , 46-C ) :   1.3133
B( 45-C , 49-N ) :   1.3314 B( 46-C , 47-S ) :   1.0588 B( 47-S , 48-C ) :   1.1033
B( 47-S , 49-N ) :   0.1055 B( 48-C , 49-N ) :   1.7694 B( 48-C , 85-H ) :   0.9628
B( 50-C , 51-C ) :   1.4500 B( 50-C , 86-H ) :   0.9674 B( 51-C , 52-C ) :   1.2712
B( 51-C , 87-H ) :   0.9506 B( 52-C , 53-C ) :   1.5418 B( 52-C , 88-H ) :   0.9164
B( 53-C , 54-C ) :   1.0734 B( 53-C , 62-C ) :   0.9820 B( 54-C , 55-C ) :   1.5897
B( 54-C , 60-C ) :   1.0143 B( 55-C , 56-C ) :   1.1330 B( 55-C , 58-C ) :   1.1899
B( 56-C , 57-N ) :   2.9681 B( 58-C , 59-N ) :   2.9477 B( 60-C , 61-C ) :   1.2780
B( 60-C , 67-C ) :   1.4059 B( 61-C , 62-C ) :   0.9326 B( 61-C , 64-C ) :   1.3994
B( 62-C , 63-O ) :   2.1645 B( 64-C , 65-C ) :   1.2524 B( 64-C , 89-H ) :   1.0214
B( 65-C , 66-C ) :   1.3095 B( 65-C , 70-C ) :   1.1683 B( 66-C , 67-C ) :   1.3102
B( 66-C , 68-S ) :   1.0826 B( 67-C , 90-H ) :   0.9847 B( 68-S , 69-C ) :   1.0808
B( 69-C , 70-C ) :   1.6102 B( 69-C , 71-Br) :   1.0168 B( 70-C , 91-H ) :   1.0006

-----------------------------------------------------------------------------
         ABSORPTION SPECTRUM VIA TRANSITION ELECTRIC DIPOLE MOMENTS
-----------------------------------------------------------------------------
State   Energy  Wavelength   fosc         T2         TX        TY        TZ
        (cm-1)    (nm)                  (au**2)     (au)      (au)      (au)
-----------------------------------------------------------------------------
   0    6820.3   1466.2   0.193208122   9.32598  -0.54339  -2.63661   1.44187
   1   12269.7    815.0   0.041953138   1.12566  -0.82675   0.64290   0.16976
   2   15756.6    634.7   2.041437977  42.65309  -5.54026   2.76164   2.08133
   3   17974.7    556.3   0.386941279   7.08696   2.19024   0.50355  -1.42697
   4   20039.5    499.0   0.068243736   1.12112   0.41289   0.71657  -0.66118
   5   20922.8    477.9   0.020991894   0.33030   0.01655   0.55662  -0.14211
   6   21197.3    471.8   0.256650549   3.98600  -1.38290  -1.02386   1.01256
   7   21957.0    455.4   0.016706669   0.25049   0.30593   0.05891  -0.39170
   8   22314.0    448.1   0.563199364   8.30921  -0.17964  -2.33553   1.67996
   9   23404.5    427.3   0.027612275   0.38840  -0.60609  -0.10182   0.10340
  10   23980.6    417.0   0.172698488   2.37085  -0.83537   1.13038  -0.62869
  11   25003.4    399.9   0.043912253   0.57818   0.74414  -0.06109  -0.14387
  12   25870.7    386.5   0.017075500   0.21729   0.42677   0.18676  -0.01671
  13   26232.7    381.2   0.009126206   0.11453   0.31426  -0.10025  -0.07563
  14   26520.1    377.1   0.036842265   0.45735  -0.12646   0.53265  -0.39703
  15   26811.8    373.0   0.028843824   0.35416   0.47497   0.18572  -0.30672
  16   26977.5    370.7   0.210593492   2.56992  -0.08970   0.81314  -1.37865
  17   27211.9    367.5   0.006682602   0.08085  -0.14259  -0.09374   0.22744
  18   27696.9    361.1   0.004033307   0.04794   0.11199   0.00127   0.18814
  19   27890.6    358.5   0.017736982   0.20936  -0.38274  -0.19742  -0.15460
  20   28050.8    356.5   0.117975402   1.38459  -0.21628   0.60217  -0.98752
  21   28383.6    352.3   0.030152891   0.34973   0.43907  -0.27211  -0.28793
  22   28610.9    349.5   0.024918551   0.28673  -0.03588   0.43296   0.31303
  23   28732.5    348.0   0.020758529   0.23785  -0.01106   0.33895  -0.35048
  24   28985.3    345.0   0.209212891   2.37622  -0.22256   0.80028  -1.29855
  25   29286.8    341.5   0.009565261   0.10752   0.31619   0.02342  -0.08365
  26   30007.5    333.2   0.036597356   0.40151   0.47469   0.15219  -0.39118
  27   30233.7    330.8   0.003542054   0.03857  -0.00277   0.10741   0.16439
  28   30465.9    328.2   0.037158269   0.40153  -0.49946   0.38240  -0.07642
  29   30679.0    326.0   0.202662267   2.17474   1.34838  -0.51017  -0.31039
  30   30953.2    323.1   0.004040810   0.04298   0.04807  -0.20158  -0.00560
  31   31288.1    319.6   0.007126952   0.07499   0.26460   0.06927   0.01346
  32   31522.8    317.2   0.142580645   1.48906  -0.68596   0.48071  -0.88737
  33   31684.5    315.6   0.236381702   2.45608  -0.91958   0.75088  -1.02304
  34   32183.4    310.7   0.005777637   0.05910   0.07764  -0.17863  -0.14548
  35   32372.5    308.9   0.016394365   0.16672  -0.36008   0.16819  -0.09368
  36   32457.9    308.1   0.022540441   0.22862  -0.47113   0.06967   0.04247
  37   32680.8    306.0   0.007601871   0.07658  -0.20904  -0.10376  -0.14871
  38   32850.0    304.4   0.005041712   0.05053   0.18583  -0.12636  -0.00524
  39   32957.1    303.4   0.038758801   0.38717  -0.34091   0.26559  -0.44767
  40   33102.5    302.1   0.043457535   0.43219   0.58232  -0.12290  -0.27927
  41   33381.0    299.6   0.036733548   0.36228   0.25690  -0.26927   0.47304
  42   33567.8    297.9   0.036619427   0.35914  -0.23515  -0.48370   0.26435
  43   33947.1    294.6   0.019932588   0.19330  -0.26873  -0.27452   0.21384
  44   34095.9    293.3   0.034236161   0.33057   0.56968  -0.03332  -0.07012
  45   34178.8    292.6   0.018557199   0.17874   0.01786   0.09577  -0.41140
  46   34298.4    291.6   0.034763947   0.33368   0.14476  -0.25620   0.49708
  47   34535.2    289.6   0.015469151   0.14746   0.15532   0.27739  -0.21538
  48   34738.0    287.9   0.035816550   0.33943  -0.43639  -0.06293   0.38084
  49   34838.9    287.0   0.075845804   0.71671   0.57501  -0.44439   0.43427
  50   35170.7    284.3   0.155716937   1.45757  -0.42951   0.80358  -0.79206
  51   35240.1    283.8   0.005862320   0.05477  -0.19581   0.10769   0.06947
  52   35485.7    281.8   0.025938541   0.24064   0.04780  -0.28251   0.39817
  53   35666.1    280.4   0.012695654   0.11719  -0.30094  -0.09678   0.13136
  54   35859.0    278.9   0.005923943   0.05439   0.02408  -0.17189   0.15575
  55   36049.5    277.4   0.034073439   0.31117   0.42905   0.18013  -0.30764
  56   36236.2    276.0   0.002086800   0.01896   0.07653   0.02457  -0.11180
  57   36352.8    275.1   0.034849083   0.31559   0.07180  -0.31812   0.45742
  58   36550.6    273.6   0.008252055   0.07433  -0.20357  -0.17075   0.06108
  59   37125.8    269.4   0.319529693   2.83342   1.23549  -0.86078   0.75236
  60   37556.5    266.3   0.003878192   0.03400   0.17856  -0.00720  -0.04540
  61   37911.0    263.8   0.003596639   0.03123   0.02319   0.08769   0.15168
  62   38023.4    263.0   0.020381632   0.17647  -0.40740   0.09969   0.02362
  63   38482.4    259.9   0.019099191   0.16339   0.36979   0.08266   0.14077
  64   38679.8    258.5   0.082229538   0.69987   0.38182   0.02591  -0.74392
  65   38923.2    256.9   0.105269922   0.89037  -0.20936  -0.32637   0.86024
  66   39050.8    256.1   0.014481569   0.12208   0.26333   0.17745  -0.14578
  67   39540.5    252.9   0.180546753   1.50322   0.59429   0.31354  -1.02554
  68   39569.7    252.7   0.116595452   0.97005   0.25703   0.26747  -0.91238
  69   39726.5    251.7   0.024333938   0.20165   0.25684  -0.22729   0.28988
  70   40003.5    250.0   0.053273442   0.43842  -0.50111   0.42350  -0.08920
  71   40096.1    249.4   0.126922103   1.04210  -0.39633  -0.26626   0.90229
  72   40301.1    248.1   0.021964060   0.17942  -0.10317  -0.34395   0.22466

FINAL SINGLE POINT ENERGY    -10877.847873929510

DIPOLE MOMENT
-------------
                                X             Y             Z
Electronic contribution:    148.92356     -16.67035    -118.43779
Nuclear contribution   :   -153.17240      18.65736     120.09261
                        -----------------------------------------
Total Dipole Moment    :     -4.24884       1.98701       1.65482
                        -----------------------------------------
Magnitude (a.u.)       :      4.97386
Magnitude (Debye)      :     12.64256

Rotational constants in cm-1:     0.000989     0.000460     0.000347
Rotational constants in MHz :    29.646759    13.785589    10.396334

                             ****ORCA TERMINATED NORMALLY****
TOTAL RUN TIME: 0 days 0 hours 22 minutes 36 seconds 524 msec
