                         Program Version 4.2.0 -  RELEASE  -
|  1> # ORCA input file
|  2> # SCF done       -185.187896335219          0.000845434640
|  3> ! CAM-B3LYP def2-SVP def2/J RIJCOSX Grid4 TightSCF
|  4> %maxcore 5000
|  5> %tddft
|  6>     Mode sTDDFT
|  7>     Ethresh 5.0
|  8>     maxcore 5000
|  9> end
| 10>
| 11> %pal
| 12>   nprocs 6
| 13>   end
| 14> * xyz 0 1
| 15>    C       -5.62509        -2.18521        -6.09806
| 16>    C       -6.36880        -3.23526        -5.62045
| 17>    C       -6.77222        -4.33227        -6.40833
| 18>    N       -7.12259        -5.25262        -6.99884
| 19>    C       -6.90228        -3.34063        -4.31826
| 20>    N       -7.41617        -3.48848        -3.30234
| 21>    C       -5.23183        -2.00037        -7.48932
| 22>    C       -4.67668        -0.70661        -7.63021
| 23>    C       -4.23445        -0.21406        -8.83354
| 24>    C       -4.33610        -1.04431        -9.95478
| 25>    C       -4.88135        -2.34112        -9.80317
| 26>    C       -5.33498        -2.83599        -8.58638
| 27>    S       -4.90901        -3.20268       -11.31224
| 28>    C       -4.20123        -1.82588       -12.11497
| 29>    C       -3.95370        -0.77526       -11.29753
| 30>   Br       -3.85344        -1.90505       -13.95683
| 31>    C       -4.66229        -0.02607        -6.31931
| 32>    O       -4.28194         1.10975        -6.12953
| 33>    C       -5.18288        -1.02209        -5.34843
| 34>    C       -5.15517        -0.95329        -3.98080
| 35>    C       -4.77244         0.12623        -3.15865
| 36>    O       -4.48962         1.36357        -3.63912
| 37>    C       -4.64241         0.17182        -1.77575
| 38>    C       -4.71760        -0.62757        -0.54600
| 39>    O       -4.96177        -1.79095        -0.36933
| 40>    N       -4.40610         0.29081         0.45595
| 41>    C       -4.12003         1.58333         0.01701
| 42>    O       -3.82587         2.50754         0.72935
| 43>    C       -4.26990         1.49122        -1.43747
| 44>    C       -4.18105         2.20036        -2.62611
| 45>    C       -3.83173         3.54813        -2.91594
| 46>    C       -3.70770         3.95511        -4.19906
| 47>    C       -3.43419         5.29550        -4.63782
| 48>    C       -3.83604         6.36716        -3.88589
| 49>    S       -3.65244         7.88594        -4.64947
| 50>    C       -2.97295         7.10135        -6.04552
| 51>    C       -2.87486         5.70819        -5.91055
| 52>    C       -2.26091         4.96096        -6.94988
| 53>    C       -1.95889         3.49929        -6.73981
| 54>    C       -0.94646         3.29938        -5.60936
| 55>    C       -1.87663         5.59914        -8.12425
| 56>    C       -1.31019         4.83566        -9.29352
| 57>    C        0.20643         4.66461        -9.18408
| 58>    C       -2.02223         6.99957        -8.26517
| 59>    C       -1.74305         7.86241        -9.38905
| 60>    C       -2.10958         9.15055        -9.14128
| 61>    S       -2.74282         9.42803        -7.56552
| 62>    C       -2.57148         7.73826        -7.20699
| 63>    C       -1.13615         7.52019       -10.66454
| 64>    C       -1.68773         7.86734       -11.84797
| 65>    C       -1.09958         7.60363       -13.10697
| 66>    C       -1.73500         7.79456       -14.30230
| 67>    C       -1.21490         7.57156       -15.60328
| 68>    C       -2.09751         7.80996       -16.61115
| 69>    C       -3.37448         8.22464       -16.17172
| 70>    S       -3.40589         8.33641       -14.42239
| 71>    C       -4.49352         8.48399       -16.93614
| 72>    C       -4.63179         8.43769       -18.33983
| 73>    C       -5.89017         8.71062       -18.78523
| 74>    C       -6.83403         8.98536       -17.76686
| 75>    S       -6.02665         8.90288       -16.20119
| 76>    C       -8.16706         9.25168       -17.96359
| 77>    C       -9.17006         9.49935       -17.01684
| 78>    N       -9.00923         9.54523       -15.64401
| 79>    C      -10.17325         9.79191       -15.00006
| 80>    C      -11.16758         9.92011       -15.95830
| 81>    C      -10.53886         9.73780       -17.21968
| 82>    N      -11.48259         9.85349       -18.18652
| 83>    C      -12.68952        10.10158       -17.57375
| 84>    C      -12.54682        10.15120       -16.21968
| 85>    H       -3.82425         0.78098        -8.90894
| 86>    H       -5.74159        -3.83126        -8.52383
| 87>    H       -3.52117         0.15199       -11.62651
| 88>    H       -5.44070        -1.82934        -3.41281
| 89>    H       -4.38100         0.03388         1.43244
| 90>    H       -3.64424         4.18646        -2.06656
| 91>    H       -3.88093         3.21142        -4.96157
| 92>    H       -4.30552         6.32815        -2.92245
| 93>    H       -1.53012         3.06695        -7.63983
| 94>    H       -2.86720         2.93789        -6.52889
| 95>    H       -0.02030         3.82536        -5.83465
| 96>    H       -0.72528         2.24048        -5.49603
| 97>    H       -1.32515         3.67094        -4.66145
| 98>    H       -1.54898         5.38103       -10.20789
| 99>    H       -1.78532         3.85771        -9.38010
|100>    H        0.69029         5.62887        -9.04398
|101>    H        0.60181         4.20287       -10.08679
|102>    H        0.46599         4.03738        -8.33511
|103>    H       -1.99490         9.98357        -9.80743
|104>    H       -0.17980         7.01621       -10.64918
|105>    H       -2.66303         8.33868       -11.85586
|106>    H       -0.09042         7.21377       -13.13053
|107>    H       -0.20168         7.23951       -15.74706
|108>    H       -1.87085         7.68846       -17.65547
|109>    H       -3.80128         8.20311       -18.98094
|110>    H       -6.17563         8.71601       -19.82274
|111>    H       -8.49679         9.26042       -18.99459
|112>    H       -8.12261         9.40715       -15.18670
|113>    H      -10.21701         9.85813       -13.93150
|114>    H      -11.34391         9.76916       -19.17862
|115>    H      -13.57659        10.22673       -18.16429
|116>    H      -13.32186        10.32838       -15.50228
|117> *
|118>
|119>                          ****END OF INPUT****

CARTESIAN COORDINATES (ANGSTROEM)
---------------------------------
  C     -5.625090   -2.185210   -6.098060
  C     -6.368800   -3.235260   -5.620450
  C     -6.772220   -4.332270   -6.408330
  N     -7.122590   -5.252620   -6.998840
  C     -6.902280   -3.340630   -4.318260
  N     -7.416170   -3.488480   -3.302340
  C     -5.231830   -2.000370   -7.489320
  C     -4.676680   -0.706610   -7.630210
  C     -4.234450   -0.214060   -8.833540
  C     -4.336100   -1.044310   -9.954780
  C     -4.881350   -2.341120   -9.803170
  C     -5.334980   -2.835990   -8.586380
  S     -4.909010   -3.202680  -11.312240
  C     -4.201230   -1.825880  -12.114970
  C     -3.953700   -0.775260  -11.297530
  Br    -3.853440   -1.905050  -13.956830
  C     -4.662290   -0.026070   -6.319310
  O     -4.281940    1.109750   -6.129530
  C     -5.182880   -1.022090   -5.348430
  C     -5.155170   -0.953290   -3.980800
  C     -4.772440    0.126230   -3.158650
  O     -4.489620    1.363570   -3.639120
  C     -4.642410    0.171820   -1.775750
  C     -4.717600   -0.627570   -0.546000
  O     -4.961770   -1.790950   -0.369330
  N     -4.406100    0.290810    0.455950
  C     -4.120030    1.583330    0.017010
  O     -3.825870    2.507540    0.729350
  C     -4.269900    1.491220   -1.437470
  C     -4.181050    2.200360   -2.626110
  C     -3.831730    3.548130   -2.915940
  C     -3.707700    3.955110   -4.199060
  C     -3.434190    5.295500   -4.637820
  C     -3.836040    6.367160   -3.885890
  S     -3.652440    7.885940   -4.649470
  C     -2.972950    7.101350   -6.045520
  C     -2.874860    5.708190   -5.910550
  C     -2.260910    4.960960   -6.949880
  C     -1.958890    3.499290   -6.739810
  C     -0.946460    3.299380   -5.609360
  C     -1.876630    5.599140   -8.124250
  C     -1.310190    4.835660   -9.293520
  C      0.206430    4.664610   -9.184080
  C     -2.022230    6.999570   -8.265170
  C     -1.743050    7.862410   -9.389050
  C     -2.109580    9.150550   -9.141280
  S     -2.742820    9.428030   -7.565520
  C     -2.571480    7.738260   -7.206990
  C     -1.136150    7.520190  -10.664540
  C     -1.687730    7.867340  -11.847970
  C     -1.099580    7.603630  -13.106970
  C     -1.735000    7.794560  -14.302300
  C     -1.214900    7.571560  -15.603280
  C     -2.097510    7.809960  -16.611150
  C     -3.374480    8.224640  -16.171720
  S     -3.405890    8.336410  -14.422390
  C     -4.493520    8.483990  -16.936140
  C     -4.631790    8.437690  -18.339830
  C     -5.890170    8.710620  -18.785230
  C     -6.834030    8.985360  -17.766860
  S     -6.026650    8.902880  -16.201190
  C     -8.167060    9.251680  -17.963590
  C     -9.170060    9.499350  -17.016840
  N     -9.009230    9.545230  -15.644010
  C    -10.173250    9.791910  -15.000060
  C    -11.167580    9.920110  -15.958300
  C    -10.538860    9.737800  -17.219680
  N    -11.482590    9.853490  -18.186520
  C    -12.689520   10.101580  -17.573750
  C    -12.546820   10.151200  -16.219680
  H     -3.824250    0.780980   -8.908940
  H     -5.741590   -3.831260   -8.523830
  H     -3.521170    0.151990  -11.626510
  H     -5.440700   -1.829340   -3.412810
  H     -4.381000    0.033880    1.432440
  H     -3.644240    4.186460   -2.066560
  H     -3.880930    3.211420   -4.961570
  H     -4.305520    6.328150   -2.922450
  H     -1.530120    3.066950   -7.639830
  H     -2.867200    2.937890   -6.528890
  H     -0.020300    3.825360   -5.834650
  H     -0.725280    2.240480   -5.496030
  H     -1.325150    3.670940   -4.661450
  H     -1.548980    5.381030  -10.207890
  H     -1.785320    3.857710   -9.380100
  H      0.690290    5.628870   -9.043980
  H      0.601810    4.202870  -10.086790
  H      0.465990    4.037380   -8.335110
  H     -1.994900    9.983570   -9.807430
  H     -0.179800    7.016210  -10.649180
  H     -2.663030    8.338680  -11.855860
  H     -0.090420    7.213770  -13.130530
  H     -0.201680    7.239510  -15.747060
  H     -1.870850    7.688460  -17.655470
  H     -3.801280    8.203110  -18.980940
  H     -6.175630    8.716010  -19.822740
  H     -8.496790    9.260420  -18.994590
  H     -8.122610    9.407150  -15.186700
  H    -10.217010    9.858130  -13.931500
  H    -11.343910    9.769160  -19.178620
  H    -13.576590   10.226730  -18.164290
  H    -13.321860   10.328380  -15.502280

 Total Charge           Charge          ....    0
 Multiplicity           Mult            ....    1
 Number of Electrons    NEL             ....  544
 Basis Dimension        Dim             .... 1178

ORBITAL ENERGIES
----------------

  NO   OCC          E(Eh)            E(eV)
   0   2.0000    -482.887446    -13140.0354
   1   2.0000     -88.977688     -2421.2060
   2   2.0000     -88.957342     -2420.6523
   3   2.0000     -88.946037     -2420.3447
   4   2.0000     -88.940845     -2420.2034
   5   2.0000     -88.931154     -2419.9397
   6   2.0000     -62.565137     -1702.4839
   7   2.0000     -56.399093     -1534.6973
   8   2.0000     -56.396369     -1534.6232
   9   2.0000     -56.396336     -1534.6223
  10   2.0000     -19.310655      -525.4696
  11   2.0000     -19.221872      -523.0537
  12   2.0000     -19.216714      -522.9134
  13   2.0000     -19.212452      -522.7974
  14   2.0000     -14.458506      -393.4360
  15   2.0000     -14.456641      -393.3852
  16   2.0000     -14.452450      -393.2711
  17   2.0000     -14.417162      -392.3109
  18   2.0000     -14.415518      -392.2662
  19   2.0000     -10.405283      -283.1421
  20   2.0000     -10.402284      -283.0605
  21   2.0000     -10.375236      -282.3245
  22   2.0000     -10.372758      -282.2571
  23   2.0000     -10.366647      -282.0908
  24   2.0000     -10.361343      -281.9465
  25   2.0000     -10.345884      -281.5258
  26   2.0000     -10.344468      -281.4873
  27   2.0000     -10.329187      -281.0715
  28   2.0000     -10.328355      -281.0488
  29   2.0000     -10.319652      -280.8120
  30   2.0000     -10.317134      -280.7435
  31   2.0000     -10.311218      -280.5825
  32   2.0000     -10.310483      -280.5625
  33   2.0000     -10.309953      -280.5481
  34   2.0000     -10.308113      -280.4980
  35   2.0000     -10.307985      -280.4945
  36   2.0000     -10.304530      -280.4005
  37   2.0000     -10.304109      -280.3891
  38   2.0000     -10.303425      -280.3705
  39   2.0000     -10.298921      -280.2479
  40   2.0000     -10.298614      -280.2395
  41   2.0000     -10.297861      -280.2190
  42   2.0000     -10.297766      -280.2164
  43   2.0000     -10.296322      -280.1772
  44   2.0000     -10.295821      -280.1635
  45   2.0000     -10.295273      -280.1486
  46   2.0000     -10.294755      -280.1345
  47   2.0000     -10.294584      -280.1299
  48   2.0000     -10.294138      -280.1177
  49   2.0000     -10.293911      -280.1116
  50   2.0000     -10.293572      -280.1023
  51   2.0000     -10.288998      -279.9779
  52   2.0000     -10.288478      -279.9637
  53   2.0000     -10.287591      -279.9396
  54   2.0000     -10.286730      -279.9162
  55   2.0000     -10.286417      -279.9076
  56   2.0000     -10.279966      -279.7321
  57   2.0000     -10.278995      -279.7057
  58   2.0000     -10.278400      -279.6895
  59   2.0000     -10.274883      -279.5938
  60   2.0000     -10.273746      -279.5628
  61   2.0000     -10.273684      -279.5612
  62   2.0000     -10.272461      -279.5279
  63   2.0000     -10.271014      -279.4885
  64   2.0000     -10.270950      -279.4868
  65   2.0000     -10.267344      -279.3886
  66   2.0000     -10.265863      -279.3483
  67   2.0000     -10.262245      -279.2499
  68   2.0000     -10.259486      -279.1748
  69   2.0000     -10.256341      -279.0892
  70   2.0000     -10.255894      -279.0771
  71   2.0000     -10.251561      -278.9592
  72   2.0000     -10.250103      -278.9195
  73   2.0000     -10.249320      -278.8982
  74   2.0000      -8.794550      -239.3119
  75   2.0000      -8.073746      -219.6978
  76   2.0000      -8.053531      -219.1477
  77   2.0000      -8.042288      -218.8418
  78   2.0000      -8.037018      -218.6984
  79   2.0000      -8.027499      -218.4394
  80   2.0000      -6.630880      -180.4354
  81   2.0000      -6.616271      -180.0379
  82   2.0000      -6.616063      -180.0322
  83   2.0000      -6.043417      -164.4497
  84   2.0000      -6.039166      -164.3340
  85   2.0000      -6.034943      -164.2192
  86   2.0000      -6.022960      -163.8931
  87   2.0000      -6.018702      -163.7772
  88   2.0000      -6.015357      -163.6862
  89   2.0000      -6.011777      -163.5888
  90   2.0000      -6.007635      -163.4761
  91   2.0000      -6.006802      -163.4534
  92   2.0000      -6.003901      -163.3744
  93   2.0000      -6.002939      -163.3483
  94   2.0000      -5.997820      -163.2090
  95   2.0000      -5.997269      -163.1940
  96   2.0000      -5.993368      -163.0878
  97   2.0000      -5.988250      -162.9486
  98   2.0000      -2.746733       -74.7424
  99   2.0000      -2.742641       -74.6311
 100   2.0000      -2.742510       -74.6275
 101   2.0000      -2.730880       -74.3110
 102   2.0000      -2.730877       -74.3110
 103   2.0000      -1.234795       -33.6005
 104   2.0000      -1.158926       -31.5360
 105   2.0000      -1.138193       -30.9718
 106   2.0000      -1.137295       -30.9474
 107   2.0000      -1.082275       -29.4502
 108   2.0000      -1.051666       -28.6173
 109   2.0000      -1.046068       -28.4649
 110   2.0000      -1.025757       -27.9123
 111   2.0000      -1.015063       -27.6213
 112   2.0000      -1.001336       -27.2478
 113   2.0000      -0.994602       -27.0645
 114   2.0000      -0.992831       -27.0163
 115   2.0000      -0.984178       -26.7808
 116   2.0000      -0.971192       -26.4275
 117   2.0000      -0.961743       -26.1703
 118   2.0000      -0.949515       -25.8376
 119   2.0000      -0.934059       -25.4170
 120   2.0000      -0.928970       -25.2786
 121   2.0000      -0.922166       -25.0934
 122   2.0000      -0.910710       -24.7817
 123   2.0000      -0.906061       -24.6552
 124   2.0000      -0.899244       -24.4697
 125   2.0000      -0.888422       -24.1752
 126   2.0000      -0.886861       -24.1327
 127   2.0000      -0.879310       -23.9273
 128   2.0000      -0.869977       -23.6733
 129   2.0000      -0.864808       -23.5326
 130   2.0000      -0.860282       -23.4095
 131   2.0000      -0.848827       -23.0978
 132   2.0000      -0.843673       -22.9575
 133   2.0000      -0.836717       -22.7682
 134   2.0000      -0.834651       -22.7120
 135   2.0000      -0.831709       -22.6320
 136   2.0000      -0.817258       -22.2387
 137   2.0000      -0.814253       -22.1569
 138   2.0000      -0.811151       -22.0725
 139   2.0000      -0.799673       -21.7602
 140   2.0000      -0.790535       -21.5116
 141   2.0000      -0.780881       -21.2488
 142   2.0000      -0.778782       -21.1917
 143   2.0000      -0.768802       -20.9202
 144   2.0000      -0.763084       -20.7646
 145   2.0000      -0.759619       -20.6703
 146   2.0000      -0.754019       -20.5179
 147   2.0000      -0.726783       -19.7768
 148   2.0000      -0.721703       -19.6385
 149   2.0000      -0.716116       -19.4865
 150   2.0000      -0.712555       -19.3896
 151   2.0000      -0.710631       -19.3373
 152   2.0000      -0.702039       -19.1035
 153   2.0000      -0.692990       -18.8572
 154   2.0000      -0.691837       -18.8258
 155   2.0000      -0.688347       -18.7309
 156   2.0000      -0.684364       -18.6225
 157   2.0000      -0.678106       -18.4522
 158   2.0000      -0.667376       -18.1602
 159   2.0000      -0.660764       -17.9803
 160   2.0000      -0.657951       -17.9038
 161   2.0000      -0.649655       -17.6780
 162   2.0000      -0.643689       -17.5157
 163   2.0000      -0.634704       -17.2712
 164   2.0000      -0.633045       -17.2260
 165   2.0000      -0.627452       -17.0738
 166   2.0000      -0.624277       -16.9874
 167   2.0000      -0.613933       -16.7060
 168   2.0000      -0.610401       -16.6099
 169   2.0000      -0.608236       -16.5510
 170   2.0000      -0.604182       -16.4406
 171   2.0000      -0.600403       -16.3378
 172   2.0000      -0.599682       -16.3182
 173   2.0000      -0.592438       -16.1211
 174   2.0000      -0.589061       -16.0292
 175   2.0000      -0.586088       -15.9483
 176   2.0000      -0.582527       -15.8514
 177   2.0000      -0.581146       -15.8138
 178   2.0000      -0.579432       -15.7672
 179   2.0000      -0.576096       -15.6764
 180   2.0000      -0.564222       -15.3533
 181   2.0000      -0.555119       -15.1056
 182   2.0000      -0.551534       -15.0080
 183   2.0000      -0.549138       -14.9428
 184   2.0000      -0.545137       -14.8339
 185   2.0000      -0.543220       -14.7818
 186   2.0000      -0.540567       -14.7096
 187   2.0000      -0.536771       -14.6063
 188   2.0000      -0.534736       -14.5509
 189   2.0000      -0.530183       -14.4270
 190   2.0000      -0.529316       -14.4034
 191   2.0000      -0.527107       -14.3433
 192   2.0000      -0.525859       -14.3094
 193   2.0000      -0.524941       -14.2844
 194   2.0000      -0.524160       -14.2631
 195   2.0000      -0.518412       -14.1067
 196   2.0000      -0.517997       -14.0954
 197   2.0000      -0.510624       -13.8948
 198   2.0000      -0.509525       -13.8649
 199   2.0000      -0.506401       -13.7799
 200   2.0000      -0.504396       -13.7253
 201   2.0000      -0.503797       -13.7090
 202   2.0000      -0.501291       -13.6408
 203   2.0000      -0.497153       -13.5282
 204   2.0000      -0.496128       -13.5003
 205   2.0000      -0.495289       -13.4775
 206   2.0000      -0.492225       -13.3941
 207   2.0000      -0.488219       -13.2851
 208   2.0000      -0.486841       -13.2476
 209   2.0000      -0.485538       -13.2122
 210   2.0000      -0.482324       -13.1247
 211   2.0000      -0.479400       -13.0451
 212   2.0000      -0.478252       -13.0139
 213   2.0000      -0.475485       -12.9386
 214   2.0000      -0.475088       -12.9278
 215   2.0000      -0.469530       -12.7766
 216   2.0000      -0.468478       -12.7479
 217   2.0000      -0.466241       -12.6871
 218   2.0000      -0.464044       -12.6273
 219   2.0000      -0.460490       -12.5306
 220   2.0000      -0.456871       -12.4321
 221   2.0000      -0.451951       -12.2982
 222   2.0000      -0.451125       -12.2757
 223   2.0000      -0.450561       -12.2604
 224   2.0000      -0.449769       -12.2388
 225   2.0000      -0.449042       -12.2191
 226   2.0000      -0.446515       -12.1503
 227   2.0000      -0.444006       -12.0820
 228   2.0000      -0.443254       -12.0616
 229   2.0000      -0.440738       -11.9931
 230   2.0000      -0.435340       -11.8462
 231   2.0000      -0.431394       -11.7388
 232   2.0000      -0.430058       -11.7025
 233   2.0000      -0.426709       -11.6113
 234   2.0000      -0.425497       -11.5784
 235   2.0000      -0.425310       -11.5733
 236   2.0000      -0.424251       -11.5445
 237   2.0000      -0.423566       -11.5258
 238   2.0000      -0.419652       -11.4193
 239   2.0000      -0.415855       -11.3160
 240   2.0000      -0.412228       -11.2173
 241   2.0000      -0.409348       -11.1389
 242   2.0000      -0.407220       -11.0810
 243   2.0000      -0.402535       -10.9535
 244   2.0000      -0.396835       -10.7984
 245   2.0000      -0.391413       -10.6509
 246   2.0000      -0.388680       -10.5765
 247   2.0000      -0.388533       -10.5725
 248   2.0000      -0.384055       -10.4507
 249   2.0000      -0.376940       -10.2571
 250   2.0000      -0.376662       -10.2495
 251   2.0000      -0.373679       -10.1683
 252   2.0000      -0.372499       -10.1362
 253   2.0000      -0.367794       -10.0082
 254   2.0000      -0.363747        -9.8981
 255   2.0000      -0.356323        -9.6960
 256   2.0000      -0.348586        -9.4855
 257   2.0000      -0.342259        -9.3133
 258   2.0000      -0.340577        -9.2676
 259   2.0000      -0.333008        -9.0616
 260   2.0000      -0.328224        -8.9314
 261   2.0000      -0.323567        -8.8047
 262   2.0000      -0.318218        -8.6592
 263   2.0000      -0.315447        -8.5837
 264   2.0000      -0.305149        -8.3035
 265   2.0000      -0.296810        -8.0766
 266   2.0000      -0.287357        -7.8194
 267   2.0000      -0.284111        -7.7310
 268   2.0000      -0.267638        -7.2828
 269   2.0000      -0.257752        -7.0138
 270   2.0000      -0.246130        -6.6975
 271   2.0000      -0.191704        -5.2165
 272   0.0000      -0.102431        -2.7873
 273   0.0000      -0.065566        -1.7841
 274   0.0000      -0.060641        -1.6501
 275   0.0000      -0.048081        -1.3083
 276   0.0000      -0.021653        -0.5892

MULLIKEN ATOMIC CHARGES
-----------------------
   0 C :    0.299250
   1 C :   -0.337474
   2 C :   -0.181711
   3 N :    0.148192
   4 C :   -0.206490
   5 N :    0.176889
   6 C :    0.017960
   7 C :   -0.015234
   8 C :   -0.072430
   9 C :    0.117215
  10 C :   -0.091854
  11 C :   -0.014230
  12 S :    0.188810
  13 C :   -0.123600
  14 C :    0.039954
  15 Br:    0.025877
  16 C :    0.148621
  17 O :   -0.126132
  18 C :   -0.067661
  19 C :   -0.043216
  20 C :    0.075154
  21 O :   -0.176043
  22 C :   -0.014388
  23 C :    0.171676
  24 O :   -0.124719
  25 N :   -0.169599
  26 C :    0.168125
  27 O :   -0.138289
  28 C :   -0.046520
  29 C :    0.099951
  30 C :   -0.040654
  31 C :   -0.007976
  32 C :    0.059681
  33 C :   -0.099715
  34 S :    0.144757
  35 C :   -0.154739
  36 C :    0.126626
  37 C :   -0.108626
  38 C :    0.031007
  39 C :    0.016907
  40 C :   -0.129668
  41 C :    0.021569
  42 C :    0.037305
  43 C :    0.115368
  44 C :    0.061004
  45 C :   -0.115965
  46 S :    0.115630
  47 C :   -0.141535
  48 C :   -0.043796
  49 C :    0.008058
  50 C :   -0.034553
  51 C :   -0.008079
  52 C :    0.030431
  53 C :    0.025944
  54 C :   -0.056466
  55 S :    0.047928
  56 C :   -0.029447
  57 C :    0.014670
  58 C :    0.033053
  59 C :   -0.036462
  60 S :    0.012737
  61 C :   -0.029443
  62 C :   -0.022162
  63 N :   -0.051050
  64 C :   -0.020650
  65 C :    0.074367
  66 C :    0.034183
  67 N :   -0.048972
  68 C :    0.070656
  69 C :   -0.055523
  70 H :   -0.013659
  71 H :   -0.006497
  72 H :   -0.002209
  73 H :    0.035845
  74 H :    0.141403
  75 H :    0.007043
  76 H :    0.045281
  77 H :    0.024851
  78 H :   -0.015391
  79 H :    0.024671
  80 H :    0.009421
  81 H :    0.010425
  82 H :    0.021360
  83 H :    0.014050
  84 H :    0.000438
  85 H :    0.015047
  86 H :    0.012329
  87 H :    0.005637
  88 H :    0.020430
  89 H :   -0.000669
  90 H :   -0.001627
  91 H :   -0.026248
  92 H :   -0.021070
  93 H :   -0.018301
  94 H :   -0.020638
  95 H :   -0.018782
  96 H :   -0.033144
  97 H :    0.129003
  98 H :   -0.000513
  99 H :    0.119987
 100 H :   -0.006495
 101 H :   -0.026462
Sum of atomic charges:    0.0000000

LOEWDIN ATOMIC CHARGES
----------------------
   0 C :    0.072348
   1 C :   -0.133326
   2 C :   -0.016777
   3 N :   -0.050176
   4 C :   -0.030068
   5 N :   -0.035477
   6 C :   -0.020837
   7 C :   -0.051563
   8 C :    0.021362
   9 C :   -0.031993
  10 C :   -0.142645
  11 C :   -0.009069
  12 S :    0.434168
  13 C :   -0.270019
  14 C :   -0.070426
  15 Br:    0.138380
  16 C :    0.086109
  17 O :   -0.135467
  18 C :   -0.082592
  19 C :    0.050597
  20 C :    0.036419
  21 O :    0.043794
  22 C :   -0.053439
  23 C :    0.084647
  24 O :   -0.140912
  25 N :   -0.006420
  26 C :    0.085423
  27 O :   -0.156764
  28 C :   -0.111793
  29 C :    0.099485
  30 C :   -0.063234
  31 C :    0.046582
  32 C :   -0.073778
  33 C :   -0.150764
  34 S :    0.431441
  35 C :   -0.176586
  36 C :   -0.038736
  37 C :   -0.018780
  38 C :   -0.035766
  39 C :   -0.049474
  40 C :   -0.018482
  41 C :   -0.031924
  42 C :   -0.051272
  43 C :   -0.041143
  44 C :   -0.060167
  45 C :   -0.168686
  46 S :    0.403143
  47 C :   -0.179928
  48 C :   -0.032094
  49 C :   -0.030027
  50 C :   -0.079014
  51 C :   -0.137589
  52 C :   -0.049388
  53 C :   -0.028244
  54 C :   -0.198815
  55 S :    0.347826
  56 C :   -0.167068
  57 C :   -0.058781
  58 C :   -0.026636
  59 C :   -0.182471
  60 S :    0.346974
  61 C :   -0.045415
  62 C :   -0.069849
  63 N :    0.098450
  64 C :    0.000483
  65 C :   -0.085080
  66 C :   -0.010656
  67 N :    0.058363
  68 C :    0.005738
  69 C :   -0.083750
  70 H :    0.040424
  71 H :    0.041228
  72 H :    0.039264
  73 H :    0.060411
  74 H :    0.096313
  75 H :    0.041002
  76 H :    0.040739
  77 H :    0.025447
  78 H :    0.023168
  79 H :    0.025342
  80 H :    0.021815
  81 H :    0.024479
  82 H :    0.022505
  83 H :    0.032046
  84 H :    0.022997
  85 H :    0.022456
  86 H :    0.023754
  87 H :    0.022564
  88 H :    0.024161
  89 H :    0.026619
  90 H :    0.021827
  91 H :    0.028083
  92 H :    0.029930
  93 H :    0.029993
  94 H :    0.029351
  95 H :    0.030677
  96 H :    0.035892
  97 H :    0.066420
  98 H :    0.022660
  99 H :    0.086289
 100 H :    0.019504
 101 H :    0.024264

  Mayer bond orders larger than 0.100000
B(  0-C ,  1-C ) :   1.6427 B(  0-C ,  6-C ) :   1.0045 B(  0-C , 18-C ) :   1.0565
B(  1-C ,  2-C ) :   1.1428 B(  1-C ,  4-C ) :   1.1378 B(  2-C ,  3-N ) :   2.9688
B(  4-C ,  5-N ) :   2.9954 B(  6-C ,  7-C ) :   1.2736 B(  6-C , 11-C ) :   1.4095
B(  7-C ,  8-C ) :   1.4205 B(  7-C , 16-C ) :   0.9455 B(  8-C ,  9-C ) :   1.2516
B(  8-C , 70-H ) :   1.0177 B(  9-C , 10-C ) :   1.3041 B(  9-C , 14-C ) :   1.1617
B( 10-C , 11-C ) :   1.3315 B( 10-C , 12-S ) :   1.0866 B( 11-C , 71-H ) :   0.9796
B( 12-S , 13-C ) :   1.0870 B( 13-C , 14-C ) :   1.6194 B( 13-C , 15-Br) :   1.0202
B( 14-C , 72-H ) :   1.0000 B( 16-C , 17-O ) :   2.1847 B( 16-C , 18-C ) :   0.9367
B( 18-C , 19-C ) :   1.5432 B( 19-C , 20-C ) :   1.2265 B( 19-C , 73-H ) :   0.9334
B( 20-C , 21-O ) :   1.1442 B( 20-C , 22-C ) :   1.3639 B( 21-O , 29-C ) :   1.2013
B( 22-C , 23-C ) :   0.8663 B( 22-C , 28-C ) :   1.3203 B( 23-C , 24-O ) :   2.2683
B( 23-C , 25-N ) :   1.0846 B( 25-N , 26-C ) :   1.0713 B( 25-N , 74-H ) :   0.9136
B( 26-C , 27-O ) :   2.2772 B( 26-C , 28-C ) :   0.8788 B( 28-C , 29-C ) :   1.3239
B( 29-C , 30-C ) :   1.1811 B( 30-C , 31-C ) :   1.6529 B( 30-C , 75-H ) :   0.9657
B( 31-C , 32-C ) :   1.0239 B( 31-C , 76-H ) :   0.9685 B( 32-C , 33-C ) :   1.5854
B( 32-C , 36-C ) :   1.1296 B( 33-C , 34-S ) :   1.1450 B( 33-C , 77-H ) :   0.9605
B( 34-S , 35-C ) :   1.0713 B( 35-C , 36-C ) :   1.3807 B( 35-C , 47-C ) :   1.3760
B( 36-C , 37-C ) :   1.2460 B( 37-C , 38-C ) :   1.0668 B( 37-C , 40-C ) :   1.5170
B( 38-C , 39-C ) :   1.1020 B( 38-C , 78-H ) :   0.9062 B( 38-C , 79-H ) :   0.9172
B( 39-C , 80-H ) :   0.9583 B( 39-C , 81-H ) :   0.9653 B( 39-C , 82-H ) :   0.9650
B( 40-C , 41-C ) :   1.0589 B( 40-C , 43-C ) :   1.2664 B( 41-C , 42-C ) :   1.1029
B( 41-C , 83-H ) :   0.9126 B( 41-C , 84-H ) :   0.9181 B( 42-C , 85-H ) :   0.9592
B( 42-C , 86-H ) :   0.9656 B( 42-C , 87-H ) :   0.9634 B( 43-C , 44-C ) :   1.1577
B( 43-C , 47-C ) :   1.3693 B( 44-C , 45-C ) :   1.6302 B( 44-C , 48-C ) :   0.9886
B( 45-C , 46-S ) :   1.1022 B( 45-C , 88-H ) :   0.9653 B( 46-S , 47-C ) :   1.0796
B( 48-C , 49-C ) :   1.7354 B( 48-C , 89-H ) :   0.9551 B( 49-C , 50-C ) :   1.1205
B( 49-C , 90-H ) :   0.9722 B( 50-C , 51-C ) :   1.5978 B( 50-C , 91-H ) :   0.9799
B( 51-C , 52-C ) :   1.1331 B( 51-C , 55-S ) :   1.0301 B( 52-C , 53-C ) :   1.5919
B( 52-C , 92-H ) :   0.9984 B( 53-C , 54-C ) :   1.1926 B( 53-C , 93-H ) :   0.9938
B( 54-C , 55-S ) :   1.0242 B( 54-C , 56-C ) :   1.5119 B( 56-C , 57-C ) :   1.1944
B( 56-C , 60-S ) :   1.0508 B( 57-C , 58-C ) :   1.5758 B( 57-C , 94-H ) :   0.9918
B( 58-C , 59-C ) :   1.1600 B( 58-C , 95-H ) :   0.9985 B( 59-C , 60-S ) :   0.9955
B( 59-C , 61-C ) :   1.5479 B( 61-C , 62-C ) :   1.2083 B( 61-C , 96-H ) :   0.9618
B( 62-C , 63-N ) :   1.1953 B( 62-C , 64-C ) :   0.1100 B( 62-C , 66-C ) :   1.2294
B( 63-N , 64-C ) :   1.2709 B( 63-N , 97-H ) :   0.9185 B( 64-C , 65-C ) :   1.3179
B( 64-C , 98-H ) :   0.9942 B( 65-C , 66-C ) :   1.3338 B( 65-C , 69-C ) :   1.1498
B( 66-C , 67-N ) :   1.2072 B( 67-N , 68-C ) :   1.1492 B( 67-N , 99-H ) :   0.9421
B( 68-C , 69-C ) :   1.5994 B( 68-C ,100-H ) :   0.9880 B( 69-C ,101-H ) :   1.0122

-----------------------------------------------------------------------------
         ABSORPTION SPECTRUM VIA TRANSITION ELECTRIC DIPOLE MOMENTS
-----------------------------------------------------------------------------
State   Energy  Wavelength   fosc         T2         TX        TY        TZ
        (cm-1)    (nm)                  (au**2)     (au)      (au)      (au)
-----------------------------------------------------------------------------
   0   11833.1    845.1   0.000269451   0.00750  -0.03652   0.02443  -0.07461
   1   15243.4    656.0   1.276805171  27.57512   4.41003  -1.34205   2.51508
   2   18731.2    533.9   0.622149205  10.93465  -1.14002  -2.79029  -1.35989
   3   19268.6    519.0   0.000616304   0.01053  -0.00502   0.06314   0.08073
   4   22477.5    444.9   0.012504098   0.18314  -0.00906   0.13084   0.40736
   5   23346.1    428.3   0.001055820   0.01489  -0.05898  -0.10680   0.00183
   6   24770.1    403.7   0.066798953   0.88781   0.19339  -0.07602   0.91904
   7   25107.4    398.3   0.111262802   1.45889  -0.53165  -0.67828  -0.84627
   8   25716.3    388.9   0.094920593   1.21514   0.16015  -0.02959  -1.09024
   9   26161.6    382.2   0.020314962   0.25564   0.24348   0.30653   0.31999
  10   27009.2    370.2   0.166741249   2.03239   0.20316  -0.19097  -1.39809
  11   27603.5    362.3   0.060047070   0.71615   0.06250   0.22866   0.81238
  12   27777.8    360.0   0.815981721   9.67069  -1.27906   0.07945   2.83344
  13   28692.3    348.5   0.017095253   0.19615   0.11809   0.21000  -0.37162
  14   28847.2    346.7   0.202236793   2.30798   0.21126   1.33115  -0.70100
  15   28959.2    345.3   0.266707525   3.03196  -0.14797  -1.48622   0.89511
  16   29420.8    339.9   0.157637235   1.76392  -0.45861   0.23669   1.22376
  17   30153.5    331.6   0.003899090   0.04257   0.12543   0.01666  -0.16297
  18   30354.1    329.4   0.000809508   0.00878  -0.05398   0.02687   0.07172
  19   31160.9    320.9   0.070724818   0.74720   0.70338  -0.38184  -0.32658
  20   32060.6    311.9   0.004461708   0.04581  -0.15227  -0.05228   0.14105
  21   32128.2    311.3   0.025806872   0.26444   0.20226   0.26363  -0.39246
  22   32193.0    310.6   0.262865963   2.68812   0.65855   0.48860  -1.41975
  23   32397.8    308.7   0.004804360   0.04882  -0.03884   0.08354  -0.20083
  24   32561.3    307.1   0.285172690   2.88324   0.58258   0.63309  -1.46392
  25   32592.2    306.8   0.154299743   1.55857   0.41566   0.44695  -1.08906
  26   33083.8    302.3   0.045626139   0.45402   0.48722   0.04027  -0.46370
  27   33458.2    298.9   0.001917113   0.01886  -0.04545   0.01133   0.12911
  28   33948.2    294.6   0.023695595   0.22979   0.00219  -0.17893   0.44471
  29   34535.9    289.6   0.360544123   3.43687   0.05688   0.41917  -1.80497
  30   34799.0    287.4   0.010405587   0.09844  -0.11522  -0.15768   0.24557
  31   35206.7    284.0   0.059927654   0.56037   0.12845   0.38753  -0.62745
  32   35531.9    281.4   0.000860054   0.00797   0.01750   0.02984  -0.08229
  33   35987.8    277.9   0.044679308   0.40872   0.09688   0.43454  -0.45881
  34   36231.8    276.0   0.011653622   0.10589  -0.04719   0.07971   0.31194
  35   36684.4    272.6   0.192097235   1.72391   0.24556   0.73554   1.05952
  36   36775.3    271.9   0.041103031   0.36795  -0.17824   0.20664   0.54174
  37   36875.3    271.2   0.065372239   0.58362  -0.13209  -0.39958   0.63758
  38   37358.4    267.7   0.197533427   1.74072  -0.41536  -1.25089  -0.05881
  39   37927.3    263.7   0.077304591   0.67101   0.48958  -0.17496  -0.63302
  40   38157.3    262.1   0.052577283   0.45362  -0.13781   0.22092  -0.62115
  41   38375.2    260.6   0.021428154   0.18383  -0.00579   0.28578   0.31957
  42   38493.6    259.8   0.075145930   0.64268  -0.02668  -0.41786  -0.68363
  43   38798.0    257.7   0.015315155   0.12995  -0.06796  -0.29777  -0.19148
  44   39498.8    253.2   0.035851125   0.29881  -0.03788   0.07681   0.53988
  45   39778.3    251.4   0.159129518   1.31698   0.53963   0.32739  -0.95844
  46   39947.3    250.3   0.047133887   0.38844  -0.28626  -0.20876   0.51275
  47   40019.9    249.9   0.017692736   0.14554   0.32930   0.13913  -0.13323
  48   40098.0    249.4   0.083562220   0.68606  -0.26303   0.21204  -0.75625
  49   40184.9    248.8   0.005366506   0.04396   0.00333  -0.09252   0.18813
  50   40201.5    248.7   0.009644489   0.07898  -0.01245   0.23627  -0.15166

FINAL SINGLE POINT ENERGY     -7250.626405060219

DIPOLE MOMENT
-------------
                                X             Y             Z
Electronic contribution:    -13.86484     -98.75515     -15.57506
Nuclear contribution   :     14.43413     100.96956      11.93894
                        -----------------------------------------
Total Dipole Moment    :      0.56928       2.21441      -3.63612
                        -----------------------------------------
Magnitude (a.u.)       :      4.29523
Magnitude (Debye)      :     10.91761

Rotational constants in cm-1:     0.000785     0.000345     0.000293
Rotational constants in MHz :    23.522103    10.356080     8.770510

                             ****ORCA TERMINATED NORMALLY****
TOTAL RUN TIME: 0 days 0 hours 10 minutes 57 seconds 337 msec
