                         Program Version 4.2.0 -  RELEASE  -
|  1> # ORCA input file
|  2> # SCF done       -205.878096275715          0.000385048938
|  3> ! CAM-B3LYP def2-SVP def2/J RIJCOSX Grid4 TightSCF
|  4> %maxcore 5000
|  5> %tddft
|  6>     Mode sTDDFT
|  7>     Ethresh 5.0
|  8>     maxcore 5000
|  9> end
| 10>
| 11> %pal
| 12>   nprocs 6
| 13>   end
| 14> * xyz 0 1
| 15>    C       -4.61710        -0.50608        -1.15851
| 16>    C       -4.32303        -1.43894        -2.11762
| 17>    C       -3.01191        -1.78657        -2.50396
| 18>    N       -1.96679        -2.09772        -2.86207
| 19>    C       -5.28874        -2.20798        -2.80146
| 20>    N       -6.02132        -2.88900        -3.36503
| 21>    C       -3.65327         0.20304        -0.32813
| 22>    C       -4.35932         0.91549         0.67229
| 23>    C       -3.72516         1.68353         1.61825
| 24>    C       -2.32884         1.75663         1.57117
| 25>    C       -1.63304         1.04662         0.56334
| 26>    C       -2.27387         0.26484        -0.39011
| 27>    S        0.08331         1.28889         0.67977
| 28>    C       -0.15280         2.32591         2.06137
| 29>    C       -1.44948         2.48250         2.42012
| 30>   Br        1.33325         3.10419         2.89959
| 31>    C       -5.81055         0.70672         0.49886
| 32>    O       -6.69064         1.18408         1.18571
| 33>    C       -5.94582        -0.12423        -0.71729
| 34>    C       -7.09147        -0.29863        -1.44074
| 35>    C       -8.41430         0.03035        -1.06233
| 36>    S       -9.48433         0.61016        -2.31730
| 37>    C      -10.70866         0.93586        -1.16653
| 38>    C      -10.36184         0.59173         0.10539
| 39>    C      -11.26116         0.74223         1.28544
| 40>    C       -9.05114         0.03922         0.17617
| 41>    C       -8.52972        -0.55338         1.37988
| 42>    C       -7.80542        -1.69115         1.41125
| 43>    C       -7.31469        -2.32107         2.59568
| 44>    C       -7.20303        -1.73513         3.81036
| 45>    C       -6.75102        -2.43940         4.95701
| 46>    N       -6.45418        -3.70430         5.01052
| 47>    C       -6.08163        -4.07228         6.23953
| 48>    C       -6.07546        -3.07281         7.19076
| 49>    S       -6.58449        -1.58569         6.51644
| 50>    C       -5.79292        -3.66084         8.51465
| 51>    C       -5.00007        -4.90234         8.08143
| 52>    C       -5.71619        -5.42757         6.80832
| 53>    C       -4.84284        -6.23175         5.83363
| 54>    C       -3.44140        -5.67502         5.60929
| 55>    C       -7.00320        -6.20170         7.16078
| 56>    C       -7.83837        -6.56973         5.93918
| 57>    N       -4.80199        -5.65590         9.29668
| 58>    C       -4.61296        -4.76953        10.42803
| 59>    S       -4.71802        -3.02588         9.84579
| 60>    C       -4.43937        -6.94972         9.29210
| 61>    C       -4.10662        -7.77050        10.33253
| 62>    C       -4.00614        -7.59771        11.73657
| 63>    C       -3.60044        -8.71098        12.40688
| 64>    C       -3.35133        -9.83181        11.58099
| 65>    S       -3.67916        -9.44110         9.91785
| 66>    C       -2.87462       -11.07801        11.94332
| 67>    C       -2.44715       -11.54809        13.20022
| 68>    C       -1.91610       -12.80417        13.15853
| 69>    C       -1.87450       -13.38454        11.86833
| 70>    S       -2.60857       -12.30347        10.72023
| 71>    C       -1.39528       -14.65574        11.58275
| 72>    C       -1.27896       -15.31623        10.36782
| 73>    C       -1.34192       -14.87910         9.05076
| 74>    C       -1.73034       -15.85789         8.00993
| 75>    O       -1.84639       -17.05926         8.13853
| 76>    C       -1.99502       -15.05685         6.79345
| 77>    C       -2.48792       -15.45199         5.58600
| 78>    C       -2.70803       -14.48085         4.58002
| 79>    C       -2.40656       -13.11608         4.85234
| 80>    C       -2.64636       -12.15241         3.85455
| 81>    C       -3.15838       -12.54513         2.64946
| 82>    C       -3.45522       -13.88177         2.35932
| 83>    C       -3.22864       -14.83070         3.31867
| 84>    F       -3.39420       -11.61833         1.69667
| 85>    C       -1.87510       -12.73988         6.10983
| 86>    C       -1.67206       -13.69719         7.06300
| 87>    C       -1.14597       -13.61398         8.42546
| 88>    C       -0.43855       -12.53884         8.93316
| 89>    C        0.31629       -12.61248        10.11644
| 90>    N        0.95570       -12.64591        11.07075
| 91>    C       -0.32932       -11.29124         8.29794
| 92>    N       -0.24309       -10.23446         7.85234
| 93>    H       -4.28823         2.21545         2.36899
| 94>    H       -1.70264        -0.25326        -1.14238
| 95>    H       -1.77399         3.08690         3.24739
| 96>    H       -6.98882        -0.63197        -2.46788
| 97>    H      -11.63380         1.36937        -1.49406
| 98>    H      -12.21109         1.17665         0.98613
| 99>    H      -10.79889         1.38920         2.02977
|100>    H      -11.44707        -0.22710         1.74598
|101>    H       -8.83675        -0.08416         2.30278
|102>    H       -7.60327        -2.20653         0.48052
|103>    H       -6.99413        -3.35005         2.50678
|104>    H       -7.44898        -0.69372         3.95485
|105>    H       -6.73269        -3.91877         9.01927
|106>    H       -4.01923        -4.52822         7.74663
|107>    H       -4.77257        -7.26887         6.16853
|108>    H       -5.36628        -6.22645         4.87700
|109>    H       -2.80430        -5.81175         6.48073
|110>    H       -3.48394        -4.61704         5.35822
|111>    H       -2.97597        -6.19907         4.77849
|112>    H       -6.73578        -7.10834         7.70730
|113>    H       -7.61252        -5.58472         7.82526
|114>    H       -7.35567        -7.34524         5.35197
|115>    H       -7.99089        -5.69895         5.30634
|116>    H       -8.80924        -6.94198         6.25706
|117>    H       -3.63059        -4.90581        10.88648
|118>    H       -5.39814        -4.92398        11.17541
|119>    H       -4.44035        -7.39568         8.30870
|120>    H       -4.24018        -6.67167        12.22844
|121>    H       -3.46797        -8.75735        13.47271
|122>    H       -2.51931       -10.94916        14.09018
|123>    H       -1.51832       -13.32238        14.01259
|124>    H       -1.14467       -15.23882        12.46083
|125>    H       -1.19499       -16.39748        10.44091
|126>    H       -2.71531       -16.49051         5.39683
|127>    H       -2.42425       -11.11320         4.04148
|128>    H       -3.85512       -14.13423         1.39005
|129>    H       -3.45069       -15.86844         3.11913
|130>    H       -1.65443       -11.69964         6.28959
|131> *
|132>
|133>                          ****END OF INPUT****

CARTESIAN COORDINATES (ANGSTROEM)
---------------------------------
  C     -4.617100   -0.506080   -1.158510
  C     -4.323030   -1.438940   -2.117620
  C     -3.011910   -1.786570   -2.503960
  N     -1.966790   -2.097720   -2.862070
  C     -5.288740   -2.207980   -2.801460
  N     -6.021320   -2.889000   -3.365030
  C     -3.653270    0.203040   -0.328130
  C     -4.359320    0.915490    0.672290
  C     -3.725160    1.683530    1.618250
  C     -2.328840    1.756630    1.571170
  C     -1.633040    1.046620    0.563340
  C     -2.273870    0.264840   -0.390110
  S      0.083310    1.288890    0.679770
  C     -0.152800    2.325910    2.061370
  C     -1.449480    2.482500    2.420120
  Br     1.333250    3.104190    2.899590
  C     -5.810550    0.706720    0.498860
  O     -6.690640    1.184080    1.185710
  C     -5.945820   -0.124230   -0.717290
  C     -7.091470   -0.298630   -1.440740
  C     -8.414300    0.030350   -1.062330
  S     -9.484330    0.610160   -2.317300
  C    -10.708660    0.935860   -1.166530
  C    -10.361840    0.591730    0.105390
  C    -11.261160    0.742230    1.285440
  C     -9.051140    0.039220    0.176170
  C     -8.529720   -0.553380    1.379880
  C     -7.805420   -1.691150    1.411250
  C     -7.314690   -2.321070    2.595680
  C     -7.203030   -1.735130    3.810360
  C     -6.751020   -2.439400    4.957010
  N     -6.454180   -3.704300    5.010520
  C     -6.081630   -4.072280    6.239530
  C     -6.075460   -3.072810    7.190760
  S     -6.584490   -1.585690    6.516440
  C     -5.792920   -3.660840    8.514650
  C     -5.000070   -4.902340    8.081430
  C     -5.716190   -5.427570    6.808320
  C     -4.842840   -6.231750    5.833630
  C     -3.441400   -5.675020    5.609290
  C     -7.003200   -6.201700    7.160780
  C     -7.838370   -6.569730    5.939180
  N     -4.801990   -5.655900    9.296680
  C     -4.612960   -4.769530   10.428030
  S     -4.718020   -3.025880    9.845790
  C     -4.439370   -6.949720    9.292100
  C     -4.106620   -7.770500   10.332530
  C     -4.006140   -7.597710   11.736570
  C     -3.600440   -8.710980   12.406880
  C     -3.351330   -9.831810   11.580990
  S     -3.679160   -9.441100    9.917850
  C     -2.874620  -11.078010   11.943320
  C     -2.447150  -11.548090   13.200220
  C     -1.916100  -12.804170   13.158530
  C     -1.874500  -13.384540   11.868330
  S     -2.608570  -12.303470   10.720230
  C     -1.395280  -14.655740   11.582750
  C     -1.278960  -15.316230   10.367820
  C     -1.341920  -14.879100    9.050760
  C     -1.730340  -15.857890    8.009930
  O     -1.846390  -17.059260    8.138530
  C     -1.995020  -15.056850    6.793450
  C     -2.487920  -15.451990    5.586000
  C     -2.708030  -14.480850    4.580020
  C     -2.406560  -13.116080    4.852340
  C     -2.646360  -12.152410    3.854550
  C     -3.158380  -12.545130    2.649460
  C     -3.455220  -13.881770    2.359320
  C     -3.228640  -14.830700    3.318670
  F     -3.394200  -11.618330    1.696670
  C     -1.875100  -12.739880    6.109830
  C     -1.672060  -13.697190    7.063000
  C     -1.145970  -13.613980    8.425460
  C     -0.438550  -12.538840    8.933160
  C      0.316290  -12.612480   10.116440
  N      0.955700  -12.645910   11.070750
  C     -0.329320  -11.291240    8.297940
  N     -0.243090  -10.234460    7.852340
  H     -4.288230    2.215450    2.368990
  H     -1.702640   -0.253260   -1.142380
  H     -1.773990    3.086900    3.247390
  H     -6.988820   -0.631970   -2.467880
  H    -11.633800    1.369370   -1.494060
  H    -12.211090    1.176650    0.986130
  H    -10.798890    1.389200    2.029770
  H    -11.447070   -0.227100    1.745980
  H     -8.836750   -0.084160    2.302780
  H     -7.603270   -2.206530    0.480520
  H     -6.994130   -3.350050    2.506780
  H     -7.448980   -0.693720    3.954850
  H     -6.732690   -3.918770    9.019270
  H     -4.019230   -4.528220    7.746630
  H     -4.772570   -7.268870    6.168530
  H     -5.366280   -6.226450    4.877000
  H     -2.804300   -5.811750    6.480730
  H     -3.483940   -4.617040    5.358220
  H     -2.975970   -6.199070    4.778490
  H     -6.735780   -7.108340    7.707300
  H     -7.612520   -5.584720    7.825260
  H     -7.355670   -7.345240    5.351970
  H     -7.990890   -5.698950    5.306340
  H     -8.809240   -6.941980    6.257060
  H     -3.630590   -4.905810   10.886480
  H     -5.398140   -4.923980   11.175410
  H     -4.440350   -7.395680    8.308700
  H     -4.240180   -6.671670   12.228440
  H     -3.467970   -8.757350   13.472710
  H     -2.519310  -10.949160   14.090180
  H     -1.518320  -13.322380   14.012590
  H     -1.144670  -15.238820   12.460830
  H     -1.194990  -16.397480   10.440910
  H     -2.715310  -16.490510    5.396830
  H     -2.424250  -11.113200    4.041480
  H     -3.855120  -14.134230    1.390050
  H     -3.450690  -15.868440    3.119130
  H     -1.654430  -11.699640    6.289590

 Total Charge           Charge          ....    0
 Multiplicity           Mult            ....    1
 Number of Electrons    NEL             ....  608
 Basis Dimension        Dim             .... 1324

ORBITAL ENERGIES
----------------

  NO   OCC          E(Eh)            E(eV)
   0   2.0000    -482.888949    -13140.0763
   1   2.0000     -88.980874     -2421.2927
   2   2.0000     -88.979273     -2421.2491
   3   2.0000     -88.971057     -2421.0255
   4   2.0000     -88.959743     -2420.7177
   5   2.0000     -88.950788     -2420.4740
   6   2.0000     -88.945801     -2420.3383
   7   2.0000     -62.566653     -1702.5252
   8   2.0000     -56.400609     -1534.7386
   9   2.0000     -56.397883     -1534.6644
  10   2.0000     -56.397856     -1534.6637
  11   2.0000     -24.767293      -673.9523
  12   2.0000     -19.222455      -523.0696
  13   2.0000     -19.180652      -521.9321
  14   2.0000     -14.485729      -394.1767
  15   2.0000     -14.422439      -392.4545
  16   2.0000     -14.418077      -392.3358
  17   2.0000     -14.417988      -392.3334
  18   2.0000     -14.384529      -391.4229
  19   2.0000     -14.379365      -391.2824
  20   2.0000     -10.371632      -282.2265
  21   2.0000     -10.362692      -281.9832
  22   2.0000     -10.361371      -281.9472
  23   2.0000     -10.358484      -281.8687
  24   2.0000     -10.351094      -281.6676
  25   2.0000     -10.348057      -281.5850
  26   2.0000     -10.345760      -281.5225
  27   2.0000     -10.344310      -281.4830
  28   2.0000     -10.338057      -281.3128
  29   2.0000     -10.335993      -281.2567
  30   2.0000     -10.332286      -281.1558
  31   2.0000     -10.331226      -281.1269
  32   2.0000     -10.329308      -281.0748
  33   2.0000     -10.329291      -281.0743
  34   2.0000     -10.320921      -280.8465
  35   2.0000     -10.320598      -280.8377
  36   2.0000     -10.317414      -280.7511
  37   2.0000     -10.316203      -280.7182
  38   2.0000     -10.315850      -280.7086
  39   2.0000     -10.314848      -280.6813
  40   2.0000     -10.311793      -280.5982
  41   2.0000     -10.311704      -280.5957
  42   2.0000     -10.311643      -280.5941
  43   2.0000     -10.309785      -280.5435
  44   2.0000     -10.309692      -280.5410
  45   2.0000     -10.309186      -280.5272
  46   2.0000     -10.308814      -280.5171
  47   2.0000     -10.305250      -280.4201
  48   2.0000     -10.303623      -280.3758
  49   2.0000     -10.303145      -280.3628
  50   2.0000     -10.302727      -280.3515
  51   2.0000     -10.300399      -280.2881
  52   2.0000     -10.298909      -280.2476
  53   2.0000     -10.298310      -280.2313
  54   2.0000     -10.296897      -280.1928
  55   2.0000     -10.295645      -280.1588
  56   2.0000     -10.294288      -280.1218
  57   2.0000     -10.293856      -280.1101
  58   2.0000     -10.292598      -280.0758
  59   2.0000     -10.291930      -280.0577
  60   2.0000     -10.290362      -280.0150
  61   2.0000     -10.284565      -279.8572
  62   2.0000     -10.283673      -279.8330
  63   2.0000     -10.282763      -279.8082
  64   2.0000     -10.282406      -279.7985
  65   2.0000     -10.281157      -279.7645
  66   2.0000     -10.280765      -279.7538
  67   2.0000     -10.277018      -279.6519
  68   2.0000     -10.276330      -279.6332
  69   2.0000     -10.275975      -279.6235
  70   2.0000     -10.275429      -279.6086
  71   2.0000     -10.274831      -279.5924
  72   2.0000     -10.272667      -279.5335
  73   2.0000     -10.272541      -279.5301
  74   2.0000     -10.269630      -279.4508
  75   2.0000     -10.268116      -279.4096
  76   2.0000     -10.268063      -279.4082
  77   2.0000     -10.264169      -279.3022
  78   2.0000     -10.263027      -279.2712
  79   2.0000     -10.260199      -279.1942
  80   2.0000     -10.260102      -279.1916
  81   2.0000     -10.256802      -279.1018
  82   2.0000      -8.796074      -239.3534
  83   2.0000      -8.076074      -219.7611
  84   2.0000      -8.075216      -219.7378
  85   2.0000      -8.067211      -219.5200
  86   2.0000      -8.055785      -219.2090
  87   2.0000      -8.045493      -218.9290
  88   2.0000      -8.041962      -218.8329
  89   2.0000      -6.632398      -180.4767
  90   2.0000      -6.617813      -180.0798
  91   2.0000      -6.617573      -180.0733
  92   2.0000      -6.045122      -164.4961
  93   2.0000      -6.044905      -164.4902
  94   2.0000      -6.041272      -164.3914
  95   2.0000      -6.040624      -164.3737
  96   2.0000      -6.038439      -164.3143
  97   2.0000      -6.036454      -164.2603
  98   2.0000      -6.036452      -164.2602
  99   2.0000      -6.032201      -164.1445
 100   2.0000      -6.029427      -164.0690
 101   2.0000      -6.025526      -163.9629
 102   2.0000      -6.021443      -163.8518
 103   2.0000      -6.016741      -163.7238
 104   2.0000      -6.014859      -163.6726
 105   2.0000      -6.012560      -163.6101
 106   2.0000      -6.010704      -163.5596
 107   2.0000      -6.009165      -163.5177
 108   2.0000      -6.007446      -163.4709
 109   2.0000      -6.000399      -163.2792
 110   2.0000      -2.748268       -74.7842
 111   2.0000      -2.744132       -74.6716
 112   2.0000      -2.744051       -74.6694
 113   2.0000      -2.732414       -74.3528
 114   2.0000      -2.732397       -74.3523
 115   2.0000      -1.280698       -34.8496
 116   2.0000      -1.136548       -30.9270
 117   2.0000      -1.103820       -30.0365
 118   2.0000      -1.094393       -29.7799
 119   2.0000      -1.079979       -29.3877
 120   2.0000      -1.026787       -27.9403
 121   2.0000      -1.016654       -27.6646
 122   2.0000      -1.004417       -27.3316
 123   2.0000      -1.003867       -27.3166
 124   2.0000      -0.996790       -27.1240
 125   2.0000      -0.992839       -27.0165
 126   2.0000      -0.987488       -26.8709
 127   2.0000      -0.980927       -26.6924
 128   2.0000      -0.972741       -26.4696
 129   2.0000      -0.970874       -26.4188
 130   2.0000      -0.960501       -26.1366
 131   2.0000      -0.947154       -25.7734
 132   2.0000      -0.946995       -25.7690
 133   2.0000      -0.935807       -25.4646
 134   2.0000      -0.925184       -25.1755
 135   2.0000      -0.912107       -24.8197
 136   2.0000      -0.910970       -24.7888
 137   2.0000      -0.910280       -24.7700
 138   2.0000      -0.900983       -24.5170
 139   2.0000      -0.890496       -24.2316
 140   2.0000      -0.889751       -24.2114
 141   2.0000      -0.886757       -24.1299
 142   2.0000      -0.878653       -23.9094
 143   2.0000      -0.871051       -23.7025
 144   2.0000      -0.868253       -23.6264
 145   2.0000      -0.863463       -23.4960
 146   2.0000      -0.857524       -23.3344
 147   2.0000      -0.855053       -23.2672
 148   2.0000      -0.852179       -23.1890
 149   2.0000      -0.851001       -23.1569
 150   2.0000      -0.833478       -22.6801
 151   2.0000      -0.831012       -22.6130
 152   2.0000      -0.825940       -22.4750
 153   2.0000      -0.819688       -22.3049
 154   2.0000      -0.809122       -22.0173
 155   2.0000      -0.803818       -21.8730
 156   2.0000      -0.797813       -21.7096
 157   2.0000      -0.791423       -21.5357
 158   2.0000      -0.777282       -21.1509
 159   2.0000      -0.767313       -20.8797
 160   2.0000      -0.765153       -20.8209
 161   2.0000      -0.757524       -20.6133
 162   2.0000      -0.750109       -20.4115
 163   2.0000      -0.737248       -20.0615
 164   2.0000      -0.727930       -19.8080
 165   2.0000      -0.722535       -19.6612
 166   2.0000      -0.714733       -19.4489
 167   2.0000      -0.711755       -19.3678
 168   2.0000      -0.706732       -19.2312
 169   2.0000      -0.697925       -18.9915
 170   2.0000      -0.696284       -18.9469
 171   2.0000      -0.689046       -18.7499
 172   2.0000      -0.685574       -18.6554
 173   2.0000      -0.684380       -18.6229
 174   2.0000      -0.682685       -18.5768
 175   2.0000      -0.674683       -18.3591
 176   2.0000      -0.662710       -18.0332
 177   2.0000      -0.660586       -17.9755
 178   2.0000      -0.656509       -17.8645
 179   2.0000      -0.651069       -17.7165
 180   2.0000      -0.649550       -17.6752
 181   2.0000      -0.647403       -17.6167
 182   2.0000      -0.635647       -17.2968
 183   2.0000      -0.629059       -17.1176
 184   2.0000      -0.627368       -17.0716
 185   2.0000      -0.623736       -16.9727
 186   2.0000      -0.622126       -16.9289
 187   2.0000      -0.613045       -16.6818
 188   2.0000      -0.608159       -16.5489
 189   2.0000      -0.607728       -16.5371
 190   2.0000      -0.602828       -16.4038
 191   2.0000      -0.602176       -16.3860
 192   2.0000      -0.599587       -16.3156
 193   2.0000      -0.587303       -15.9813
 194   2.0000      -0.583626       -15.8813
 195   2.0000      -0.581033       -15.8107
 196   2.0000      -0.573458       -15.6046
 197   2.0000      -0.568253       -15.4630
 198   2.0000      -0.564218       -15.3531
 199   2.0000      -0.561981       -15.2923
 200   2.0000      -0.559954       -15.2371
 201   2.0000      -0.555450       -15.1146
 202   2.0000      -0.553479       -15.0609
 203   2.0000      -0.547102       -14.8874
 204   2.0000      -0.545109       -14.8332
 205   2.0000      -0.543540       -14.7905
 206   2.0000      -0.541527       -14.7357
 207   2.0000      -0.540471       -14.7070
 208   2.0000      -0.539064       -14.6687
 209   2.0000      -0.538946       -14.6655
 210   2.0000      -0.536328       -14.5942
 211   2.0000      -0.532218       -14.4824
 212   2.0000      -0.530883       -14.4461
 213   2.0000      -0.529863       -14.4183
 214   2.0000      -0.523811       -14.2536
 215   2.0000      -0.523568       -14.2470
 216   2.0000      -0.519587       -14.1387
 217   2.0000      -0.518247       -14.1022
 218   2.0000      -0.515397       -14.0247
 219   2.0000      -0.513445       -13.9716
 220   2.0000      -0.509976       -13.8772
 221   2.0000      -0.509201       -13.8561
 222   2.0000      -0.506809       -13.7910
 223   2.0000      -0.503954       -13.7133
 224   2.0000      -0.501321       -13.6416
 225   2.0000      -0.500313       -13.6142
 226   2.0000      -0.499725       -13.5982
 227   2.0000      -0.497586       -13.5400
 228   2.0000      -0.497316       -13.5327
 229   2.0000      -0.495073       -13.4716
 230   2.0000      -0.493164       -13.4197
 231   2.0000      -0.490397       -13.3444
 232   2.0000      -0.486904       -13.2493
 233   2.0000      -0.482756       -13.1364
 234   2.0000      -0.482161       -13.1203
 235   2.0000      -0.479089       -13.0367
 236   2.0000      -0.475719       -12.9450
 237   2.0000      -0.474363       -12.9081
 238   2.0000      -0.471175       -12.8213
 239   2.0000      -0.469178       -12.7670
 240   2.0000      -0.465781       -12.6745
 241   2.0000      -0.463676       -12.6173
 242   2.0000      -0.463424       -12.6104
 243   2.0000      -0.461901       -12.5690
 244   2.0000      -0.457767       -12.4565
 245   2.0000      -0.456731       -12.4283
 246   2.0000      -0.454445       -12.3661
 247   2.0000      -0.453232       -12.3331
 248   2.0000      -0.452374       -12.3097
 249   2.0000      -0.452004       -12.2997
 250   2.0000      -0.450822       -12.2675
 251   2.0000      -0.448904       -12.2153
 252   2.0000      -0.446479       -12.1493
 253   2.0000      -0.445954       -12.1350
 254   2.0000      -0.442427       -12.0391
 255   2.0000      -0.440309       -11.9814
 256   2.0000      -0.437008       -11.8916
 257   2.0000      -0.434945       -11.8355
 258   2.0000      -0.434329       -11.8187
 259   2.0000      -0.433200       -11.7880
 260   2.0000      -0.432334       -11.7644
 261   2.0000      -0.429997       -11.7008
 262   2.0000      -0.427383       -11.6297
 263   2.0000      -0.425037       -11.5659
 264   2.0000      -0.423418       -11.5218
 265   2.0000      -0.420719       -11.4484
 266   2.0000      -0.420226       -11.4349
 267   2.0000      -0.416584       -11.3358
 268   2.0000      -0.413051       -11.2397
 269   2.0000      -0.412505       -11.2248
 270   2.0000      -0.412046       -11.2123
 271   2.0000      -0.411306       -11.1922
 272   2.0000      -0.406120       -11.0511
 273   2.0000      -0.404078       -10.9955
 274   2.0000      -0.398924       -10.8553
 275   2.0000      -0.397974       -10.8294
 276   2.0000      -0.395649       -10.7662
 277   2.0000      -0.394446       -10.7334
 278   2.0000      -0.392163       -10.6713
 279   2.0000      -0.385549       -10.4913
 280   2.0000      -0.382049       -10.3961
 281   2.0000      -0.378309       -10.2943
 282   2.0000      -0.374642       -10.1945
 283   2.0000      -0.371708       -10.1147
 284   2.0000      -0.364505        -9.9187
 285   2.0000      -0.360835        -9.8188
 286   2.0000      -0.359027        -9.7696
 287   2.0000      -0.352110        -9.5814
 288   2.0000      -0.351239        -9.5577
 289   2.0000      -0.344028        -9.3615
 290   2.0000      -0.338980        -9.2241
 291   2.0000      -0.331561        -9.0222
 292   2.0000      -0.324080        -8.8187
 293   2.0000      -0.320229        -8.7139
 294   2.0000      -0.319104        -8.6833
 295   2.0000      -0.316472        -8.6116
 296   2.0000      -0.304794        -8.2939
 297   2.0000      -0.299724        -8.1559
 298   2.0000      -0.293001        -7.9730
 299   2.0000      -0.285717        -7.7748
 300   2.0000      -0.279716        -7.6114
 301   2.0000      -0.267143        -7.2693
 302   2.0000      -0.266004        -7.2383
 303   2.0000      -0.217407        -5.9159
 304   0.0000      -0.097380        -2.6498
 305   0.0000      -0.082521        -2.2455
 306   0.0000      -0.072019        -1.9597
 307   0.0000      -0.045081        -1.2267
 308   0.0000      -0.034694        -0.9441

MULLIKEN ATOMIC CHARGES
-----------------------
   0 C :    0.288426
   1 C :   -0.337462
   2 C :   -0.184890
   3 N :    0.154591
   4 C :   -0.214927
   5 N :    0.167370
   6 C :    0.019405
   7 C :   -0.012846
   8 C :   -0.074568
   9 C :    0.117907
  10 C :   -0.089884
  11 C :   -0.022394
  12 S :    0.189355
  13 C :   -0.123467
  14 C :    0.037230
  15 Br:    0.025756
  16 C :    0.165089
  17 O :   -0.155591
  18 C :   -0.096281
  19 C :    0.011634
  20 C :   -0.192426
  21 S :    0.145779
  22 C :   -0.106152
  23 C :   -0.093684
  24 C :    0.114647
  25 C :    0.162503
  26 C :    0.023323
  27 C :    0.003126
  28 C :    0.013499
  29 C :    0.056647
  30 C :   -0.102505
  31 N :   -0.039157
  32 C :   -0.040933
  33 C :   -0.050859
  34 S :    0.132439
  35 C :   -0.125735
  36 C :    0.077515
  37 C :   -0.205229
  38 C :    0.048140
  39 C :    0.016561
  40 C :    0.057711
  41 C :    0.029050
  42 N :   -0.230565
  43 C :    0.075342
  44 S :   -0.004228
  45 C :    0.156899
  46 C :   -0.117641
  47 C :    0.041666
  48 C :   -0.000011
  49 C :   -0.008432
  50 S :    0.122122
  51 C :   -0.073049
  52 C :    0.039746
  53 C :    0.046527
  54 C :   -0.034833
  55 S :    0.121296
  56 C :   -0.000950
  57 C :    0.023104
  58 C :   -0.153515
  59 C :    0.133265
  60 O :   -0.161386
  61 C :    0.018458
  62 C :   -0.097151
  63 C :    0.100919
  64 C :    0.111008
  65 C :   -0.108393
  66 C :    0.302788
  67 C :   -0.035337
  68 C :   -0.015144
  69 F :   -0.201228
  70 C :   -0.112658
  71 C :    0.053250
  72 C :    0.282045
  73 C :   -0.377252
  74 C :   -0.212344
  75 N :    0.149591
  76 C :   -0.169758
  77 N :    0.113788
  78 H :   -0.014216
  79 H :   -0.003642
  80 H :   -0.003992
  81 H :    0.030288
  82 H :    0.027474
  83 H :    0.011796
  84 H :    0.037567
  85 H :    0.035434
  86 H :   -0.008139
  87 H :    0.008096
  88 H :    0.012606
  89 H :   -0.006977
  90 H :    0.069104
  91 H :    0.042972
  92 H :    0.011823
  93 H :    0.028328
  94 H :    0.019286
  95 H :    0.024821
  96 H :    0.025422
  97 H :    0.001205
  98 H :   -0.006825
  99 H :    0.019422
 100 H :    0.025684
 101 H :    0.013403
 102 H :    0.073902
 103 H :    0.074883
 104 H :    0.012439
 105 H :   -0.014243
 106 H :   -0.008807
 107 H :   -0.017148
 108 H :   -0.014371
 109 H :   -0.011126
 110 H :    0.017194
 111 H :   -0.021143
 112 H :   -0.015835
 113 H :   -0.006722
 114 H :   -0.015573
 115 H :   -0.021039
Sum of atomic charges:   -0.0000000

LOEWDIN ATOMIC CHARGES
----------------------
   0 C :    0.075462
   1 C :   -0.140805
   2 C :   -0.019266
   3 N :   -0.050551
   4 C :   -0.027488
   5 N :   -0.050097
   6 C :   -0.021751
   7 C :   -0.047878
   8 C :    0.019108
   9 C :   -0.032372
  10 C :   -0.144502
  11 C :   -0.008580
  12 S :    0.435150
  13 C :   -0.270879
  14 C :   -0.071625
  15 Br:    0.138671
  16 C :    0.085240
  17 O :   -0.134633
  18 C :   -0.096352
  19 C :    0.051643
  20 C :   -0.182671
  21 S :    0.456206
  22 C :   -0.168405
  23 C :   -0.055572
  24 C :   -0.043322
  25 C :   -0.017958
  26 C :    0.015090
  27 C :   -0.029883
  28 C :    0.012330
  29 C :   -0.060415
  30 C :   -0.109074
  31 N :   -0.094682
  32 C :   -0.026471
  33 C :   -0.226325
  34 S :    0.417756
  35 C :   -0.128829
  36 C :    0.032012
  37 C :   -0.045771
  38 C :   -0.026219
  39 C :   -0.056129
  40 C :   -0.020921
  41 C :   -0.054861
  42 N :   -0.014123
  43 C :   -0.048984
  44 S :    0.234955
  45 C :    0.049706
  46 C :   -0.221264
  47 C :   -0.014278
  48 C :   -0.054409
  49 C :   -0.128899
  50 S :    0.407466
  51 C :   -0.224207
  52 C :   -0.019522
  53 C :   -0.048451
  54 C :   -0.112154
  55 S :    0.474865
  56 C :   -0.079404
  57 C :    0.031984
  58 C :   -0.122550
  59 C :    0.080039
  60 O :   -0.162417
  61 C :   -0.055483
  62 C :    0.024352
  63 C :   -0.024678
  64 C :    0.001674
  65 C :   -0.049441
  66 C :    0.087827
  67 C :   -0.048675
  68 C :    0.001812
  69 F :   -0.075354
  70 C :   -0.008547
  71 C :   -0.007359
  72 C :    0.031318
  73 C :   -0.183122
  74 C :   -0.028416
  75 N :   -0.072491
  76 C :   -0.020430
  77 N :   -0.090866
  78 H :    0.039162
  79 H :    0.041621
  80 H :    0.038412
  81 H :    0.045929
  82 H :    0.026990
  83 H :    0.034686
  84 H :    0.038571
  85 H :    0.039124
  86 H :    0.029632
  87 H :    0.033080
  88 H :    0.037516
  89 H :    0.028309
  90 H :    0.027517
  91 H :    0.025892
  92 H :    0.019380
  93 H :    0.034125
  94 H :    0.021487
  95 H :    0.026485
  96 H :    0.034234
  97 H :    0.019769
  98 H :    0.019584
  99 H :    0.024751
 100 H :    0.026263
 101 H :    0.026899
 102 H :    0.028076
 103 H :    0.021617
 104 H :    0.036971
 105 H :    0.031802
 106 H :    0.034282
 107 H :    0.031061
 108 H :    0.033632
 109 H :    0.037455
 110 H :    0.042964
 111 H :    0.035606
 112 H :    0.037686
 113 H :    0.037713
 114 H :    0.032881
 115 H :    0.033980

  Mayer bond orders larger than 0.100000
B(  0-C ,  1-C ) :   1.6474 B(  0-C ,  6-C ) :   1.0086 B(  0-C , 18-C ) :   1.0579
B(  1-C ,  2-C ) :   1.1378 B(  1-C ,  4-C ) :   1.1433 B(  2-C ,  3-N ) :   2.9764
B(  4-C ,  5-N ) :   3.0020 B(  6-C ,  7-C ) :   1.2717 B(  6-C , 11-C ) :   1.4118
B(  7-C ,  8-C ) :   1.4265 B(  7-C , 16-C ) :   0.9461 B(  8-C ,  9-C ) :   1.2466
B(  8-C , 78-H ) :   1.0162 B(  9-C , 10-C ) :   1.3060 B(  9-C , 14-C ) :   1.1625
B( 10-C , 11-C ) :   1.3287 B( 10-C , 12-S ) :   1.0851 B( 11-C , 79-H ) :   0.9810
B( 12-S , 13-C ) :   1.0883 B( 13-C , 14-C ) :   1.6166 B( 13-C , 15-Br) :   1.0202
B( 14-C , 80-H ) :   1.0005 B( 16-C , 17-O ) :   2.1767 B( 16-C , 18-C ) :   0.9591
B( 18-C , 19-C ) :   1.6075 B( 19-C , 20-C ) :   1.1761 B( 19-C , 81-H ) :   0.9333
B( 20-C , 21-S ) :   1.1162 B( 20-C , 25-C ) :   1.4229 B( 21-S , 22-C ) :   1.1744
B( 22-C , 23-C ) :   1.5553 B( 22-C , 82-H ) :   0.9662 B( 23-C , 24-C ) :   1.0956
B( 23-C , 25-C ) :   1.2671 B( 24-C , 83-H ) :   0.9493 B( 24-C , 84-H ) :   0.9445
B( 24-C , 85-H ) :   0.9429 B( 25-C , 26-C ) :   1.0847 B( 26-C , 27-C ) :   1.7467
B( 26-C , 86-H ) :   0.9334 B( 27-C , 28-C ) :   1.1171 B( 27-C , 87-H ) :   0.9709
B( 28-C , 29-C ) :   1.7255 B( 28-C , 88-H ) :   0.9758 B( 29-C , 30-C ) :   1.0974
B( 29-C , 89-H ) :   0.9433 B( 30-C , 31-N ) :   1.6661 B( 30-C , 34-S ) :   1.0919
B( 31-N , 32-C ) :   1.3737 B( 32-C , 33-C ) :   1.5517 B( 32-C , 37-C ) :   0.9592
B( 33-C , 34-S ) :   1.1075 B( 33-C , 35-C ) :   1.0401 B( 35-C , 36-C ) :   0.9773
B( 35-C , 44-S ) :   1.0003 B( 35-C , 90-H ) :   0.8839 B( 36-C , 37-C ) :   0.9806
B( 36-C , 42-N ) :   0.9474 B( 36-C , 91-H ) :   0.9195 B( 37-C , 38-C ) :   1.0343
B( 37-C , 40-C ) :   1.0117 B( 38-C , 39-C ) :   1.1154 B( 38-C , 92-H ) :   0.9376
B( 38-C , 93-H ) :   0.9261 B( 39-C , 94-H ) :   0.9579 B( 39-C , 95-H ) :   0.9628
B( 39-C , 96-H ) :   0.9571 B( 40-C , 41-C ) :   1.1100 B( 40-C , 97-H ) :   0.9383
B( 40-C , 98-H ) :   0.9394 B( 41-C , 99-H ) :   0.9630 B( 41-C ,100-H ) :   0.9606
B( 41-C ,101-H ) :   0.9616 B( 42-N , 43-C ) :   0.9435 B( 42-N , 45-C ) :   1.2856
B( 43-C , 44-S ) :   1.0007 B( 43-C ,102-H ) :   0.9425 B( 43-C ,103-H ) :   0.9447
B( 45-C , 46-C ) :   1.5287 B( 45-C ,104-H ) :   0.9343 B( 46-C , 47-C ) :   1.1639
B( 46-C , 50-S ) :   1.0184 B( 47-C , 48-C ) :   1.5632 B( 47-C ,105-H ) :   0.9949
B( 48-C , 49-C ) :   1.2171 B( 48-C ,106-H ) :   0.9955 B( 49-C , 50-S ) :   1.1273
B( 49-C , 51-C ) :   1.4149 B( 51-C , 52-C ) :   1.2374 B( 51-C , 55-S ) :   1.0390
B( 52-C , 53-C ) :   1.5291 B( 52-C ,107-H ) :   0.9907 B( 53-C , 54-C ) :   1.2101
B( 53-C ,108-H ) :   0.9965 B( 54-C , 55-S ) :   1.1364 B( 54-C , 56-C ) :   1.3785
B( 56-C , 57-C ) :   1.4029 B( 56-C ,109-H ) :   0.9544 B( 57-C , 58-C ) :   1.3933
B( 57-C ,110-H ) :   0.9326 B( 58-C , 59-C ) :   0.9735 B( 58-C , 72-C ) :   1.1782
B( 59-C , 60-O ) :   2.2488 B( 59-C , 61-C ) :   0.9106 B( 61-C , 62-C ) :   1.4868
B( 61-C , 71-C ) :   1.2168 B( 62-C , 63-C ) :   1.1712 B( 62-C ,111-H ) :   1.0156
B( 63-C , 64-C ) :   1.2663 B( 63-C , 68-C ) :   1.2439 B( 64-C , 65-C ) :   1.2063
B( 64-C , 70-C ) :   1.1832 B( 65-C , 66-C ) :   1.4357 B( 65-C ,112-H ) :   1.0067
B( 66-C , 67-C ) :   1.2637 B( 66-C , 69-F ) :   1.0773 B( 67-C , 68-C ) :   1.4499
B( 67-C ,113-H ) :   0.9929 B( 68-C ,114-H ) :   0.9962 B( 70-C , 71-C ) :   1.4822
B( 70-C ,115-H ) :   0.9940 B( 71-C , 72-C ) :   0.9881 B( 72-C , 73-C ) :   1.5054
B( 73-C , 74-C ) :   1.1717 B( 73-C , 76-C ) :   1.1524 B( 74-C , 75-N ) :   3.0063
B( 76-C , 77-N ) :   2.9576

-----------------------------------------------------------------------------
         ABSORPTION SPECTRUM VIA TRANSITION ELECTRIC DIPOLE MOMENTS
-----------------------------------------------------------------------------
State   Energy  Wavelength   fosc         T2         TX        TY        TZ
        (cm-1)    (nm)                  (au**2)     (au)      (au)      (au)
-----------------------------------------------------------------------------
   0   13772.4    726.1   0.666971267  15.94311   1.80679  -3.45295  -0.86935
   1   18966.9    527.2   0.089331176   1.55054   0.53074   0.39273  -1.05575
   2   19663.8    508.5   0.290585445   4.86498  -1.23822  -0.64170   1.70881
   3   22358.5    447.3   0.058146258   0.85616   0.02868  -0.84202   0.38254
   4   24133.7    414.4   0.022384724   0.30535   0.14446   0.24767  -0.47238
   5   24308.4    411.4   0.228023134   3.08814   1.55798  -0.75517   0.30095
   6   24512.3    408.0   0.155201772   2.08444  -0.27593  -1.37151   0.35675
   7   24976.6    400.4   0.110989153   1.46293   0.65434  -0.66662   0.76837
   8   26258.2    380.8   0.048666216   0.61015   0.03146  -0.31485   0.71416
   9   27364.7    365.4   0.237931554   2.86244  -1.34037  -0.98314  -0.31510
  10   28069.3    356.3   0.816715046   9.57886   0.60995  -1.76965   2.46479
  11   28188.9    354.7   0.005966301   0.06968   0.12558   0.00749   0.23206
  12   28382.8    352.3   0.122064115   1.41582  -0.95186   0.62686   0.34180
  13   29184.6    342.6   0.001191900   0.01345   0.04625   0.05331   0.09200
  14   29674.9    337.0   0.009696783   0.10758   0.02053   0.32194  -0.05923
  15   29729.2    336.4   0.008461075   0.09370   0.29791   0.07021  -0.00366
  16   29793.4    335.6   0.002399556   0.02651   0.09813  -0.01649   0.12889
  17   29845.4    335.1   0.014381305   0.15863  -0.30091  -0.21199  -0.15215
  18   30374.1    329.2   0.152840611   1.65657   0.95907   0.43020   0.74275
  19   31358.6    318.9   0.236454080   2.48237   0.10120  -0.80255   1.35205
  20   31694.7    315.5   0.467481700   4.85572  -1.33372   0.86694  -1.52490
  21   32096.5    311.6   0.249545006   2.55956  -0.40867  -0.07932  -1.54475
  22   32478.5    307.9   0.314819654   3.19110   1.01698   0.39762   1.41377
  23   32661.8    306.2   0.040746752   0.41070   0.25567  -0.00754   0.58760
  24   32698.2    305.8   0.695772516   7.00517   1.36664   1.05589   2.00563
  25   32901.7    303.9   0.018309256   0.18320  -0.08159   0.42017  -0.00105
  26   33201.7    301.2   0.144952259   1.43728  -0.54606  -0.34150  -1.01117
  27   33765.3    296.2   0.080731108   0.78713   0.51799  -0.36336   0.62192
  28   33821.9    295.7   0.133927094   1.30361  -0.42261   0.17614  -1.04594
  29   33962.1    294.4   0.015917001   0.15429   0.31541  -0.21044   0.10260
  30   34264.3    291.8   0.430505172   4.13630   0.61866   0.67510   1.81598
  31   34988.2    285.8   0.006878845   0.06472   0.06772   0.06826   0.23554
  32   35920.5    278.4   0.137764354   1.26261  -1.06844  -0.01640   0.34752
  33   36045.0    277.4   0.017843738   0.16297  -0.26431   0.09523   0.28991
  34   36533.2    273.7   0.069065085   0.62237  -0.44682  -0.06846  -0.64656
  35   36977.2    270.4   0.001004543   0.00894  -0.07893  -0.03312  -0.04020
  36   37234.0    268.6   0.120000146   1.06101  -0.34787  -0.89994  -0.36068
  37   37322.8    267.9   0.139873785   1.23378  -0.36279  -0.08805  -1.04614
  38   37449.3    267.0   0.010720091   0.09424  -0.12306  -0.05557   0.27569
  39   37722.0    265.1   0.035371533   0.30870   0.39256  -0.35100  -0.17717
  40   37863.8    264.1   0.022889388   0.19901   0.10753  -0.39524  -0.17674
  41   38269.0    261.3   0.028133021   0.24202  -0.06127   0.39627   0.28502
  42   38677.9    258.5   0.002441308   0.02078  -0.05802  -0.10137  -0.08448
  43   39059.1    256.0   0.001000036   0.00843   0.00752  -0.05285  -0.07469
  44   39151.1    255.4   0.012722654   0.10698  -0.14372  -0.26668  -0.12331
  45   39238.1    254.9   0.004728679   0.03967   0.14430   0.12966  -0.04518
  46   39553.4    252.8   0.198393329   1.65127   0.07438   1.21480   0.41231
  47   39609.2    252.5   0.049719182   0.41324  -0.56489   0.12271   0.28121
  48   39750.2    251.6   0.045578142   0.37748   0.54225  -0.27894  -0.07512
  49   40074.8    249.5   0.015864599   0.13033   0.05455  -0.35418   0.04367
  50   40105.1    249.3   0.062780879   0.51535   0.10448  -0.68060  -0.20302
  51   40291.9    248.2   0.004713101   0.03851  -0.09969  -0.08866  -0.14391

FINAL SINGLE POINT ENERGY     -7922.739399101873

DIPOLE MOMENT
-------------
                                X             Y             Z
Electronic contribution:     96.57723      99.89545     -49.28921
Nuclear contribution   :   -101.22569     -93.81401      50.88783
                        -----------------------------------------
Total Dipole Moment    :     -4.64846       6.08145       1.59863
                        -----------------------------------------
Magnitude (a.u.)       :      7.81970
Magnitude (Debye)      :     19.87611

Rotational constants in cm-1:     0.000815     0.000244     0.000236
Rotational constants in MHz :    24.437652     7.302993     7.085429

                             ****ORCA TERMINATED NORMALLY****
TOTAL RUN TIME: 0 days 0 hours 13 minutes 6 seconds 570 msec
