                         Program Version 4.2.0 -  RELEASE  -
|  1> # ORCA input file
|  2> # SCF done       -198.862099293020          0.000803210627
|  3> ! CAM-B3LYP def2-SVP def2/J RIJCOSX Grid4 TightSCF
|  4> %maxcore 5000
|  5> %tddft
|  6>     Mode sTDDFT
|  7>     Ethresh 5.0
|  8>     maxcore 5000
|  9> end
| 10>
| 11> %pal
| 12>   nprocs 6
| 13>   end
| 14> * xyz 0 1
| 15>    C       -3.01051        -1.35571        -0.32655
| 16>    C       -1.87111        -1.21810         0.42127
| 17>    C       -0.93998        -2.25560         0.64149
| 18>    N       -0.14494        -3.05296         0.86486
| 19>    C       -1.44176        -0.04709         1.08178
| 20>    N       -1.00035         0.85221         1.64507
| 21>    C       -3.44349        -2.58582        -0.97413
| 22>    C       -4.72285        -2.37342        -1.53983
| 23>    C       -5.40329        -3.34959        -2.22646
| 24>    C       -4.79020        -4.59887        -2.36190
| 25>    C       -3.50741        -4.80140        -1.79848
| 26>    C       -2.82008        -3.81377        -1.10507
| 27>    S       -2.92928        -6.41412        -2.09070
| 28>    C       -4.40013        -6.78984        -2.94863
| 29>    C       -5.27908        -5.76209        -3.01724
| 30>   Br       -4.63452        -8.50169        -3.67789
| 31>    C       -5.16037        -0.98711        -1.27968
| 32>    O       -6.21072        -0.50197        -1.63882
| 33>    C       -4.03167        -0.34142        -0.56041
| 34>    C       -3.85074         0.98340        -0.30701
| 35>    C       -4.73880         2.10570        -0.40776
| 36>    C       -4.13156         3.37058        -0.53879
| 37>    C       -4.90165         4.50008        -0.62636
| 38>    C       -6.30167         4.40423        -0.50005
| 39>    C       -6.91246         3.16700        -0.33475
| 40>    C       -6.13565         2.02784        -0.30283
| 41>    C       -6.85622         5.73615        -0.53279
| 42>    C       -5.80190         6.65839        -0.67917
| 43>    C       -4.46738         5.94484        -0.75959
| 44>    C       -3.53779         6.27322         0.42864
| 45>    C       -3.02404         7.70442         0.50986
| 46>    C       -3.84992         6.25277        -2.14048
| 47>    C       -2.51495         5.58425        -2.44057
| 48>    C       -6.06735         7.99954        -0.78603
| 49>    C       -7.39178         8.46610        -0.69616
| 50>    C       -8.42716         7.52916        -0.53503
| 51>    C       -8.17260         6.17716        -0.46025
| 52>    C       -7.71447         9.86363        -0.76885
| 53>    C       -6.80839        10.87577        -0.79897
| 54>    C       -7.11302        12.24711        -0.87442
| 55>    C       -6.13685        13.21100        -0.90134
| 56>    C       -6.28140        14.61800        -0.98526
| 57>    C       -5.10471        15.30462        -0.99892
| 58>    C       -3.95972        14.47833        -0.92433
| 59>    S       -4.42693        12.79959        -0.83712
| 60>    C       -2.62402        14.82946        -0.91668
| 61>    C       -2.02450        16.10471        -0.99213
| 62>    C       -0.66376        16.07359        -0.96447
| 63>    C       -0.09884        14.77165        -0.86281
| 64>    S       -1.39096        13.59016        -0.79921
| 65>    C        1.24448        14.49699        -0.85409
| 66>    C        1.89683        13.24078        -0.76891
| 67>    C        3.29713        13.14442        -0.95341
| 68>    N        3.94977        12.01356        -0.94658
| 69>    C        3.25583        10.89385        -0.70189
| 70>    N        1.93712        10.87219        -0.46064
| 71>    C        1.27945        11.99938        -0.50257
| 72>    C        3.96493         9.65029        -0.78282
| 73>    C        3.50203         8.41479        -0.46620
| 74>    C        2.30965         7.98513         0.23916
| 75>    C        1.70617         8.63480         1.27963
| 76>    C        0.58663         8.13582         1.97147
| 77>    N       -0.34081         7.77803         2.54704
| 78>    C        2.19029         9.83621         1.84287
| 79>    N        2.57524        10.75548         2.41202
| 80>    C        2.01536         6.62700        -0.20290
| 81>    C        3.11682         6.14387        -0.95398
| 82>    C        4.14238         7.20463        -1.05690
| 83>    O        5.23593         7.12954        -1.56459
| 84>    C        3.13584         4.88554        -1.50561
| 85>    C        2.00975         4.07565        -1.32348
| 86>    C        0.91767         4.56739        -0.56987
| 87>    C        0.90257         5.83379         0.00182
| 88>    S       -0.37326         3.40936        -0.49358
| 89>    C        0.54218         2.31004        -1.48561
| 90>    C        1.76481         2.77158        -1.83662
| 91>   Br       -0.22227         0.67929        -2.01372
| 92>    H       -6.37799        -3.15440        -2.64565
| 93>    H       -1.84185        -4.01541        -0.70239
| 94>    H       -6.23263        -5.81952        -3.50972
| 95>    H       -2.84988         1.26924        -0.00318
| 96>    H       -3.05498         3.42701        -0.57033
| 97>    H       -7.98360         3.09593        -0.22211
| 98>    H       -6.60650         1.07014        -0.16457
| 99>    H       -2.68751         5.59019         0.38657
|100>    H       -4.08559         6.04558         1.34660
|101>    H       -2.50690         7.99837        -0.40038
|102>    H       -2.32175         7.78336         1.33738
|103>    H       -3.83520         8.40181         0.69748
|104>    H       -3.72951         7.33417        -2.22228
|105>    H       -4.57535         5.94890        -2.90032
|106>    H       -1.76727         5.84247        -1.69568
|107>    H       -2.15419         5.92219        -3.41017
|108>    H       -2.61930         4.50389        -2.48056
|109>    H       -5.26619         8.69873        -0.95697
|110>    H       -9.44539         7.88570        -0.47196
|111>    H       -8.98230         5.47141        -0.35132
|112>    H       -8.76861        10.11185        -0.78539
|113>    H       -5.75246        10.64413        -0.75769
|114>    H       -8.14719        12.56080        -0.91696
|115>    H       -7.25304        15.07752        -1.03384
|116>    H       -5.02708        16.37551        -1.05912
|117>    H       -2.60866        17.00441        -1.06839
|118>    H       -0.03669        16.94624        -1.01457
|119>    H        1.89919        15.35544        -0.94975
|120>    H        3.88920        14.03466        -1.13214
|121>    H        0.22201        11.91913        -0.29157
|122>    H        4.93885         9.70663        -1.25367
|123>    H        3.98697         4.53979        -2.07097
|124>    H        0.04690         6.17406         0.56166
|125>    H        2.46312         2.22347        -2.44255
|126> *
|127>
|128>                          ****END OF INPUT****

CARTESIAN COORDINATES (ANGSTROEM)
---------------------------------
  C     -3.010510   -1.355710   -0.326550
  C     -1.871110   -1.218100    0.421270
  C     -0.939980   -2.255600    0.641490
  N     -0.144940   -3.052960    0.864860
  C     -1.441760   -0.047090    1.081780
  N     -1.000350    0.852210    1.645070
  C     -3.443490   -2.585820   -0.974130
  C     -4.722850   -2.373420   -1.539830
  C     -5.403290   -3.349590   -2.226460
  C     -4.790200   -4.598870   -2.361900
  C     -3.507410   -4.801400   -1.798480
  C     -2.820080   -3.813770   -1.105070
  S     -2.929280   -6.414120   -2.090700
  C     -4.400130   -6.789840   -2.948630
  C     -5.279080   -5.762090   -3.017240
  Br    -4.634520   -8.501690   -3.677890
  C     -5.160370   -0.987110   -1.279680
  O     -6.210720   -0.501970   -1.638820
  C     -4.031670   -0.341420   -0.560410
  C     -3.850740    0.983400   -0.307010
  C     -4.738800    2.105700   -0.407760
  C     -4.131560    3.370580   -0.538790
  C     -4.901650    4.500080   -0.626360
  C     -6.301670    4.404230   -0.500050
  C     -6.912460    3.167000   -0.334750
  C     -6.135650    2.027840   -0.302830
  C     -6.856220    5.736150   -0.532790
  C     -5.801900    6.658390   -0.679170
  C     -4.467380    5.944840   -0.759590
  C     -3.537790    6.273220    0.428640
  C     -3.024040    7.704420    0.509860
  C     -3.849920    6.252770   -2.140480
  C     -2.514950    5.584250   -2.440570
  C     -6.067350    7.999540   -0.786030
  C     -7.391780    8.466100   -0.696160
  C     -8.427160    7.529160   -0.535030
  C     -8.172600    6.177160   -0.460250
  C     -7.714470    9.863630   -0.768850
  C     -6.808390   10.875770   -0.798970
  C     -7.113020   12.247110   -0.874420
  C     -6.136850   13.211000   -0.901340
  C     -6.281400   14.618000   -0.985260
  C     -5.104710   15.304620   -0.998920
  C     -3.959720   14.478330   -0.924330
  S     -4.426930   12.799590   -0.837120
  C     -2.624020   14.829460   -0.916680
  C     -2.024500   16.104710   -0.992130
  C     -0.663760   16.073590   -0.964470
  C     -0.098840   14.771650   -0.862810
  S     -1.390960   13.590160   -0.799210
  C      1.244480   14.496990   -0.854090
  C      1.896830   13.240780   -0.768910
  C      3.297130   13.144420   -0.953410
  N      3.949770   12.013560   -0.946580
  C      3.255830   10.893850   -0.701890
  N      1.937120   10.872190   -0.460640
  C      1.279450   11.999380   -0.502570
  C      3.964930    9.650290   -0.782820
  C      3.502030    8.414790   -0.466200
  C      2.309650    7.985130    0.239160
  C      1.706170    8.634800    1.279630
  C      0.586630    8.135820    1.971470
  N     -0.340810    7.778030    2.547040
  C      2.190290    9.836210    1.842870
  N      2.575240   10.755480    2.412020
  C      2.015360    6.627000   -0.202900
  C      3.116820    6.143870   -0.953980
  C      4.142380    7.204630   -1.056900
  O      5.235930    7.129540   -1.564590
  C      3.135840    4.885540   -1.505610
  C      2.009750    4.075650   -1.323480
  C      0.917670    4.567390   -0.569870
  C      0.902570    5.833790    0.001820
  S     -0.373260    3.409360   -0.493580
  C      0.542180    2.310040   -1.485610
  C      1.764810    2.771580   -1.836620
  Br    -0.222270    0.679290   -2.013720
  H     -6.377990   -3.154400   -2.645650
  H     -1.841850   -4.015410   -0.702390
  H     -6.232630   -5.819520   -3.509720
  H     -2.849880    1.269240   -0.003180
  H     -3.054980    3.427010   -0.570330
  H     -7.983600    3.095930   -0.222110
  H     -6.606500    1.070140   -0.164570
  H     -2.687510    5.590190    0.386570
  H     -4.085590    6.045580    1.346600
  H     -2.506900    7.998370   -0.400380
  H     -2.321750    7.783360    1.337380
  H     -3.835200    8.401810    0.697480
  H     -3.729510    7.334170   -2.222280
  H     -4.575350    5.948900   -2.900320
  H     -1.767270    5.842470   -1.695680
  H     -2.154190    5.922190   -3.410170
  H     -2.619300    4.503890   -2.480560
  H     -5.266190    8.698730   -0.956970
  H     -9.445390    7.885700   -0.471960
  H     -8.982300    5.471410   -0.351320
  H     -8.768610   10.111850   -0.785390
  H     -5.752460   10.644130   -0.757690
  H     -8.147190   12.560800   -0.916960
  H     -7.253040   15.077520   -1.033840
  H     -5.027080   16.375510   -1.059120
  H     -2.608660   17.004410   -1.068390
  H     -0.036690   16.946240   -1.014570
  H      1.899190   15.355440   -0.949750
  H      3.889200   14.034660   -1.132140
  H      0.222010   11.919130   -0.291570
  H      4.938850    9.706630   -1.253670
  H      3.986970    4.539790   -2.070970
  H      0.046900    6.174060    0.561660
  H      2.463120    2.223470   -2.442550

 Total Charge           Charge          ....    0
 Multiplicity           Mult            ....    1
 Number of Electrons    NEL             ....  604
 Basis Dimension        Dim             .... 1300

ORBITAL ENERGIES
----------------

  NO   OCC          E(Eh)            E(eV)
   0   2.0000    -482.887557    -13140.0385
   1   2.0000    -482.885576    -13139.9845
   2   2.0000     -88.976103     -2421.1629
   3   2.0000     -88.975261     -2421.1399
   4   2.0000     -88.955268     -2420.5959
   5   2.0000     -88.952646     -2420.5246
   6   2.0000     -62.564755     -1702.4735
   7   2.0000     -62.563294     -1702.4338
   8   2.0000     -56.398727     -1534.6874
   9   2.0000     -56.397246     -1534.6471
  10   2.0000     -56.396026     -1534.6139
  11   2.0000     -56.395978     -1534.6126
  12   2.0000     -56.394528     -1534.5731
  13   2.0000     -56.394495     -1534.5722
  14   2.0000     -19.214739      -522.8596
  15   2.0000     -19.210920      -522.7557
  16   2.0000     -14.416285      -392.2871
  17   2.0000     -14.414503      -392.2386
  18   2.0000     -14.414362      -392.2347
  19   2.0000     -14.413807      -392.2196
  20   2.0000     -14.413125      -392.2011
  21   2.0000     -14.403372      -391.9357
  22   2.0000     -10.366976      -282.0998
  23   2.0000     -10.362353      -281.9740
  24   2.0000     -10.358804      -281.8774
  25   2.0000     -10.356593      -281.8172
  26   2.0000     -10.341985      -281.4197
  27   2.0000     -10.339818      -281.3607
  28   2.0000     -10.338789      -281.3328
  29   2.0000     -10.336432      -281.2686
  30   2.0000     -10.332606      -281.1645
  31   2.0000     -10.325302      -280.9658
  32   2.0000     -10.323840      -280.9260
  33   2.0000     -10.323813      -280.9252
  34   2.0000     -10.320920      -280.8465
  35   2.0000     -10.320265      -280.8287
  36   2.0000     -10.319802      -280.8161
  37   2.0000     -10.317206      -280.7454
  38   2.0000     -10.317028      -280.7406
  39   2.0000     -10.316200      -280.7181
  40   2.0000     -10.315789      -280.7069
  41   2.0000     -10.314544      -280.6730
  42   2.0000     -10.313249      -280.6378
  43   2.0000     -10.307383      -280.4782
  44   2.0000     -10.307325      -280.4766
  45   2.0000     -10.306993      -280.4675
  46   2.0000     -10.305227      -280.4195
  47   2.0000     -10.304916      -280.4110
  48   2.0000     -10.304143      -280.3900
  49   2.0000     -10.302476      -280.3446
  50   2.0000     -10.302338      -280.3409
  51   2.0000     -10.300199      -280.2827
  52   2.0000     -10.299609      -280.2666
  53   2.0000     -10.298221      -280.2288
  54   2.0000     -10.297773      -280.2167
  55   2.0000     -10.297573      -280.2112
  56   2.0000     -10.297216      -280.2015
  57   2.0000     -10.296499      -280.1820
  58   2.0000     -10.295188      -280.1463
  59   2.0000     -10.294982      -280.1407
  60   2.0000     -10.294327      -280.1229
  61   2.0000     -10.292016      -280.0600
  62   2.0000     -10.290964      -280.0314
  63   2.0000     -10.290948      -280.0309
  64   2.0000     -10.289302      -279.9861
  65   2.0000     -10.286937      -279.9218
  66   2.0000     -10.286098      -279.8990
  67   2.0000     -10.285568      -279.8845
  68   2.0000     -10.284376      -279.8521
  69   2.0000     -10.282671      -279.8057
  70   2.0000     -10.281759      -279.7809
  71   2.0000     -10.281740      -279.7804
  72   2.0000     -10.278397      -279.6894
  73   2.0000     -10.277180      -279.6563
  74   2.0000     -10.276443      -279.6362
  75   2.0000     -10.275655      -279.6148
  76   2.0000     -10.275605      -279.6134
  77   2.0000     -10.274140      -279.5736
  78   2.0000     -10.274112      -279.5728
  79   2.0000     -10.273036      -279.5435
  80   2.0000     -10.272726      -279.5351
  81   2.0000     -10.264495      -279.3111
  82   2.0000     -10.261522      -279.2302
  83   2.0000     -10.252908      -278.9958
  84   2.0000     -10.242455      -278.7114
  85   2.0000      -8.793989      -239.2966
  86   2.0000      -8.792718      -239.2620
  87   2.0000      -8.071240      -219.6296
  88   2.0000      -8.070480      -219.6089
  89   2.0000      -8.051092      -219.0813
  90   2.0000      -8.049037      -219.0254
  91   2.0000      -6.630153      -180.4156
  92   2.0000      -6.629027      -180.3850
  93   2.0000      -6.615726      -180.0231
  94   2.0000      -6.615659      -180.0212
  95   2.0000      -6.614453      -179.9884
  96   2.0000      -6.614249      -179.9829
  97   2.0000      -6.040954      -164.3827
  98   2.0000      -6.040272      -164.3642
  99   2.0000      -6.036654      -164.2657
 100   2.0000      -6.035914      -164.2456
 101   2.0000      -6.032444      -164.1511
 102   2.0000      -6.031894      -164.1362
 103   2.0000      -6.020822      -163.8349
 104   2.0000      -6.018749      -163.7785
 105   2.0000      -6.016747      -163.7240
 106   2.0000      -6.014778      -163.6704
 107   2.0000      -6.012113      -163.5979
 108   2.0000      -6.009880      -163.5371
 109   2.0000      -2.746077       -74.7245
 110   2.0000      -2.744892       -74.6923
 111   2.0000      -2.741964       -74.6126
 112   2.0000      -2.741930       -74.6117
 113   2.0000      -2.740813       -74.5813
 114   2.0000      -2.740651       -74.5769
 115   2.0000      -2.730454       -74.2994
 116   2.0000      -2.730442       -74.2991
 117   2.0000      -2.729080       -74.2620
 118   2.0000      -2.729064       -74.2616
 119   2.0000      -1.130442       -30.7609
 120   2.0000      -1.126227       -30.6462
 121   2.0000      -1.086176       -29.5564
 122   2.0000      -1.022111       -27.8131
 123   2.0000      -1.019557       -27.7436
 124   2.0000      -1.012382       -27.5483
 125   2.0000      -1.008974       -27.4556
 126   2.0000      -1.005037       -27.3484
 127   2.0000      -0.992401       -27.0046
 128   2.0000      -0.991989       -26.9934
 129   2.0000      -0.989904       -26.9367
 130   2.0000      -0.987992       -26.8846
 131   2.0000      -0.984496       -26.7895
 132   2.0000      -0.982766       -26.7424
 133   2.0000      -0.979447       -26.6521
 134   2.0000      -0.954302       -25.9679
 135   2.0000      -0.941477       -25.6189
 136   2.0000      -0.940324       -25.5875
 137   2.0000      -0.927422       -25.2364
 138   2.0000      -0.923077       -25.1182
 139   2.0000      -0.909391       -24.7458
 140   2.0000      -0.907563       -24.6960
 141   2.0000      -0.905043       -24.6275
 142   2.0000      -0.897253       -24.4155
 143   2.0000      -0.892504       -24.2863
 144   2.0000      -0.885369       -24.0921
 145   2.0000      -0.882604       -24.0169
 146   2.0000      -0.882135       -24.0041
 147   2.0000      -0.872065       -23.7301
 148   2.0000      -0.859510       -23.3884
 149   2.0000      -0.856654       -23.3108
 150   2.0000      -0.844406       -22.9775
 151   2.0000      -0.838795       -22.8248
 152   2.0000      -0.838070       -22.8050
 153   2.0000      -0.833130       -22.6706
 154   2.0000      -0.830100       -22.5882
 155   2.0000      -0.828669       -22.5492
 156   2.0000      -0.826476       -22.4896
 157   2.0000      -0.824425       -22.4338
 158   2.0000      -0.808766       -22.0076
 159   2.0000      -0.791283       -21.5319
 160   2.0000      -0.775024       -21.0895
 161   2.0000      -0.769614       -20.9422
 162   2.0000      -0.763719       -20.7819
 163   2.0000      -0.758369       -20.6363
 164   2.0000      -0.754581       -20.5332
 165   2.0000      -0.748440       -20.3661
 166   2.0000      -0.741856       -20.1869
 167   2.0000      -0.730367       -19.8743
 168   2.0000      -0.714878       -19.4528
 169   2.0000      -0.709526       -19.3072
 170   2.0000      -0.703359       -19.1394
 171   2.0000      -0.700199       -19.0534
 172   2.0000      -0.692708       -18.8495
 173   2.0000      -0.689518       -18.7627
 174   2.0000      -0.688077       -18.7235
 175   2.0000      -0.684208       -18.6182
 176   2.0000      -0.677692       -18.4409
 177   2.0000      -0.674302       -18.3487
 178   2.0000      -0.667025       -18.1507
 179   2.0000      -0.659559       -17.9475
 180   2.0000      -0.654336       -17.8054
 181   2.0000      -0.653112       -17.7721
 182   2.0000      -0.651304       -17.7229
 183   2.0000      -0.644645       -17.5417
 184   2.0000      -0.636395       -17.3172
 185   2.0000      -0.632557       -17.2128
 186   2.0000      -0.625360       -17.0169
 187   2.0000      -0.622270       -16.9328
 188   2.0000      -0.620056       -16.8726
 189   2.0000      -0.616998       -16.7894
 190   2.0000      -0.612100       -16.6561
 191   2.0000      -0.599483       -16.3128
 192   2.0000      -0.598642       -16.2899
 193   2.0000      -0.595223       -16.1968
 194   2.0000      -0.591682       -16.1005
 195   2.0000      -0.590135       -16.0584
 196   2.0000      -0.584919       -15.9165
 197   2.0000      -0.575016       -15.6470
 198   2.0000      -0.571221       -15.5437
 199   2.0000      -0.569410       -15.4944
 200   2.0000      -0.558644       -15.2015
 201   2.0000      -0.554623       -15.0921
 202   2.0000      -0.551257       -15.0005
 203   2.0000      -0.547047       -14.8859
 204   2.0000      -0.546229       -14.8637
 205   2.0000      -0.541710       -14.7407
 206   2.0000      -0.540578       -14.7099
 207   2.0000      -0.538987       -14.6666
 208   2.0000      -0.535456       -14.5705
 209   2.0000      -0.533813       -14.5258
 210   2.0000      -0.532359       -14.4862
 211   2.0000      -0.530374       -14.4322
 212   2.0000      -0.527892       -14.3647
 213   2.0000      -0.525922       -14.3111
 214   2.0000      -0.523786       -14.2529
 215   2.0000      -0.521526       -14.1915
 216   2.0000      -0.515452       -14.0262
 217   2.0000      -0.514272       -13.9941
 218   2.0000      -0.512696       -13.9512
 219   2.0000      -0.511144       -13.9089
 220   2.0000      -0.509860       -13.8740
 221   2.0000      -0.506198       -13.7743
 222   2.0000      -0.505096       -13.7444
 223   2.0000      -0.504990       -13.7415
 224   2.0000      -0.503703       -13.7064
 225   2.0000      -0.499740       -13.5986
 226   2.0000      -0.498268       -13.5585
 227   2.0000      -0.496981       -13.5235
 228   2.0000      -0.495778       -13.4908
 229   2.0000      -0.493488       -13.4285
 230   2.0000      -0.492381       -13.3984
 231   2.0000      -0.488312       -13.2876
 232   2.0000      -0.486711       -13.2441
 233   2.0000      -0.484108       -13.1732
 234   2.0000      -0.482054       -13.1173
 235   2.0000      -0.480207       -13.0671
 236   2.0000      -0.477247       -12.9866
 237   2.0000      -0.475507       -12.9392
 238   2.0000      -0.472948       -12.8696
 239   2.0000      -0.470040       -12.7904
 240   2.0000      -0.466877       -12.7044
 241   2.0000      -0.464224       -12.6322
 242   2.0000      -0.459040       -12.4911
 243   2.0000      -0.457586       -12.4515
 244   2.0000      -0.456135       -12.4121
 245   2.0000      -0.454408       -12.3651
 246   2.0000      -0.450259       -12.2522
 247   2.0000      -0.449014       -12.2183
 248   2.0000      -0.448026       -12.1914
 249   2.0000      -0.444709       -12.1011
 250   2.0000      -0.443908       -12.0793
 251   2.0000      -0.443307       -12.0630
 252   2.0000      -0.441524       -12.0145
 253   2.0000      -0.439859       -11.9692
 254   2.0000      -0.438040       -11.9197
 255   2.0000      -0.437346       -11.9008
 256   2.0000      -0.436013       -11.8645
 257   2.0000      -0.432483       -11.7685
 258   2.0000      -0.429846       -11.6967
 259   2.0000      -0.429410       -11.6848
 260   2.0000      -0.428301       -11.6547
 261   2.0000      -0.425332       -11.5739
 262   2.0000      -0.424430       -11.5493
 263   2.0000      -0.421845       -11.4790
 264   2.0000      -0.420144       -11.4327
 265   2.0000      -0.419144       -11.4055
 266   2.0000      -0.417825       -11.3696
 267   2.0000      -0.415885       -11.3168
 268   2.0000      -0.411029       -11.1847
 269   2.0000      -0.405156       -11.0248
 270   2.0000      -0.404166       -10.9979
 271   2.0000      -0.403233       -10.9725
 272   2.0000      -0.401557       -10.9269
 273   2.0000      -0.392916       -10.6918
 274   2.0000      -0.390135       -10.6161
 275   2.0000      -0.388959       -10.5841
 276   2.0000      -0.386447       -10.5158
 277   2.0000      -0.384132       -10.4528
 278   2.0000      -0.380887       -10.3645
 279   2.0000      -0.379775       -10.3342
 280   2.0000      -0.375881       -10.2282
 281   2.0000      -0.374987       -10.2039
 282   2.0000      -0.374569       -10.1925
 283   2.0000      -0.371494       -10.1089
 284   2.0000      -0.361355        -9.8330
 285   2.0000      -0.351999        -9.5784
 286   2.0000      -0.345776        -9.4091
 287   2.0000      -0.339601        -9.2410
 288   2.0000      -0.337339        -9.1795
 289   2.0000      -0.333201        -9.0669
 290   2.0000      -0.326648        -8.8885
 291   2.0000      -0.324781        -8.8378
 292   2.0000      -0.321366        -8.7448
 293   2.0000      -0.317246        -8.6327
 294   2.0000      -0.315498        -8.5851
 295   2.0000      -0.314528        -8.5587
 296   2.0000      -0.309675        -8.4267
 297   2.0000      -0.295612        -8.0440
 298   2.0000      -0.290114        -7.8944
 299   2.0000      -0.287730        -7.8295
 300   2.0000      -0.266624        -7.2552
 301   2.0000      -0.219214        -5.9651
 302   0.0000      -0.101546        -2.7632
 303   0.0000      -0.086733        -2.3601
 304   0.0000      -0.074977        -2.0402
 305   0.0000      -0.057970        -1.5774
 306   0.0000      -0.051050        -1.3891

MULLIKEN ATOMIC CHARGES
-----------------------
   0 C :    0.304901
   1 C :   -0.372714
   2 C :   -0.183470
   3 N :    0.151655
   4 C :   -0.193721
   5 N :    0.161614
   6 C :    0.014764
   7 C :   -0.015363
   8 C :   -0.071540
   9 C :    0.118607
  10 C :   -0.090460
  11 C :   -0.022520
  12 S :    0.186130
  13 C :   -0.123219
  14 C :    0.039698
  15 Br:    0.023365
  16 C :    0.141155
  17 O :   -0.145505
  18 C :   -0.052477
  19 C :   -0.040984
  20 C :    0.100053
  21 C :   -0.091975
  22 C :    0.048018
  23 C :    0.102380
  24 C :   -0.061519
  25 C :    0.039769
  26 C :    0.086227
  27 C :    0.039394
  28 C :   -0.121007
  29 C :    0.053629
  30 C :    0.025187
  31 C :    0.051067
  32 C :    0.043968
  33 C :   -0.093048
  34 C :    0.125016
  35 C :   -0.017380
  36 C :   -0.040992
  37 C :   -0.004618
  38 C :    0.001531
  39 C :    0.014360
  40 C :   -0.027910
  41 C :    0.046855
  42 C :    0.023413
  43 C :   -0.025567
  44 S :    0.057194
  45 C :   -0.045306
  46 C :    0.042737
  47 C :    0.026577
  48 C :   -0.002919
  49 S :    0.055491
  50 C :   -0.025242
  51 C :    0.032311
  52 C :    0.025473
  53 N :   -0.033473
  54 C :   -0.076159
  55 N :   -0.085136
  56 C :    0.028516
  57 C :    0.090396
  58 C :   -0.093862
  59 C :    0.282813
  60 C :   -0.301898
  61 C :   -0.155234
  62 N :    0.139595
  63 C :   -0.187036
  64 N :    0.162496
  65 C :    0.011250
  66 C :   -0.006296
  67 C :    0.136393
  68 O :   -0.134949
  69 C :   -0.073142
  70 C :    0.108468
  71 C :   -0.054392
  72 C :   -0.021179
  73 S :    0.158047
  74 C :   -0.100131
  75 C :    0.039404
  76 Br:    0.020583
  77 H :   -0.011400
  78 H :   -0.007469
  79 H :   -0.003579
  80 H :    0.004686
  81 H :   -0.045830
  82 H :   -0.029066
  83 H :   -0.009164
  84 H :   -0.009746
  85 H :    0.011492
  86 H :   -0.004202
  87 H :    0.032528
  88 H :    0.008882
  89 H :    0.006104
  90 H :    0.005762
  91 H :   -0.005841
  92 H :    0.012433
  93 H :    0.015555
  94 H :   -0.035925
  95 H :   -0.027345
  96 H :   -0.030283
  97 H :   -0.022382
  98 H :    0.014996
  99 H :   -0.011875
 100 H :   -0.007900
 101 H :   -0.008611
 102 H :   -0.010137
 103 H :   -0.008831
 104 H :   -0.014524
 105 H :    0.002842
 106 H :    0.020910
 107 H :    0.020841
 108 H :   -0.008372
 109 H :   -0.011130
 110 H :   -0.001581
Sum of atomic charges:    0.0000000

LOEWDIN ATOMIC CHARGES
----------------------
   0 C :    0.074186
   1 C :   -0.146257
   2 C :   -0.018507
   3 N :   -0.054991
   4 C :   -0.029924
   5 N :   -0.056244
   6 C :   -0.022652
   7 C :   -0.050560
   8 C :    0.021651
   9 C :   -0.032626
  10 C :   -0.143738
  11 C :   -0.010914
  12 S :    0.431822
  13 C :   -0.271357
  14 C :   -0.070473
  15 Br:    0.136720
  16 C :    0.083221
  17 O :   -0.137547
  18 C :   -0.098946
  19 C :    0.083424
  20 C :   -0.044458
  21 C :   -0.000591
  22 C :   -0.000342
  23 C :    0.008448
  24 C :   -0.023740
  25 C :    0.023441
  26 C :   -0.017396
  27 C :    0.013561
  28 C :   -0.033386
  29 C :   -0.011980
  30 C :   -0.066312
  31 C :   -0.014022
  32 C :   -0.060266
  33 C :   -0.012426
  34 C :   -0.023877
  35 C :   -0.015236
  36 C :   -0.014448
  37 C :   -0.000933
  38 C :   -0.037346
  39 C :   -0.034730
  40 C :   -0.148508
  41 C :   -0.021125
  42 C :   -0.035510
  43 C :   -0.162325
  44 S :    0.375927
  45 C :   -0.189809
  46 C :   -0.023440
  47 C :   -0.037682
  48 C :   -0.127606
  49 S :    0.390372
  50 C :   -0.072111
  51 C :   -0.053838
  52 C :    0.047176
  53 N :   -0.060971
  54 C :    0.004003
  55 N :   -0.054588
  56 C :    0.037817
  57 C :    0.060371
  58 C :   -0.064100
  59 C :    0.071418
  60 C :   -0.118961
  61 C :   -0.005322
  62 N :   -0.052187
  63 C :   -0.017803
  64 N :   -0.054352
  65 C :   -0.013075
  66 C :   -0.053208
  67 C :    0.084423
  68 O :   -0.135767
  69 C :    0.024372
  70 C :   -0.033627
  71 C :   -0.139273
  72 C :   -0.016920
  73 S :    0.466074
  74 C :   -0.269397
  75 C :   -0.066927
  76 Br:    0.150767
  77 H :    0.040568
  78 H :    0.040650
  79 H :    0.038903
  80 H :    0.038013
  81 H :    0.012293
  82 H :    0.029299
  83 H :    0.031097
  84 H :    0.013134
  85 H :    0.030783
  86 H :    0.016474
  87 H :    0.030025
  88 H :    0.022053
  89 H :    0.020057
  90 H :    0.027366
  91 H :    0.014651
  92 H :    0.029073
  93 H :    0.019911
  94 H :    0.023819
  95 H :    0.026705
  96 H :    0.028769
  97 H :    0.028590
  98 H :    0.019034
  99 H :    0.034525
 100 H :    0.035825
 101 H :    0.033547
 102 H :    0.034020
 103 H :    0.034333
 104 H :    0.035476
 105 H :    0.024943
 106 H :    0.009055
 107 H :    0.051514
 108 H :    0.041759
 109 H :    0.039455
 110 H :    0.039744

  Mayer bond orders larger than 0.100000
B(  0-C ,  1-C ) :   1.6327 B(  0-C ,  6-C ) :   1.0027 B(  0-C , 18-C ) :   1.0632
B(  1-C ,  2-C ) :   1.1446 B(  1-C ,  4-C ) :   1.1420 B(  2-C ,  3-N ) :   2.9720
B(  4-C ,  5-N ) :   2.9709 B(  6-C ,  7-C ) :   1.2737 B(  6-C , 11-C ) :   1.4041
B(  7-C ,  8-C ) :   1.4216 B(  7-C , 16-C ) :   0.9440 B(  8-C ,  9-C ) :   1.2464
B(  8-C , 77-H ) :   1.0162 B(  9-C , 10-C ) :   1.3056 B(  9-C , 14-C ) :   1.1621
B( 10-C , 11-C ) :   1.3338 B( 10-C , 12-S ) :   1.0854 B( 11-C , 78-H ) :   0.9802
B( 12-S , 13-C ) :   1.0860 B( 13-C , 14-C ) :   1.6191 B( 13-C , 15-Br) :   1.0184
B( 14-C , 79-H ) :   0.9997 B( 16-C , 17-O ) :   2.2211 B( 16-C , 18-C ) :   0.9305
B( 18-C , 19-C ) :   1.5810 B( 19-C , 20-C ) :   1.1147 B( 19-C , 80-H ) :   0.9480
B( 20-C , 21-C ) :   1.2479 B( 20-C , 25-C ) :   1.3332 B( 21-C , 22-C ) :   1.4029
B( 21-C , 81-H ) :   1.0040 B( 22-C , 23-C ) :   1.3709 B( 22-C , 28-C ) :   0.9271
B( 23-C , 24-C ) :   1.3174 B( 23-C , 26-C ) :   1.0071 B( 24-C , 25-C ) :   1.4026
B( 24-C , 82-H ) :   0.9946 B( 25-C , 83-H ) :   0.9786 B( 26-C , 27-C ) :   1.3666
B( 26-C , 36-C ) :   1.3322 B( 27-C , 28-C ) :   0.9304 B( 27-C , 33-C ) :   1.4323
B( 28-C , 29-C ) :   1.0029 B( 28-C , 31-C ) :   1.0062 B( 29-C , 30-C ) :   1.1196
B( 29-C , 84-H ) :   0.9385 B( 29-C , 85-H ) :   0.9357 B( 30-C , 86-H ) :   0.9576
B( 30-C , 87-H ) :   0.9431 B( 30-C , 88-H ) :   0.9531 B( 31-C , 32-C ) :   1.1141
B( 31-C , 89-H ) :   0.9391 B( 31-C , 90-H ) :   0.9375 B( 32-C , 91-H ) :   0.9613
B( 32-C , 92-H ) :   0.9567 B( 32-C , 93-H ) :   0.9586 B( 33-C , 34-C ) :   1.2904
B( 33-C , 94-H ) :   0.9848 B( 34-C , 35-C ) :   1.3197 B( 34-C , 37-C ) :   1.0749
B( 35-C , 36-C ) :   1.3877 B( 35-C , 95-H ) :   0.9951 B( 36-C , 96-H ) :   0.9906
B( 37-C , 38-C ) :   1.6415 B( 37-C , 97-H ) :   0.9920 B( 38-C , 39-C ) :   1.1506
B( 38-C , 98-H ) :   0.9590 B( 39-C , 40-C ) :   1.5624 B( 39-C , 99-H ) :   0.9885
B( 40-C , 41-C ) :   1.1406 B( 40-C , 44-S ) :   1.0262 B( 41-C , 42-C ) :   1.5897
B( 41-C ,100-H ) :   0.9994 B( 42-C , 43-C ) :   1.1858 B( 42-C ,101-H ) :   0.9950
B( 43-C , 44-S ) :   1.0627 B( 43-C , 45-C ) :   1.5009 B( 45-C , 46-C ) :   1.1918
B( 45-C , 49-S ) :   1.0304 B( 46-C , 47-C ) :   1.5893 B( 46-C ,102-H ) :   0.9933
B( 47-C , 48-C ) :   1.1434 B( 47-C ,103-H ) :   0.9997 B( 48-C , 49-S ) :   1.0528
B( 48-C , 50-C ) :   1.5683 B( 50-C , 51-C ) :   1.1388 B( 50-C ,104-H ) :   0.9691
B( 51-C , 52-C ) :   1.2667 B( 51-C , 56-C ) :   1.2590 B( 52-C , 53-N ) :   1.6056
B( 52-C ,105-H ) :   0.9860 B( 53-N , 54-C ) :   1.4858 B( 54-C , 55-N ) :   1.4511
B( 54-C , 57-C ) :   1.0541 B( 55-N , 56-C ) :   1.5827 B( 56-C ,106-H ) :   0.9701
B( 57-C , 58-C ) :   1.6484 B( 57-C ,107-H ) :   0.9546 B( 58-C , 59-C ) :   1.0204
B( 58-C , 67-C ) :   0.9313 B( 59-C , 60-C ) :   1.6916 B( 59-C , 65-C ) :   1.0125
B( 60-C , 61-C ) :   1.1561 B( 60-C , 63-C ) :   1.1462 B( 61-C , 62-N ) :   2.8943
B( 63-C , 64-N ) :   2.9883 B( 65-C , 66-C ) :   1.2727 B( 65-C , 72-C ) :   1.4195
B( 66-C , 67-C ) :   0.9166 B( 66-C , 69-C ) :   1.4231 B( 67-C , 68-O ) :   2.2818
B( 69-C , 70-C ) :   1.2530 B( 69-C ,108-H ) :   1.0154 B( 70-C , 71-C ) :   1.3096
B( 70-C , 75-C ) :   1.1656 B( 71-C , 72-C ) :   1.3228 B( 71-C , 73-S ) :   1.0930
B( 72-C ,109-H ) :   0.9824 B( 73-S , 74-C ) :   1.0957 B( 74-C , 75-C ) :   1.6208
B( 74-C , 76-Br) :   1.0206 B( 75-C ,110-H ) :   0.9994

-----------------------------------------------------------------------------
         ABSORPTION SPECTRUM VIA TRANSITION ELECTRIC DIPOLE MOMENTS
-----------------------------------------------------------------------------
State   Energy  Wavelength   fosc         T2         TX        TY        TZ
        (cm-1)    (nm)                  (au**2)     (au)      (au)      (au)
-----------------------------------------------------------------------------
   0   11973.8    835.2   0.544867805  14.98074   3.80196   0.69702   0.20000
   1   17632.5    567.1   0.861844986  16.09132  -0.78083  -3.92240   0.31044
   2   20235.4    494.2   0.431307518   7.01698   2.51361  -0.83492  -0.04055
   3   22547.5    443.5   0.754804751  11.02079  -1.26847   3.04429  -0.37955
   4   23901.3    418.4   0.339428153   4.67522   0.37343  -2.10787   0.30443
   5   24394.0    409.9   0.431773296   5.82704  -0.68514   2.28459   0.37186
   6   25596.8    390.7   0.132888372   1.70914   1.30634  -0.04778  -0.01776
   7   26108.0    383.0   0.042747941   0.53904   0.41403  -0.60394  -0.05360
   8   27037.2    369.9   0.112554418   1.37049  -0.11248  -1.01578  -0.57099
   9   27717.5    360.8   0.014038433   0.16674  -0.19724  -0.14293  -0.32773
  10   28320.2    353.1   0.594022115   6.90529   0.67122   2.48012   0.55117
  11   28693.6    348.5   0.037807278   0.43378  -0.39527   0.07239   0.52182
  12   29092.2    343.7   0.033215540   0.37587   0.22165  -0.15783  -0.54939
  13   29417.9    339.9   0.067088341   0.75078  -0.61481   0.59325  -0.14436
  14   29583.2    338.0   0.066010680   0.73459   0.59961   0.41666   0.44883
  15   29814.6    335.4   0.463031745   5.11278   0.64089  -2.16205  -0.16599
  16   30020.8    333.1   0.011864451   0.13011  -0.06738   0.20832  -0.28665
  17   30641.3    326.4   0.007035452   0.07559   0.04587  -0.25009   0.10461
  18   31285.3    319.6   0.084715655   0.89145  -0.48940  -0.73984  -0.32338
  19   31493.2    317.5   0.082707908   0.86458   0.68085   0.63233  -0.03442
  20   32042.4    312.1   0.189264460   1.94455   0.38785   1.33913  -0.02930
  21   32141.7    311.1   0.251946252   2.58056  -0.18621  -1.29110  -0.93751
  22   32609.3    306.7   0.030297720   0.30587   0.34407   0.42576  -0.07884
  23   32827.0    304.6   0.103455747   1.03753  -0.11298  -0.82001  -0.59359
  24   33142.6    301.7   0.079243038   0.78714  -0.41007  -0.75178  -0.23195
  25   33366.8    299.7   0.005572966   0.05499   0.22116   0.07686  -0.01282
  26   33601.0    297.6   0.400518898   3.92415   0.67497   1.63924   0.88399
  27   33763.5    296.2   0.097280749   0.94854   0.91183   0.33473   0.07113
  28   33860.4    295.3   0.196212299   1.90770   0.14742  -1.26946  -0.52388
  29   34131.2    293.0   0.015561236   0.15010   0.33419   0.13774   0.13942
  30   34164.3    292.7   0.175908087   1.69508  -0.97631  -0.28227  -0.81377
  31   34317.9    291.4   0.027618764   0.26495   0.40105  -0.32264   0.00278
  32   34632.8    288.7   0.055990401   0.53223  -0.12974   0.68516   0.21436
  33   34660.4    288.5   0.140758461   1.33695   0.28482   0.90696   0.65822
  34   34893.7    286.6   0.002623513   0.02475  -0.03269  -0.00450   0.15383
  35   35136.5    284.6   0.045103789   0.42260  -0.33411   0.51178  -0.22147
  36   35469.3    281.9   0.042728730   0.39659  -0.44242  -0.42466  -0.14325
  37   36110.7    276.9   0.099307811   0.90536  -0.77356  -0.54996  -0.06718
  38   36508.1    273.9   0.025216782   0.22739  -0.41756  -0.09671   0.20901
  39   36674.6    272.7   0.003886630   0.03489   0.16305   0.09102   0.00426
  40   37306.2    268.1   0.114113250   1.00700   0.85730  -0.17689  -0.49065
  41   37646.9    265.6   0.020505436   0.17931   0.08991  -0.17759  -0.37375
  42   37847.4    264.2   0.030253554   0.26316  -0.39451   0.29026   0.15254
  43   38157.9    262.1   0.023611062   0.20371  -0.19528  -0.36238  -0.18509
  44   38372.3    260.6   0.035511624   0.30467   0.00355  -0.52045  -0.18382
  45   38458.8    260.0   0.016055975   0.13744   0.00139  -0.19885   0.31289
  46   38829.7    257.5   0.045320292   0.38424  -0.59508   0.05016  -0.16615
  47   38855.2    257.4   0.011445901   0.09698  -0.06373  -0.28980  -0.09452
  48   39145.7    255.5   0.064766011   0.54468   0.42697  -0.50659  -0.32518
  49   39276.1    254.6   0.099011791   0.82992  -0.84390   0.26720  -0.21531
  50   39607.3    252.5   0.053615505   0.44565  -0.17019   0.64301   0.05679
  51   39715.6    251.8   0.023966275   0.19866  -0.26446   0.34988   0.07941
  52   39759.0    251.5   0.079497781   0.65826   0.12327  -0.80187  -0.00794
  53   40019.9    249.9   0.019695940   0.16202   0.22107   0.18935   0.27802
  54   40167.3    249.0   0.184976693   1.51607   0.47673  -1.09986  -0.28127

FINAL SINGLE POINT ENERGY     -9636.539677857712

DIPOLE MOMENT
-------------
                                X             Y             Z
Electronic contribution:     25.05100    -240.69072     -37.29509
Nuclear contribution   :    -28.70980     242.53819      34.50219
                        -----------------------------------------
Total Dipole Moment    :     -3.65880       1.84747      -2.79290
                        -----------------------------------------
Magnitude (a.u.)       :      4.95986
Magnitude (Debye)      :     12.60697

Rotational constants in cm-1:     0.001171     0.000281     0.000236
Rotational constants in MHz :    35.091025     8.412401     7.063180

                             ****ORCA TERMINATED NORMALLY****
TOTAL RUN TIME: 0 days 0 hours 13 minutes 32 seconds 120 msec
