                         Program Version 4.2.0 -  RELEASE  -
|  1> # ORCA input file
|  2> # SCF done       -169.740121559591          0.000536395425
|  3> ! CAM-B3LYP def2-SVP def2/J RIJCOSX Grid4 TightSCF
|  4> %maxcore 5000
|  5> %tddft
|  6>     Mode sTDDFT
|  7>     Ethresh 5.0
|  8>     maxcore 5000
|  9> end
| 10>
| 11> %pal
| 12>   nprocs 6
| 13>   end
| 14> * xyz 0 1
| 15>    C       -1.23800         3.33332        -3.07953
| 16>    C       -0.33324         3.99053        -2.28376
| 17>    C        1.06219         3.94990        -2.47522
| 18>    N        2.20474         3.95655        -2.59063
| 19>    C       -0.67033         4.75209        -1.14609
| 20>    N       -0.86126         5.36072        -0.19069
| 21>    C       -0.91113         2.42171        -4.16836
| 22>    C       -2.10870         1.82343        -4.62991
| 23>    C       -2.13010         0.90466        -5.64972
| 24>    C       -0.91039         0.55522        -6.24039
| 25>    C        0.27986         1.16116        -5.77472
| 26>    C        0.30143         2.09346        -4.74462
| 27>    S        1.67066         0.59458        -6.64991
| 28>    C        0.64774        -0.43697        -7.61367
| 29>    C       -0.66726        -0.36195        -7.29932
| 30>   Br        1.41153        -1.51408        -8.94627
| 31>    C       -3.25266         2.36866        -3.87028
| 32>    O       -4.42863         2.14426        -4.08477
| 33>    C       -2.67466         3.32469        -2.91071
| 34>    C       -3.38726         4.19452        -2.12826
| 35>    C       -4.73928         4.11982        -1.73978
| 36>    S       -5.53815         5.64866        -1.44520
| 37>    C       -7.00827         4.85117        -0.98793
| 38>    C       -6.85641         3.47136        -1.01624
| 39>    C       -5.58033         3.05246        -1.42704
| 40>    C       -5.17618         1.61235        -1.42336
| 41>    C       -3.76821         1.40576        -0.94724
| 42>    C       -2.94640         0.50247        -1.44960
| 43>    C       -6.14586         0.79190        -0.56023
| 44>    C       -7.58013         1.08336        -0.97946
| 45>    C       -7.94234         2.51984        -0.61506
| 46>    C       -8.18162         5.58631        -0.65099
| 47>    C       -8.23145         6.93577        -0.65127
| 48>    C       -9.34794         7.79210        -0.37167
| 49>    C      -10.66536         7.52850        -0.42846
| 50>    C      -11.27641         6.23433        -0.85860
| 51>    C      -11.65374         8.63895        -0.16051
| 52>    N      -12.26466         9.06184        -1.40187
| 53>    C      -13.48241         8.64606        -1.80532
| 54>    C      -13.90738         8.66905        -3.09895
| 55>    C      -15.19856         8.34530        -3.56165
| 56>    C      -16.35228         8.10984        -2.85787
| 57>    C      -17.60677         7.79318        -3.43826
| 58>    C      -18.63341         7.67103        -2.55341
| 59>    C      -18.25956         7.88626        -1.20778
| 60>    S      -16.54564         8.21954        -1.10873
| 61>    C      -19.06124         7.87552        -0.08520
| 62>    C      -20.44542         7.60869        -0.00367
| 63>    C      -20.95473         7.70952         1.25390
| 64>    C      -20.00337         8.06833         2.24390
| 65>    S      -18.42212         8.25121         1.50849
| 66>    C      -20.26299         8.26641         3.57345
| 67>    C      -19.35172         8.65503         4.57063
| 68>    S      -17.63883         8.95287         4.32259
| 69>    C      -17.34271         9.37275         5.96620
| 70>    C      -18.50231         9.29371         6.69975
| 71>    C      -19.62010         8.88883         5.90858
| 72>    O      -20.74395         8.82262         6.65558
| 73>    C      -20.35711         9.18020         7.90973
| 74>    N      -21.34255         9.20053         8.92065
| 75>    O      -20.97214         9.53233        10.03314
| 76>    O      -22.47724         8.89294         8.62117
| 77>    C      -19.02311         9.47686         8.00952
| 78>    H       -3.05775         0.46652        -5.98361
| 79>    H        1.23275         2.53365        -4.42958
| 80>    H       -1.43535        -0.92779        -7.79420
| 81>    H       -2.87663         5.09011        -1.79161
| 82>    H       -5.25254         1.24736        -2.45774
| 83>    H       -3.45624         2.02872        -0.11822
| 84>    H       -3.23290        -0.12889        -2.27523
| 85>    H       -1.95316         0.35453        -1.06035
| 86>    H       -6.00839         1.04814         0.49301
| 87>    H       -5.91593        -0.26732        -0.68226
| 88>    H       -7.67422         0.94207        -2.05796
| 89>    H       -8.26921         0.39602        -0.48601
| 90>    H       -8.09276         2.59627         0.46729
| 91>    H       -8.88157         2.80169        -1.09713
| 92>    H       -9.03586         4.99731        -0.35934
| 93>    H       -7.30809         7.46073        -0.87014
| 94>    H       -9.06166         8.80492        -0.11174
| 95>    H      -10.66865         5.74881        -1.61951
| 96>    H      -12.27435         6.40200        -1.26160
| 97>    H      -11.37181         5.55709        -0.00929
| 98>    H      -11.15232         9.49706         0.29725
| 99>    H      -12.44631         8.29673         0.50934
|100>    H      -11.61520         9.34098        -2.12532
|101>    H      -14.13226         8.31239        -1.01033
|102>    H      -13.18919         8.95099        -3.85881
|103>    H      -15.30838         8.29340        -4.63810
|104>    H      -17.70995         7.67438        -4.50296
|105>    H      -19.64825         7.44929        -2.83020
|106>    H      -21.02546         7.35238        -0.87214
|107>    H      -21.98655         7.54626         1.50980
|108>    H      -21.28098         8.12660         3.91218
|109>    H      -16.35730         9.64635         6.27894
|110>    H      -18.51190         9.77999         8.89939
|111> *
|112>
|113>                          ****END OF INPUT****

CARTESIAN COORDINATES (ANGSTROEM)
---------------------------------
  C     -1.238000    3.333320   -3.079530
  C     -0.333240    3.990530   -2.283760
  C      1.062190    3.949900   -2.475220
  N      2.204740    3.956550   -2.590630
  C     -0.670330    4.752090   -1.146090
  N     -0.861260    5.360720   -0.190690
  C     -0.911130    2.421710   -4.168360
  C     -2.108700    1.823430   -4.629910
  C     -2.130100    0.904660   -5.649720
  C     -0.910390    0.555220   -6.240390
  C      0.279860    1.161160   -5.774720
  C      0.301430    2.093460   -4.744620
  S      1.670660    0.594580   -6.649910
  C      0.647740   -0.436970   -7.613670
  C     -0.667260   -0.361950   -7.299320
  Br     1.411530   -1.514080   -8.946270
  C     -3.252660    2.368660   -3.870280
  O     -4.428630    2.144260   -4.084770
  C     -2.674660    3.324690   -2.910710
  C     -3.387260    4.194520   -2.128260
  C     -4.739280    4.119820   -1.739780
  S     -5.538150    5.648660   -1.445200
  C     -7.008270    4.851170   -0.987930
  C     -6.856410    3.471360   -1.016240
  C     -5.580330    3.052460   -1.427040
  C     -5.176180    1.612350   -1.423360
  C     -3.768210    1.405760   -0.947240
  C     -2.946400    0.502470   -1.449600
  C     -6.145860    0.791900   -0.560230
  C     -7.580130    1.083360   -0.979460
  C     -7.942340    2.519840   -0.615060
  C     -8.181620    5.586310   -0.650990
  C     -8.231450    6.935770   -0.651270
  C     -9.347940    7.792100   -0.371670
  C    -10.665360    7.528500   -0.428460
  C    -11.276410    6.234330   -0.858600
  C    -11.653740    8.638950   -0.160510
  N    -12.264660    9.061840   -1.401870
  C    -13.482410    8.646060   -1.805320
  C    -13.907380    8.669050   -3.098950
  C    -15.198560    8.345300   -3.561650
  C    -16.352280    8.109840   -2.857870
  C    -17.606770    7.793180   -3.438260
  C    -18.633410    7.671030   -2.553410
  C    -18.259560    7.886260   -1.207780
  S    -16.545640    8.219540   -1.108730
  C    -19.061240    7.875520   -0.085200
  C    -20.445420    7.608690   -0.003670
  C    -20.954730    7.709520    1.253900
  C    -20.003370    8.068330    2.243900
  S    -18.422120    8.251210    1.508490
  C    -20.262990    8.266410    3.573450
  C    -19.351720    8.655030    4.570630
  S    -17.638830    8.952870    4.322590
  C    -17.342710    9.372750    5.966200
  C    -18.502310    9.293710    6.699750
  C    -19.620100    8.888830    5.908580
  O    -20.743950    8.822620    6.655580
  C    -20.357110    9.180200    7.909730
  N    -21.342550    9.200530    8.920650
  O    -20.972140    9.532330   10.033140
  O    -22.477240    8.892940    8.621170
  C    -19.023110    9.476860    8.009520
  H     -3.057750    0.466520   -5.983610
  H      1.232750    2.533650   -4.429580
  H     -1.435350   -0.927790   -7.794200
  H     -2.876630    5.090110   -1.791610
  H     -5.252540    1.247360   -2.457740
  H     -3.456240    2.028720   -0.118220
  H     -3.232900   -0.128890   -2.275230
  H     -1.953160    0.354530   -1.060350
  H     -6.008390    1.048140    0.493010
  H     -5.915930   -0.267320   -0.682260
  H     -7.674220    0.942070   -2.057960
  H     -8.269210    0.396020   -0.486010
  H     -8.092760    2.596270    0.467290
  H     -8.881570    2.801690   -1.097130
  H     -9.035860    4.997310   -0.359340
  H     -7.308090    7.460730   -0.870140
  H     -9.061660    8.804920   -0.111740
  H    -10.668650    5.748810   -1.619510
  H    -12.274350    6.402000   -1.261600
  H    -11.371810    5.557090   -0.009290
  H    -11.152320    9.497060    0.297250
  H    -12.446310    8.296730    0.509340
  H    -11.615200    9.340980   -2.125320
  H    -14.132260    8.312390   -1.010330
  H    -13.189190    8.950990   -3.858810
  H    -15.308380    8.293400   -4.638100
  H    -17.709950    7.674380   -4.502960
  H    -19.648250    7.449290   -2.830200
  H    -21.025460    7.352380   -0.872140
  H    -21.986550    7.546260    1.509800
  H    -21.280980    8.126600    3.912180
  H    -16.357300    9.646350    6.278940
  H    -18.511900    9.779990    8.899390

 Total Charge           Charge          ....    0
 Multiplicity           Mult            ....    1
 Number of Electrons    NEL             ....  502
 Basis Dimension        Dim             .... 1085

ORBITAL ENERGIES
----------------

  NO   OCC          E(Eh)            E(eV)
   0   2.0000    -482.885809    -13139.9909
   1   2.0000     -88.975237     -2421.1393
   2   2.0000     -88.965235     -2420.8671
   3   2.0000     -88.960502     -2420.7383
   4   2.0000     -88.940676     -2420.1988
   5   2.0000     -88.938216     -2420.1319
   6   2.0000     -62.563524     -1702.4400
   7   2.0000     -56.397474     -1534.6533
   8   2.0000     -56.394759     -1534.5794
   9   2.0000     -56.394726     -1534.5785
  10   2.0000     -19.298916      -525.1502
  11   2.0000     -19.235937      -523.4365
  12   2.0000     -19.233540      -523.3712
  13   2.0000     -19.214289      -522.8474
  14   2.0000     -14.647251      -398.5720
  15   2.0000     -14.447023      -393.1235
  16   2.0000     -14.412852      -392.1936
  17   2.0000     -14.412291      -392.1784
  18   2.0000     -10.377738      -282.3926
  19   2.0000     -10.364260      -282.0258
  20   2.0000     -10.358827      -281.8780
  21   2.0000     -10.338732      -281.3312
  22   2.0000     -10.337257      -281.2911
  23   2.0000     -10.333262      -281.1824
  24   2.0000     -10.324530      -280.9447
  25   2.0000     -10.323079      -280.9053
  26   2.0000     -10.322651      -280.8936
  27   2.0000     -10.316751      -280.7331
  28   2.0000     -10.315935      -280.7109
  29   2.0000     -10.315547      -280.7003
  30   2.0000     -10.314318      -280.6669
  31   2.0000     -10.310422      -280.5608
  32   2.0000     -10.307304      -280.4760
  33   2.0000     -10.306935      -280.4660
  34   2.0000     -10.306145      -280.4445
  35   2.0000     -10.306010      -280.4408
  36   2.0000     -10.304388      -280.3966
  37   2.0000     -10.303310      -280.3673
  38   2.0000     -10.300870      -280.3009
  39   2.0000     -10.300040      -280.2783
  40   2.0000     -10.299119      -280.2533
  41   2.0000     -10.296675      -280.1868
  42   2.0000     -10.296658      -280.1863
  43   2.0000     -10.296633      -280.1856
  44   2.0000     -10.295115      -280.1443
  45   2.0000     -10.293476      -280.0997
  46   2.0000     -10.293326      -280.0956
  47   2.0000     -10.292545      -280.0744
  48   2.0000     -10.292292      -280.0675
  49   2.0000     -10.291032      -280.0332
  50   2.0000     -10.287614      -279.9402
  51   2.0000     -10.286386      -279.9068
  52   2.0000     -10.283326      -279.8235
  53   2.0000     -10.282419      -279.7988
  54   2.0000     -10.280456      -279.7454
  55   2.0000     -10.279895      -279.7302
  56   2.0000     -10.278968      -279.7049
  57   2.0000     -10.278570      -279.6941
  58   2.0000     -10.276242      -279.6308
  59   2.0000     -10.275821      -279.6193
  60   2.0000     -10.274519      -279.5839
  61   2.0000     -10.273255      -279.5495
  62   2.0000     -10.272594      -279.5315
  63   2.0000     -10.269440      -279.4457
  64   2.0000     -10.268273      -279.4139
  65   2.0000     -10.261936      -279.2415
  66   2.0000     -10.260216      -279.1947
  67   2.0000      -8.792946      -239.2682
  68   2.0000      -8.071167      -219.6276
  69   2.0000      -8.059596      -219.3128
  70   2.0000      -8.056323      -219.2237
  71   2.0000      -8.036474      -218.6836
  72   2.0000      -8.034260      -218.6233
  73   2.0000      -6.629250      -180.3911
  74   2.0000      -6.614679      -179.9946
  75   2.0000      -6.614479      -179.9891
  76   2.0000      -6.040854      -164.3800
  77   2.0000      -6.036590      -164.2640
  78   2.0000      -6.032414      -164.1503
  79   2.0000      -6.028969      -164.0566
  80   2.0000      -6.025523      -163.9628
  81   2.0000      -6.024541      -163.9361
  82   2.0000      -6.022030      -163.8678
  83   2.0000      -6.021634      -163.8570
  84   2.0000      -6.018293      -163.7661
  85   2.0000      -6.006207      -163.4372
  86   2.0000      -6.004066      -163.3789
  87   2.0000      -6.002240      -163.3292
  88   2.0000      -5.999987      -163.2679
  89   2.0000      -5.997468      -163.1994
  90   2.0000      -5.995130      -163.1358
  91   2.0000      -2.745106       -74.6981
  92   2.0000      -2.741036       -74.5874
  93   2.0000      -2.740890       -74.5834
  94   2.0000      -2.729307       -74.2682
  95   2.0000      -2.729292       -74.2678
  96   2.0000      -1.318072       -35.8666
  97   2.0000      -1.218379       -33.1538
  98   2.0000      -1.134026       -30.8584
  99   2.0000      -1.128228       -30.7006
 100   2.0000      -1.048745       -28.5378
 101   2.0000      -1.021578       -27.7985
 102   2.0000      -1.011536       -27.5253
 103   2.0000      -1.001481       -27.2517
 104   2.0000      -0.991243       -26.9731
 105   2.0000      -0.989445       -26.9242
 106   2.0000      -0.987319       -26.8663
 107   2.0000      -0.982537       -26.7362
 108   2.0000      -0.963299       -26.2127
 109   2.0000      -0.942516       -25.6472
 110   2.0000      -0.936464       -25.4825
 111   2.0000      -0.926818       -25.2200
 112   2.0000      -0.926201       -25.2032
 113   2.0000      -0.912099       -24.8195
 114   2.0000      -0.907053       -24.6822
 115   2.0000      -0.897159       -24.4129
 116   2.0000      -0.887925       -24.1617
 117   2.0000      -0.885036       -24.0831
 118   2.0000      -0.882163       -24.0049
 119   2.0000      -0.877854       -23.8876
 120   2.0000      -0.866399       -23.5759
 121   2.0000      -0.856934       -23.3183
 122   2.0000      -0.844660       -22.9844
 123   2.0000      -0.832765       -22.6607
 124   2.0000      -0.831237       -22.6191
 125   2.0000      -0.827934       -22.5292
 126   2.0000      -0.826966       -22.5029
 127   2.0000      -0.818283       -22.2666
 128   2.0000      -0.811792       -22.0900
 129   2.0000      -0.805656       -21.9230
 130   2.0000      -0.791527       -21.5385
 131   2.0000      -0.784561       -21.3490
 132   2.0000      -0.773635       -21.0517
 133   2.0000      -0.759753       -20.6739
 134   2.0000      -0.757032       -20.5999
 135   2.0000      -0.747834       -20.3496
 136   2.0000      -0.727112       -19.7857
 137   2.0000      -0.725187       -19.7333
 138   2.0000      -0.716695       -19.5023
 139   2.0000      -0.700859       -19.0713
 140   2.0000      -0.697047       -18.9676
 141   2.0000      -0.694033       -18.8856
 142   2.0000      -0.688492       -18.7348
 143   2.0000      -0.685838       -18.6626
 144   2.0000      -0.670242       -18.2382
 145   2.0000      -0.663420       -18.0526
 146   2.0000      -0.661726       -18.0065
 147   2.0000      -0.656054       -17.8521
 148   2.0000      -0.653827       -17.7915
 149   2.0000      -0.638649       -17.3785
 150   2.0000      -0.635933       -17.3046
 151   2.0000      -0.632210       -17.2033
 152   2.0000      -0.630566       -17.1586
 153   2.0000      -0.624362       -16.9898
 154   2.0000      -0.623396       -16.9635
 155   2.0000      -0.619809       -16.8659
 156   2.0000      -0.617846       -16.8124
 157   2.0000      -0.612191       -16.6586
 158   2.0000      -0.610809       -16.6210
 159   2.0000      -0.604987       -16.4625
 160   2.0000      -0.596390       -16.2286
 161   2.0000      -0.590485       -16.0679
 162   2.0000      -0.585380       -15.9290
 163   2.0000      -0.580918       -15.8076
 164   2.0000      -0.579314       -15.7639
 165   2.0000      -0.576451       -15.6860
 166   2.0000      -0.568621       -15.4730
 167   2.0000      -0.565243       -15.3810
 168   2.0000      -0.555656       -15.1202
 169   2.0000      -0.555499       -15.1159
 170   2.0000      -0.551571       -15.0090
 171   2.0000      -0.547703       -14.9037
 172   2.0000      -0.542618       -14.7654
 173   2.0000      -0.542389       -14.7592
 174   2.0000      -0.535924       -14.5832
 175   2.0000      -0.535326       -14.5670
 176   2.0000      -0.532942       -14.5021
 177   2.0000      -0.527734       -14.3604
 178   2.0000      -0.523222       -14.2376
 179   2.0000      -0.522241       -14.2109
 180   2.0000      -0.516953       -14.0670
 181   2.0000      -0.515704       -14.0330
 182   2.0000      -0.512013       -13.9326
 183   2.0000      -0.511503       -13.9187
 184   2.0000      -0.507785       -13.8175
 185   2.0000      -0.505590       -13.7578
 186   2.0000      -0.500939       -13.6312
 187   2.0000      -0.500504       -13.6194
 188   2.0000      -0.499461       -13.5910
 189   2.0000      -0.494504       -13.4561
 190   2.0000      -0.491525       -13.3751
 191   2.0000      -0.490876       -13.3574
 192   2.0000      -0.489828       -13.3289
 193   2.0000      -0.487475       -13.2649
 194   2.0000      -0.483072       -13.1451
 195   2.0000      -0.481643       -13.1062
 196   2.0000      -0.476527       -12.9670
 197   2.0000      -0.474561       -12.9135
 198   2.0000      -0.473481       -12.8841
 199   2.0000      -0.467253       -12.7146
 200   2.0000      -0.464282       -12.6338
 201   2.0000      -0.460597       -12.5335
 202   2.0000      -0.457931       -12.4609
 203   2.0000      -0.456659       -12.4263
 204   2.0000      -0.452883       -12.3236
 205   2.0000      -0.450944       -12.2708
 206   2.0000      -0.448195       -12.1960
 207   2.0000      -0.447329       -12.1724
 208   2.0000      -0.446452       -12.1486
 209   2.0000      -0.443444       -12.0667
 210   2.0000      -0.443323       -12.0634
 211   2.0000      -0.441276       -12.0077
 212   2.0000      -0.437978       -11.9180
 213   2.0000      -0.432810       -11.7774
 214   2.0000      -0.430457       -11.7133
 215   2.0000      -0.427013       -11.6196
 216   2.0000      -0.423884       -11.5345
 217   2.0000      -0.423456       -11.5228
 218   2.0000      -0.420142       -11.4326
 219   2.0000      -0.419781       -11.4228
 220   2.0000      -0.413854       -11.2615
 221   2.0000      -0.409964       -11.1557
 222   2.0000      -0.409340       -11.1387
 223   2.0000      -0.408022       -11.1028
 224   2.0000      -0.405365       -11.0306
 225   2.0000      -0.401236       -10.9182
 226   2.0000      -0.400419       -10.8960
 227   2.0000      -0.395949       -10.7743
 228   2.0000      -0.386426       -10.5152
 229   2.0000      -0.386225       -10.5097
 230   2.0000      -0.381309       -10.3759
 231   2.0000      -0.378012       -10.2862
 232   2.0000      -0.375893       -10.2286
 233   2.0000      -0.375164       -10.2087
 234   2.0000      -0.371494       -10.1089
 235   2.0000      -0.363168        -9.8823
 236   2.0000      -0.353210        -9.6113
 237   2.0000      -0.344992        -9.3877
 238   2.0000      -0.338865        -9.2210
 239   2.0000      -0.335604        -9.1323
 240   2.0000      -0.331701        -9.0260
 241   2.0000      -0.322172        -8.7667
 242   2.0000      -0.319402        -8.6914
 243   2.0000      -0.315982        -8.5983
 244   2.0000      -0.310773        -8.4566
 245   2.0000      -0.308910        -8.4059
 246   2.0000      -0.296400        -8.0654
 247   2.0000      -0.292857        -7.9691
 248   2.0000      -0.263285        -7.1643
 249   2.0000      -0.255922        -6.9640
 250   2.0000      -0.198584        -5.4038
 251   0.0000      -0.092737        -2.5235
 252   0.0000      -0.068742        -1.8706
 253   0.0000      -0.060102        -1.6355
 254   0.0000      -0.049447        -1.3455
 255   0.0000      -0.030993        -0.8434

MULLIKEN ATOMIC CHARGES
-----------------------
   0 C :    0.301734
   1 C :   -0.343184
   2 C :   -0.186148
   3 N :    0.145639
   4 C :   -0.209310
   5 N :    0.159258
   6 C :    0.019366
   7 C :   -0.016146
   8 C :   -0.075576
   9 C :    0.116523
  10 C :   -0.090033
  11 C :   -0.023616
  12 S :    0.185025
  13 C :   -0.123328
  14 C :    0.037444
  15 Br:    0.021968
  16 C :    0.141380
  17 O :   -0.164445
  18 C :   -0.069245
  19 C :   -0.018397
  20 C :   -0.137664
  21 S :    0.119957
  22 C :   -0.086022
  23 C :   -0.112196
  24 C :    0.056215
  25 C :    0.007149
  26 C :   -0.034864
  27 C :   -0.018108
  28 C :    0.063910
  29 C :    0.057837
  30 C :    0.106970
  31 C :   -0.011827
  32 C :    0.014142
  33 C :    0.006983
  34 C :   -0.202310
  35 C :    0.084059
  36 C :    0.200895
  37 N :   -0.144372
  38 C :    0.050503
  39 C :   -0.042747
  40 C :    0.009974
  41 C :   -0.045465
  42 C :    0.042350
  43 C :    0.012134
  44 C :   -0.027652
  45 S :    0.029380
  46 C :   -0.048022
  47 C :    0.031879
  48 C :    0.027447
  49 C :   -0.020054
  50 S :    0.045189
  51 C :   -0.023851
  52 C :   -0.182818
  53 S :    0.127858
  54 C :   -0.143777
  55 C :    0.131282
  56 C :    0.185109
  57 O :   -0.184524
  58 C :    0.228674
  59 N :    0.276517
  60 O :   -0.254542
  61 O :   -0.233470
  62 C :   -0.073421
  63 H :   -0.015921
  64 H :   -0.006632
  65 H :   -0.005096
  66 H :    0.032212
  67 H :    0.041339
  68 H :    0.007748
  69 H :    0.013872
  70 H :    0.023065
  71 H :   -0.002636
  72 H :    0.000758
  73 H :    0.008892
  74 H :    0.001903
  75 H :    0.017899
  76 H :    0.016161
  77 H :   -0.012575
  78 H :    0.002439
  79 H :   -0.017414
  80 H :    0.032703
  81 H :    0.023365
  82 H :    0.041335
  83 H :    0.013801
  84 H :    0.025996
  85 H :    0.117838
  86 H :    0.023250
  87 H :   -0.029803
  88 H :   -0.013475
  89 H :   -0.015690
  90 H :   -0.019798
  91 H :   -0.016795
  92 H :   -0.015435
  93 H :   -0.002277
  94 H :    0.023231
  95 H :    0.008125
Sum of atomic charges:   -0.0000000

LOEWDIN ATOMIC CHARGES
----------------------
   0 C :    0.077039
   1 C :   -0.143853
   2 C :   -0.018651
   3 N :   -0.056848
   4 C :   -0.025879
   5 N :   -0.054946
   6 C :   -0.020292
   7 C :   -0.046927
   8 C :    0.017378
   9 C :   -0.033533
  10 C :   -0.145240
  11 C :   -0.010081
  12 S :    0.431357
  13 C :   -0.272156
  14 C :   -0.071165
  15 Br:    0.135364
  16 C :    0.085926
  17 O :   -0.148233
  18 C :   -0.091710
  19 C :    0.042260
  20 C :   -0.174810
  21 S :    0.441872
  22 C :   -0.148945
  23 C :   -0.056989
  24 C :   -0.002497
  25 C :   -0.035169
  26 C :   -0.002869
  27 C :   -0.060250
  28 C :   -0.015200
  29 C :   -0.027924
  30 C :   -0.027529
  31 C :   -0.041795
  32 C :   -0.017831
  33 C :   -0.059046
  34 C :   -0.025345
  35 C :   -0.054166
  36 C :    0.048922
  37 N :    0.009078
  38 C :    0.041968
  39 C :   -0.134989
  40 C :   -0.030567
  41 C :   -0.179253
  42 C :   -0.019699
  43 C :   -0.059620
  44 C :   -0.164193
  45 S :    0.360446
  46 C :   -0.197772
  47 C :   -0.030872
  48 C :   -0.044626
  49 C :   -0.145745
  50 S :    0.350123
  51 C :   -0.089573
  52 C :   -0.197732
  53 S :    0.462527
  54 C :   -0.204455
  55 C :   -0.084032
  56 C :    0.012493
  57 O :   -0.000512
  58 C :    0.022191
  59 N :    0.272654
  60 O :   -0.215523
  61 O :   -0.195323
  62 C :   -0.010998
  63 H :    0.038867
  64 H :    0.040832
  65 H :    0.038138
  66 H :    0.043542
  67 H :    0.042514
  68 H :    0.026924
  69 H :    0.020431
  70 H :    0.025053
  71 H :    0.021040
  72 H :    0.026493
  73 H :    0.025784
  74 H :    0.025900
  75 H :    0.033271
  76 H :    0.031204
  77 H :    0.031753
  78 H :    0.024189
  79 H :    0.027768
  80 H :    0.036721
  81 H :    0.034080
  82 H :    0.040932
  83 H :    0.026412
  84 H :    0.034215
  85 H :    0.079607
  86 H :    0.011872
  87 H :    0.023071
  88 H :    0.035647
  89 H :    0.032107
  90 H :    0.029158
  91 H :    0.031066
  92 H :    0.032186
  93 H :    0.043297
  94 H :    0.024707
  95 H :    0.044987

  Mayer bond orders larger than 0.100000
B(  0-C ,  1-C ) :   1.6293 B(  0-C ,  6-C ) :   1.0045 B(  0-C , 18-C ) :   1.0884
B(  1-C ,  2-C ) :   1.1399 B(  1-C ,  4-C ) :   1.1447 B(  2-C ,  3-N ) :   2.9705
B(  4-C ,  5-N ) :   2.9937 B(  6-C ,  7-C ) :   1.2745 B(  6-C , 11-C ) :   1.4081
B(  7-C ,  8-C ) :   1.4252 B(  7-C , 16-C ) :   0.9321 B(  8-C ,  9-C ) :   1.2416
B(  8-C , 63-H ) :   1.0183 B(  9-C , 10-C ) :   1.3098 B(  9-C , 14-C ) :   1.1616
B( 10-C , 11-C ) :   1.3267 B( 10-C , 12-S ) :   1.0837 B( 11-C , 64-H ) :   0.9810
B( 12-S , 13-C ) :   1.0871 B( 13-C , 14-C ) :   1.6187 B( 13-C , 15-Br) :   1.0171
B( 14-C , 65-H ) :   1.0006 B( 16-C , 17-O ) :   2.1603 B( 16-C , 18-C ) :   0.9709
B( 18-C , 19-C ) :   1.5606 B( 19-C , 20-C ) :   1.1874 B( 19-C , 66-H ) :   0.9296
B( 20-C , 21-S ) :   1.0905 B( 20-C , 24-C ) :   1.4501 B( 21-S , 22-C ) :   1.1335
B( 22-C , 23-C ) :   1.4656 B( 22-C , 31-C ) :   1.1546 B( 23-C , 24-C ) :   1.3550
B( 23-C , 30-C ) :   1.0469 B( 24-C , 25-C ) :   0.9804 B( 25-C , 26-C ) :   1.0188
B( 25-C , 28-C ) :   1.0627 B( 25-C , 67-H ) :   0.8487 B( 26-C , 27-C ) :   1.9886
B( 26-C , 68-H ) :   0.9612 B( 27-C , 69-H ) :   0.9464 B( 27-C , 70-H ) :   0.9515
B( 28-C , 29-C ) :   1.0703 B( 28-C , 71-H ) :   0.9359 B( 28-C , 72-H ) :   0.9317
B( 29-C , 30-C ) :   1.0989 B( 29-C , 73-H ) :   0.9385 B( 29-C , 74-H ) :   0.9305
B( 30-C , 75-H ) :   0.9120 B( 30-C , 76-H ) :   0.9116 B( 31-C , 32-C ) :   1.6902
B( 31-C , 77-H ) :   0.9643 B( 32-C , 33-C ) :   1.1221 B( 32-C , 78-H ) :   0.9569
B( 33-C , 34-C ) :   1.7948 B( 33-C , 79-H ) :   0.9529 B( 34-C , 35-C ) :   1.0787
B( 34-C , 36-C ) :   1.0449 B( 35-C , 80-H ) :   0.9433 B( 35-C , 81-H ) :   0.9430
B( 35-C , 82-H ) :   0.9355 B( 36-C , 37-N ) :   1.0031 B( 36-C , 83-H ) :   0.9412
B( 36-C , 84-H ) :   0.9318 B( 37-N , 38-C ) :   1.2466 B( 37-N , 85-H ) :   0.9378
B( 38-C , 39-C ) :   1.5597 B( 38-C , 86-H ) :   0.9432 B( 39-C , 40-C ) :   1.2287
B( 39-C , 87-H ) :   0.9590 B( 40-C , 41-C ) :   1.5823 B( 40-C , 88-H ) :   0.9598
B( 41-C , 42-C ) :   1.1575 B( 41-C , 45-S ) :   1.0063 B( 42-C , 43-C ) :   1.5837
B( 42-C , 89-H ) :   0.9971 B( 43-C , 44-C ) :   1.1878 B( 43-C , 90-H ) :   0.9930
B( 44-C , 45-S ) :   1.0479 B( 44-C , 46-C ) :   1.5150 B( 46-C , 47-C ) :   1.1903
B( 46-C , 50-S ) :   1.0215 B( 47-C , 48-C ) :   1.5896 B( 47-C , 91-H ) :   0.9919
B( 48-C , 49-C ) :   1.1429 B( 48-C , 92-H ) :   1.0001 B( 49-C , 50-S ) :   1.0398
B( 49-C , 51-C ) :   1.5624 B( 51-C , 52-C ) :   1.1747 B( 51-C , 93-H ) :   0.9731
B( 52-C , 53-S ) :   1.1088 B( 52-C , 54-C ) :   0.1086 B( 52-C , 56-C ) :   1.4437
B( 53-S , 54-C ) :   1.1736 B( 54-C , 55-C ) :   1.4145 B( 54-C , 94-H ) :   0.9768
B( 55-C , 56-C ) :   1.2310 B( 55-C , 62-C ) :   1.0612 B( 56-C , 57-O ) :   1.1160
B( 57-O , 58-C ) :   1.1278 B( 58-C , 59-N ) :   0.9225 B( 58-C , 62-C ) :   1.5701
B( 59-N , 60-O ) :   1.5283 B( 59-N , 61-O ) :   1.5120 B( 60-O , 61-O ) :   0.2778
B( 62-C , 95-H ) :   1.0248

-----------------------------------------------------------------------------
         ABSORPTION SPECTRUM VIA TRANSITION ELECTRIC DIPOLE MOMENTS
-----------------------------------------------------------------------------
State   Energy  Wavelength   fosc         T2         TX        TY        TZ
        (cm-1)    (nm)                  (au**2)     (au)      (au)      (au)
-----------------------------------------------------------------------------
   0   14165.9    705.9   0.748245502  17.38905   2.90918  -0.61949  -2.92266
   1   15265.4    655.1   0.224762739   4.84721  -0.39112  -0.09033   2.16474
   2   18659.5    535.9   0.563755873   9.94641   2.63251  -0.06068  -1.73570
   3   20628.9    484.8   0.852162367  13.59945  -3.37422   1.33314   0.66093
   4   22599.7    442.5   0.020375676   0.29681  -0.08964   0.23216  -0.48464
   5   25004.4    399.9   0.061444378   0.80899  -0.69663  -0.08167  -0.56305
   6   26154.5    382.3   0.032655879   0.41105   0.31069  -0.47294  -0.30140
   7   26856.2    372.4   0.079302180   0.97211  -0.57415   0.20394  -0.77516
   8   27879.1    358.7   0.109115092   1.28849  -0.01149  -0.67067  -0.91573
   9   28167.3    355.0   0.352841901   4.12392  -0.67467   1.32483   1.38332
  10   28972.1    345.2   0.065931029   0.74918   0.70786  -0.16879  -0.46864
  11   29592.8    337.9   0.347030802   3.86062  -1.42430  -0.32026  -1.31507
  12   29996.4    333.4   0.119372392   1.31012   0.70256  -0.85361  -0.29643
  13   30621.5    326.6   0.117762103   1.26606  -0.52322  -0.68027  -0.72770
  14   30635.7    326.4   0.261441496   2.80946   0.29071   0.14631   1.64425
  15   30689.9    325.8   0.187097180   2.00700   1.13099   0.41915   0.74308
  16   32264.7    309.9   0.123210874   1.25718  -0.06863  -0.71257  -0.86297
  17   32632.9    306.4   0.101031490   1.01924   0.94558   0.34725   0.06727
  18   33155.3    301.6   0.060238349   0.59813   0.46705  -0.29117  -0.54334
  19   33207.3    301.1   0.091402317   0.90615  -0.67934   0.34806   0.56878
  20   33401.0    299.4   0.461822768   4.55188   0.24228   1.49949   1.49824
  21   34269.4    291.8   0.004004058   0.03847  -0.13722   0.00563   0.14002
  22   34539.5    289.5   0.123182901   1.17411   1.00215  -0.13092   0.39071
  23   35066.1    285.2   0.034783075   0.32655  -0.17581  -0.54248   0.03692
  24   35204.5    284.1   0.039360104   0.36807  -0.46888   0.34967  -0.16111
  25   35618.4    280.8   0.028687484   0.26515   0.02399   0.44361  -0.26036
  26   36377.7    274.9   0.099428130   0.89981   0.83747   0.16037  -0.41562
  27   36685.4    272.6   0.361455941   3.24368  -1.14171  -0.02473   1.39268
  28   37230.6    268.6   0.046972242   0.41535  -0.46656   0.11453   0.42960
  29   37618.5    265.8   0.015718875   0.13756  -0.35821  -0.04489   0.08504
  30   38536.2    259.5   0.030285435   0.25873   0.00911   0.03929   0.50705
  31   38891.6    257.1   0.087228516   0.73838  -0.77123   0.15795   0.34443
  32   39296.6    254.5   0.008540550   0.07155  -0.24015  -0.09218  -0.07336
  33   39449.1    253.5   0.038157580   0.31843   0.49890   0.06302   0.25605
  34   39667.1    252.1   0.007571311   0.06284   0.24389   0.05773  -0.00458
  35   39724.9    251.7   0.020783615   0.17224   0.26043   0.08379  -0.31209
  36   40165.4    249.0   0.012950665   0.10615  -0.31484  -0.08123   0.02063

FINAL SINGLE POINT ENERGY     -6967.989906152235

DIPOLE MOMENT
-------------
                                X             Y             Z
Electronic contribution:    130.19438     -63.25598     -80.14585
Nuclear contribution   :   -129.70457      62.01787      76.84392
                        -----------------------------------------
Total Dipole Moment    :      0.48981      -1.23811      -3.30193
                        -----------------------------------------
Magnitude (a.u.)       :      3.56028
Magnitude (Debye)      :      9.04952

Rotational constants in cm-1:     0.001993     0.000179     0.000172
Rotational constants in MHz :    59.758823     5.362427     5.142373

                             ****ORCA TERMINATED NORMALLY****
TOTAL RUN TIME: 0 days 0 hours 13 minutes 32 seconds 67 msec
