                         Program Version 4.2.0 -  RELEASE  -
|  1> # ORCA input file
|  2> # SCF done       -191.596018792297          0.000882181785
|  3> ! CAM-B3LYP def2-SVP def2/J RIJCOSX Grid4 TightSCF
|  4> %maxcore 5000
|  5> %tddft
|  6>     Mode sTDDFT
|  7>     Ethresh 5.0
|  8>     maxcore 5000
|  9> end
| 10>
| 11> %pal
| 12>   nprocs 6
| 13>   end
| 14> * xyz 0 1
| 15>    C      -10.88047        -0.65679        -3.44040
| 16>    C      -12.09007        -0.46720        -2.82251
| 17>    C      -13.33275        -0.57120        -3.47791
| 18>    N      -14.37768        -0.65151        -3.94847
| 19>    C      -12.29872        -0.14515        -1.46533
| 20>    N      -12.58463         0.12230        -0.38477
| 21>    C      -10.70267        -0.95456        -4.85631
| 22>    C       -9.33289        -1.21223        -5.09978
| 23>    C       -8.85012        -1.52375        -6.34583
| 24>    C       -9.75538        -1.55893        -7.41020
| 25>    C      -11.11917        -1.27842        -7.16126
| 26>    C      -11.61219        -0.98100        -5.89793
| 27>    S      -12.06453        -1.36364        -8.61793
| 28>    C      -10.63452        -1.77497        -9.52579
| 29>    C       -9.50641        -1.84473        -8.78049
| 30>   Br      -10.76288        -2.07643       -11.37262
| 31>    C       -8.57701        -1.07495        -3.83756
| 32>    O       -7.42235        -1.39700        -3.65716
| 33>    C       -9.55485        -0.58175        -2.84224
| 34>    C       -9.30888        -0.12196        -1.58706
| 35>    C       -8.08953         0.23842        -0.91983
| 36>    C       -8.09602         0.05873         0.48127
| 37>    O       -9.21532        -0.52712         1.02346
| 38>    C       -9.94295         0.25670         1.97133
| 39>    C      -11.07077        -0.59765         2.52108
| 40>    C       -6.99400         0.37811         1.28015
| 41>    O       -7.00171         0.08917         2.63357
| 42>    C       -7.14945        -1.28962         2.97641
| 43>    C       -7.06990        -1.39852         4.48904
| 44>    C       -5.90357         1.04122         0.68617
| 45>    O       -4.80317         1.54595         1.28033
| 46>    C       -4.46221         1.31597         2.63866
| 47>    C       -3.69833         0.00748         2.80857
| 48>    C       -5.94300         1.28646        -0.68873
| 49>    C       -6.98032         0.88670        -1.50327
| 50>    C       -6.93502         1.20972        -2.93824
| 51>    C       -5.85237         0.73265        -3.68656
| 52>    O       -4.81959         0.14384        -3.00581
| 53>    C       -3.53846         0.73943        -3.18817
| 54>    C       -2.59806         0.11308        -2.17203
| 55>    C       -5.85438         0.78040        -5.09067
| 56>    O       -4.84458         0.17125        -5.80864
| 57>    C       -4.70226        -1.23620        -5.59943
| 58>    C       -3.44381        -1.68906        -6.31989
| 59>    C       -6.89990         1.44822        -5.74765
| 60>    O       -7.06131         1.62773        -7.08266
| 61>    C       -5.99991         1.47003        -8.01362
| 62>    C       -6.10138         0.14748        -8.76363
| 63>    C       -7.92224         2.00341        -4.98388
| 64>    C       -7.96678         1.88727        -3.60182
| 65>    C       -9.07302         2.48694        -2.87966
| 66>    S      -10.67789         2.46139        -3.54274
| 67>    C      -11.36747         3.13672        -2.09057
| 68>    C      -10.37183         3.41918        -1.17536
| 69>    C       -9.07710         3.07484        -1.63403
| 70>    O       -7.91573         3.25221        -0.94577
| 71>    S       -7.81093         4.56357         0.07148
| 72>    C       -9.11801         4.03918         1.20253
| 73>    S      -10.75215         4.12514         0.39260
| 74>    C      -12.76447         3.31132        -1.91625
| 75>    C      -13.69916         2.95353        -2.82257
| 76>    C      -15.10085         3.09533        -2.62098
| 77>    O      -15.57734         3.64671        -1.47374
| 78>    C      -16.91271         3.64107        -1.55588
| 79>    C      -17.32766         3.09827        -2.73570
| 80>    C      -16.15842         2.73796        -3.44255
| 81>    C      -16.08371         2.09158        -4.77862
| 82>    H       -7.80270        -1.72669        -6.49961
| 83>    H      -12.66064        -0.77775        -5.76014
| 84>    H       -8.53941        -2.09234        -9.17900
| 85>    H      -10.17946        -0.00546        -0.95091
| 86>    H      -10.36467         1.13372         1.46047
| 87>    H       -9.28326         0.59972         2.77715
| 88>    H      -11.63302        -0.02588         3.25350
| 89>    H      -10.67508        -1.49382         2.99236
| 90>    H      -11.73636        -0.88546         1.71220
| 91>    H       -6.34592        -1.87067         2.50267
| 92>    H       -8.10478        -1.68067         2.61298
| 93>    H       -6.11225        -1.02694         4.84507
| 94>    H       -7.18152        -2.43755         4.78595
| 95>    H       -7.86150        -0.81150         4.94757
| 96>    H       -5.34774         1.33828         3.27614
| 97>    H       -3.81362         2.15947         2.89551
| 98>    H       -4.31333        -0.83555         2.50595
| 99>    H       -3.41306        -0.11978         3.84899
|100>    H       -2.80123         0.01701         2.19425
|101>    H       -5.12036         1.84770        -1.09842
|102>    H       -3.61205         1.82439        -3.02595
|103>    H       -3.16832         0.57599        -4.20707
|104>    H       -2.96735         0.29426        -1.16618
|105>    H       -1.60501         0.54218        -2.27421
|106>    H       -2.54338        -0.96049        -2.33129
|107>    H       -5.58396        -1.75005        -6.00660
|108>    H       -4.65239        -1.47003        -4.53327
|109>    H       -3.49577        -1.42391        -7.37323
|110>    H       -3.33942        -2.76646        -6.22770
|111>    H       -2.56760        -1.21177        -5.88868
|112>    H       -5.03042         1.56613        -7.52256
|113>    H       -6.12494         2.29875        -8.72036
|114>    H       -5.95773        -0.68701        -8.08434
|115>    H       -5.33901         0.10624        -9.53679
|116>    H       -7.08201         0.06391        -9.22611
|117>    H       -8.70717         2.52718        -5.50771
|118>    H       -8.90917         3.02184         1.52980
|119>    H       -9.14897         4.72670         2.04201
|120>    H      -13.06953         3.73825        -0.97057
|121>    H      -13.40006         2.52253        -3.76840
|122>    H      -17.45646         4.04545        -0.72468
|123>    H      -18.33924         2.96918        -3.06288
|124>    H      -17.07203         2.04276        -5.22714
|125>    H      -15.69237         1.07887        -4.68163
|126>    H      -15.42154         2.64749        -5.44072
|127> *
|128>
|129>                          ****END OF INPUT****

CARTESIAN COORDINATES (ANGSTROEM)
---------------------------------
  C    -10.880470   -0.656790   -3.440400
  C    -12.090070   -0.467200   -2.822510
  C    -13.332750   -0.571200   -3.477910
  N    -14.377680   -0.651510   -3.948470
  C    -12.298720   -0.145150   -1.465330
  N    -12.584630    0.122300   -0.384770
  C    -10.702670   -0.954560   -4.856310
  C     -9.332890   -1.212230   -5.099780
  C     -8.850120   -1.523750   -6.345830
  C     -9.755380   -1.558930   -7.410200
  C    -11.119170   -1.278420   -7.161260
  C    -11.612190   -0.981000   -5.897930
  S    -12.064530   -1.363640   -8.617930
  C    -10.634520   -1.774970   -9.525790
  C     -9.506410   -1.844730   -8.780490
  Br   -10.762880   -2.076430  -11.372620
  C     -8.577010   -1.074950   -3.837560
  O     -7.422350   -1.397000   -3.657160
  C     -9.554850   -0.581750   -2.842240
  C     -9.308880   -0.121960   -1.587060
  C     -8.089530    0.238420   -0.919830
  C     -8.096020    0.058730    0.481270
  O     -9.215320   -0.527120    1.023460
  C     -9.942950    0.256700    1.971330
  C    -11.070770   -0.597650    2.521080
  C     -6.994000    0.378110    1.280150
  O     -7.001710    0.089170    2.633570
  C     -7.149450   -1.289620    2.976410
  C     -7.069900   -1.398520    4.489040
  C     -5.903570    1.041220    0.686170
  O     -4.803170    1.545950    1.280330
  C     -4.462210    1.315970    2.638660
  C     -3.698330    0.007480    2.808570
  C     -5.943000    1.286460   -0.688730
  C     -6.980320    0.886700   -1.503270
  C     -6.935020    1.209720   -2.938240
  C     -5.852370    0.732650   -3.686560
  O     -4.819590    0.143840   -3.005810
  C     -3.538460    0.739430   -3.188170
  C     -2.598060    0.113080   -2.172030
  C     -5.854380    0.780400   -5.090670
  O     -4.844580    0.171250   -5.808640
  C     -4.702260   -1.236200   -5.599430
  C     -3.443810   -1.689060   -6.319890
  C     -6.899900    1.448220   -5.747650
  O     -7.061310    1.627730   -7.082660
  C     -5.999910    1.470030   -8.013620
  C     -6.101380    0.147480   -8.763630
  C     -7.922240    2.003410   -4.983880
  C     -7.966780    1.887270   -3.601820
  C     -9.073020    2.486940   -2.879660
  S    -10.677890    2.461390   -3.542740
  C    -11.367470    3.136720   -2.090570
  C    -10.371830    3.419180   -1.175360
  C     -9.077100    3.074840   -1.634030
  O     -7.915730    3.252210   -0.945770
  S     -7.810930    4.563570    0.071480
  C     -9.118010    4.039180    1.202530
  S    -10.752150    4.125140    0.392600
  C    -12.764470    3.311320   -1.916250
  C    -13.699160    2.953530   -2.822570
  C    -15.100850    3.095330   -2.620980
  O    -15.577340    3.646710   -1.473740
  C    -16.912710    3.641070   -1.555880
  C    -17.327660    3.098270   -2.735700
  C    -16.158420    2.737960   -3.442550
  C    -16.083710    2.091580   -4.778620
  H     -7.802700   -1.726690   -6.499610
  H    -12.660640   -0.777750   -5.760140
  H     -8.539410   -2.092340   -9.179000
  H    -10.179460   -0.005460   -0.950910
  H    -10.364670    1.133720    1.460470
  H     -9.283260    0.599720    2.777150
  H    -11.633020   -0.025880    3.253500
  H    -10.675080   -1.493820    2.992360
  H    -11.736360   -0.885460    1.712200
  H     -6.345920   -1.870670    2.502670
  H     -8.104780   -1.680670    2.612980
  H     -6.112250   -1.026940    4.845070
  H     -7.181520   -2.437550    4.785950
  H     -7.861500   -0.811500    4.947570
  H     -5.347740    1.338280    3.276140
  H     -3.813620    2.159470    2.895510
  H     -4.313330   -0.835550    2.505950
  H     -3.413060   -0.119780    3.848990
  H     -2.801230    0.017010    2.194250
  H     -5.120360    1.847700   -1.098420
  H     -3.612050    1.824390   -3.025950
  H     -3.168320    0.575990   -4.207070
  H     -2.967350    0.294260   -1.166180
  H     -1.605010    0.542180   -2.274210
  H     -2.543380   -0.960490   -2.331290
  H     -5.583960   -1.750050   -6.006600
  H     -4.652390   -1.470030   -4.533270
  H     -3.495770   -1.423910   -7.373230
  H     -3.339420   -2.766460   -6.227700
  H     -2.567600   -1.211770   -5.888680
  H     -5.030420    1.566130   -7.522560
  H     -6.124940    2.298750   -8.720360
  H     -5.957730   -0.687010   -8.084340
  H     -5.339010    0.106240   -9.536790
  H     -7.082010    0.063910   -9.226110
  H     -8.707170    2.527180   -5.507710
  H     -8.909170    3.021840    1.529800
  H     -9.148970    4.726700    2.042010
  H    -13.069530    3.738250   -0.970570
  H    -13.400060    2.522530   -3.768400
  H    -17.456460    4.045450   -0.724680
  H    -18.339240    2.969180   -3.062880
  H    -17.072030    2.042760   -5.227140
  H    -15.692370    1.078870   -4.681630
  H    -15.421540    2.647490   -5.440720

 Total Charge           Charge          ....    0
 Multiplicity           Mult            ....    1
 Number of Electrons    NEL             ....  536
 Basis Dimension        Dim             .... 1197

ORBITAL ENERGIES
----------------

  NO   OCC          E(Eh)            E(eV)
   0   2.0000    -482.880467    -13139.8455
   1   2.0000     -88.969437     -2420.9815
   2   2.0000     -88.967676     -2420.9335
   3   2.0000     -88.946733     -2420.3637
   4   2.0000     -88.932095     -2419.9653
   5   2.0000     -62.558187     -1702.2948
   6   2.0000     -56.392126     -1534.5078
   7   2.0000     -56.389438     -1534.4346
   8   2.0000     -56.389393     -1534.4334
   9   2.0000     -19.265583      -524.2432
  10   2.0000     -19.261301      -524.1267
  11   2.0000     -19.241010      -523.5745
  12   2.0000     -19.237167      -523.4699
  13   2.0000     -19.233265      -523.3637
  14   2.0000     -19.232668      -523.3475
  15   2.0000     -19.232010      -523.3296
  16   2.0000     -19.226469      -523.1788
  17   2.0000     -19.202037      -522.5140
  18   2.0000     -14.407216      -392.0403
  19   2.0000     -14.404413      -391.9640
  20   2.0000     -10.352193      -281.6975
  21   2.0000     -10.350541      -281.6525
  22   2.0000     -10.335066      -281.2314
  23   2.0000     -10.330596      -281.1098
  24   2.0000     -10.329740      -281.0865
  25   2.0000     -10.328888      -281.0633
  26   2.0000     -10.327271      -281.0193
  27   2.0000     -10.325489      -280.9708
  28   2.0000     -10.325227      -280.9637
  29   2.0000     -10.322661      -280.8939
  30   2.0000     -10.322026      -280.8766
  31   2.0000     -10.317983      -280.7666
  32   2.0000     -10.315976      -280.7120
  33   2.0000     -10.314593      -280.6744
  34   2.0000     -10.313751      -280.6514
  35   2.0000     -10.312352      -280.6134
  36   2.0000     -10.310741      -280.5695
  37   2.0000     -10.310659      -280.5673
  38   2.0000     -10.308658      -280.5128
  39   2.0000     -10.308155      -280.4991
  40   2.0000     -10.307840      -280.4906
  41   2.0000     -10.302693      -280.3505
  42   2.0000     -10.298677      -280.2412
  43   2.0000     -10.298512      -280.2368
  44   2.0000     -10.297466      -280.2083
  45   2.0000     -10.296367      -280.1784
  46   2.0000     -10.295858      -280.1645
  47   2.0000     -10.294733      -280.1339
  48   2.0000     -10.293480      -280.0998
  49   2.0000     -10.289729      -279.9978
  50   2.0000     -10.289693      -279.9968
  51   2.0000     -10.289553      -279.9930
  52   2.0000     -10.280606      -279.7495
  53   2.0000     -10.279856      -279.7291
  54   2.0000     -10.278605      -279.6951
  55   2.0000     -10.277741      -279.6716
  56   2.0000     -10.271724      -279.5078
  57   2.0000     -10.267455      -279.3917
  58   2.0000     -10.265410      -279.3360
  59   2.0000     -10.263829      -279.2930
  60   2.0000     -10.260360      -279.1986
  61   2.0000     -10.258824      -279.1568
  62   2.0000     -10.257053      -279.1086
  63   2.0000     -10.256620      -279.0968
  64   2.0000     -10.256560      -279.0952
  65   2.0000     -10.254251      -279.0323
  66   2.0000     -10.252508      -278.9849
  67   2.0000     -10.252214      -278.9769
  68   2.0000     -10.245502      -278.7943
  69   2.0000     -10.242699      -278.7180
  70   2.0000     -10.242014      -278.6994
  71   2.0000      -8.787606      -239.1229
  72   2.0000      -8.063722      -219.4250
  73   2.0000      -8.060986      -219.3506
  74   2.0000      -8.040988      -218.8064
  75   2.0000      -8.026906      -218.4232
  76   2.0000      -6.623858      -180.2443
  77   2.0000      -6.609352      -179.8496
  78   2.0000      -6.609184      -179.8451
  79   2.0000      -6.034815      -164.2157
  80   2.0000      -6.033401      -164.1772
  81   2.0000      -6.029173      -164.0621
  82   2.0000      -6.027429      -164.0147
  83   2.0000      -6.024912      -163.9462
  84   2.0000      -6.017438      -163.7428
  85   2.0000      -6.010361      -163.5502
  86   2.0000      -6.006621      -163.4485
  87   2.0000      -6.002753      -163.3432
  88   2.0000      -5.997364      -163.1966
  89   2.0000      -5.993465      -163.0905
  90   2.0000      -5.986357      -162.8971
  91   2.0000      -2.739736       -74.5520
  92   2.0000      -2.735652       -74.4409
  93   2.0000      -2.735550       -74.4381
  94   2.0000      -2.724005       -74.1240
  95   2.0000      -2.723998       -74.1237
  96   2.0000      -1.183816       -32.2133
  97   2.0000      -1.160025       -31.5659
  98   2.0000      -1.153562       -31.3900
  99   2.0000      -1.147865       -31.2350
 100   2.0000      -1.140441       -31.0330
 101   2.0000      -1.133476       -30.8435
 102   2.0000      -1.120285       -30.4845
 103   2.0000      -1.116712       -30.3873
 104   2.0000      -1.114997       -30.3406
 105   2.0000      -1.013349       -27.5746
 106   2.0000      -1.004625       -27.3372
 107   2.0000      -0.985549       -26.8182
 108   2.0000      -0.982995       -26.7487
 109   2.0000      -0.977686       -26.6042
 110   2.0000      -0.957452       -26.0536
 111   2.0000      -0.936944       -25.4955
 112   2.0000      -0.931282       -25.3415
 113   2.0000      -0.916631       -24.9428
 114   2.0000      -0.899213       -24.4688
 115   2.0000      -0.893438       -24.3117
 116   2.0000      -0.889778       -24.2121
 117   2.0000      -0.880365       -23.9560
 118   2.0000      -0.876641       -23.8546
 119   2.0000      -0.873739       -23.7757
 120   2.0000      -0.866725       -23.5848
 121   2.0000      -0.864567       -23.5261
 122   2.0000      -0.855450       -23.2780
 123   2.0000      -0.851230       -23.1631
 124   2.0000      -0.842969       -22.9383
 125   2.0000      -0.840060       -22.8592
 126   2.0000      -0.838211       -22.8089
 127   2.0000      -0.830201       -22.5909
 128   2.0000      -0.820186       -22.3184
 129   2.0000      -0.816628       -22.2216
 130   2.0000      -0.804230       -21.8842
 131   2.0000      -0.798904       -21.7393
 132   2.0000      -0.786192       -21.3934
 133   2.0000      -0.781014       -21.2525
 134   2.0000      -0.765943       -20.8424
 135   2.0000      -0.760869       -20.7043
 136   2.0000      -0.757297       -20.6071
 137   2.0000      -0.747932       -20.3523
 138   2.0000      -0.735991       -20.0273
 139   2.0000      -0.727061       -19.7843
 140   2.0000      -0.720570       -19.6077
 141   2.0000      -0.715880       -19.4801
 142   2.0000      -0.710371       -19.3302
 143   2.0000      -0.702381       -19.1128
 144   2.0000      -0.695948       -18.9377
 145   2.0000      -0.692392       -18.8410
 146   2.0000      -0.688711       -18.7408
 147   2.0000      -0.678755       -18.4699
 148   2.0000      -0.677097       -18.4248
 149   2.0000      -0.672655       -18.3039
 150   2.0000      -0.667256       -18.1570
 151   2.0000      -0.662431       -18.0257
 152   2.0000      -0.653059       -17.7706
 153   2.0000      -0.648567       -17.6484
 154   2.0000      -0.643055       -17.4984
 155   2.0000      -0.635126       -17.2827
 156   2.0000      -0.616604       -16.7787
 157   2.0000      -0.614216       -16.7137
 158   2.0000      -0.612789       -16.6748
 159   2.0000      -0.608835       -16.5673
 160   2.0000      -0.603717       -16.4280
 161   2.0000      -0.603264       -16.4156
 162   2.0000      -0.600268       -16.3341
 163   2.0000      -0.592978       -16.1358
 164   2.0000      -0.589318       -16.0361
 165   2.0000      -0.587261       -15.9802
 166   2.0000      -0.585434       -15.9305
 167   2.0000      -0.574122       -15.6227
 168   2.0000      -0.572305       -15.5732
 169   2.0000      -0.566879       -15.4256
 170   2.0000      -0.563118       -15.3232
 171   2.0000      -0.557413       -15.1680
 172   2.0000      -0.555008       -15.1025
 173   2.0000      -0.552484       -15.0338
 174   2.0000      -0.550587       -14.9822
 175   2.0000      -0.547751       -14.9051
 176   2.0000      -0.543003       -14.7759
 177   2.0000      -0.539535       -14.6815
 178   2.0000      -0.537302       -14.6207
 179   2.0000      -0.532210       -14.4822
 180   2.0000      -0.530890       -14.4463
 181   2.0000      -0.529737       -14.4149
 182   2.0000      -0.527457       -14.3528
 183   2.0000      -0.525500       -14.2996
 184   2.0000      -0.522037       -14.2054
 185   2.0000      -0.518837       -14.1183
 186   2.0000      -0.517742       -14.0885
 187   2.0000      -0.513366       -13.9694
 188   2.0000      -0.510629       -13.8949
 189   2.0000      -0.509767       -13.8715
 190   2.0000      -0.505903       -13.7663
 191   2.0000      -0.502801       -13.6819
 192   2.0000      -0.502377       -13.6704
 193   2.0000      -0.500200       -13.6111
 194   2.0000      -0.496852       -13.5200
 195   2.0000      -0.494034       -13.4434
 196   2.0000      -0.487269       -13.2593
 197   2.0000      -0.485399       -13.2084
 198   2.0000      -0.484256       -13.1773
 199   2.0000      -0.482777       -13.1370
 200   2.0000      -0.478525       -13.0213
 201   2.0000      -0.474524       -12.9124
 202   2.0000      -0.473767       -12.8919
 203   2.0000      -0.472236       -12.8502
 204   2.0000      -0.468500       -12.7485
 205   2.0000      -0.467680       -12.7262
 206   2.0000      -0.467238       -12.7142
 207   2.0000      -0.463973       -12.6253
 208   2.0000      -0.462644       -12.5892
 209   2.0000      -0.461275       -12.5519
 210   2.0000      -0.460156       -12.5215
 211   2.0000      -0.457112       -12.4387
 212   2.0000      -0.453739       -12.3469
 213   2.0000      -0.452948       -12.3253
 214   2.0000      -0.450240       -12.2517
 215   2.0000      -0.448995       -12.2178
 216   2.0000      -0.446885       -12.1604
 217   2.0000      -0.446310       -12.1447
 218   2.0000      -0.443934       -12.0801
 219   2.0000      -0.443674       -12.0730
 220   2.0000      -0.440590       -11.9891
 221   2.0000      -0.440065       -11.9748
 222   2.0000      -0.437870       -11.9150
 223   2.0000      -0.436265       -11.8714
 224   2.0000      -0.433512       -11.7965
 225   2.0000      -0.432801       -11.7771
 226   2.0000      -0.431098       -11.7308
 227   2.0000      -0.430367       -11.7109
 228   2.0000      -0.429601       -11.6900
 229   2.0000      -0.426550       -11.6070
 230   2.0000      -0.424755       -11.5582
 231   2.0000      -0.417353       -11.3568
 232   2.0000      -0.416964       -11.3462
 233   2.0000      -0.415497       -11.3062
 234   2.0000      -0.413679       -11.2568
 235   2.0000      -0.411145       -11.1878
 236   2.0000      -0.408524       -11.1165
 237   2.0000      -0.407535       -11.0896
 238   2.0000      -0.405640       -11.0380
 239   2.0000      -0.401736       -10.9318
 240   2.0000      -0.400630       -10.9017
 241   2.0000      -0.397445       -10.8150
 242   2.0000      -0.393779       -10.7153
 243   2.0000      -0.387361       -10.5406
 244   2.0000      -0.385983       -10.5031
 245   2.0000      -0.383492       -10.4353
 246   2.0000      -0.379008       -10.3133
 247   2.0000      -0.375658       -10.2222
 248   2.0000      -0.373651       -10.1676
 249   2.0000      -0.370014       -10.0686
 250   2.0000      -0.360678        -9.8145
 251   2.0000      -0.355906        -9.6847
 252   2.0000      -0.346060        -9.4168
 253   2.0000      -0.334957        -9.1147
 254   2.0000      -0.333114        -9.0645
 255   2.0000      -0.325504        -8.8574
 256   2.0000      -0.324128        -8.8200
 257   2.0000      -0.323579        -8.8050
 258   2.0000      -0.311178        -8.4676
 259   2.0000      -0.303921        -8.2701
 260   2.0000      -0.297710        -8.1011
 261   2.0000      -0.294684        -8.0188
 262   2.0000      -0.285796        -7.7769
 263   2.0000      -0.277022        -7.5382
 264   2.0000      -0.269053        -7.3213
 265   2.0000      -0.265086        -7.2134
 266   2.0000      -0.257113        -6.9964
 267   2.0000      -0.220823        -6.0089
 268   0.0000      -0.074535        -2.0282
 269   0.0000      -0.041444        -1.1277
 270   0.0000      -0.026725        -0.7272
 271   0.0000       0.002316         0.0630
 272   0.0000       0.020212         0.5500

MULLIKEN ATOMIC CHARGES
-----------------------
   0 C :    0.344074
   1 C :   -0.386596
   2 C :   -0.169765
   3 N :    0.138775
   4 C :   -0.158304
   5 N :    0.151068
   6 C :    0.007690
   7 C :    0.006018
   8 C :   -0.049378
   9 C :    0.123057
  10 C :   -0.090849
  11 C :   -0.032694
  12 S :    0.177930
  13 C :   -0.126850
  14 C :    0.039833
  15 Br:    0.016968
  16 C :    0.163088
  17 O :   -0.140802
  18 C :   -0.071704
  19 C :   -0.042366
  20 C :    0.048828
  21 C :    0.067856
  22 O :   -0.346047
  23 C :    0.138509
  24 C :    0.027568
  25 C :    0.076705
  26 O :   -0.365383
  27 C :    0.161921
  28 C :    0.011086
  29 C :    0.164271
  30 O :   -0.295819
  31 C :    0.173959
  32 C :   -0.014372
  33 C :   -0.042716
  34 C :    0.102768
  35 C :   -0.041658
  36 C :    0.128671
  37 O :   -0.333695
  38 C :    0.164677
  39 C :    0.015191
  40 C :    0.058646
  41 O :   -0.367760
  42 C :    0.167116
  43 C :    0.010702
  44 C :    0.187005
  45 O :   -0.312876
  46 C :    0.184880
  47 C :   -0.016331
  48 C :   -0.150550
  49 C :    0.140735
  50 C :   -0.221280
  51 S :    0.108517
  52 C :   -0.117892
  53 C :   -0.053607
  54 C :    0.282390
  55 O :   -0.416284
  56 S :    0.253231
  57 C :   -0.151907
  58 S :    0.038209
  59 C :    0.012249
  60 C :   -0.049400
  61 C :    0.109724
  62 O :   -0.196305
  63 C :    0.150664
  64 C :   -0.051480
  65 C :   -0.111030
  66 C :    0.117570
  67 H :   -0.057134
  68 H :   -0.015100
  69 H :   -0.006032
  70 H :    0.016272
  71 H :    0.021920
  72 H :    0.027046
  73 H :    0.012478
  74 H :    0.005488
  75 H :    0.035521
  76 H :    0.009767
  77 H :    0.035066
  78 H :    0.014414
  79 H :    0.019868
  80 H :    0.021356
  81 H :    0.031696
  82 H :    0.013777
  83 H :    0.011100
  84 H :    0.018610
  85 H :    0.025034
  86 H :   -0.047558
  87 H :    0.009609
  88 H :    0.019052
  89 H :    0.024455
  90 H :    0.012166
  91 H :    0.018705
  92 H :    0.002287
  93 H :    0.047382
  94 H :    0.013282
  95 H :    0.019718
  96 H :    0.016361
  97 H :    0.030214
  98 H :    0.012781
  99 H :    0.004643
 100 H :    0.015740
 101 H :    0.022731
 102 H :   -0.030010
 103 H :    0.106201
 104 H :    0.087943
 105 H :    0.002594
 106 H :   -0.005220
 107 H :    0.001711
 108 H :   -0.024499
 109 H :   -0.001101
 110 H :    0.038040
 111 H :    0.015178
Sum of atomic charges:    0.0000000

LOEWDIN ATOMIC CHARGES
----------------------
   0 C :    0.081679
   1 C :   -0.158952
   2 C :   -0.003620
   3 N :   -0.065288
   4 C :   -0.010242
   5 N :   -0.053884
   6 C :   -0.023735
   7 C :   -0.040819
   8 C :    0.016858
   9 C :   -0.029467
  10 C :   -0.145957
  11 C :   -0.011367
  12 S :    0.426062
  13 C :   -0.272875
  14 C :   -0.071491
  15 Br:    0.131591
  16 C :    0.082352
  17 O :   -0.132728
  18 C :   -0.103698
  19 C :    0.098028
  20 C :   -0.068936
  21 C :    0.052567
  22 O :   -0.117820
  23 C :    0.080439
  24 C :   -0.060903
  25 C :   -0.027443
  26 O :   -0.131028
  27 C :    0.083352
  28 C :   -0.061892
  29 C :    0.058547
  30 O :   -0.087221
  31 C :    0.080390
  32 C :   -0.069775
  33 C :   -0.027859
  34 C :    0.027387
  35 C :   -0.049885
  36 C :    0.053954
  37 O :   -0.107365
  38 C :    0.083560
  39 C :   -0.062219
  40 C :   -0.016497
  41 O :   -0.130060
  42 C :    0.083879
  43 C :   -0.064049
  44 C :    0.044848
  45 O :   -0.101864
  46 C :    0.084698
  47 C :   -0.071224
  48 C :   -0.054866
  49 C :   -0.037267
  50 C :   -0.193959
  51 S :    0.454911
  52 C :   -0.185582
  53 C :   -0.224562
  54 C :   -0.030906
  55 O :   -0.225705
  56 S :    0.382498
  57 C :   -0.260618
  58 S :    0.294897
  59 C :   -0.048298
  60 C :   -0.034254
  61 C :    0.004811
  62 O :    0.014422
  63 C :    0.039543
  64 C :   -0.079741
  65 C :   -0.050551
  66 C :   -0.055257
  67 H :    0.032550
  68 H :    0.038487
  69 H :    0.036131
  70 H :    0.043149
  71 H :    0.010479
  72 H :    0.005945
  73 H :    0.031307
  74 H :    0.020081
  75 H :    0.029860
  76 H :    0.009287
  77 H :    0.012872
  78 H :    0.024500
  79 H :    0.032515
  80 H :    0.027636
  81 H :    0.013809
  82 H :    0.020482
  83 H :    0.024315
  84 H :    0.030011
  85 H :    0.028192
  86 H :    0.030089
  87 H :    0.010126
  88 H :    0.008141
  89 H :    0.028081
  90 H :    0.028512
  91 H :    0.027233
  92 H :    0.004858
  93 H :    0.017472
  94 H :    0.024281
  95 H :    0.032082
  96 H :    0.024820
  97 H :    0.016282
  98 H :    0.018496
  99 H :    0.019181
 100 H :    0.030307
 101 H :    0.025696
 102 H :    0.027577
 103 H :    0.020395
 104 H :    0.033902
 105 H :    0.031147
 106 H :    0.026409
 107 H :    0.019603
 108 H :    0.026397
 109 H :    0.030282
 110 H :    0.036394
 111 H :    0.031079

  Mayer bond orders larger than 0.100000
B(  0-C ,  1-C ) :   1.5985 B(  0-C ,  6-C ) :   0.9985 B(  0-C , 18-C ) :   1.0819
B(  1-C ,  2-C ) :   1.1663 B(  1-C ,  4-C ) :   1.1588 B(  2-C ,  3-N ) :   2.8785
B(  4-C ,  5-N ) :   2.9106 B(  6-C ,  7-C ) :   1.2729 B(  6-C , 11-C ) :   1.3990
B(  7-C ,  8-C ) :   1.4228 B(  7-C , 16-C ) :   0.9204 B(  8-C ,  9-C ) :   1.2622
B(  8-C , 67-H ) :   1.0174 B(  9-C , 10-C ) :   1.3055 B(  9-C , 14-C ) :   1.1627
B( 10-C , 11-C ) :   1.3310 B( 10-C , 12-S ) :   1.0782 B( 11-C , 68-H ) :   0.9828
B( 12-S , 13-C ) :   1.0860 B( 13-C , 14-C ) :   1.6176 B( 13-C , 15-Br) :   1.0158
B( 14-C , 69-H ) :   0.9958 B( 16-C , 17-O ) :   2.2137 B( 16-C , 18-C ) :   0.9366
B( 18-C , 19-C ) :   1.5950 B( 19-C , 20-C ) :   1.1134 B( 19-C , 70-H ) :   0.9191
B( 20-C , 21-C ) :   1.2980 B( 20-C , 34-C ) :   1.3376 B( 21-C , 22-O ) :   1.1430
B( 21-C , 25-C ) :   1.3198 B( 22-O , 23-C ) :   0.8798 B( 23-C , 24-C ) :   1.1205
B( 23-C , 71-H ) :   0.9338 B( 23-C , 72-H ) :   0.9435 B( 24-C , 73-H ) :   0.9581
B( 24-C , 74-H ) :   0.9650 B( 24-C , 75-H ) :   0.9538 B( 25-C , 26-O ) :   1.0849
B( 25-C , 29-C ) :   1.2823 B( 26-O , 27-C ) :   0.9054 B( 27-C , 28-C ) :   1.1124
B( 27-C , 76-H ) :   0.9395 B( 27-C , 77-H ) :   0.9432 B( 28-C , 78-H ) :   0.9677
B( 28-C , 79-H ) :   0.9618 B( 28-C , 80-H ) :   0.9690 B( 29-C , 30-O ) :   1.1850
B( 29-C , 33-C ) :   1.3131 B( 30-O , 31-C ) :   0.9277 B( 31-C , 32-C ) :   1.1147
B( 31-C , 81-H ) :   0.9454 B( 31-C , 82-H ) :   0.9554 B( 32-C , 83-H ) :   0.9663
B( 32-C , 84-H ) :   0.9612 B( 32-C , 85-H ) :   0.9637 B( 33-C , 34-C ) :   1.3773
B( 33-C , 86-H ) :   1.0046 B( 34-C , 35-C ) :   0.9495 B( 35-C , 36-C ) :   1.4073
B( 35-C , 49-C ) :   1.3892 B( 36-C , 37-O ) :   1.1314 B( 36-C , 40-C ) :   1.2903
B( 37-O , 38-C ) :   0.9055 B( 38-C , 39-C ) :   1.1144 B( 38-C , 87-H ) :   0.9387
B( 38-C , 88-H ) :   0.9433 B( 39-C , 89-H ) :   0.9655 B( 39-C , 90-H ) :   0.9612
B( 39-C , 91-H ) :   0.9667 B( 40-C , 41-O ) :   1.0865 B( 40-C , 44-C ) :   1.3130
B( 41-O , 42-C ) :   0.9036 B( 42-C , 43-C ) :   1.1080 B( 42-C , 92-H ) :   0.9413
B( 42-C , 93-H ) :   0.9408 B( 43-C , 94-H ) :   0.9663 B( 43-C , 95-H ) :   0.9613
B( 43-C , 96-H ) :   0.9677 B( 44-C , 45-O ) :   1.1547 B( 44-C , 48-C ) :   1.3141
B( 45-O , 46-C ) :   0.9301 B( 46-C , 47-C ) :   1.1186 B( 46-C , 97-H ) :   0.9462
B( 46-C , 98-H ) :   0.9547 B( 47-C , 99-H ) :   0.9642 B( 47-C ,100-H ) :   0.9577
B( 47-C ,101-H ) :   0.9619 B( 48-C , 49-C ) :   1.2847 B( 48-C ,102-H ) :   1.0190
B( 49-C , 50-C ) :   1.0042 B( 50-C , 51-S ) :   1.1247 B( 50-C , 52-C ) :   0.1203
B( 50-C , 54-C ) :   1.5806 B( 51-S , 52-C ) :   1.0989 B( 52-C , 53-C ) :   1.5499
B( 52-C , 59-C ) :   1.1357 B( 53-C , 54-C ) :   1.2107 B( 53-C , 58-S ) :   0.9921
B( 54-C , 55-O ) :   1.0507 B( 55-O , 56-S ) :   0.8851 B( 56-S , 57-C ) :   0.9973
B( 57-C , 58-S ) :   0.9871 B( 57-C ,103-H ) :   0.9267 B( 57-C ,104-H ) :   0.9477
B( 59-C , 60-C ) :   1.6605 B( 59-C ,105-H ) :   0.9731 B( 60-C , 61-C ) :   1.1718
B( 60-C ,106-H ) :   0.9518 B( 61-C , 62-O ) :   1.1410 B( 61-C , 65-C ) :   1.4771
B( 62-O , 63-C ) :   1.1554 B( 63-C , 64-C ) :   1.5213 B( 63-C ,107-H ) :   1.0042
B( 64-C , 65-C ) :   1.2554 B( 64-C ,108-H ) :   1.0066 B( 65-C , 66-C ) :   1.1008
B( 66-C ,109-H ) :   0.9426 B( 66-C ,110-H ) :   0.9273 B( 66-C ,111-H ) :   0.9416

-----------------------------------------------------------------------------
         ABSORPTION SPECTRUM VIA TRANSITION ELECTRIC DIPOLE MOMENTS
-----------------------------------------------------------------------------
State   Energy  Wavelength   fosc         T2         TX        TY        TZ
        (cm-1)    (nm)                  (au**2)     (au)      (au)      (au)
-----------------------------------------------------------------------------
   0   14099.2    709.3   0.004114580   0.09607   0.26274  -0.14700   0.07373
   1   21277.9    470.0   0.088669802   1.37190   0.83341   0.45093   0.68847
   2   22439.3    445.6   0.049258757   0.72269   0.59755   0.46750   0.38349
   3   23565.6    424.3   0.106549096   1.48849   0.68952  -0.18121   0.99006
   4   24285.5    411.8   0.084757477   1.14897  -0.40615  -0.60923  -0.78284
   5   25932.0    385.6   1.018664561  12.93214   3.54935  -0.36568   0.44780
   6   26509.8    377.2   0.049829044   0.61880   0.01318   0.38034   0.68845
   7   27166.3    368.1   0.138808348   1.68213   1.15180   0.47936   0.35454
   8   28905.2    346.0   0.097651057   1.11218   0.12700   0.35629   0.98444
   9   29204.1    342.4   0.019747563   0.22261  -0.23095   0.06507   0.40625
  10   29740.5    336.2   0.437148608   4.83901  -0.66902   0.42079   2.05289
  11   30589.9    326.9   0.011909505   0.12817  -0.10858  -0.02866   0.33994
  12   31545.2    317.0   0.008212724   0.08571  -0.22137  -0.09967   0.16362
  13   31933.4    313.2   0.030119510   0.31051  -0.47874  -0.07829   0.27421
  14   32216.5    310.4   0.067804709   0.69288   0.59228   0.31249   0.49440
  15   32425.4    308.4   0.089135792   0.90499  -0.84500  -0.16316   0.40538
  16   32632.5    306.4   0.103517025   1.04433   1.01783  -0.01810  -0.08956
  17   33040.2    302.7   0.081246039   0.80953  -0.73836   0.30011   0.41748
  18   33515.3    298.4   0.020775017   0.20407  -0.23205  -0.19992  -0.33205
  19   33787.7    296.0   0.007413575   0.07223   0.17243  -0.08906   0.18594
  20   33962.1    294.4   0.025866801   0.25074  -0.26297  -0.06897  -0.42051
  21   34060.2    293.6   0.128286345   1.23996  -0.34776  -0.64485  -0.83857
  22   34796.2    287.4   0.345940341   3.27300   0.56528   0.59168   1.61350
  23   35442.4    282.1   0.253344379   2.35323   0.81100  -0.36358  -1.25033
  24   37007.0    270.2   0.018047136   0.16055  -0.14509   0.33303   0.16907
  25   37072.7    269.7   0.035229100   0.31284   0.06433  -0.23021  -0.50567
  26   37357.4    267.7   0.077307268   0.68127  -0.46460  -0.41529   0.54125
  27   37877.9    264.0   0.023588959   0.20502  -0.41881   0.16331  -0.05428
  28   38249.8    261.4   0.022976971   0.19776  -0.43398   0.03025   0.09224
  29   38448.5    260.1   0.013580977   0.11629   0.14266  -0.03622   0.30761
  30   39258.0    254.7   0.017244894   0.14461  -0.13923   0.11847   0.33346
  31   39319.9    254.3   0.012305288   0.10303   0.22700  -0.19356  -0.11848
  32   39528.3    253.0   0.068893157   0.57378  -0.40067   0.00343   0.64283
  33   39904.1    250.6   0.017913924   0.14779   0.35556   0.10312  -0.10362
  34   39974.3    250.2   0.008075896   0.06651  -0.11996  -0.22712   0.02312
  35   40202.4    248.7   0.027761584   0.22734   0.10004  -0.00302  -0.46617
  36   40316.2    248.0   0.036351019   0.29683  -0.27778   0.07643   0.46242

FINAL SINGLE POINT ENERGY     -6919.715017917957

DIPOLE MOMENT
-------------
                                X             Y             Z
Electronic contribution:    -71.84263     -14.25935    -131.20783
Nuclear contribution   :     74.21104      14.03679     131.57690
                        -----------------------------------------
Total Dipole Moment    :      2.36841      -0.22256       0.36907
                        -----------------------------------------
Magnitude (a.u.)       :      2.40731
Magnitude (Debye)      :      6.11889

Rotational constants in cm-1:     0.001206     0.000824     0.000577
Rotational constants in MHz :    36.160249    24.687958    17.295283

                             ****ORCA TERMINATED NORMALLY****
TOTAL RUN TIME: 0 days 0 hours 12 minutes 45 seconds 973 msec
