                         Program Version 4.2.0 -  RELEASE  -
|  1> # ORCA input file
|  2> # SCF done       -190.626902587968          0.000794750697
|  3> ! CAM-B3LYP def2-SVP def2/J RIJCOSX Grid4 TightSCF
|  4> %maxcore 5000
|  5> %tddft
|  6>     Mode sTDDFT
|  7>     Ethresh 5.0
|  8>     maxcore 5000
|  9> end
| 10>
| 11> %pal
| 12>   nprocs 6
| 13>   end
| 14> * xyz 0 1
| 15>    C       -5.01856        14.21919        -1.93729
| 16>    C       -4.66695        15.20530        -1.05354
| 17>    C       -3.94164        16.36215        -1.40486
| 18>    N       -3.35126        17.31872        -1.63597
| 19>    C       -5.00364        15.18566         0.31552
| 20>    N       -5.26518        15.20387         1.43312
| 21>    C       -4.71097        14.19521        -3.36541
| 22>    C       -5.31024        13.04570        -3.94453
| 23>    C       -5.15943        12.71429        -5.26943
| 24>    C       -4.36452        13.54975        -6.05870
| 25>    C       -3.78336        14.70453        -5.48140
| 26>    C       -3.94943        15.04617        -4.14322
| 27>    S       -2.82581        15.57788        -6.63745
| 28>    C       -3.19040        14.38130        -7.85355
| 29>    C       -4.00352        13.38803        -7.42203
| 30>   Br       -2.44206        14.53302        -9.56698
| 31>    C       -6.00898        12.29876        -2.89781
| 32>    O       -6.64363        11.25438        -3.02731
| 33>    C       -5.76404        13.01469        -1.64395
| 34>    C       -6.13769        12.48616        -0.43253
| 35>    N       -6.76306        11.30498        -0.37653
| 36>    C       -7.15324        10.62894         0.73709
| 37>    S       -7.15894        11.37964         2.30299
| 38>    C       -7.85667         9.93913         2.96604
| 39>    N       -8.11914         9.91062         4.34361
| 40>    O       -8.61649         8.89974         4.80065
| 41>    O       -7.82442        10.90743         4.97712
| 42>    C       -8.07307         8.95564         2.03791
| 43>    C       -7.65489         9.32386         0.74590
| 44>    C       -7.75756         8.44292        -0.39749
| 45>    C       -6.92449         8.42144        -1.45263
| 46>    C       -7.12965         7.58675        -2.60125
| 47>    C       -6.38515         7.62381        -3.71916
| 48>    C       -5.20196         8.52269        -3.89526
| 49>    C       -6.83277         6.84605        -4.93498
| 50>    N       -7.85791         7.58184        -5.64825
| 51>    C       -7.58883         8.65804        -6.42328
| 52>    C       -8.53235         9.53439        -6.83905
| 53>    C       -8.31065        10.61586        -7.72802
| 54>    S       -6.72502        11.07428        -8.27077
| 55>    C       -7.37083        12.38193        -9.24967
| 56>    C       -8.76120        12.40987        -9.15700
| 57>    C       -9.27844        11.43610        -8.29595
| 58>    C      -10.74768        11.25981        -8.05972
| 59>    C      -11.54682        12.42075        -8.64617
| 60>    C      -11.06227        12.73658       -10.05988
| 61>    C      -11.97996        13.73121       -10.76155
| 62>    C       -9.63804        13.29008        -9.98198
| 63>    C       -6.48872        13.14558       -10.03181
| 64>    C       -6.73755        14.37036       -10.58895
| 65>    C       -5.84544        15.05811       -11.43230
| 66>    C       -4.79878        14.57555       -12.17539
| 67>    C       -3.73764        15.51475       -12.61547
| 68>    O       -3.78275        16.72533       -12.59429
| 69>    C       -2.60532        14.65846       -13.02488
| 70>    C       -1.33788        15.01605       -13.37865
| 71>    C       -0.39603        14.00601       -13.67984
| 72>    C       -0.78953        12.63895       -13.60212
| 73>    C        0.15821        11.63781       -13.88908
| 74>    C        1.42942        11.99737       -14.23942
| 75>    C        1.83496        13.33536       -14.32608
| 76>    C        0.92753        14.31985       -14.04842
| 77>    F        2.33713        11.03998       -14.51348
| 78>    C       -2.11511        12.29847       -13.24399
| 79>    C       -3.00981        13.29432       -12.96639
| 80>    C       -4.42160        13.24855       -12.59005
| 81>    C       -5.26325        12.18963       -12.83950
| 82>    C       -6.66177        12.26787       -12.71653
| 83>    N       -7.80988        12.29782       -12.67406
| 84>    C       -4.83327        10.93656       -13.31229
| 85>    N       -4.53587         9.88523       -13.66803
| 86>    H       -5.62512        11.83547        -5.68757
| 87>    H       -3.47826        15.92972        -3.74604
| 88>    H       -4.32842        12.56276        -8.02745
| 89>    H       -5.91171        12.97299         0.50749
| 90>    H       -6.96255        10.87944        -1.29893
| 91>    H       -8.49635         8.00088         2.29298
| 92>    H       -8.57284         7.73258        -0.35144
| 93>    H       -6.05245         9.05668        -1.47077
| 94>    H       -7.98181         6.91968        -2.55773
| 95>    H       -4.50825         8.42114        -3.06297
| 96>    H       -5.53041         9.56057        -3.93617
| 97>    H       -4.66828         8.29353        -4.81347
| 98>    H       -7.25635         5.88084        -4.64623
| 99>    H       -5.99784         6.67236        -5.61738
|100>    H       -8.77311         7.57164        -5.22010
|101>    H       -6.56634         8.74962        -6.76279
|102>    H       -9.55103         9.40077        -6.50227
|103>    H      -10.94525        11.17554        -6.98758
|104>    H      -11.06777        10.32257        -8.52707
|105>    H      -11.42567        13.30724        -8.01884
|106>    H      -12.60682        12.16114        -8.65719
|107>    H      -11.04125        11.80772       -10.63943
|108>    H      -12.04976        14.65608       -10.19180
|109>    H      -12.98063        13.31903       -10.86839
|110>    H      -11.59709        13.96379       -11.75216
|111>    H       -9.67121        14.29468        -9.54630
|112>    H       -9.21203        13.36889       -10.98547
|113>    H       -5.49704        12.72750       -10.16366
|114>    H       -7.62980        14.90557       -10.30474
|115>    H       -5.95051        16.13825       -11.46788
|116>    H       -1.05349        16.05644       -13.42482
|117>    H       -0.12044        10.59685       -13.83709
|118>    H        2.85120        13.55927       -14.60896
|119>    H        1.21628        15.35848       -14.10775
|120>    H       -2.38523        11.25572       -13.18656
|121> *
|122>
|123>                          ****END OF INPUT****

CARTESIAN COORDINATES (ANGSTROEM)
---------------------------------
  C     -5.018560   14.219190   -1.937290
  C     -4.666950   15.205300   -1.053540
  C     -3.941640   16.362150   -1.404860
  N     -3.351260   17.318720   -1.635970
  C     -5.003640   15.185660    0.315520
  N     -5.265180   15.203870    1.433120
  C     -4.710970   14.195210   -3.365410
  C     -5.310240   13.045700   -3.944530
  C     -5.159430   12.714290   -5.269430
  C     -4.364520   13.549750   -6.058700
  C     -3.783360   14.704530   -5.481400
  C     -3.949430   15.046170   -4.143220
  S     -2.825810   15.577880   -6.637450
  C     -3.190400   14.381300   -7.853550
  C     -4.003520   13.388030   -7.422030
  Br    -2.442060   14.533020   -9.566980
  C     -6.008980   12.298760   -2.897810
  O     -6.643630   11.254380   -3.027310
  C     -5.764040   13.014690   -1.643950
  C     -6.137690   12.486160   -0.432530
  N     -6.763060   11.304980   -0.376530
  C     -7.153240   10.628940    0.737090
  S     -7.158940   11.379640    2.302990
  C     -7.856670    9.939130    2.966040
  N     -8.119140    9.910620    4.343610
  O     -8.616490    8.899740    4.800650
  O     -7.824420   10.907430    4.977120
  C     -8.073070    8.955640    2.037910
  C     -7.654890    9.323860    0.745900
  C     -7.757560    8.442920   -0.397490
  C     -6.924490    8.421440   -1.452630
  C     -7.129650    7.586750   -2.601250
  C     -6.385150    7.623810   -3.719160
  C     -5.201960    8.522690   -3.895260
  C     -6.832770    6.846050   -4.934980
  N     -7.857910    7.581840   -5.648250
  C     -7.588830    8.658040   -6.423280
  C     -8.532350    9.534390   -6.839050
  C     -8.310650   10.615860   -7.728020
  S     -6.725020   11.074280   -8.270770
  C     -7.370830   12.381930   -9.249670
  C     -8.761200   12.409870   -9.157000
  C     -9.278440   11.436100   -8.295950
  C    -10.747680   11.259810   -8.059720
  C    -11.546820   12.420750   -8.646170
  C    -11.062270   12.736580  -10.059880
  C    -11.979960   13.731210  -10.761550
  C     -9.638040   13.290080   -9.981980
  C     -6.488720   13.145580  -10.031810
  C     -6.737550   14.370360  -10.588950
  C     -5.845440   15.058110  -11.432300
  C     -4.798780   14.575550  -12.175390
  C     -3.737640   15.514750  -12.615470
  O     -3.782750   16.725330  -12.594290
  C     -2.605320   14.658460  -13.024880
  C     -1.337880   15.016050  -13.378650
  C     -0.396030   14.006010  -13.679840
  C     -0.789530   12.638950  -13.602120
  C      0.158210   11.637810  -13.889080
  C      1.429420   11.997370  -14.239420
  C      1.834960   13.335360  -14.326080
  C      0.927530   14.319850  -14.048420
  F      2.337130   11.039980  -14.513480
  C     -2.115110   12.298470  -13.243990
  C     -3.009810   13.294320  -12.966390
  C     -4.421600   13.248550  -12.590050
  C     -5.263250   12.189630  -12.839500
  C     -6.661770   12.267870  -12.716530
  N     -7.809880   12.297820  -12.674060
  C     -4.833270   10.936560  -13.312290
  N     -4.535870    9.885230  -13.668030
  H     -5.625120   11.835470   -5.687570
  H     -3.478260   15.929720   -3.746040
  H     -4.328420   12.562760   -8.027450
  H     -5.911710   12.972990    0.507490
  H     -6.962550   10.879440   -1.298930
  H     -8.496350    8.000880    2.292980
  H     -8.572840    7.732580   -0.351440
  H     -6.052450    9.056680   -1.470770
  H     -7.981810    6.919680   -2.557730
  H     -4.508250    8.421140   -3.062970
  H     -5.530410    9.560570   -3.936170
  H     -4.668280    8.293530   -4.813470
  H     -7.256350    5.880840   -4.646230
  H     -5.997840    6.672360   -5.617380
  H     -8.773110    7.571640   -5.220100
  H     -6.566340    8.749620   -6.762790
  H     -9.551030    9.400770   -6.502270
  H    -10.945250   11.175540   -6.987580
  H    -11.067770   10.322570   -8.527070
  H    -11.425670   13.307240   -8.018840
  H    -12.606820   12.161140   -8.657190
  H    -11.041250   11.807720  -10.639430
  H    -12.049760   14.656080  -10.191800
  H    -12.980630   13.319030  -10.868390
  H    -11.597090   13.963790  -11.752160
  H     -9.671210   14.294680   -9.546300
  H     -9.212030   13.368890  -10.985470
  H     -5.497040   12.727500  -10.163660
  H     -7.629800   14.905570  -10.304740
  H     -5.950510   16.138250  -11.467880
  H     -1.053490   16.056440  -13.424820
  H     -0.120440   10.596850  -13.837090
  H      2.851200   13.559270  -14.608960
  H      1.216280   15.358480  -14.107750
  H     -2.385230   11.255720  -13.186560

 Total Charge           Charge          ....    0
 Multiplicity           Mult            ....    1
 Number of Electrons    NEL             ....  538
 Basis Dimension        Dim             .... 1199

ORBITAL ENERGIES
----------------

  NO   OCC          E(Eh)            E(eV)
   0   2.0000    -482.891082    -13140.1344
   1   2.0000     -88.996701     -2421.7233
   2   2.0000     -88.982301     -2421.3315
   3   2.0000     -88.959308     -2420.7058
   4   2.0000     -62.568161     -1702.5662
   5   2.0000     -56.402211     -1534.7822
   6   2.0000     -56.399406     -1534.7059
   7   2.0000     -56.399332     -1534.7038
   8   2.0000     -24.782131      -674.3561
   9   2.0000     -19.244171      -523.6605
  10   2.0000     -19.243434      -523.6405
  11   2.0000     -19.241631      -523.5914
  12   2.0000     -19.201389      -522.4964
  13   2.0000     -14.655850      -398.8060
  14   2.0000     -14.502307      -394.6278
  15   2.0000     -14.452420      -393.2704
  16   2.0000     -14.425545      -392.5390
  17   2.0000     -14.420825      -392.4106
  18   2.0000     -14.408237      -392.0681
  19   2.0000     -14.405231      -391.9863
  20   2.0000     -10.387787      -282.6661
  21   2.0000     -10.378269      -282.4070
  22   2.0000     -10.377931      -282.3979
  23   2.0000     -10.365240      -282.0525
  24   2.0000     -10.364024      -282.0194
  25   2.0000     -10.353450      -281.7317
  26   2.0000     -10.353262      -281.7266
  27   2.0000     -10.353079      -281.7216
  28   2.0000     -10.349022      -281.6112
  29   2.0000     -10.334346      -281.2118
  30   2.0000     -10.333433      -281.1870
  31   2.0000     -10.331697      -281.1398
  32   2.0000     -10.328288      -281.0470
  33   2.0000     -10.328138      -281.0429
  34   2.0000     -10.327835      -281.0347
  35   2.0000     -10.323787      -280.9245
  36   2.0000     -10.317839      -280.7627
  37   2.0000     -10.317412      -280.7511
  38   2.0000     -10.314947      -280.6840
  39   2.0000     -10.314328      -280.6671
  40   2.0000     -10.314076      -280.6603
  41   2.0000     -10.313590      -280.6471
  42   2.0000     -10.310956      -280.5754
  43   2.0000     -10.309886      -280.5463
  44   2.0000     -10.309384      -280.5326
  45   2.0000     -10.306764      -280.4613
  46   2.0000     -10.304232      -280.3924
  47   2.0000     -10.303332      -280.3679
  48   2.0000     -10.302129      -280.3352
  49   2.0000     -10.301532      -280.3189
  50   2.0000     -10.301087      -280.3068
  51   2.0000     -10.300658      -280.2951
  52   2.0000     -10.299157      -280.2543
  53   2.0000     -10.298014      -280.2232
  54   2.0000     -10.297655      -280.2134
  55   2.0000     -10.296925      -280.1936
  56   2.0000     -10.296104      -280.1712
  57   2.0000     -10.294237      -280.1204
  58   2.0000     -10.293550      -280.1017
  59   2.0000     -10.292156      -280.0638
  60   2.0000     -10.290395      -280.0159
  61   2.0000     -10.287641      -279.9409
  62   2.0000     -10.284989      -279.8688
  63   2.0000     -10.284206      -279.8475
  64   2.0000     -10.283509      -279.8285
  65   2.0000     -10.279372      -279.7159
  66   2.0000     -10.277407      -279.6625
  67   2.0000     -10.275637      -279.6143
  68   2.0000     -10.274527      -279.5841
  69   2.0000     -10.273928      -279.5678
  70   2.0000     -10.272867      -279.5389
  71   2.0000     -10.264837      -279.3204
  72   2.0000     -10.263817      -279.2927
  73   2.0000     -10.262307      -279.2516
  74   2.0000     -10.250493      -278.9301
  75   2.0000      -8.797365      -239.3885
  76   2.0000      -8.091934      -220.1927
  77   2.0000      -8.078182      -219.8185
  78   2.0000      -8.054375      -219.1707
  79   2.0000      -6.633725      -180.5128
  80   2.0000      -6.619014      -180.1125
  81   2.0000      -6.618894      -180.1092
  82   2.0000      -6.061518      -164.9423
  83   2.0000      -6.057161      -164.8237
  84   2.0000      -6.053510      -164.7244
  85   2.0000      -6.047826      -164.5697
  86   2.0000      -6.043567      -164.4538
  87   2.0000      -6.039495      -164.3430
  88   2.0000      -6.023615      -163.9109
  89   2.0000      -6.019952      -163.8112
  90   2.0000      -6.016303      -163.7119
  91   2.0000      -2.749576       -74.8198
  92   2.0000      -2.745453       -74.7076
  93   2.0000      -2.745353       -74.7049
  94   2.0000      -2.733676       -74.3871
  95   2.0000      -2.733657       -74.3866
  96   2.0000      -1.325963       -36.0813
  97   2.0000      -1.296280       -35.2736
  98   2.0000      -1.156344       -31.4657
  99   2.0000      -1.145190       -31.1622
 100   2.0000      -1.116399       -30.3788
 101   2.0000      -1.110079       -30.2068
 102   2.0000      -1.053987       -28.6804
 103   2.0000      -1.031563       -28.0703
 104   2.0000      -1.021143       -27.7867
 105   2.0000      -1.016791       -27.6683
 106   2.0000      -1.010017       -27.4839
 107   2.0000      -1.002524       -27.2801
 108   2.0000      -0.998251       -27.1638
 109   2.0000      -0.994476       -27.0611
 110   2.0000      -0.993127       -27.0244
 111   2.0000      -0.985126       -26.8067
 112   2.0000      -0.969348       -26.3773
 113   2.0000      -0.950046       -25.8521
 114   2.0000      -0.940812       -25.6008
 115   2.0000      -0.926709       -25.2170
 116   2.0000      -0.923576       -25.1318
 117   2.0000      -0.919980       -25.0339
 118   2.0000      -0.916835       -24.9484
 119   2.0000      -0.912130       -24.8203
 120   2.0000      -0.903017       -24.5723
 121   2.0000      -0.893995       -24.3268
 122   2.0000      -0.892268       -24.2799
 123   2.0000      -0.886568       -24.1247
 124   2.0000      -0.882073       -24.0024
 125   2.0000      -0.875887       -23.8341
 126   2.0000      -0.863597       -23.4997
 127   2.0000      -0.857566       -23.3355
 128   2.0000      -0.851789       -23.1784
 129   2.0000      -0.839129       -22.8339
 130   2.0000      -0.837392       -22.7866
 131   2.0000      -0.832885       -22.6639
 132   2.0000      -0.828772       -22.5520
 133   2.0000      -0.809604       -22.0304
 134   2.0000      -0.803672       -21.8690
 135   2.0000      -0.793082       -21.5809
 136   2.0000      -0.789342       -21.4791
 137   2.0000      -0.771772       -21.0010
 138   2.0000      -0.770839       -20.9756
 139   2.0000      -0.756495       -20.5853
 140   2.0000      -0.755386       -20.5551
 141   2.0000      -0.745891       -20.2967
 142   2.0000      -0.735268       -20.0076
 143   2.0000      -0.731295       -19.8995
 144   2.0000      -0.721836       -19.6421
 145   2.0000      -0.714174       -19.4337
 146   2.0000      -0.710159       -19.3244
 147   2.0000      -0.704282       -19.1645
 148   2.0000      -0.703698       -19.1486
 149   2.0000      -0.697317       -18.9750
 150   2.0000      -0.693147       -18.8615
 151   2.0000      -0.682457       -18.5706
 152   2.0000      -0.671972       -18.2853
 153   2.0000      -0.669508       -18.2182
 154   2.0000      -0.666101       -18.1255
 155   2.0000      -0.657360       -17.8877
 156   2.0000      -0.650877       -17.7113
 157   2.0000      -0.641674       -17.4608
 158   2.0000      -0.639846       -17.4111
 159   2.0000      -0.637748       -17.3540
 160   2.0000      -0.636423       -17.3180
 161   2.0000      -0.631747       -17.1907
 162   2.0000      -0.629394       -17.1267
 163   2.0000      -0.628004       -17.0888
 164   2.0000      -0.624655       -16.9977
 165   2.0000      -0.618442       -16.8287
 166   2.0000      -0.612071       -16.6553
 167   2.0000      -0.608140       -16.5483
 168   2.0000      -0.601444       -16.3661
 169   2.0000      -0.598698       -16.2914
 170   2.0000      -0.590154       -16.0589
 171   2.0000      -0.588460       -16.0128
 172   2.0000      -0.583126       -15.8677
 173   2.0000      -0.579626       -15.7724
 174   2.0000      -0.572174       -15.5697
 175   2.0000      -0.571123       -15.5410
 176   2.0000      -0.567976       -15.4554
 177   2.0000      -0.563366       -15.3300
 178   2.0000      -0.560520       -15.2525
 179   2.0000      -0.557462       -15.1693
 180   2.0000      -0.556898       -15.1540
 181   2.0000      -0.555718       -15.1219
 182   2.0000      -0.554324       -15.0839
 183   2.0000      -0.548120       -14.9151
 184   2.0000      -0.547228       -14.8908
 185   2.0000      -0.542181       -14.7535
 186   2.0000      -0.539802       -14.6888
 187   2.0000      -0.537124       -14.6159
 188   2.0000      -0.535163       -14.5625
 189   2.0000      -0.531393       -14.4599
 190   2.0000      -0.526976       -14.3397
 191   2.0000      -0.526026       -14.3139
 192   2.0000      -0.525059       -14.2876
 193   2.0000      -0.522120       -14.2076
 194   2.0000      -0.519015       -14.1231
 195   2.0000      -0.517592       -14.0844
 196   2.0000      -0.515960       -14.0400
 197   2.0000      -0.511216       -13.9109
 198   2.0000      -0.510666       -13.8959
 199   2.0000      -0.508745       -13.8437
 200   2.0000      -0.505998       -13.7689
 201   2.0000      -0.503477       -13.7003
 202   2.0000      -0.499474       -13.5914
 203   2.0000      -0.497588       -13.5401
 204   2.0000      -0.495734       -13.4896
 205   2.0000      -0.492042       -13.3892
 206   2.0000      -0.489391       -13.3170
 207   2.0000      -0.485827       -13.2200
 208   2.0000      -0.483021       -13.1437
 209   2.0000      -0.476881       -12.9766
 210   2.0000      -0.476274       -12.9601
 211   2.0000      -0.474995       -12.9253
 212   2.0000      -0.474576       -12.9139
 213   2.0000      -0.472813       -12.8659
 214   2.0000      -0.470348       -12.7988
 215   2.0000      -0.468650       -12.7526
 216   2.0000      -0.462873       -12.5954
 217   2.0000      -0.462011       -12.5720
 218   2.0000      -0.460880       -12.5412
 219   2.0000      -0.457969       -12.4620
 220   2.0000      -0.456653       -12.4261
 221   2.0000      -0.455931       -12.4065
 222   2.0000      -0.453848       -12.3498
 223   2.0000      -0.451704       -12.2915
 224   2.0000      -0.450705       -12.2643
 225   2.0000      -0.448725       -12.2104
 226   2.0000      -0.446055       -12.1378
 227   2.0000      -0.444214       -12.0877
 228   2.0000      -0.443283       -12.0623
 229   2.0000      -0.436617       -11.8809
 230   2.0000      -0.435304       -11.8452
 231   2.0000      -0.434509       -11.8236
 232   2.0000      -0.433315       -11.7911
 233   2.0000      -0.431798       -11.7498
 234   2.0000      -0.429877       -11.6975
 235   2.0000      -0.422944       -11.5089
 236   2.0000      -0.421818       -11.4782
 237   2.0000      -0.419210       -11.4073
 238   2.0000      -0.418528       -11.3887
 239   2.0000      -0.417901       -11.3717
 240   2.0000      -0.416834       -11.3426
 241   2.0000      -0.408085       -11.1046
 242   2.0000      -0.407715       -11.0945
 243   2.0000      -0.398543       -10.8449
 244   2.0000      -0.396849       -10.7988
 245   2.0000      -0.394096       -10.7239
 246   2.0000      -0.391677       -10.6581
 247   2.0000      -0.391017       -10.6401
 248   2.0000      -0.384249       -10.4559
 249   2.0000      -0.379706       -10.3323
 250   2.0000      -0.378795       -10.3075
 251   2.0000      -0.378581       -10.3017
 252   2.0000      -0.377688       -10.2774
 253   2.0000      -0.372895       -10.1470
 254   2.0000      -0.369088       -10.0434
 255   2.0000      -0.366745        -9.9796
 256   2.0000      -0.361580        -9.8391
 257   2.0000      -0.347238        -9.4488
 258   2.0000      -0.346204        -9.4207
 259   2.0000      -0.325689        -8.8624
 260   2.0000      -0.325034        -8.8446
 261   2.0000      -0.315315        -8.5801
 262   2.0000      -0.312740        -8.5101
 263   2.0000      -0.308866        -8.4047
 264   2.0000      -0.303010        -8.2453
 265   2.0000      -0.296250        -8.0614
 266   2.0000      -0.288484        -7.8500
 267   2.0000      -0.274723        -7.4756
 268   2.0000      -0.235431        -6.4064
 269   0.0000      -0.094412        -2.5691
 270   0.0000      -0.089514        -2.4358
 271   0.0000      -0.077894        -2.1196
 272   0.0000      -0.050730        -1.3804
 273   0.0000      -0.048238        -1.3126

MULLIKEN ATOMIC CHARGES
-----------------------
   0 C :    0.322989
   1 C :   -0.342369
   2 C :   -0.182713
   3 N :    0.152732
   4 C :   -0.196905
   5 N :    0.146109
   6 C :    0.008101
   7 C :    0.007021
   8 C :   -0.066442
   9 C :    0.118385
  10 C :   -0.093340
  11 C :   -0.020669
  12 S :    0.194959
  13 C :   -0.121931
  14 C :    0.056679
  15 Br:    0.035290
  16 C :    0.170824
  17 O :   -0.232866
  18 C :   -0.120510
  19 C :    0.029546
  20 N :   -0.014645
  21 C :   -0.122022
  22 S :    0.184714
  23 C :    0.001927
  24 N :    0.274828
  25 O :   -0.245792
  26 O :   -0.254900
  27 C :    0.011348
  28 C :    0.119328
  29 C :   -0.039265
  30 C :    0.022816
  31 C :   -0.001243
  32 C :   -0.187678
  33 C :    0.072095
  34 C :    0.189554
  35 N :   -0.143907
  36 C :    0.071981
  37 C :   -0.043025
  38 C :   -0.058668
  39 S :    0.052254
  40 C :   -0.133328
  41 C :   -0.006276
  42 C :   -0.123427
  43 C :    0.146415
  44 C :    0.054716
  45 C :   -0.165979
  46 C :    0.098796
  47 C :    0.125966
  48 C :    0.045280
  49 C :   -0.022146
  50 C :    0.056122
  51 C :   -0.147787
  52 C :    0.133313
  53 O :   -0.151777
  54 C :   -0.006818
  55 C :   -0.091475
  56 C :    0.103093
  57 C :    0.104651
  58 C :   -0.102095
  59 C :    0.304108
  60 C :   -0.027997
  61 C :   -0.013248
  62 F :   -0.193513
  63 C :   -0.091309
  64 C :    0.032611
  65 C :    0.279981
  66 C :   -0.358932
  67 C :   -0.182130
  68 N :    0.158073
  69 C :   -0.175606
  70 N :    0.144029
  71 H :   -0.023538
  72 H :   -0.004168
  73 H :   -0.023203
  74 H :    0.046798
  75 H :    0.178345
  76 H :    0.010918
  77 H :   -0.002263
  78 H :   -0.009463
  79 H :   -0.031124
  80 H :    0.036429
  81 H :    0.054785
  82 H :    0.002367
  83 H :    0.024094
  84 H :    0.015452
  85 H :    0.119950
  86 H :    0.006880
  87 H :   -0.025728
  88 H :    0.011047
  89 H :    0.012029
  90 H :   -0.004803
  91 H :   -0.005368
  92 H :    0.007899
  93 H :   -0.004610
  94 H :    0.004578
  95 H :    0.014495
  96 H :    0.011969
  97 H :    0.041244
  98 H :    0.008259
  99 H :   -0.006651
 100 H :    0.019767
 101 H :   -0.013234
 102 H :   -0.004881
 103 H :    0.000751
 104 H :   -0.009889
 105 H :   -0.007028
Sum of atomic charges:   -0.0000000

LOEWDIN ATOMIC CHARGES
----------------------
   0 C :    0.078759
   1 C :   -0.147180
   2 C :   -0.020330
   3 N :   -0.050869
   4 C :   -0.020901
   5 N :   -0.052206
   6 C :   -0.018962
   7 C :   -0.055434
   8 C :    0.025092
   9 C :   -0.030672
  10 C :   -0.143017
  11 C :   -0.006910
  12 S :    0.440033
  13 C :   -0.270626
  14 C :   -0.070958
  15 Br:    0.163236
  16 C :    0.099267
  17 O :   -0.175148
  18 C :   -0.145476
  19 C :    0.112439
  20 N :    0.077726
  21 C :   -0.113860
  22 S :    0.477156
  23 C :   -0.203293
  24 N :    0.272854
  25 O :   -0.212108
  26 O :   -0.221530
  27 C :    0.000684
  28 C :   -0.085898
  29 C :   -0.033153
  30 C :   -0.014118
  31 C :   -0.050809
  32 C :   -0.024313
  33 C :   -0.062478
  34 C :    0.044181
  35 N :    0.006978
  36 C :    0.056487
  37 C :   -0.137857
  38 C :   -0.127518
  39 S :    0.403599
  40 C :   -0.194105
  41 C :   -0.003478
  42 C :   -0.077351
  43 C :   -0.026149
  44 C :   -0.023653
  45 C :   -0.030005
  46 C :   -0.046411
  47 C :   -0.025116
  48 C :    0.023164
  49 C :   -0.067675
  50 C :    0.069910
  51 C :   -0.118330
  52 C :    0.073102
  53 O :   -0.153823
  54 C :   -0.066619
  55 C :    0.027322
  56 C :   -0.020808
  57 C :    0.001948
  58 C :   -0.043351
  59 C :    0.092131
  60 C :   -0.039027
  61 C :    0.003583
  62 F :   -0.068248
  63 C :    0.007068
  64 C :   -0.018809
  65 C :    0.066559
  66 C :   -0.159163
  67 C :   -0.004325
  68 N :   -0.056528
  69 C :   -0.022099
  70 N :   -0.068007
  71 H :    0.029956
  72 H :    0.042270
  73 H :    0.025009
  74 H :    0.036970
  75 H :    0.087003
  76 H :    0.047122
  77 H :    0.032203
  78 H :    0.023045
  79 H :    0.021314
  80 H :    0.038521
  81 H :    0.038195
  82 H :    0.024529
  83 H :    0.033201
  84 H :    0.028818
  85 H :    0.078802
  86 H :    0.023096
  87 H :    0.027486
  88 H :    0.028486
  89 H :    0.031502
  90 H :    0.019759
  91 H :    0.022504
  92 H :    0.025797
  93 H :    0.020131
  94 H :    0.022637
  95 H :    0.027415
  96 H :    0.029825
  97 H :    0.038469
  98 H :    0.028000
  99 H :    0.033019
 100 H :    0.044844
 101 H :    0.038836
 102 H :    0.042184
 103 H :    0.040958
 104 H :    0.035238
 105 H :    0.038283

  Mayer bond orders larger than 0.100000
B(  0-C ,  1-C ) :   1.6349 B(  0-C ,  6-C ) :   1.0053 B(  0-C , 18-C ) :   1.0906
B(  1-C ,  2-C ) :   1.1418 B(  1-C ,  4-C ) :   1.1445 B(  2-C ,  3-N ) :   2.9708
B(  4-C ,  5-N ) :   2.9624 B(  6-C ,  7-C ) :   1.2594 B(  6-C , 11-C ) :   1.4234
B(  7-C ,  8-C ) :   1.4147 B(  7-C , 16-C ) :   0.9830 B(  8-C ,  9-C ) :   1.2496
B(  8-C , 71-H ) :   1.0138 B(  9-C , 10-C ) :   1.3009 B(  9-C , 14-C ) :   1.1761
B( 10-C , 11-C ) :   1.3164 B( 10-C , 12-S ) :   1.0934 B( 11-C , 72-H ) :   0.9826
B( 12-S , 13-C ) :   1.0873 B( 13-C , 14-C ) :   1.6090 B( 13-C , 15-Br) :   1.0253
B( 14-C , 73-H ) :   0.9910 B( 16-C , 17-O ) :   1.9653 B( 16-C , 18-C ) :   1.0181
B( 17-O , 75-H ) :   0.1350 B( 18-C , 19-C ) :   1.4504 B( 19-C , 20-N ) :   1.3385
B( 19-C , 74-H ) :   0.9323 B( 20-N , 21-C ) :   1.1714 B( 20-N , 75-H ) :   0.8267
B( 21-C , 22-S ) :   1.1419 B( 21-C , 28-C ) :   1.4085 B( 22-S , 23-C ) :   1.0899
B( 23-C , 24-N ) :   0.9629 B( 23-C , 27-C ) :   1.4920 B( 24-N , 25-O ) :   1.5394
B( 24-N , 26-O ) :   1.5175 B( 25-O , 26-O ) :   0.2628 B( 27-C , 28-C ) :   1.2220
B( 27-C , 76-H ) :   1.0076 B( 28-C , 29-C ) :   1.0305 B( 29-C , 30-C ) :   1.7395
B( 29-C , 77-H ) :   0.9717 B( 30-C , 31-C ) :   1.1163 B( 30-C , 78-H ) :   0.9598
B( 31-C , 32-C ) :   1.7671 B( 31-C , 79-H ) :   0.9808 B( 32-C , 33-C ) :   1.0779
B( 32-C , 34-C ) :   1.0358 B( 33-C , 80-H ) :   0.9392 B( 33-C , 81-H ) :   0.9328
B( 33-C , 82-H ) :   0.9479 B( 34-C , 35-N ) :   1.0256 B( 34-C , 83-H ) :   0.9480
B( 34-C , 84-H ) :   0.9327 B( 35-N , 36-C ) :   1.2432 B( 35-N , 85-H ) :   0.9383
B( 36-C , 37-C ) :   1.5776 B( 36-C , 86-H ) :   0.9673 B( 37-C , 38-C ) :   1.2120
B( 37-C , 87-H ) :   0.9527 B( 38-C , 39-S ) :   1.1188 B( 38-C , 42-C ) :   1.4390
B( 39-S , 40-C ) :   1.0520 B( 40-C , 41-C ) :   1.4283 B( 40-C , 48-C ) :   1.2489
B( 41-C , 42-C ) :   1.3702 B( 41-C , 47-C ) :   1.0480 B( 42-C , 43-C ) :   1.0473
B( 43-C , 44-C ) :   1.0976 B( 43-C , 88-H ) :   0.9099 B( 43-C , 89-H ) :   0.9053
B( 44-C , 45-C ) :   1.0378 B( 44-C , 90-H ) :   0.9357 B( 44-C , 91-H ) :   0.9338
B( 45-C , 46-C ) :   1.0860 B( 45-C , 47-C ) :   1.0487 B( 45-C , 92-H ) :   0.9303
B( 46-C , 93-H ) :   0.9575 B( 46-C , 94-H ) :   0.9621 B( 46-C , 95-H ) :   0.9634
B( 47-C , 96-H ) :   0.8907 B( 47-C , 97-H ) :   0.8961 B( 48-C , 49-C ) :   1.5391
B( 48-C , 98-H ) :   0.9368 B( 49-C , 50-C ) :   1.2390 B( 49-C , 99-H ) :   0.9627
B( 50-C , 51-C ) :   1.5519 B( 50-C ,100-H ) :   0.9350 B( 51-C , 52-C ) :   0.9601
B( 51-C , 65-C ) :   1.0727 B( 52-C , 53-O ) :   2.2627 B( 52-C , 54-C ) :   0.9078
B( 54-C , 55-C ) :   1.4700 B( 54-C , 64-C ) :   1.2161 B( 55-C , 56-C ) :   1.1822
B( 55-C ,101-H ) :   1.0184 B( 56-C , 57-C ) :   1.2603 B( 56-C , 61-C ) :   1.2358
B( 57-C , 58-C ) :   1.2019 B( 57-C , 63-C ) :   1.1948 B( 58-C , 59-C ) :   1.4388
B( 58-C ,102-H ) :   1.0078 B( 59-C , 60-C ) :   1.2581 B( 59-C , 62-F ) :   1.0857
B( 60-C , 61-C ) :   1.4575 B( 60-C ,103-H ) :   0.9928 B( 61-C ,104-H ) :   0.9976
B( 63-C , 64-C ) :   1.4688 B( 63-C ,105-H ) :   0.9964 B( 64-C , 65-C ) :   0.9875
B( 65-C , 66-C ) :   1.6133 B( 66-C , 67-C ) :   1.1790 B( 66-C , 69-C ) :   1.1351
B( 67-C , 68-N ) :   2.9687 B( 69-C , 70-N ) :   2.9814

-----------------------------------------------------------------------------
         ABSORPTION SPECTRUM VIA TRANSITION ELECTRIC DIPOLE MOMENTS
-----------------------------------------------------------------------------
State   Energy  Wavelength   fosc         T2         TX        TY        TZ
        (cm-1)    (nm)                  (au**2)     (au)      (au)      (au)
-----------------------------------------------------------------------------
   0   15181.4    658.7   0.636290038  13.79805   1.90394   1.21487  -2.94909
   1   18380.8    544.0   0.018160410   0.32526   0.33104   0.45093   0.11109
   2   20009.7    499.8   0.007094094   0.11672   0.18499   0.22418  -0.17956
   3   22060.1    453.3   0.552033796   8.23822   1.20152   2.00366  -1.66731
   4   24289.5    411.7   0.363411793   4.92556  -0.85042  -1.65107   1.21503
   5   24606.2    406.4   0.018779634   0.25126   0.16508   0.28144   0.38052
   6   26962.3    370.9   0.237104812   2.89507   0.73351   1.48433  -0.39216
   7   28310.5    353.2   0.032293632   0.37553   0.28853  -0.51493  -0.16471
   8   28779.1    347.5   0.162337118   1.85702   0.43985  -0.46853  -1.20168
   9   29028.5    344.5   0.049857206   0.56543  -0.67543   0.16724  -0.28504
  10   29269.0    341.7   0.058013034   0.65252  -0.07376   0.19534  -0.78033
  11   29547.5    338.4   0.162092541   1.80600   0.11243   0.29034  -1.30731
  12   29819.2    335.4   0.140195567   1.54780   0.28924  -0.01212  -1.20995
  13   30229.6    330.8   0.041597496   0.45301  -0.58644  -0.23503   0.23209
  14   30401.1    328.9   0.028056228   0.30382  -0.43864   0.16266  -0.29148
  15   30514.3    327.7   0.295660260   3.18981   0.55911   0.12882  -1.69133
  16   30765.4    325.0   0.267768139   2.86531   0.60446   0.95858  -1.25741
  17   31066.0    321.9   0.106653189   1.13022  -0.17797   1.04675  -0.05355
  18   31167.7    320.8   0.036216112   0.38254   0.60710  -0.11485   0.02785
  19   31561.3    316.8   0.004606875   0.04805   0.21288  -0.05232   0.00015
  20   32171.5    310.8   0.314829169   3.22166   0.33274  -0.29109  -1.73960
  21   32690.6    305.9   0.161415691   1.62554   1.14659   0.35135  -0.43292
  22   32712.3    305.7   0.042552345   0.42824  -0.06511  -0.31968   0.56728
  23   33391.0    299.5   0.133620313   1.31740  -0.10488  -0.75639  -0.85690
  24   34197.3    292.4   0.343751280   3.30924   0.65469  -0.40553  -1.64808
  25   34298.7    291.6   0.023238281   0.22305  -0.18279   0.18605   0.39373
  26   34790.1    287.4   0.412462668   3.90305  -1.96797   0.01183  -0.17321
  27   35011.9    285.6   0.186497937   1.75361   1.31816  -0.10833   0.06581
  28   35068.9    285.2   0.013393600   0.12573   0.27532  -0.10195  -0.19885
  29   35323.8    283.1   0.028628531   0.26681   0.20918   0.07779  -0.46584
  30   35469.3    281.9   0.096947848   0.89983  -0.29130  -0.28340   0.85712
  31   35887.3    278.6   0.069239109   0.63516  -0.42811  -0.67158  -0.02949
  32   36005.0    277.7   0.022378814   0.20462   0.39635  -0.12228  -0.18049
  33   36479.2    274.1   0.066369417   0.59896   0.43211   0.37033  -0.52450
  34   36645.1    272.9   0.108689224   0.97644  -0.54558   0.27314  -0.77729
  35   36810.7    271.7   0.011980381   0.10715   0.24990   0.14288   0.15581
  36   37001.6    270.3   0.287096927   2.55437  -0.89714  -0.71065   1.11556
  37   37435.0    267.1   0.013243143   0.11646   0.02312   0.29001   0.17840
  38   37583.6    266.1   0.402320887   3.52412   0.19844  -1.25435  -1.38251
  39   38014.9    263.1   0.006538550   0.05662  -0.00349   0.13477   0.19609
  40   38367.1    260.6   0.076834810   0.65929  -0.64801   0.27971   0.40141
  41   38708.0    258.3   0.075470244   0.64187   0.50877   0.56373   0.25541
  42   39737.4    251.7   0.069544536   0.57615   0.36312  -0.56547  -0.35291
  43   39926.2    250.5   0.039817042   0.32831   0.44676  -0.33970  -0.11541
  44   39959.4    250.3   0.007430771   0.06122  -0.12911  -0.07905  -0.19571

FINAL SINGLE POINT ENERGY     -6665.269623066763

DIPOLE MOMENT
-------------
                                X             Y             Z
Electronic contribution:     85.55524      49.21997     -11.94739
Nuclear contribution   :    -85.91965     -51.62033      11.38566
                        -----------------------------------------
Total Dipole Moment    :     -0.36441      -2.40036      -0.56173
                        -----------------------------------------
Magnitude (a.u.)       :      2.49200
Magnitude (Debye)      :      6.33417

Rotational constants in cm-1:     0.001347     0.000421     0.000382
Rotational constants in MHz :    40.396917    12.627052    11.465220

                             ****ORCA TERMINATED NORMALLY****
TOTAL RUN TIME: 0 days 0 hours 11 minutes 1 seconds 792 msec
