                         Program Version 4.2.0 -  RELEASE  -
|  1> # ORCA input file
|  2> # SCF done       -186.417995315386          0.000695634223
|  3> ! CAM-B3LYP def2-SVP def2/J RIJCOSX Grid4 TightSCF
|  4> %maxcore 5000
|  5> %tddft
|  6>     Mode sTDDFT
|  7>     Ethresh 5.0
|  8>     maxcore 5000
|  9> end
| 10>
| 11> %pal
| 12>   nprocs 6
| 13>   end
| 14> * xyz 0 1
| 15>    C      -15.75886         0.18441         2.37135
| 16>    C      -15.70944        -1.11746         1.92788
| 17>    C      -16.01883        -2.23529         2.72678
| 18>    N      -16.25025        -3.18806         3.32614
| 19>    C      -15.30791        -1.53674         0.64578
| 20>    N      -14.96847        -1.98237        -0.35819
| 21>    C      -16.10427         0.58958         3.73234
| 22>    C      -15.99746         1.99677         3.82236
| 23>    C      -16.25458         2.69293         4.97683
| 24>    C      -16.61198         1.95968         6.11200
| 25>    C      -16.70651         0.55192         6.01937
| 26>    C      -16.46381        -0.14970         4.84387
| 27>    S      -17.15193        -0.15885         7.54337
| 28>    C      -17.19841         1.42481         8.27243
| 29>    C      -16.90062         2.43434         7.42128
| 30>   Br      -17.63234         1.59784        10.09088
| 31>    C      -15.56439         2.53924         2.51842
| 32>    O      -15.36622         3.71526         2.28116
| 33>    C      -15.43775         1.37323         1.62151
| 34>    C      -15.04455         1.43928         0.30193
| 35>    C      -14.61210         2.62337        -0.30334
| 36>    C      -14.10756         2.71084        -1.57261
| 37>    C      -13.54178         3.91907        -2.02291
| 38>    O      -13.47977         4.97804        -1.17705
| 39>    C      -12.83148         6.00146        -1.78721
| 40>    C      -12.47914         5.59975        -3.07575
| 41>    C      -12.92693         4.27440        -3.22782
| 42>    O      -12.78554         3.48922        -4.31110
| 43>    O      -11.83964         6.27981        -4.06550
| 44>    C      -12.66281         7.17161        -1.00833
| 45>    C      -11.94346         8.29218        -1.27554
| 46>    C      -11.86991         9.35538        -0.34152
| 47>    C      -11.12130        10.47082        -0.50158
| 48>    N      -11.07204        11.44652         0.44809
| 49>    C      -10.36265        12.59422         0.39585
| 50>    S       -9.49591        13.03390        -1.04476
| 51>    C       -9.06164        14.54630        -0.30685
| 52>    N       -8.27582        15.42025        -1.05498
| 53>    O       -7.96887        16.48726        -0.55146
| 54>    O       -7.95255        15.04604        -2.17303
| 55>    C       -9.55607        14.69076         0.95998
| 56>    C      -10.29248        13.57284         1.40617
| 57>    C      -10.86011        13.52641         2.71755
| 58>    C      -11.28331        12.44171         3.42509
| 59>    C      -11.84458        12.53186         4.71009
| 60>    C      -12.28554        11.45619         5.44243
| 61>    C      -12.84100        11.48326         6.74264
| 62>    C      -13.19425        10.25951         7.23000
| 63>    C      -12.94501         9.19253         6.34399
| 64>    S      -12.23989         9.79747         4.85821
| 65>    C      -13.18632         7.84477         6.54616
| 66>    C      -13.71879         7.22446         7.69677
| 67>    C      -13.82029         5.86958         7.59311
| 68>    C      -13.38082         5.33415         6.35732
| 69>    S      -12.83185         6.64677         5.32574
| 70>    C      -13.38482         3.99972         6.03105
| 71>    C      -12.99750         3.37722         4.83055
| 72>    C      -12.49991         3.99910         3.62901
| 73>    C      -12.28304         3.02629         2.68195
| 74>    C      -11.82239         3.11868         1.34913
| 75>    C      -11.77356         1.96718         0.61748
| 76>    C      -11.43931         1.72120        -0.75149
| 77>    C      -11.67967         0.39003        -1.03617
| 78>    C      -12.12720        -0.24878         0.16340
| 79>    C      -12.18756         0.69129         1.18089
| 80>    C      -12.59035         0.58598         2.52219
| 81>    C      -12.64900         1.74443         3.26500
| 82>    C      -13.06978         2.00111         4.59220
| 83>    C      -11.53269        -0.22957        -2.33147
| 84>    C      -11.99993        -1.43238        -2.65495
| 85>    H      -16.16907         3.76769         5.00542
| 86>    H      -16.55638        -1.22268         4.82692
| 87>    H      -16.88580         3.47234         7.70006
| 88>    H      -15.02441         0.53541        -0.29236
| 89>    H      -14.61514         3.52020         0.29778
| 90>    H      -14.09453         1.87104        -2.25069
| 91>    H      -12.34212         3.99984        -5.00216
| 92>    H      -11.71704         7.19759        -3.80377
| 93>    H      -13.17119         7.10939        -0.05468
| 94>    H      -11.37827         8.40490        -2.19065
| 95>    H      -12.44652         9.24329         0.56780
| 96>    H      -10.51309        10.63743        -1.37864
| 97>    H      -11.65831        11.31736         1.26568
| 98>    H       -9.37286        15.56939         1.55184
| 99>    H      -10.91621        14.48914         3.20883
|100>    H      -11.15663        11.43549         3.04577
|101>    H      -11.94643        13.51067         5.15851
|102>    H      -12.95861        12.40789         7.27934
|103>    H      -13.62722        10.09981         8.20114
|104>    H      -14.00680         7.78687         8.56651
|105>    H      -14.19640         5.23073         8.37336
|106>    H      -13.74921         3.33380         6.80547
|107>    H      -12.33552         5.05066         3.49197
|108>    H      -11.54805         4.07741         0.93337
|109>    H      -11.06861         2.45915        -1.43868
|110>    H      -12.37470        -1.29020         0.25189
|111>    H      -12.86018        -0.37271         2.94367
|112>    H      -13.39849         1.25861         5.29679
|113>    H      -11.02536         0.37422        -3.07382
|114>    H      -12.54225        -2.04365        -1.95454
|115>    H      -11.87264        -1.83634        -3.64440
|116> *
|117>
|118>                          ****END OF INPUT****

CARTESIAN COORDINATES (ANGSTROEM)
---------------------------------
  C    -15.758860    0.184410    2.371350
  C    -15.709440   -1.117460    1.927880
  C    -16.018830   -2.235290    2.726780
  N    -16.250250   -3.188060    3.326140
  C    -15.307910   -1.536740    0.645780
  N    -14.968470   -1.982370   -0.358190
  C    -16.104270    0.589580    3.732340
  C    -15.997460    1.996770    3.822360
  C    -16.254580    2.692930    4.976830
  C    -16.611980    1.959680    6.112000
  C    -16.706510    0.551920    6.019370
  C    -16.463810   -0.149700    4.843870
  S    -17.151930   -0.158850    7.543370
  C    -17.198410    1.424810    8.272430
  C    -16.900620    2.434340    7.421280
  Br   -17.632340    1.597840   10.090880
  C    -15.564390    2.539240    2.518420
  O    -15.366220    3.715260    2.281160
  C    -15.437750    1.373230    1.621510
  C    -15.044550    1.439280    0.301930
  C    -14.612100    2.623370   -0.303340
  C    -14.107560    2.710840   -1.572610
  C    -13.541780    3.919070   -2.022910
  O    -13.479770    4.978040   -1.177050
  C    -12.831480    6.001460   -1.787210
  C    -12.479140    5.599750   -3.075750
  C    -12.926930    4.274400   -3.227820
  O    -12.785540    3.489220   -4.311100
  O    -11.839640    6.279810   -4.065500
  C    -12.662810    7.171610   -1.008330
  C    -11.943460    8.292180   -1.275540
  C    -11.869910    9.355380   -0.341520
  C    -11.121300   10.470820   -0.501580
  N    -11.072040   11.446520    0.448090
  C    -10.362650   12.594220    0.395850
  S     -9.495910   13.033900   -1.044760
  C     -9.061640   14.546300   -0.306850
  N     -8.275820   15.420250   -1.054980
  O     -7.968870   16.487260   -0.551460
  O     -7.952550   15.046040   -2.173030
  C     -9.556070   14.690760    0.959980
  C    -10.292480   13.572840    1.406170
  C    -10.860110   13.526410    2.717550
  C    -11.283310   12.441710    3.425090
  C    -11.844580   12.531860    4.710090
  C    -12.285540   11.456190    5.442430
  C    -12.841000   11.483260    6.742640
  C    -13.194250   10.259510    7.230000
  C    -12.945010    9.192530    6.343990
  S    -12.239890    9.797470    4.858210
  C    -13.186320    7.844770    6.546160
  C    -13.718790    7.224460    7.696770
  C    -13.820290    5.869580    7.593110
  C    -13.380820    5.334150    6.357320
  S    -12.831850    6.646770    5.325740
  C    -13.384820    3.999720    6.031050
  C    -12.997500    3.377220    4.830550
  C    -12.499910    3.999100    3.629010
  C    -12.283040    3.026290    2.681950
  C    -11.822390    3.118680    1.349130
  C    -11.773560    1.967180    0.617480
  C    -11.439310    1.721200   -0.751490
  C    -11.679670    0.390030   -1.036170
  C    -12.127200   -0.248780    0.163400
  C    -12.187560    0.691290    1.180890
  C    -12.590350    0.585980    2.522190
  C    -12.649000    1.744430    3.265000
  C    -13.069780    2.001110    4.592200
  C    -11.532690   -0.229570   -2.331470
  C    -11.999930   -1.432380   -2.654950
  H    -16.169070    3.767690    5.005420
  H    -16.556380   -1.222680    4.826920
  H    -16.885800    3.472340    7.700060
  H    -15.024410    0.535410   -0.292360
  H    -14.615140    3.520200    0.297780
  H    -14.094530    1.871040   -2.250690
  H    -12.342120    3.999840   -5.002160
  H    -11.717040    7.197590   -3.803770
  H    -13.171190    7.109390   -0.054680
  H    -11.378270    8.404900   -2.190650
  H    -12.446520    9.243290    0.567800
  H    -10.513090   10.637430   -1.378640
  H    -11.658310   11.317360    1.265680
  H     -9.372860   15.569390    1.551840
  H    -10.916210   14.489140    3.208830
  H    -11.156630   11.435490    3.045770
  H    -11.946430   13.510670    5.158510
  H    -12.958610   12.407890    7.279340
  H    -13.627220   10.099810    8.201140
  H    -14.006800    7.786870    8.566510
  H    -14.196400    5.230730    8.373360
  H    -13.749210    3.333800    6.805470
  H    -12.335520    5.050660    3.491970
  H    -11.548050    4.077410    0.933370
  H    -11.068610    2.459150   -1.438680
  H    -12.374700   -1.290200    0.251890
  H    -12.860180   -0.372710    2.943670
  H    -13.398490    1.258610    5.296790
  H    -11.025360    0.374220   -3.073820
  H    -12.542250   -2.043650   -1.954540
  H    -11.872640   -1.836340   -3.644400

 Total Charge           Charge          ....    0
 Multiplicity           Mult            ....    1
 Number of Electrons    NEL             ....  536
 Basis Dimension        Dim             .... 1169

ORBITAL ENERGIES
----------------

  NO   OCC          E(Eh)            E(eV)
   0   2.0000    -482.883880    -13139.9384
   1   2.0000     -88.983015     -2421.3509
   2   2.0000     -88.971006     -2421.0242
   3   2.0000     -88.947573     -2420.3865
   4   2.0000     -88.947394     -2420.3816
   5   2.0000     -62.561567     -1702.3868
   6   2.0000     -56.395515     -1534.6000
   7   2.0000     -56.392819     -1534.5266
   8   2.0000     -56.392767     -1534.5252
   9   2.0000     -19.298005      -525.1254
  10   2.0000     -19.281160      -524.6670
  11   2.0000     -19.274390      -524.4828
  12   2.0000     -19.230752      -523.2954
  13   2.0000     -19.230100      -523.2776
  14   2.0000     -19.202778      -522.5342
  15   2.0000     -14.642549      -398.4440
  16   2.0000     -14.489782      -394.2870
  17   2.0000     -14.410236      -392.1225
  18   2.0000     -14.405665      -391.9981
  19   2.0000     -10.369931      -282.1802
  20   2.0000     -10.355849      -281.7970
  21   2.0000     -10.355440      -281.7859
  22   2.0000     -10.353092      -281.7220
  23   2.0000     -10.352512      -281.7062
  24   2.0000     -10.350965      -281.6641
  25   2.0000     -10.342697      -281.4391
  26   2.0000     -10.338335      -281.3204
  27   2.0000     -10.336913      -281.2817
  28   2.0000     -10.330944      -281.1193
  29   2.0000     -10.328903      -281.0637
  30   2.0000     -10.319090      -280.7967
  31   2.0000     -10.314688      -280.6769
  32   2.0000     -10.313619      -280.6478
  33   2.0000     -10.309967      -280.5485
  34   2.0000     -10.309757      -280.5427
  35   2.0000     -10.309730      -280.5420
  36   2.0000     -10.306709      -280.4598
  37   2.0000     -10.306312      -280.4490
  38   2.0000     -10.305861      -280.4367
  39   2.0000     -10.300753      -280.2978
  40   2.0000     -10.300421      -280.2887
  41   2.0000     -10.299660      -280.2680
  42   2.0000     -10.299427      -280.2617
  43   2.0000     -10.298582      -280.2387
  44   2.0000     -10.298570      -280.2383
  45   2.0000     -10.298203      -280.2283
  46   2.0000     -10.297914      -280.2205
  47   2.0000     -10.296320      -280.1771
  48   2.0000     -10.293557      -280.1019
  49   2.0000     -10.293357      -280.0965
  50   2.0000     -10.290579      -280.0209
  51   2.0000     -10.290268      -280.0124
  52   2.0000     -10.289715      -279.9974
  53   2.0000     -10.288145      -279.9547
  54   2.0000     -10.287974      -279.9500
  55   2.0000     -10.286852      -279.9195
  56   2.0000     -10.284543      -279.8566
  57   2.0000     -10.284444      -279.8540
  58   2.0000     -10.283922      -279.8398
  59   2.0000     -10.282401      -279.7984
  60   2.0000     -10.281462      -279.7728
  61   2.0000     -10.279634      -279.7231
  62   2.0000     -10.278330      -279.6876
  63   2.0000     -10.275530      -279.6114
  64   2.0000     -10.274455      -279.5821
  65   2.0000     -10.273325      -279.5514
  66   2.0000     -10.270186      -279.4660
  67   2.0000     -10.268489      -279.4198
  68   2.0000     -10.267854      -279.4025
  69   2.0000     -10.266342      -279.3614
  70   2.0000     -10.265741      -279.3450
  71   2.0000     -10.265042      -279.3260
  72   2.0000     -10.264137      -279.3014
  73   2.0000     -10.254340      -279.0348
  74   2.0000      -8.790962      -239.2142
  75   2.0000      -8.078498      -219.8271
  76   2.0000      -8.066952      -219.5129
  77   2.0000      -8.043624      -218.8781
  78   2.0000      -8.043547      -218.8760
  79   2.0000      -6.627222      -180.3359
  80   2.0000      -6.612703      -179.9408
  81   2.0000      -6.612531      -179.9361
  82   2.0000      -6.048262      -164.5816
  83   2.0000      -6.043802      -164.4602
  84   2.0000      -6.039824      -164.3520
  85   2.0000      -6.036677      -164.2663
  86   2.0000      -6.032370      -164.1491
  87   2.0000      -6.028157      -164.0345
  88   2.0000      -6.013358      -163.6318
  89   2.0000      -6.013304      -163.6303
  90   2.0000      -6.009466      -163.5259
  91   2.0000      -6.009280      -163.5208
  92   2.0000      -6.004481      -163.3902
  93   2.0000      -6.004459      -163.3896
  94   2.0000      -2.743091       -74.6433
  95   2.0000      -2.738999       -74.5319
  96   2.0000      -2.738924       -74.5299
  97   2.0000      -2.727356       -74.2151
  98   2.0000      -2.727342       -74.2148
  99   2.0000      -1.310480       -35.6600
 100   2.0000      -1.221828       -33.2476
 101   2.0000      -1.176145       -32.0045
 102   2.0000      -1.159523       -31.5522
 103   2.0000      -1.129414       -30.7329
 104   2.0000      -1.116305       -30.3762
 105   2.0000      -1.096769       -29.8446
 106   2.0000      -1.015726       -27.6393
 107   2.0000      -1.007072       -27.4038
 108   2.0000      -1.002117       -27.2690
 109   2.0000      -0.996773       -27.1236
 110   2.0000      -0.988569       -26.9003
 111   2.0000      -0.987264       -26.8648
 112   2.0000      -0.979841       -26.6628
 113   2.0000      -0.975083       -26.5333
 114   2.0000      -0.961758       -26.1708
 115   2.0000      -0.939101       -25.5542
 116   2.0000      -0.935522       -25.4568
 117   2.0000      -0.923693       -25.1350
 118   2.0000      -0.917110       -24.9558
 119   2.0000      -0.903661       -24.5899
 120   2.0000      -0.902286       -24.5525
 121   2.0000      -0.901040       -24.5186
 122   2.0000      -0.895778       -24.3754
 123   2.0000      -0.887453       -24.1488
 124   2.0000      -0.879080       -23.9210
 125   2.0000      -0.878047       -23.8929
 126   2.0000      -0.868613       -23.6362
 127   2.0000      -0.864948       -23.5364
 128   2.0000      -0.863044       -23.4846
 129   2.0000      -0.851744       -23.1771
 130   2.0000      -0.845449       -23.0058
 131   2.0000      -0.841778       -22.9059
 132   2.0000      -0.831599       -22.6290
 133   2.0000      -0.822939       -22.3933
 134   2.0000      -0.822608       -22.3843
 135   2.0000      -0.812000       -22.0956
 136   2.0000      -0.799142       -21.7458
 137   2.0000      -0.796230       -21.6665
 138   2.0000      -0.781803       -21.2739
 139   2.0000      -0.767522       -20.8853
 140   2.0000      -0.757822       -20.6214
 141   2.0000      -0.749287       -20.3891
 142   2.0000      -0.746715       -20.3192
 143   2.0000      -0.742833       -20.2135
 144   2.0000      -0.733300       -19.9541
 145   2.0000      -0.728829       -19.8324
 146   2.0000      -0.714018       -19.4294
 147   2.0000      -0.712639       -19.3919
 148   2.0000      -0.708898       -19.2901
 149   2.0000      -0.694673       -18.9030
 150   2.0000      -0.685332       -18.6488
 151   2.0000      -0.683374       -18.5956
 152   2.0000      -0.677393       -18.4328
 153   2.0000      -0.671243       -18.2654
 154   2.0000      -0.667985       -18.1768
 155   2.0000      -0.662060       -18.0156
 156   2.0000      -0.654889       -17.8204
 157   2.0000      -0.651091       -17.7171
 158   2.0000      -0.648053       -17.6344
 159   2.0000      -0.646810       -17.6006
 160   2.0000      -0.643066       -17.4987
 161   2.0000      -0.635973       -17.3057
 162   2.0000      -0.629483       -17.1291
 163   2.0000      -0.626045       -17.0356
 164   2.0000      -0.623941       -16.9783
 165   2.0000      -0.623544       -16.9675
 166   2.0000      -0.619875       -16.8677
 167   2.0000      -0.616221       -16.7682
 168   2.0000      -0.614532       -16.7223
 169   2.0000      -0.601980       -16.3807
 170   2.0000      -0.601786       -16.3754
 171   2.0000      -0.597163       -16.2496
 172   2.0000      -0.594310       -16.1720
 173   2.0000      -0.587758       -15.9937
 174   2.0000      -0.586498       -15.9594
 175   2.0000      -0.582068       -15.8389
 176   2.0000      -0.579486       -15.7686
 177   2.0000      -0.578222       -15.7342
 178   2.0000      -0.574509       -15.6332
 179   2.0000      -0.563293       -15.3280
 180   2.0000      -0.560639       -15.2558
 181   2.0000      -0.558521       -15.1981
 182   2.0000      -0.550577       -14.9820
 183   2.0000      -0.547341       -14.8939
 184   2.0000      -0.540173       -14.6989
 185   2.0000      -0.539296       -14.6750
 186   2.0000      -0.538100       -14.6425
 187   2.0000      -0.533660       -14.5216
 188   2.0000      -0.531044       -14.4505
 189   2.0000      -0.527049       -14.3417
 190   2.0000      -0.526699       -14.3322
 191   2.0000      -0.523275       -14.2390
 192   2.0000      -0.520624       -14.1669
 193   2.0000      -0.516777       -14.0622
 194   2.0000      -0.513274       -13.9669
 195   2.0000      -0.508126       -13.8268
 196   2.0000      -0.507668       -13.8143
 197   2.0000      -0.504760       -13.7352
 198   2.0000      -0.503117       -13.6905
 199   2.0000      -0.502424       -13.6716
 200   2.0000      -0.501116       -13.6361
 201   2.0000      -0.498675       -13.5696
 202   2.0000      -0.495757       -13.4902
 203   2.0000      -0.495432       -13.4814
 204   2.0000      -0.494039       -13.4435
 205   2.0000      -0.492036       -13.3890
 206   2.0000      -0.490515       -13.3476
 207   2.0000      -0.485141       -13.2014
 208   2.0000      -0.484423       -13.1818
 209   2.0000      -0.482567       -13.1313
 210   2.0000      -0.481325       -13.0975
 211   2.0000      -0.476906       -12.9773
 212   2.0000      -0.473982       -12.8977
 213   2.0000      -0.473118       -12.8742
 214   2.0000      -0.471908       -12.8413
 215   2.0000      -0.470101       -12.7921
 216   2.0000      -0.465460       -12.6658
 217   2.0000      -0.463949       -12.6247
 218   2.0000      -0.463221       -12.6049
 219   2.0000      -0.456287       -12.4162
 220   2.0000      -0.454644       -12.3715
 221   2.0000      -0.451972       -12.2988
 222   2.0000      -0.450107       -12.2480
 223   2.0000      -0.449821       -12.2403
 224   2.0000      -0.444467       -12.0946
 225   2.0000      -0.441198       -12.0056
 226   2.0000      -0.440421       -11.9845
 227   2.0000      -0.440164       -11.9775
 228   2.0000      -0.437554       -11.9064
 229   2.0000      -0.435219       -11.8429
 230   2.0000      -0.432226       -11.7615
 231   2.0000      -0.430360       -11.7107
 232   2.0000      -0.427462       -11.6318
 233   2.0000      -0.422430       -11.4949
 234   2.0000      -0.420584       -11.4447
 235   2.0000      -0.419112       -11.4046
 236   2.0000      -0.417558       -11.3623
 237   2.0000      -0.415312       -11.3012
 238   2.0000      -0.413225       -11.2444
 239   2.0000      -0.405230       -11.0269
 240   2.0000      -0.400817       -10.9068
 241   2.0000      -0.399965       -10.8836
 242   2.0000      -0.397357       -10.8126
 243   2.0000      -0.395421       -10.7600
 244   2.0000      -0.380911       -10.3651
 245   2.0000      -0.379359       -10.3229
 246   2.0000      -0.376298       -10.2396
 247   2.0000      -0.373419       -10.1612
 248   2.0000      -0.372315       -10.1312
 249   2.0000      -0.369513       -10.0549
 250   2.0000      -0.359409        -9.7800
 251   2.0000      -0.357396        -9.7252
 252   2.0000      -0.350689        -9.5427
 253   2.0000      -0.348494        -9.4830
 254   2.0000      -0.340233        -9.2582
 255   2.0000      -0.328228        -8.9315
 256   2.0000      -0.327096        -8.9007
 257   2.0000      -0.325057        -8.8453
 258   2.0000      -0.321575        -8.7505
 259   2.0000      -0.315302        -8.5798
 260   2.0000      -0.307705        -8.3731
 261   2.0000      -0.290916        -7.9162
 262   2.0000      -0.288951        -7.8628
 263   2.0000      -0.276136        -7.5141
 264   2.0000      -0.264568        -7.1993
 265   2.0000      -0.253834        -6.9072
 266   2.0000      -0.233334        -6.3493
 267   2.0000      -0.204410        -5.5623
 268   0.0000      -0.102127        -2.7790
 269   0.0000      -0.087288        -2.3752
 270   0.0000      -0.076157        -2.0723
 271   0.0000      -0.059500        -1.6191
 272   0.0000      -0.048415        -1.3174

MULLIKEN ATOMIC CHARGES
-----------------------
   0 C :    0.332190
   1 C :   -0.390244
   2 C :   -0.190750
   3 N :    0.143204
   4 C :   -0.194316
   5 N :    0.147056
   6 C :    0.002968
   7 C :    0.012876
   8 C :   -0.084847
   9 C :    0.112347
  10 C :   -0.089571
  11 C :   -0.043231
  12 S :    0.179165
  13 C :   -0.121661
  14 C :    0.029797
  15 Br:    0.015151
  16 C :    0.160358
  17 O :   -0.162331
  18 C :   -0.092552
  19 C :   -0.009130
  20 C :   -0.000989
  21 C :    0.031779
  22 C :    0.047333
  23 O :   -0.210218
  24 C :    0.128634
  25 C :    0.046596
  26 C :    0.101699
  27 O :   -0.160071
  28 O :   -0.196323
  29 C :   -0.027449
  30 C :   -0.007543
  31 C :   -0.010733
  32 C :    0.058262
  33 N :   -0.015935
  34 C :   -0.118911
  35 S :    0.138514
  36 C :   -0.005735
  37 N :    0.279573
  38 O :   -0.258118
  39 O :   -0.275193
  40 C :    0.009090
  41 C :    0.129828
  42 C :   -0.038243
  43 C :   -0.020745
  44 C :   -0.030836
  45 C :   -0.009458
  46 C :    0.027531
  47 C :    0.029604
  48 C :   -0.050521
  49 S :    0.043733
  50 C :   -0.025114
  51 C :    0.022290
  52 C :    0.031396
  53 C :   -0.029211
  54 S :    0.048797
  55 C :   -0.013730
  56 C :    0.050299
  57 C :   -0.013072
  58 C :    0.059738
  59 C :   -0.006168
  60 C :    0.061748
  61 C :    0.006052
  62 C :    0.040670
  63 C :   -0.029029
  64 C :    0.034062
  65 C :    0.038087
  66 C :    0.015884
  67 C :   -0.012587
  68 C :   -0.003295
  69 C :   -0.020527
  70 H :   -0.009145
  71 H :   -0.011225
  72 H :   -0.007272
  73 H :    0.008674
  74 H :    0.036239
  75 H :    0.019456
  76 H :    0.198703
  77 H :    0.191884
  78 H :    0.011769
  79 H :   -0.037555
  80 H :   -0.002210
  81 H :    0.025219
  82 H :    0.136262
  83 H :    0.008747
  84 H :   -0.010909
  85 H :   -0.008306
  86 H :   -0.017330
  87 H :   -0.015009
  88 H :   -0.014162
  89 H :   -0.016343
  90 H :   -0.013101
  91 H :   -0.021791
  92 H :   -0.012593
  93 H :   -0.034877
  94 H :   -0.030487
  95 H :   -0.006296
  96 H :   -0.019840
  97 H :   -0.026877
  98 H :   -0.021469
  99 H :    0.031799
 100 H :    0.020121
Sum of atomic charges:   -0.0000000

LOEWDIN ATOMIC CHARGES
----------------------
   0 C :    0.078493
   1 C :   -0.163075
   2 C :   -0.021008
   3 N :   -0.067143
   4 C :   -0.013819
   5 N :   -0.069695
   6 C :   -0.022082
   7 C :   -0.041257
   8 C :    0.021417
   9 C :   -0.039077
  10 C :   -0.149249
  11 C :   -0.017721
  12 S :    0.426286
  13 C :   -0.274350
  14 C :   -0.075592
  15 Br:    0.129935
  16 C :    0.085207
  17 O :   -0.150562
  18 C :   -0.110381
  19 C :    0.069678
  20 C :   -0.037227
  21 C :    0.026773
  22 C :   -0.008640
  23 O :    0.015878
  24 C :    0.001185
  25 C :   -0.024090
  26 C :    0.011196
  27 O :   -0.034170
  28 O :   -0.057219
  29 C :   -0.051705
  30 C :   -0.027703
  31 C :   -0.069265
  32 C :    0.021531
  33 N :    0.052843
  34 C :   -0.098019
  35 S :    0.443353
  36 C :   -0.217333
  37 N :    0.274136
  38 O :   -0.223613
  39 O :   -0.241295
  40 C :    0.006964
  41 C :   -0.106449
  42 C :   -0.028461
  43 C :   -0.053125
  44 C :   -0.068732
  45 C :   -0.141436
  46 C :   -0.043160
  47 C :   -0.028043
  48 C :   -0.188356
  49 S :    0.347233
  50 C :   -0.171916
  51 C :   -0.044127
  52 C :   -0.028920
  53 C :   -0.160272
  54 S :    0.378035
  55 C :   -0.036926
  56 C :   -0.063820
  57 C :    0.038172
  58 C :   -0.057901
  59 C :    0.071315
  60 C :   -0.056329
  61 C :    0.016392
  62 C :   -0.053260
  63 C :    0.055630
  64 C :   -0.060596
  65 C :    0.070932
  66 C :   -0.059981
  67 C :    0.015639
  68 C :   -0.031992
  69 C :   -0.036945
  70 H :    0.040035
  71 H :    0.039508
  72 H :    0.036492
  73 H :    0.038646
  74 H :    0.030292
  75 H :    0.045895
  76 H :    0.107452
  77 H :    0.094690
  78 H :    0.045381
  79 H :    0.016262
  80 H :    0.032739
  81 H :    0.025295
  82 H :    0.094542
  83 H :    0.045808
  84 H :    0.033330
  85 H :    0.012092
  86 H :    0.032233
  87 H :    0.032621
  88 H :    0.032023
  89 H :    0.030914
  90 H :    0.032556
  91 H :    0.035712
  92 H :    0.012752
  93 H :    0.032450
  94 H :    0.022309
  95 H :    0.029023
  96 H :    0.035538
  97 H :    0.024413
  98 H :    0.027083
  99 H :    0.024988
 100 H :    0.024737

  Mayer bond orders larger than 0.100000
B(  0-C ,  1-C ) :   1.5786 B(  0-C ,  6-C ) :   0.9898 B(  0-C , 18-C ) :   1.0968
B(  1-C ,  2-C ) :   1.1461 B(  1-C ,  4-C ) :   1.1678 B(  2-C ,  3-N ) :   2.9650
B(  4-C ,  5-N ) :   2.9352 B(  6-C ,  7-C ) :   1.2857 B(  6-C , 11-C ) :   1.4070
B(  7-C ,  8-C ) :   1.4216 B(  7-C , 16-C ) :   0.9444 B(  8-C ,  9-C ) :   1.2376
B(  8-C , 70-H ) :   1.0114 B(  9-C , 10-C ) :   1.3166 B(  9-C , 14-C ) :   1.1553
B( 10-C , 11-C ) :   1.3174 B( 10-C , 12-S ) :   1.0797 B( 11-C , 71-H ) :   0.9817
B( 12-S , 13-C ) :   1.0861 B( 13-C , 14-C ) :   1.6152 B( 13-C , 15-Br) :   1.0136
B( 14-C , 72-H ) :   1.0018 B( 16-C , 17-O ) :   2.1482 B( 16-C , 18-C ) :   0.9742
B( 18-C , 19-C ) :   1.4600 B( 19-C , 20-C ) :   1.2320 B( 19-C , 73-H ) :   0.9579
B( 20-C , 21-C ) :   1.4810 B( 20-C , 74-H ) :   0.9631 B( 21-C , 22-C ) :   1.2007
B( 21-C , 75-H ) :   0.9756 B( 22-C , 23-O ) :   1.1088 B( 22-C , 24-C ) :   0.1113
B( 22-C , 26-C ) :   1.3320 B( 23-O , 24-C ) :   1.1135 B( 24-C , 25-C ) :   1.3148
B( 24-C , 29-C ) :   1.1441 B( 25-C , 26-C ) :   1.2508 B( 25-C , 28-O ) :   1.2295
B( 26-C , 27-O ) :   1.2997 B( 27-O , 76-H ) :   0.9480 B( 28-O , 77-H ) :   0.9602
B( 29-C , 30-C ) :   1.6230 B( 29-C , 78-H ) :   0.9563 B( 30-C , 31-C ) :   1.1844
B( 30-C , 79-H ) :   0.9672 B( 31-C , 32-C ) :   1.6252 B( 31-C , 80-H ) :   0.9836
B( 32-C , 33-N ) :   1.1255 B( 32-C , 81-H ) :   0.9651 B( 33-N , 34-C ) :   1.2427
B( 33-N , 82-H ) :   0.9024 B( 34-C , 35-S ) :   1.1291 B( 34-C , 41-C ) :   1.3287
B( 35-S , 36-C ) :   1.0585 B( 36-C , 37-N ) :   0.9862 B( 36-C , 40-C ) :   1.4810
B( 37-N , 38-O ) :   1.5265 B( 37-N , 39-O ) :   1.4997 B( 38-O , 39-O ) :   0.2517
B( 40-C , 41-C ) :   1.2204 B( 40-C , 83-H ) :   1.0078 B( 41-C , 42-C ) :   1.0920
B( 42-C , 43-C ) :   1.6270 B( 42-C , 84-H ) :   0.9735 B( 43-C , 44-C ) :   1.1700
B( 43-C , 85-H ) :   0.9527 B( 44-C , 45-C ) :   1.5526 B( 44-C , 86-H ) :   0.9870
B( 45-C , 46-C ) :   1.1513 B( 45-C , 49-S ) :   1.0283 B( 46-C , 47-C ) :   1.5742
B( 46-C , 87-H ) :   1.0002 B( 47-C , 48-C ) :   1.2062 B( 47-C , 88-H ) :   0.9925
B( 48-C , 49-S ) :   1.0331 B( 48-C , 50-C ) :   1.4929 B( 50-C , 51-C ) :   1.1953
B( 50-C , 54-S ) :   1.0497 B( 51-C , 52-C ) :   1.5789 B( 51-C , 89-H ) :   0.9928
B( 52-C , 53-C ) :   1.1484 B( 52-C , 90-H ) :   0.9994 B( 53-C , 54-S ) :   1.0211
B( 53-C , 55-C ) :   1.5560 B( 55-C , 56-C ) :   1.1433 B( 55-C , 91-H ) :   0.9690
B( 56-C , 57-C ) :   1.1216 B( 56-C , 67-C ) :   1.4252 B( 57-C , 58-C ) :   1.4741
B( 57-C , 92-H ) :   0.9881 B( 58-C , 59-C ) :   1.1169 B( 58-C , 66-C ) :   1.1265
B( 59-C , 60-C ) :   1.4544 B( 59-C , 93-H ) :   1.0062 B( 60-C , 61-C ) :   1.0955
B( 60-C , 64-C ) :   1.1379 B( 61-C , 62-C ) :   1.4830 B( 61-C , 94-H ) :   1.0140
B( 62-C , 63-C ) :   1.1572 B( 62-C , 68-C ) :   1.0774 B( 63-C , 64-C ) :   1.3950
B( 63-C , 95-H ) :   1.0112 B( 64-C , 65-C ) :   1.1556 B( 65-C , 66-C ) :   1.4130
B( 65-C , 96-H ) :   1.0021 B( 66-C , 67-C ) :   1.1237 B( 67-C , 97-H ) :   1.0189
B( 68-C , 69-C ) :   1.9304 B( 68-C , 98-H ) :   0.9677 B( 69-C , 99-H ) :   0.9492
B( 69-C ,100-H ) :   0.9506

-----------------------------------------------------------------------------
         ABSORPTION SPECTRUM VIA TRANSITION ELECTRIC DIPOLE MOMENTS
-----------------------------------------------------------------------------
State   Energy  Wavelength   fosc         T2         TX        TY        TZ
        (cm-1)    (nm)                  (au**2)     (au)      (au)      (au)
-----------------------------------------------------------------------------
   0    6702.9   1491.9   0.030386676   1.49244   0.25721   1.11785   0.42033
   1   11362.4    880.1   0.045223115   1.31029   0.80478   0.64949   0.49069
   2   12658.9    790.0   0.036404461   0.94675  -0.19563  -0.48257   0.82195
   3   13492.1    741.2   0.409021288   9.98029   0.20467   3.14871  -0.15500
   4   15314.1    653.0   0.012762797   0.27437  -0.47678  -0.16359   0.14242
   5   16906.8    591.5   1.730440686  33.69541   1.72942   5.46786  -0.89835
   6   17689.4    565.3   0.225400854   4.19487   0.64887   1.71540  -0.91173
   7   18227.6    548.6   0.141762103   2.56039   0.01518   1.52827  -0.47386
   8   19462.1    513.8   0.217674112   3.68207   0.87503   1.36279  -1.02917
   9   20529.4    487.1   0.294548118   4.72340  -0.05899  -1.13718  -1.85115
  10   20678.8    483.6   0.134374499   2.13928   0.78587   0.52586  -1.11587
  11   22330.1    447.8   0.136937913   2.01887  -0.14714   1.26154   0.63698
  12   23598.3    423.8   0.090379087   1.26085   0.45848   0.99180   0.25879
  13   23781.6    420.5   0.021214624   0.29368   0.30484   0.41488   0.16919
  14   24039.5    416.0   0.341133996   4.67171   1.15143   0.61915  -1.72121
  15   25200.6    396.8   0.323111163   4.22101   0.88610   0.93717  -1.59923
  16   25318.5    395.0   0.154908847   2.01425   0.51738  -0.25553  -1.29664
  17   25383.1    394.0   0.146158291   1.89563   0.43427   1.08916   0.72164
  18   25648.6    389.9   0.221626182   2.84467  -0.02678   1.09129   1.28571
  19   26454.5    378.0   0.060567123   0.75372   0.02969   0.50018   0.70899
  20   26574.8    376.3   0.226768328   2.80924  -0.63476  -1.20407  -0.97802
  21   27444.4    364.4   0.054484221   0.65357  -0.34204   0.50343   0.53211
  22   27452.1    364.3   0.098126830   1.17676   0.13840   0.10620  -1.07067
  23   27659.7    361.5   0.063950740   0.76116  -0.09583   0.68105   0.53679
  24   28050.3    356.5   0.325951806   3.82553   0.80270  -0.56881  -1.69046
  25   28283.8    353.6   0.029045650   0.33808   0.41666   0.11345  -0.38936
  26   28981.1    345.1   0.007660124   0.08702  -0.19027  -0.09779   0.20310
  27   29078.5    343.9   0.273161803   3.09260  -0.53247   0.58232   1.57161
  28   29159.5    342.9   0.205566898   2.32086   0.26296  -0.85613  -1.23238
  29   29899.4    334.5   0.012337303   0.13584   0.23377   0.20860   0.19411
  30   30093.8    332.3   0.071587638   0.78313  -0.16788  -0.42679   0.75684
  31   30963.2    323.0   0.035966815   0.38241   0.37146   0.17383  -0.46283
  32   31156.5    321.0   0.003068794   0.03243  -0.14778  -0.09315  -0.04370
  33   31372.4    318.8   0.001395897   0.01465   0.04419   0.08097   0.07835
  34   31688.4    315.6   0.029602611   0.30754   0.29957   0.24484  -0.39731
  35   31790.5    314.6   0.010864921   0.11251  -0.06596   0.31097  -0.10707
  36   32147.1    311.1   0.098541266   1.00914   0.21563  -0.19845  -0.96086
  37   32378.3    308.8   0.024457224   0.24867   0.07401  -0.09142  -0.48460
  38   32569.0    307.0   0.001427688   0.01443   0.02051  -0.04853  -0.10796
  39   33049.2    302.6   0.067719549   0.67457  -0.13073   0.37592   0.71844
  40   33346.4    299.9   0.058171346   0.57430   0.53296   0.14678  -0.51837
  41   33479.3    298.7   0.050169645   0.49333   0.32754  -0.04708  -0.61954
  42   33540.4    298.1   0.278038148   2.72905  -0.23561   0.78703   1.43322
  43   33933.9    294.7   0.158649347   1.53915  -0.14281   0.76239   0.96825
  44   34266.2    291.8   0.039232416   0.37693  -0.43601   0.02107   0.43171
  45   34380.0    290.9   0.150713490   1.44318   0.62234   0.07616  -1.02473
  46   34713.0    288.1   0.188172142   1.78459   0.09366  -0.87397  -1.00598
  47   35029.3    285.5   0.051364376   0.48273   0.41024   0.10146  -0.55149
  48   35769.9    279.6   0.195483274   1.79915   0.31925  -0.22258  -1.28362
  49   36001.6    277.8   0.065398204   0.59803  -0.04230  -0.69282  -0.34094
  50   36152.6    276.6   0.018764492   0.17087   0.17394   0.36099   0.10151
  51   36246.5    275.9   0.009290159   0.08438   0.10257   0.25957  -0.08051
  52   36332.3    275.2   0.039821277   0.36083   0.09526  -0.42856  -0.40998
  53   36561.8    273.5   0.153253873   1.37994  -0.12334   0.71695   0.92234
  54   36714.5    272.4   0.014669187   0.13154  -0.00886  -0.29774  -0.20690
  55   36791.1    271.8   0.047125439   0.42168  -0.21769  -0.60882  -0.06029
  56   37327.8    267.9   0.118509903   1.04520  -0.11996   0.11781   1.00843
  57   37453.3    267.0   0.001305597   0.01148   0.03483  -0.02897   0.09708
  58   37690.4    265.3   0.031990846   0.27943   0.23054   0.34025  -0.33243
  59   37795.3    264.6   0.016989050   0.14798  -0.03225  -0.36146   0.12761
  60   37833.6    264.3   0.052290637   0.45501  -0.11419   0.09667   0.65774
  61   38017.5    263.0   0.214457492   1.85709   0.00193  -0.56397  -1.24058
  62   38375.2    260.6   0.003078652   0.02641  -0.03403  -0.15149   0.04799
  63   38539.1    259.5   0.073292722   0.62609  -0.09599   0.49672   0.60840
  64   38668.6    258.6   0.056965744   0.48499   0.04628  -0.49623  -0.48642
  65   38983.4    256.5   0.105958408   0.89481   0.33515  -0.35136  -0.81181
  66   39164.4    255.3   0.105846394   0.88973   0.17582   0.48507  -0.78964
  67   39301.0    254.4   0.050478477   0.42284  -0.13198  -0.58588  -0.24933
  68   39419.8    253.7   0.067142426   0.56074  -0.01995   0.72528   0.18524
  69   39799.5    251.3   0.024914676   0.20609   0.04415  -0.10763  -0.43881
  70   40207.7    248.7   0.019934059   0.16322   0.05564   0.30305   0.26130

FINAL SINGLE POINT ENERGY     -6947.296989213339

DIPOLE MOMENT
-------------
                                X             Y             Z
Electronic contribution:    -56.20590     -41.56634      93.30463
Nuclear contribution   :     55.80096      43.14612     -92.47101
                        -----------------------------------------
Total Dipole Moment    :     -0.40494       1.57979       0.83362
                        -----------------------------------------
Magnitude (a.u.)       :      1.83156
Magnitude (Debye)      :      4.65546

Rotational constants in cm-1:     0.001041     0.000478     0.000342
Rotational constants in MHz :    31.200540    14.343359    10.241243

                             ****ORCA TERMINATED NORMALLY****
TOTAL RUN TIME: 0 days 0 hours 16 minutes 22 seconds 886 msec
