                         Program Version 4.2.0 -  RELEASE  -
|  1> # ORCA input file
|  2> # SCF done       -182.274322414630          0.000491045506
|  3> ! CAM-B3LYP def2-SVP def2/J RIJCOSX Grid4 TightSCF
|  4> %maxcore 5000
|  5> %tddft
|  6>     Mode sTDDFT
|  7>     Ethresh 5.0
|  8>     maxcore 5000
|  9> end
| 10>
| 11> %pal
| 12>   nprocs 6
| 13>   end
| 14> * xyz 0 1
| 15>    C        0.26291        -1.09584         0.17367
| 16>    C       -0.16891        -2.36834         0.47841
| 17>    C        0.69007        -3.44345         0.77654
| 18>    N        1.33282        -4.36277         1.02631
| 19>    C       -1.51112        -2.78959         0.54038
| 20>    N       -2.57389        -3.22182         0.61519
| 21>    C        1.66366        -0.67608         0.12721
| 22>    C        1.71232         0.69647        -0.21588
| 23>    C        2.88986         1.39062        -0.33773
| 24>    C        4.08313         0.69590        -0.10926
| 25>    C        4.02585        -0.67442         0.23269
| 26>    C        2.83180        -1.37673         0.35571
| 27>    S        5.61384        -1.33969         0.47257
| 28>    C        6.32190         0.21301         0.11443
| 29>    C        5.41881         1.18040        -0.17008
| 30>   Br        8.18749         0.41061         0.15085
| 31>    C        0.33497         1.19968        -0.40258
| 32>    O        0.02413         2.33695        -0.70323
| 33>    C       -0.54847         0.04593        -0.15018
| 34>    C       -1.93094         0.08770        -0.22570
| 35>    C       -2.66688         1.21801        -0.54739
| 36>    C       -4.05161         1.23789        -0.61946
| 37>    C       -4.85363         2.34810        -0.94200
| 38>    C       -6.19779         2.08366        -0.94052
| 39>    C       -6.50743         0.75329        -0.61590
| 40>    S       -5.05457        -0.16179        -0.31102
| 41>    C       -7.77595         0.17612        -0.52991
| 42>    C       -9.01315         0.79738        -0.75044
| 43>    C      -10.08610        -0.04324        -0.58549
| 44>    C       -9.73494        -1.35229        -0.23002
| 45>    S       -7.99817        -1.50032        -0.10855
| 46>    C      -10.61501        -2.40791         0.00463
| 47>    C      -10.25009        -3.68468         0.35676
| 48>    C      -11.15825        -4.71652         0.59339
| 49>    C      -10.86690        -6.03754         0.96031
| 50>    C      -11.97543        -6.82940         1.13308
| 51>    C      -13.18566        -6.15748         0.90732
| 52>    S      -12.88690        -4.49510         0.46642
| 53>    C      -14.48356        -6.65112         1.00311
| 54>    C      -14.90466        -7.94584         1.35520
| 55>    C      -16.26236        -8.09806         1.36839
| 56>    C      -16.98032        -6.92883         1.02581
| 57>    S      -15.86125        -5.62693         0.68016
| 58>    C      -18.35046        -6.81028         0.97555
| 59>    C      -19.09583        -5.67308         0.64238
| 60>    C      -20.49790        -5.60317         0.63049
| 61>    C      -21.27806        -6.71607         0.96644
| 62>    N      -21.86914        -7.65887         1.24910
| 63>    C      -20.97732        -4.32632         0.25380
| 64>    C      -19.92718        -3.45173        -0.01748
| 65>    S      -18.36372        -4.14474         0.18161
| 66>    S      -20.40071        -1.85545        -0.49612
| 67>    C      -22.05261        -2.35730        -0.32966
| 68>    C      -22.23342        -3.67521         0.07102
| 69>    C      -23.61493        -3.99348         0.18703
| 70>    C      -24.15093        -5.23210         0.57561
| 71>    N      -24.62745        -6.22665         0.89115
| 72>    C      -24.42768        -2.91379        -0.12956
| 73>    S      -23.52413        -1.49253        -0.57402
| 74>    C      -25.85182        -2.89039        -0.11332
| 75>    O      -26.49775        -4.03834         0.25892
| 76>    C      -27.80444        -3.75672         0.19362
| 77>    C      -29.07960        -4.33556         0.39959
| 78>    C      -29.42054        -5.70902         0.84045
| 79>    O      -30.56350        -6.08841         0.97872
| 80>    N      -28.34164        -6.48623         1.07307
| 81>    C      -29.94906        -3.31329         0.09361
| 82>    O      -29.32685        -2.17337        -0.27725
| 83>    C      -28.00864        -2.44028        -0.21717
| 84>    C      -26.73984        -1.87108        -0.41812
| 85>    H        2.89207         2.43690        -0.60049
| 86>    H        2.84400        -2.42091         0.61926
| 87>    H        5.68073         2.19410        -0.41280
| 88>    H       -2.48569        -0.81995        -0.02213
| 89>    H       -2.14410         2.14041        -0.75639
| 90>    H       -4.42159         3.30701        -1.16565
| 91>    H       -6.95553         2.81272        -1.16370
| 92>    H       -9.09681         1.83380        -1.02195
| 93>    H      -11.11226         0.25355        -0.71168
| 94>    H      -11.66990        -2.18488        -0.10149
| 95>    H       -9.19922        -3.92068         0.46450
| 96>    H       -9.85489        -6.37751         1.09080
| 97>    H      -11.93842        -7.86591         1.41516
| 98>    H      -14.20715        -8.72896         1.59116
| 99>    H      -16.77106        -9.01284         1.61470
|100>    H      -18.92846        -7.69163         1.22472
|101>    H      -27.39424        -6.16906         0.95238
|102>    H      -28.49084        -7.43462         1.37486
|103>    H      -31.02075        -3.30832         0.11163
|104>    H      -26.48435        -0.88110        -0.73393
|105> *
|106>
|107>                          ****END OF INPUT****

CARTESIAN COORDINATES (ANGSTROEM)
---------------------------------
  C      0.262910   -1.095840    0.173670
  C     -0.168910   -2.368340    0.478410
  C      0.690070   -3.443450    0.776540
  N      1.332820   -4.362770    1.026310
  C     -1.511120   -2.789590    0.540380
  N     -2.573890   -3.221820    0.615190
  C      1.663660   -0.676080    0.127210
  C      1.712320    0.696470   -0.215880
  C      2.889860    1.390620   -0.337730
  C      4.083130    0.695900   -0.109260
  C      4.025850   -0.674420    0.232690
  C      2.831800   -1.376730    0.355710
  S      5.613840   -1.339690    0.472570
  C      6.321900    0.213010    0.114430
  C      5.418810    1.180400   -0.170080
  Br     8.187490    0.410610    0.150850
  C      0.334970    1.199680   -0.402580
  O      0.024130    2.336950   -0.703230
  C     -0.548470    0.045930   -0.150180
  C     -1.930940    0.087700   -0.225700
  C     -2.666880    1.218010   -0.547390
  C     -4.051610    1.237890   -0.619460
  C     -4.853630    2.348100   -0.942000
  C     -6.197790    2.083660   -0.940520
  C     -6.507430    0.753290   -0.615900
  S     -5.054570   -0.161790   -0.311020
  C     -7.775950    0.176120   -0.529910
  C     -9.013150    0.797380   -0.750440
  C    -10.086100   -0.043240   -0.585490
  C     -9.734940   -1.352290   -0.230020
  S     -7.998170   -1.500320   -0.108550
  C    -10.615010   -2.407910    0.004630
  C    -10.250090   -3.684680    0.356760
  C    -11.158250   -4.716520    0.593390
  C    -10.866900   -6.037540    0.960310
  C    -11.975430   -6.829400    1.133080
  C    -13.185660   -6.157480    0.907320
  S    -12.886900   -4.495100    0.466420
  C    -14.483560   -6.651120    1.003110
  C    -14.904660   -7.945840    1.355200
  C    -16.262360   -8.098060    1.368390
  C    -16.980320   -6.928830    1.025810
  S    -15.861250   -5.626930    0.680160
  C    -18.350460   -6.810280    0.975550
  C    -19.095830   -5.673080    0.642380
  C    -20.497900   -5.603170    0.630490
  C    -21.278060   -6.716070    0.966440
  N    -21.869140   -7.658870    1.249100
  C    -20.977320   -4.326320    0.253800
  C    -19.927180   -3.451730   -0.017480
  S    -18.363720   -4.144740    0.181610
  S    -20.400710   -1.855450   -0.496120
  C    -22.052610   -2.357300   -0.329660
  C    -22.233420   -3.675210    0.071020
  C    -23.614930   -3.993480    0.187030
  C    -24.150930   -5.232100    0.575610
  N    -24.627450   -6.226650    0.891150
  C    -24.427680   -2.913790   -0.129560
  S    -23.524130   -1.492530   -0.574020
  C    -25.851820   -2.890390   -0.113320
  O    -26.497750   -4.038340    0.258920
  C    -27.804440   -3.756720    0.193620
  C    -29.079600   -4.335560    0.399590
  C    -29.420540   -5.709020    0.840450
  O    -30.563500   -6.088410    0.978720
  N    -28.341640   -6.486230    1.073070
  C    -29.949060   -3.313290    0.093610
  O    -29.326850   -2.173370   -0.277250
  C    -28.008640   -2.440280   -0.217170
  C    -26.739840   -1.871080   -0.418120
  H      2.892070    2.436900   -0.600490
  H      2.844000   -2.420910    0.619260
  H      5.680730    2.194100   -0.412800
  H     -2.485690   -0.819950   -0.022130
  H     -2.144100    2.140410   -0.756390
  H     -4.421590    3.307010   -1.165650
  H     -6.955530    2.812720   -1.163700
  H     -9.096810    1.833800   -1.021950
  H    -11.112260    0.253550   -0.711680
  H    -11.669900   -2.184880   -0.101490
  H     -9.199220   -3.920680    0.464500
  H     -9.854890   -6.377510    1.090800
  H    -11.938420   -7.865910    1.415160
  H    -14.207150   -8.728960    1.591160
  H    -16.771060   -9.012840    1.614700
  H    -18.928460   -7.691630    1.224720
  H    -27.394240   -6.169060    0.952380
  H    -28.490840   -7.434620    1.374860
  H    -31.020750   -3.308320    0.111630
  H    -26.484350   -0.881100   -0.733930

 Total Charge           Charge          ....    0
 Multiplicity           Mult            ....    1
 Number of Electrons    NEL             ....  562
 Basis Dimension        Dim             .... 1130

ORBITAL ENERGIES
----------------

  NO   OCC          E(Eh)            E(eV)
   0   2.0000    -482.875464    -13139.7094
   1   2.0000     -88.998010     -2421.7590
   2   2.0000     -88.996557     -2421.7194
   3   2.0000     -88.993591     -2421.6387
   4   2.0000     -88.972758     -2421.0718
   5   2.0000     -88.970445     -2421.0089
   6   2.0000     -88.967482     -2420.9283
   7   2.0000     -88.962663     -2420.7971
   8   2.0000     -88.959242     -2420.7040
   9   2.0000     -62.553156     -1702.1579
  10   2.0000     -56.387092     -1534.3708
  11   2.0000     -56.384406     -1534.2977
  12   2.0000     -56.384365     -1534.2966
  13   2.0000     -19.316426      -525.6267
  14   2.0000     -19.311070      -525.4809
  15   2.0000     -19.197076      -522.3790
  16   2.0000     -19.166204      -521.5389
  17   2.0000     -14.417133      -392.3101
  18   2.0000     -14.408711      -392.0809
  19   2.0000     -14.408380      -392.0720
  20   2.0000     -14.398082      -391.7917
  21   2.0000     -14.395311      -391.7163
  22   2.0000     -10.368896      -282.1520
  23   2.0000     -10.362377      -281.9746
  24   2.0000     -10.349247      -281.6173
  25   2.0000     -10.347128      -281.5597
  26   2.0000     -10.346961      -281.5551
  27   2.0000     -10.346284      -281.5367
  28   2.0000     -10.346039      -281.5300
  29   2.0000     -10.345457      -281.5142
  30   2.0000     -10.342469      -281.4329
  31   2.0000     -10.340675      -281.3841
  32   2.0000     -10.338609      -281.3279
  33   2.0000     -10.336880      -281.2808
  34   2.0000     -10.335319      -281.2383
  35   2.0000     -10.335132      -281.2332
  36   2.0000     -10.333817      -281.1974
  37   2.0000     -10.332313      -281.1565
  38   2.0000     -10.330939      -281.1191
  39   2.0000     -10.327485      -281.0252
  40   2.0000     -10.324792      -280.9519
  41   2.0000     -10.323034      -280.9040
  42   2.0000     -10.321945      -280.8744
  43   2.0000     -10.320417      -280.8328
  44   2.0000     -10.319172      -280.7990
  45   2.0000     -10.318415      -280.7783
  46   2.0000     -10.318218      -280.7730
  47   2.0000     -10.310633      -280.5666
  48   2.0000     -10.310456      -280.5618
  49   2.0000     -10.309581      -280.5380
  50   2.0000     -10.309463      -280.5348
  51   2.0000     -10.308957      -280.5210
  52   2.0000     -10.308558      -280.5101
  53   2.0000     -10.308135      -280.4986
  54   2.0000     -10.307970      -280.4941
  55   2.0000     -10.306864      -280.4640
  56   2.0000     -10.304910      -280.4108
  57   2.0000     -10.304590      -280.4022
  58   2.0000     -10.302320      -280.3404
  59   2.0000     -10.302111      -280.3347
  60   2.0000     -10.302033      -280.3326
  61   2.0000     -10.301822      -280.3268
  62   2.0000     -10.299948      -280.2758
  63   2.0000     -10.293435      -280.0986
  64   2.0000     -10.292742      -280.0798
  65   2.0000     -10.292537      -280.0742
  66   2.0000     -10.291125      -280.0357
  67   2.0000     -10.289894      -280.0023
  68   2.0000     -10.289036      -279.9789
  69   2.0000     -10.285225      -279.8752
  70   2.0000     -10.284780      -279.8631
  71   2.0000     -10.274788      -279.5912
  72   2.0000     -10.273310      -279.5510
  73   2.0000     -10.271362      -279.4980
  74   2.0000      -8.782564      -238.9857
  75   2.0000      -8.093223      -220.2278
  76   2.0000      -8.091570      -220.1828
  77   2.0000      -8.088449      -220.0979
  78   2.0000      -8.069047      -219.5699
  79   2.0000      -8.066822      -219.5094
  80   2.0000      -8.063712      -219.4248
  81   2.0000      -8.058634      -219.2866
  82   2.0000      -8.055241      -219.1942
  83   2.0000      -6.618796      -180.1066
  84   2.0000      -6.604320      -179.7127
  85   2.0000      -6.604162      -179.7084
  86   2.0000      -6.062911      -164.9802
  87   2.0000      -6.061569      -164.9437
  88   2.0000      -6.058704      -164.8657
  89   2.0000      -6.058100      -164.8493
  90   2.0000      -6.057313      -164.8279
  91   2.0000      -6.054576      -164.7534
  92   2.0000      -6.053776      -164.7316
  93   2.0000      -6.052394      -164.6940
  94   2.0000      -6.050004      -164.6290
  95   2.0000      -6.038760      -164.3230
  96   2.0000      -6.036418      -164.2593
  97   2.0000      -6.034605      -164.2099
  98   2.0000      -6.033267      -164.1736
  99   2.0000      -6.032377      -164.1493
 100   2.0000      -6.030064      -164.0864
 101   2.0000      -6.029187      -164.0625
 102   2.0000      -6.028322      -164.0390
 103   2.0000      -6.028011      -164.0305
 104   2.0000      -6.025013      -163.9489
 105   2.0000      -6.024770      -163.9423
 106   2.0000      -6.024077      -163.9235
 107   2.0000      -6.020734      -163.8325
 108   2.0000      -6.019858      -163.8087
 109   2.0000      -6.016566      -163.7191
 110   2.0000      -2.734669       -74.4141
 111   2.0000      -2.730621       -74.3040
 112   2.0000      -2.730489       -74.3004
 113   2.0000      -2.718990       -73.9875
 114   2.0000      -2.718966       -73.9868
 115   2.0000      -1.238914       -33.7126
 116   2.0000      -1.220006       -33.1981
 117   2.0000      -1.110408       -30.2157
 118   2.0000      -1.107044       -30.1242
 119   2.0000      -1.049959       -28.5708
 120   2.0000      -1.022580       -27.8258
 121   2.0000      -1.016262       -27.6539
 122   2.0000      -1.013159       -27.5694
 123   2.0000      -1.006918       -27.3996
 124   2.0000      -0.998506       -27.1707
 125   2.0000      -0.996353       -27.1121
 126   2.0000      -0.995118       -27.0785
 127   2.0000      -0.989380       -26.9224
 128   2.0000      -0.985883       -26.8272
 129   2.0000      -0.977883       -26.6095
 130   2.0000      -0.976002       -26.5584
 131   2.0000      -0.971663       -26.4403
 132   2.0000      -0.960313       -26.1314
 133   2.0000      -0.929497       -25.2929
 134   2.0000      -0.926737       -25.2178
 135   2.0000      -0.921741       -25.0819
 136   2.0000      -0.915970       -24.9248
 137   2.0000      -0.909655       -24.7530
 138   2.0000      -0.902958       -24.5707
 139   2.0000      -0.897007       -24.4088
 140   2.0000      -0.892345       -24.2819
 141   2.0000      -0.882873       -24.0242
 142   2.0000      -0.875846       -23.8330
 143   2.0000      -0.871153       -23.7053
 144   2.0000      -0.870294       -23.6819
 145   2.0000      -0.862405       -23.4672
 146   2.0000      -0.860820       -23.4241
 147   2.0000      -0.859508       -23.3884
 148   2.0000      -0.846037       -23.0218
 149   2.0000      -0.839707       -22.8496
 150   2.0000      -0.836938       -22.7742
 151   2.0000      -0.826286       -22.4844
 152   2.0000      -0.814915       -22.1750
 153   2.0000      -0.813185       -22.1279
 154   2.0000      -0.801090       -21.7988
 155   2.0000      -0.783490       -21.3198
 156   2.0000      -0.769202       -20.9311
 157   2.0000      -0.758144       -20.6301
 158   2.0000      -0.745157       -20.2767
 159   2.0000      -0.740053       -20.1379
 160   2.0000      -0.734687       -19.9919
 161   2.0000      -0.725981       -19.7549
 162   2.0000      -0.719656       -19.5828
 163   2.0000      -0.708627       -19.2827
 164   2.0000      -0.701196       -19.0805
 165   2.0000      -0.697041       -18.9674
 166   2.0000      -0.692257       -18.8373
 167   2.0000      -0.680986       -18.5306
 168   2.0000      -0.676090       -18.3973
 169   2.0000      -0.673513       -18.3272
 170   2.0000      -0.671858       -18.2822
 171   2.0000      -0.660350       -17.9690
 172   2.0000      -0.655709       -17.8427
 173   2.0000      -0.653471       -17.7819
 174   2.0000      -0.648069       -17.6348
 175   2.0000      -0.644560       -17.5394
 176   2.0000      -0.641597       -17.4587
 177   2.0000      -0.639009       -17.3883
 178   2.0000      -0.633822       -17.2472
 179   2.0000      -0.625142       -17.0110
 180   2.0000      -0.623988       -16.9796
 181   2.0000      -0.617187       -16.7945
 182   2.0000      -0.614562       -16.7231
 183   2.0000      -0.612930       -16.6787
 184   2.0000      -0.607377       -16.5276
 185   2.0000      -0.606227       -16.4963
 186   2.0000      -0.595958       -16.2168
 187   2.0000      -0.584682       -15.9100
 188   2.0000      -0.583400       -15.8751
 189   2.0000      -0.579959       -15.7815
 190   2.0000      -0.576384       -15.6842
 191   2.0000      -0.567788       -15.4503
 192   2.0000      -0.567405       -15.4399
 193   2.0000      -0.558134       -15.1876
 194   2.0000      -0.552071       -15.0226
 195   2.0000      -0.547983       -14.9114
 196   2.0000      -0.542844       -14.7715
 197   2.0000      -0.540252       -14.7010
 198   2.0000      -0.537612       -14.6292
 199   2.0000      -0.533860       -14.5271
 200   2.0000      -0.529415       -14.4061
 201   2.0000      -0.527235       -14.3468
 202   2.0000      -0.522802       -14.2262
 203   2.0000      -0.522539       -14.2190
 204   2.0000      -0.522280       -14.2119
 205   2.0000      -0.521560       -14.1924
 206   2.0000      -0.520233       -14.1563
 207   2.0000      -0.517865       -14.0918
 208   2.0000      -0.513643       -13.9769
 209   2.0000      -0.513429       -13.9711
 210   2.0000      -0.510127       -13.8813
 211   2.0000      -0.507458       -13.8086
 212   2.0000      -0.505334       -13.7508
 213   2.0000      -0.502996       -13.6872
 214   2.0000      -0.500774       -13.6268
 215   2.0000      -0.495189       -13.4748
 216   2.0000      -0.494299       -13.4506
 217   2.0000      -0.493062       -13.4169
 218   2.0000      -0.491473       -13.3736
 219   2.0000      -0.490826       -13.3561
 220   2.0000      -0.488779       -13.3003
 221   2.0000      -0.488339       -13.2884
 222   2.0000      -0.480024       -13.0621
 223   2.0000      -0.479059       -13.0359
 224   2.0000      -0.478175       -13.0118
 225   2.0000      -0.477882       -13.0038
 226   2.0000      -0.475815       -12.9476
 227   2.0000      -0.474915       -12.9231
 228   2.0000      -0.471738       -12.8367
 229   2.0000      -0.468585       -12.7509
 230   2.0000      -0.464220       -12.6321
 231   2.0000      -0.462681       -12.5902
 232   2.0000      -0.456391       -12.4190
 233   2.0000      -0.453415       -12.3380
 234   2.0000      -0.450166       -12.2496
 235   2.0000      -0.446806       -12.1582
 236   2.0000      -0.444744       -12.1021
 237   2.0000      -0.443529       -12.0690
 238   2.0000      -0.442011       -12.0277
 239   2.0000      -0.438386       -11.9291
 240   2.0000      -0.436974       -11.8907
 241   2.0000      -0.436567       -11.8796
 242   2.0000      -0.433760       -11.8032
 243   2.0000      -0.432972       -11.7818
 244   2.0000      -0.432257       -11.7623
 245   2.0000      -0.426812       -11.6141
 246   2.0000      -0.424469       -11.5504
 247   2.0000      -0.423935       -11.5359
 248   2.0000      -0.423622       -11.5273
 249   2.0000      -0.417200       -11.3526
 250   2.0000      -0.412289       -11.2189
 251   2.0000      -0.410336       -11.1658
 252   2.0000      -0.408511       -11.1161
 253   2.0000      -0.406170       -11.0524
 254   2.0000      -0.397817       -10.8251
 255   2.0000      -0.391223       -10.6457
 256   2.0000      -0.390040       -10.6135
 257   2.0000      -0.388412       -10.5692
 258   2.0000      -0.383648       -10.4396
 259   2.0000      -0.377831       -10.2813
 260   2.0000      -0.371970       -10.1218
 261   2.0000      -0.365102        -9.9349
 262   2.0000      -0.360109        -9.7991
 263   2.0000      -0.359042        -9.7700
 264   2.0000      -0.354142        -9.6367
 265   2.0000      -0.350873        -9.5477
 266   2.0000      -0.347925        -9.4675
 267   2.0000      -0.345293        -9.3959
 268   2.0000      -0.337096        -9.1729
 269   2.0000      -0.332803        -9.0560
 270   2.0000      -0.330557        -8.9949
 271   2.0000      -0.323606        -8.8058
 272   2.0000      -0.319925        -8.7056
 273   2.0000      -0.317332        -8.6350
 274   2.0000      -0.313733        -8.5371
 275   2.0000      -0.301017        -8.1911
 276   2.0000      -0.290845        -7.9143
 277   2.0000      -0.279148        -7.5960
 278   2.0000      -0.265921        -7.2361
 279   2.0000      -0.253198        -6.8899
 280   2.0000      -0.208371        -5.6701
 281   0.0000      -0.131729        -3.5845
 282   0.0000      -0.082522        -2.2455
 283   0.0000      -0.055240        -1.5032
 284   0.0000      -0.053955        -1.4682
 285   0.0000      -0.039775        -1.0823

MULLIKEN ATOMIC CHARGES
-----------------------
   0 C :    0.330645
   1 C :   -0.367194
   2 C :   -0.189007
   3 N :    0.134473
   4 C :   -0.188619
   5 N :    0.123983
   6 C :    0.012761
   7 C :   -0.010585
   8 C :   -0.076886
   9 C :    0.117600
  10 C :   -0.094257
  11 C :   -0.024796
  12 S :    0.177993
  13 C :   -0.124218
  14 C :    0.037818
  15 Br:    0.012353
  16 C :    0.135472
  17 O :   -0.167557
  18 C :   -0.094974
  19 C :   -0.037697
  20 C :   -0.022998
  21 C :    0.001675
  22 C :    0.024106
  23 C :    0.036283
  24 C :   -0.050326
  25 S :    0.117199
  26 C :   -0.031636
  27 C :    0.015925
  28 C :    0.036262
  29 C :   -0.033606
  30 S :    0.121539
  31 C :    0.004114
  32 C :   -0.006595
  33 C :   -0.020787
  34 C :    0.029222
  35 C :    0.028210
  36 C :   -0.044519
  37 S :    0.089783
  38 C :   -0.025075
  39 C :    0.034338
  40 C :    0.035071
  41 C :   -0.030111
  42 S :    0.069250
  43 C :   -0.039629
  44 C :   -0.071106
  45 C :   -0.024727
  46 C :   -0.325860
  47 N :    0.203955
  48 C :    0.163423
  49 C :   -0.225258
  50 S :    0.143216
  51 S :    0.192010
  52 C :   -0.227452
  53 C :    0.137246
  54 C :   -0.020501
  55 C :   -0.312169
  56 N :    0.217140
  57 C :   -0.092928
  58 S :    0.180310
  59 C :    0.135245
  60 O :   -0.213561
  61 C :    0.108856
  62 C :   -0.071577
  63 C :    0.059471
  64 O :   -0.203449
  65 N :   -0.089190
  66 C :    0.115293
  67 O :   -0.175864
  68 C :    0.183098
  69 C :   -0.130146
  70 H :   -0.016704
  71 H :   -0.011192
  72 H :   -0.007331
  73 H :    0.010179
  74 H :    0.016142
  75 H :   -0.002032
  76 H :   -0.008085
  77 H :   -0.008183
  78 H :   -0.005679
  79 H :    0.001649
  80 H :    0.007112
  81 H :    0.001723
  82 H :   -0.003342
  83 H :   -0.004252
  84 H :    0.003321
  85 H :    0.020806
  86 H :    0.134372
  87 H :    0.133847
  88 H :    0.034079
  89 H :    0.003086
Sum of atomic charges:   -0.0000000

LOEWDIN ATOMIC CHARGES
----------------------
   0 C :    0.071490
   1 C :   -0.159843
   2 C :   -0.019254
   3 N :   -0.072097
   4 C :   -0.020100
   5 N :   -0.072482
   6 C :   -0.017188
   7 C :   -0.048514
   8 C :    0.016248
   9 C :   -0.036857
  10 C :   -0.146266
  11 C :   -0.014603
  12 S :    0.426105
  13 C :   -0.275709
  14 C :   -0.070973
  15 Br:    0.128122
  16 C :    0.081154
  17 O :   -0.160698
  18 C :   -0.108453
  19 C :    0.042786
  20 C :   -0.068604
  21 C :   -0.109590
  22 C :   -0.043216
  23 C :   -0.014539
  24 C :   -0.192448
  25 S :    0.417574
  26 C :   -0.152214
  27 C :   -0.041912
  28 C :   -0.021016
  29 C :   -0.157219
  30 S :    0.412609
  31 C :   -0.035054
  32 C :   -0.058750
  33 C :   -0.133500
  34 C :   -0.030965
  35 C :   -0.024165
  36 C :   -0.174561
  37 S :    0.393599
  38 C :   -0.168429
  39 C :   -0.030434
  40 C :   -0.021738
  41 C :   -0.145421
  42 S :    0.379414
  43 C :   -0.062941
  44 C :   -0.133126
  45 C :   -0.100195
  46 C :   -0.042352
  47 N :   -0.038068
  48 C :   -0.059203
  49 C :   -0.335220
  50 S :    0.439620
  51 S :    0.425854
  52 C :   -0.333776
  53 C :   -0.059840
  54 C :   -0.101280
  55 C :   -0.034956
  56 N :   -0.046941
  57 C :   -0.140903
  58 S :    0.455369
  59 C :    0.013843
  60 O :    0.022604
  61 C :    0.003985
  62 C :   -0.120503
  63 C :    0.058083
  64 O :   -0.219472
  65 N :    0.003158
  66 C :    0.097558
  67 O :    0.021856
  68 C :   -0.008312
  69 C :   -0.058753
  70 H :    0.038281
  71 H :    0.039655
  72 H :    0.037113
  73 H :    0.031157
  74 H :    0.038300
  75 H :    0.038119
  76 H :    0.034031
  77 H :    0.033842
  78 H :    0.036448
  79 H :    0.030667
  80 H :    0.034497
  81 H :    0.039586
  82 H :    0.036068
  83 H :    0.036443
  84 H :    0.040072
  85 H :    0.052395
  86 H :    0.076104
  87 H :    0.085458
  88 H :    0.036786
  89 H :    0.036597

  Mayer bond orders larger than 0.100000
B(  0-C ,  1-C ) :   1.5699 B(  0-C ,  6-C ) :   0.9874 B(  0-C , 18-C ) :   1.1251
B(  1-C ,  2-C ) :   1.1512 B(  1-C ,  4-C ) :   1.1566 B(  2-C ,  3-N ) :   2.9597
B(  4-C ,  5-N ) :   2.9516 B(  6-C ,  7-C ) :   1.2764 B(  6-C , 11-C ) :   1.4238
B(  7-C ,  8-C ) :   1.4343 B(  7-C , 16-C ) :   0.9368 B(  8-C ,  9-C ) :   1.2374
B(  8-C , 70-H ) :   1.0153 B(  9-C , 10-C ) :   1.3168 B(  9-C , 14-C ) :   1.1613
B( 10-C , 11-C ) :   1.3191 B( 10-C , 12-S ) :   1.0828 B( 11-C , 71-H ) :   0.9785
B( 12-S , 13-C ) :   1.0852 B( 13-C , 14-C ) :   1.6209 B( 13-C , 15-Br) :   1.0116
B( 14-C , 72-H ) :   0.9996 B( 16-C , 17-O ) :   2.1781 B( 16-C , 18-C ) :   0.9710
B( 18-C , 19-C ) :   1.4484 B( 19-C , 20-C ) :   1.2911 B( 19-C , 73-H ) :   0.9451
B( 20-C , 21-C ) :   1.3771 B( 20-C , 74-H ) :   0.9759 B( 21-C , 22-C ) :   1.2138
B( 21-C , 25-S ) :   1.0874 B( 22-C , 23-C ) :   1.4964 B( 22-C , 75-H ) :   1.0022
B( 23-C , 24-C ) :   1.2594 B( 23-C , 76-H ) :   0.9948 B( 24-C , 25-S ) :   1.0611
B( 24-C , 26-C ) :   1.3867 B( 26-C , 27-C ) :   1.2605 B( 26-C , 30-S ) :   1.0911
B( 27-C , 28-C ) :   1.4954 B( 27-C , 77-H ) :   0.9951 B( 28-C , 29-C ) :   1.2260
B( 28-C , 78-H ) :   1.0015 B( 29-C , 30-S ) :   1.0531 B( 29-C , 31-C ) :   1.4466
B( 31-C , 32-C ) :   1.2847 B( 31-C , 79-H ) :   0.9703 B( 32-C , 33-C ) :   1.4429
B( 32-C , 80-H ) :   0.9756 B( 33-C , 34-C ) :   1.2187 B( 33-C , 37-S ) :   1.0651
B( 34-C , 35-C ) :   1.5091 B( 34-C , 81-H ) :   1.0023 B( 35-C , 36-C ) :   1.2452
B( 35-C , 82-H ) :   0.9951 B( 36-C , 37-S ) :   1.0603 B( 36-C , 38-C ) :   1.4352
B( 38-C , 39-C ) :   1.2194 B( 38-C , 42-S ) :   1.0585 B( 39-C , 40-C ) :   1.5563
B( 39-C , 83-H ) :   0.9937 B( 40-C , 41-C ) :   1.1648 B( 40-C , 84-H ) :   1.0010
B( 41-C , 42-S ) :   1.0418 B( 41-C , 43-C ) :   1.5256 B( 43-C , 44-C ) :   1.2433
B( 43-C , 85-H ) :   0.9606 B( 44-C , 45-C ) :   1.4296 B( 44-C , 50-S ) :   1.0944
B( 45-C , 46-C ) :   1.1938 B( 45-C , 48-C ) :   1.2751 B( 46-C , 47-N ) :   2.9717
B( 48-C , 49-C ) :   1.3937 B( 48-C , 53-C ) :   1.0568 B( 49-C , 50-S ) :   1.0920
B( 49-C , 51-S ) :   1.0864 B( 51-S , 52-C ) :   1.0808 B( 52-C , 53-C ) :   1.4299
B( 52-C , 58-S ) :   1.0751 B( 53-C , 54-C ) :   1.2425 B( 54-C , 55-C ) :   1.2025
B( 54-C , 57-C ) :   1.5073 B( 55-C , 56-N ) :   2.9370 B( 57-C , 58-S ) :   1.1491
B( 57-C , 59-C ) :   1.1195 B( 59-C , 60-O ) :   1.1259 B( 59-C , 61-C ) :   0.1017
B( 59-C , 69-C ) :   1.4743 B( 60-O , 61-C ) :   1.1331 B( 61-C , 62-C ) :   1.1751
B( 61-C , 68-C ) :   1.3957 B( 62-C , 63-C ) :   0.8802 B( 62-C , 66-C ) :   1.5404
B( 63-C , 64-O ) :   2.2267 B( 63-C , 65-N ) :   1.3006 B( 65-N , 86-H ) :   0.9262
B( 65-N , 87-H ) :   0.9342 B( 66-C , 67-O ) :   1.1419 B( 66-C , 88-H ) :   1.0037
B( 67-O , 68-C ) :   1.1426 B( 68-C , 69-C ) :   1.2219 B( 69-C , 89-H ) :   1.0132

-----------------------------------------------------------------------------
         ABSORPTION SPECTRUM VIA TRANSITION ELECTRIC DIPOLE MOMENTS
-----------------------------------------------------------------------------
State   Energy  Wavelength   fosc         T2         TX        TY        TZ
        (cm-1)    (nm)                  (au**2)     (au)      (au)      (au)
-----------------------------------------------------------------------------
   0    5733.1   1744.3   1.232300494  70.76241   7.96413   2.67844  -0.40129
   1   13365.5    748.2   0.005093953   0.12547  -0.35021   0.04823  -0.02225
   2   16200.0    617.3   0.047926909   0.97396  -0.27697  -0.89644   0.30600
   3   20010.4    499.7   0.005107424   0.08403   0.27927  -0.07573   0.01735
   4   20240.9    494.0   0.023546981   0.38298  -0.54393   0.28621  -0.07214
   5   21906.0    456.5   0.184901671   2.77877  -0.57658   1.51262  -0.39788
   6   22437.7    445.7   0.103162215   1.51363   0.07611   1.19525  -0.28145
   7   24479.3    408.5   0.230582874   3.10101   1.39349  -1.03244   0.30537
   8   24862.6    402.2   0.950944861  12.59171  -2.76914   2.12637  -0.63415
   9   25496.3    392.2   0.000003043   0.00004  -0.00360  -0.00102   0.00503
  10   25600.2    390.6   0.220158687   2.83118  -0.56099   1.53542  -0.39867
  11   26303.1    380.2   0.022987747   0.28772  -0.28367   0.43987  -0.11731
  12   26892.2    371.9   0.062942901   0.77054  -0.85218   0.19501  -0.07940
  13   28514.9    350.7   0.071987031   0.83111  -0.83592   0.34521  -0.11478
  14   28584.0    349.8   0.121794595   1.40275   1.07539  -0.47552   0.14203
  15   29191.8    342.6   0.611571191   6.89703  -2.62144  -0.13447   0.08364
  16   29605.8    337.8   0.186413275   2.07289   1.43868  -0.05532  -0.00597
  17   30035.6    332.9   0.000177434   0.00194  -0.00558  -0.00704  -0.04317
  18   30846.8    324.2   0.010046498   0.10722  -0.17515  -0.27116   0.05492
  19   31053.6    322.0   0.184096656   1.95168  -1.28537  -0.54357   0.06364
  20   31270.2    319.8   0.010963643   0.11542  -0.11753   0.30471  -0.09363
  21   31318.6    319.3   0.184691844   1.94143   1.38574   0.14399   0.02010
  22   31897.6    313.5   0.089672955   0.92551  -0.92947  -0.24681   0.02585
  23   32284.6    309.7   0.000048298   0.00049   0.01490   0.00269  -0.01622
  24   32570.1    307.0   0.153990117   1.55650   1.20016   0.33887  -0.03580
  25   32754.0    305.3   0.018007633   0.18100  -0.36189   0.20946  -0.07846
  26   33110.8    302.0   0.032939230   0.32751  -0.04679  -0.54877   0.15547
  27   33685.9    296.9   0.019005567   0.18574   0.15781   0.38968  -0.09481
  28   33763.9    296.2   0.019391649   0.18908   0.14430   0.39621  -0.10618
  29   33880.9    295.2   0.000951820   0.00925   0.06838   0.06068  -0.02985
  30   34035.4    293.8   0.110965834   1.07333   0.75398   0.68762  -0.17896
  31   34416.1    290.6   0.018016841   0.17234   0.05027  -0.40396   0.08142
  32   34784.0    287.5   0.019756848   0.18699  -0.35739  -0.23462   0.06488
  33   35531.2    281.4   0.000000039   0.00000  -0.00024   0.00041   0.00036
  34   35919.5    278.4   0.148555511   1.36155   0.63626   0.95448  -0.21378
  35   36314.2    275.4   0.075883258   0.68793   0.47333   0.66493  -0.14748
  36   36753.3    272.1   0.030258647   0.27104  -0.32326  -0.39880   0.08660
  37   36836.3    271.5   0.000017410   0.00016   0.00607   0.00504  -0.00966
  38   37053.3    269.9   0.064690745   0.57477  -0.48057  -0.57454   0.11713
  39   38181.0    261.9   0.006846809   0.05904  -0.04227  -0.22989   0.06633
  40   38567.7    259.3   0.035407734   0.30224  -0.28971  -0.45249   0.11643
  41   38943.6    256.8   0.049936736   0.42214  -0.41283  -0.49429   0.08594
  42   39050.5    256.1   0.005581610   0.04706  -0.19327   0.09332  -0.03150
  43   39087.0    255.8   0.002993477   0.02521   0.11165   0.07041  -0.08826
  44   39240.3    254.8   0.012812122   0.10749   0.16293  -0.27265   0.08125
  45   39440.0    253.5   0.063736909   0.53202  -0.35066   0.61765  -0.16604
  46   40118.1    249.3   0.079003213   0.64831  -0.21179   0.74829  -0.20860

FINAL SINGLE POINT ENERGY     -8323.379691382783

DIPOLE MOMENT
-------------
                                X             Y             Z
Electronic contribution:    186.28302      31.19735      -1.48056
Nuclear contribution   :   -187.76460     -28.34996       0.45858
                        -----------------------------------------
Total Dipole Moment    :     -1.48158       2.84738      -1.02198
                        -----------------------------------------
Magnitude (a.u.)       :      3.36855
Magnitude (Debye)      :      8.56218

Rotational constants in cm-1:     0.003103     0.000106     0.000103
Rotational constants in MHz :    93.010972     3.184291     3.079748

                             ****ORCA TERMINATED NORMALLY****
TOTAL RUN TIME: 0 days 0 hours 9 minutes 38 seconds 391 msec
