                         Program Version 4.2.0 -  RELEASE  -
|  1> # ORCA input file
|  2> # SCF done       -150.503637417705          0.000631248515
|  3> ! CAM-B3LYP def2-SVP def2/J RIJCOSX Grid4 TightSCF
|  4> %maxcore 5000
|  5> %tddft
|  6>     Mode sTDDFT
|  7>     Ethresh 5.0
|  8>     maxcore 5000
|  9> end
| 10>
| 11> %pal
| 12>   nprocs 6
| 13>   end
| 14> * xyz 0 1
| 15>    C       -3.50655        -0.94947        -0.63560
| 16>    C       -2.76988        -1.53080        -1.64410
| 17>    C       -2.16136        -2.79449        -1.53935
| 18>    N       -1.61925        -3.80782        -1.50143
| 19>    C       -2.47064        -0.93586        -2.88479
| 20>    N       -2.15988        -0.52620        -3.91283
| 21>    C       -3.74119        -1.55560         0.67845
| 22>    C       -4.44444        -0.62276         1.47456
| 23>    C       -4.76114        -0.84193         2.78957
| 24>    C       -4.33508        -2.04425         3.36253
| 25>    C       -3.64550        -2.97966         2.56174
| 26>    C       -3.35376        -2.76625         1.21795
| 27>    S       -3.15065        -4.36443         3.48517
| 28>    C       -3.85192        -3.66293         4.91796
| 29>    C       -4.44754        -2.46584         4.71491
| 30>   Br       -3.70060        -4.54837         6.56519
| 31>    C       -4.67364         0.60238         0.68833
| 32>    O       -5.27102         1.58902         1.09047
| 33>    C       -4.08025         0.36887        -0.62274
| 34>    C       -4.13125         1.26717        -1.68402
| 35>    C       -4.48795         2.60291        -1.65227
| 36>    C       -4.53793         3.44562        -2.79899
| 37>    C       -4.81581         4.80477        -2.49943
| 38>    N       -4.90531         5.72656        -3.46252
| 39>    C       -4.71578         5.29357        -4.68936
| 40>    C       -4.42876         3.94727        -4.99878
| 41>    C       -4.24253         3.49637        -6.41295
| 42>    C       -5.59557         3.37348        -7.11686
| 43>    N       -4.34364         3.03061        -4.05332
| 44>    C       -4.95724         5.04425        -1.10228
| 45>    S       -4.81569         3.55288        -0.22392
| 46>    C       -5.22674         6.25814        -0.48867
| 47>    C       -5.29282         6.44055         0.88695
| 48>    C       -5.63324         7.61340         1.59567
| 49>    C       -5.61509         7.47492         2.95930
| 50>    C       -5.23451         6.19049         3.38388
| 51>    S       -4.93279         5.15668         2.00589
| 52>    C       -5.06470         5.62936         4.64467
| 53>    C       -5.39157         6.11769         5.92767
| 54>    C       -5.12883         5.22858         6.92991
| 55>    C       -4.55721         4.00917         6.48674
| 56>    S       -4.36813         4.03555         4.74459
| 57>    C       -4.18704         2.91692         7.23493
| 58>    C       -3.55606         1.79635         6.66435
| 59>    O       -3.21732         1.81304         5.35489
| 60>    C       -2.59613         0.66231         5.05720
| 61>    C       -2.53015        -0.14551         6.17790
| 62>    C       -3.14089         0.57231         7.21526
| 63>    O       -3.32830         0.21187         8.49827
| 64>    C       -2.09532         0.48578         3.71391
| 65>    N       -2.24980         1.51935         2.88486
| 66>    C       -1.78122         1.37487         1.66102
| 67>    C       -1.14945         0.21448         1.24373
| 68>    C       -1.03083        -0.81733         2.18466
| 69>    N       -1.51216        -0.67180         3.41827
| 70>    C       -0.38168        -2.07682         1.84271
| 71>    C       -0.10523        -3.01550         2.73973
| 72>    H       -5.28523        -0.09467         3.36451
| 73>    H       -2.82416        -3.51589         0.65460
| 74>    H       -4.93487        -1.89421         5.48345
| 75>    H       -3.85447         0.91575        -2.67097
| 76>    H       -4.78363         6.03856        -5.47066
| 77>    H       -3.74557         2.52622        -6.40161
| 78>    H       -3.61710         4.21499        -6.94685
| 79>    H       -6.21935         2.64524        -6.60382
| 80>    H       -5.45397         3.04666        -8.14384
| 81>    H       -6.11521         4.32961        -7.12474
| 82>    H       -5.39133         7.11054        -1.13340
| 83>    H       -5.88975         8.52452         1.08421
| 84>    H       -5.84602         8.26600         3.65063
| 85>    H       -5.82716         7.08984         6.07608
| 86>    H       -5.32344         5.41091         7.97222
| 87>    H       -4.36469         2.89586         8.29865
| 88>    H       -2.08463        -1.11806         6.22723
| 89>    H       -2.97006        -0.67246         8.64624
| 90>    H       -1.91808         2.22239         1.00124
| 91>    H       -0.75632         0.10862         0.24541
| 92>    H       -0.12454        -2.20465         0.80006
| 93>    H       -0.35479        -2.86748         3.77670
| 94>    H        0.37333        -3.93968         2.46736
| 95> *
| 96>
| 97>                          ****END OF INPUT****

CARTESIAN COORDINATES (ANGSTROEM)
---------------------------------
  C     -3.506550   -0.949470   -0.635600
  C     -2.769880   -1.530800   -1.644100
  C     -2.161360   -2.794490   -1.539350
  N     -1.619250   -3.807820   -1.501430
  C     -2.470640   -0.935860   -2.884790
  N     -2.159880   -0.526200   -3.912830
  C     -3.741190   -1.555600    0.678450
  C     -4.444440   -0.622760    1.474560
  C     -4.761140   -0.841930    2.789570
  C     -4.335080   -2.044250    3.362530
  C     -3.645500   -2.979660    2.561740
  C     -3.353760   -2.766250    1.217950
  S     -3.150650   -4.364430    3.485170
  C     -3.851920   -3.662930    4.917960
  C     -4.447540   -2.465840    4.714910
  Br    -3.700600   -4.548370    6.565190
  C     -4.673640    0.602380    0.688330
  O     -5.271020    1.589020    1.090470
  C     -4.080250    0.368870   -0.622740
  C     -4.131250    1.267170   -1.684020
  C     -4.487950    2.602910   -1.652270
  C     -4.537930    3.445620   -2.798990
  C     -4.815810    4.804770   -2.499430
  N     -4.905310    5.726560   -3.462520
  C     -4.715780    5.293570   -4.689360
  C     -4.428760    3.947270   -4.998780
  C     -4.242530    3.496370   -6.412950
  C     -5.595570    3.373480   -7.116860
  N     -4.343640    3.030610   -4.053320
  C     -4.957240    5.044250   -1.102280
  S     -4.815690    3.552880   -0.223920
  C     -5.226740    6.258140   -0.488670
  C     -5.292820    6.440550    0.886950
  C     -5.633240    7.613400    1.595670
  C     -5.615090    7.474920    2.959300
  C     -5.234510    6.190490    3.383880
  S     -4.932790    5.156680    2.005890
  C     -5.064700    5.629360    4.644670
  C     -5.391570    6.117690    5.927670
  C     -5.128830    5.228580    6.929910
  C     -4.557210    4.009170    6.486740
  S     -4.368130    4.035550    4.744590
  C     -4.187040    2.916920    7.234930
  C     -3.556060    1.796350    6.664350
  O     -3.217320    1.813040    5.354890
  C     -2.596130    0.662310    5.057200
  C     -2.530150   -0.145510    6.177900
  C     -3.140890    0.572310    7.215260
  O     -3.328300    0.211870    8.498270
  C     -2.095320    0.485780    3.713910
  N     -2.249800    1.519350    2.884860
  C     -1.781220    1.374870    1.661020
  C     -1.149450    0.214480    1.243730
  C     -1.030830   -0.817330    2.184660
  N     -1.512160   -0.671800    3.418270
  C     -0.381680   -2.076820    1.842710
  C     -0.105230   -3.015500    2.739730
  H     -5.285230   -0.094670    3.364510
  H     -2.824160   -3.515890    0.654600
  H     -4.934870   -1.894210    5.483450
  H     -3.854470    0.915750   -2.670970
  H     -4.783630    6.038560   -5.470660
  H     -3.745570    2.526220   -6.401610
  H     -3.617100    4.214990   -6.946850
  H     -6.219350    2.645240   -6.603820
  H     -5.453970    3.046660   -8.143840
  H     -6.115210    4.329610   -7.124740
  H     -5.391330    7.110540   -1.133400
  H     -5.889750    8.524520    1.084210
  H     -5.846020    8.266000    3.650630
  H     -5.827160    7.089840    6.076080
  H     -5.323440    5.410910    7.972220
  H     -4.364690    2.895860    8.298650
  H     -2.084630   -1.118060    6.227230
  H     -2.970060   -0.672460    8.646240
  H     -1.918080    2.222390    1.001240
  H     -0.756320    0.108620    0.245410
  H     -0.124540   -2.204650    0.800060
  H     -0.354790   -2.867480    3.776700
  H      0.373330   -3.939680    2.467360

 Total Charge           Charge          ....    0
 Multiplicity           Mult            ....    1
 Number of Electrons    NEL             ....  446
 Basis Dimension        Dim             ....  947

ORBITAL ENERGIES
----------------

  NO   OCC          E(Eh)            E(eV)
   0   2.0000    -482.882995    -13139.9143
   1   2.0000     -88.964507     -2420.8473
   2   2.0000     -88.954703     -2420.5805
   3   2.0000     -88.953125     -2420.5376
   4   2.0000     -88.952755     -2420.5275
   5   2.0000     -62.560666     -1702.3623
   6   2.0000     -56.394565     -1534.5741
   7   2.0000     -56.391948     -1534.5029
   8   2.0000     -56.391900     -1534.5016
   9   2.0000     -19.307105      -525.3730
  10   2.0000     -19.278307      -524.5894
  11   2.0000     -19.194275      -522.3028
  12   2.0000     -14.418901      -392.3582
  13   2.0000     -14.413527      -392.2120
  14   2.0000     -14.409341      -392.0981
  15   2.0000     -14.405789      -392.0014
  16   2.0000     -14.391817      -391.6213
  17   2.0000     -14.388865      -391.5409
  18   2.0000     -10.360676      -281.9283
  19   2.0000     -10.351170      -281.6696
  20   2.0000     -10.350222      -281.6439
  21   2.0000     -10.347443      -281.5683
  22   2.0000     -10.343809      -281.4693
  23   2.0000     -10.341967      -281.4192
  24   2.0000     -10.326555      -280.9998
  25   2.0000     -10.326458      -280.9972
  26   2.0000     -10.317261      -280.7469
  27   2.0000     -10.316638      -280.7300
  28   2.0000     -10.316054      -280.7141
  29   2.0000     -10.315636      -280.7027
  30   2.0000     -10.312722      -280.6234
  31   2.0000     -10.311982      -280.6033
  32   2.0000     -10.310194      -280.5546
  33   2.0000     -10.309935      -280.5476
  34   2.0000     -10.308103      -280.4977
  35   2.0000     -10.307873      -280.4915
  36   2.0000     -10.306608      -280.4571
  37   2.0000     -10.304126      -280.3895
  38   2.0000     -10.303810      -280.3809
  39   2.0000     -10.303036      -280.3599
  40   2.0000     -10.297326      -280.2045
  41   2.0000     -10.295955      -280.1672
  42   2.0000     -10.294388      -280.1245
  43   2.0000     -10.293114      -280.0899
  44   2.0000     -10.291170      -280.0370
  45   2.0000     -10.290534      -280.0197
  46   2.0000     -10.290029      -280.0059
  47   2.0000     -10.288507      -279.9645
  48   2.0000     -10.288401      -279.9616
  49   2.0000     -10.286804      -279.9182
  50   2.0000     -10.286129      -279.8998
  51   2.0000     -10.284156      -279.8461
  52   2.0000     -10.282634      -279.8047
  53   2.0000     -10.281599      -279.7765
  54   2.0000     -10.279139      -279.7096
  55   2.0000     -10.271382      -279.4985
  56   2.0000     -10.270399      -279.4718
  57   2.0000     -10.269161      -279.4381
  58   2.0000     -10.262708      -279.2625
  59   2.0000     -10.260389      -279.1994
  60   2.0000     -10.253846      -279.0213
  61   2.0000      -8.790060      -239.1897
  62   2.0000      -8.059898      -219.3210
  63   2.0000      -8.048989      -219.0241
  64   2.0000      -8.048618      -219.0140
  65   2.0000      -8.047669      -218.9882
  66   2.0000      -6.626090      -180.3051
  67   2.0000      -6.611940      -179.9200
  68   2.0000      -6.611754      -179.9150
  69   2.0000      -6.029618      -164.0742
  70   2.0000      -6.025308      -163.9570
  71   2.0000      -6.021236      -163.8462
  72   2.0000      -6.018509      -163.7719
  73   2.0000      -6.018373      -163.7683
  74   2.0000      -6.017012      -163.7312
  75   2.0000      -6.014116      -163.6524
  76   2.0000      -6.013890      -163.6463
  77   2.0000      -6.012444      -163.6069
  78   2.0000      -6.010534      -163.5549
  79   2.0000      -6.010011      -163.5407
  80   2.0000      -6.009670      -163.5314
  81   2.0000      -2.741988       -74.6133
  82   2.0000      -2.738099       -74.5075
  83   2.0000      -2.737875       -74.5014
  84   2.0000      -2.726665       -74.1963
  85   2.0000      -2.726646       -74.1958
  86   2.0000      -1.232793       -33.5460
  87   2.0000      -1.170827       -31.8598
  88   2.0000      -1.110289       -30.2125
  89   2.0000      -1.083367       -29.4799
  90   2.0000      -1.071816       -29.1656
  91   2.0000      -1.006502       -27.3883
  92   2.0000      -1.005882       -27.3714
  93   2.0000      -0.994826       -27.0706
  94   2.0000      -0.991569       -26.9820
  95   2.0000      -0.984863       -26.7995
  96   2.0000      -0.981389       -26.7050
  97   2.0000      -0.970423       -26.4065
  98   2.0000      -0.969020       -26.3684
  99   2.0000      -0.966549       -26.3011
 100   2.0000      -0.926655       -25.2156
 101   2.0000      -0.926149       -25.2018
 102   2.0000      -0.911836       -24.8123
 103   2.0000      -0.900946       -24.5160
 104   2.0000      -0.894444       -24.3391
 105   2.0000      -0.891258       -24.2524
 106   2.0000      -0.877357       -23.8741
 107   2.0000      -0.871964       -23.7273
 108   2.0000      -0.869430       -23.6584
 109   2.0000      -0.860019       -23.4023
 110   2.0000      -0.853052       -23.2127
 111   2.0000      -0.845355       -23.0033
 112   2.0000      -0.836017       -22.7492
 113   2.0000      -0.827435       -22.5157
 114   2.0000      -0.816209       -22.2102
 115   2.0000      -0.814129       -22.1536
 116   2.0000      -0.807350       -21.9691
 117   2.0000      -0.786484       -21.4013
 118   2.0000      -0.765773       -20.8378
 119   2.0000      -0.753691       -20.5090
 120   2.0000      -0.745744       -20.2927
 121   2.0000      -0.744669       -20.2635
 122   2.0000      -0.737479       -20.0678
 123   2.0000      -0.734466       -19.9858
 124   2.0000      -0.723615       -19.6906
 125   2.0000      -0.708778       -19.2868
 126   2.0000      -0.697321       -18.9751
 127   2.0000      -0.683830       -18.6080
 128   2.0000      -0.679788       -18.4980
 129   2.0000      -0.673402       -18.3242
 130   2.0000      -0.669562       -18.2197
 131   2.0000      -0.667602       -18.1664
 132   2.0000      -0.660180       -17.9644
 133   2.0000      -0.652483       -17.7550
 134   2.0000      -0.640101       -17.4180
 135   2.0000      -0.636301       -17.3146
 136   2.0000      -0.630935       -17.1686
 137   2.0000      -0.623652       -16.9704
 138   2.0000      -0.618731       -16.8365
 139   2.0000      -0.617386       -16.7999
 140   2.0000      -0.613635       -16.6979
 141   2.0000      -0.607588       -16.5333
 142   2.0000      -0.597279       -16.2528
 143   2.0000      -0.584756       -15.9120
 144   2.0000      -0.581769       -15.8307
 145   2.0000      -0.581455       -15.8222
 146   2.0000      -0.578024       -15.7288
 147   2.0000      -0.574683       -15.6379
 148   2.0000      -0.564189       -15.3524
 149   2.0000      -0.559640       -15.2286
 150   2.0000      -0.552361       -15.0305
 151   2.0000      -0.545363       -14.8401
 152   2.0000      -0.543680       -14.7943
 153   2.0000      -0.539884       -14.6910
 154   2.0000      -0.534495       -14.5443
 155   2.0000      -0.533773       -14.5247
 156   2.0000      -0.529472       -14.4077
 157   2.0000      -0.522899       -14.2288
 158   2.0000      -0.521018       -14.1776
 159   2.0000      -0.518505       -14.1092
 160   2.0000      -0.513008       -13.9597
 161   2.0000      -0.509192       -13.8558
 162   2.0000      -0.506348       -13.7784
 163   2.0000      -0.504889       -13.7387
 164   2.0000      -0.504458       -13.7270
 165   2.0000      -0.503885       -13.7114
 166   2.0000      -0.501818       -13.6552
 167   2.0000      -0.499563       -13.5938
 168   2.0000      -0.496483       -13.5100
 169   2.0000      -0.496409       -13.5080
 170   2.0000      -0.492481       -13.4011
 171   2.0000      -0.491197       -13.3661
 172   2.0000      -0.486898       -13.2492
 173   2.0000      -0.483871       -13.1668
 174   2.0000      -0.478811       -13.0291
 175   2.0000      -0.476125       -12.9560
 176   2.0000      -0.471613       -12.8333
 177   2.0000      -0.468477       -12.7479
 178   2.0000      -0.465045       -12.6545
 179   2.0000      -0.459927       -12.5152
 180   2.0000      -0.455354       -12.3908
 181   2.0000      -0.454536       -12.3686
 182   2.0000      -0.446015       -12.1367
 183   2.0000      -0.443828       -12.0772
 184   2.0000      -0.439104       -11.9486
 185   2.0000      -0.435890       -11.8612
 186   2.0000      -0.429310       -11.6821
 187   2.0000      -0.428286       -11.6543
 188   2.0000      -0.427296       -11.6273
 189   2.0000      -0.425900       -11.5893
 190   2.0000      -0.424832       -11.5603
 191   2.0000      -0.422286       -11.4910
 192   2.0000      -0.419945       -11.4273
 193   2.0000      -0.416295       -11.3280
 194   2.0000      -0.413140       -11.2421
 195   2.0000      -0.407716       -11.0945
 196   2.0000      -0.404157       -10.9977
 197   2.0000      -0.401044       -10.9130
 198   2.0000      -0.399122       -10.8607
 199   2.0000      -0.396397       -10.7865
 200   2.0000      -0.386715       -10.5230
 201   2.0000      -0.383330       -10.4309
 202   2.0000      -0.381298       -10.3756
 203   2.0000      -0.378694       -10.3048
 204   2.0000      -0.376149       -10.2355
 205   2.0000      -0.372920       -10.1477
 206   2.0000      -0.367231        -9.9929
 207   2.0000      -0.357758        -9.7351
 208   2.0000      -0.355229        -9.6663
 209   2.0000      -0.347572        -9.4579
 210   2.0000      -0.342104        -9.3091
 211   2.0000      -0.329725        -8.9723
 212   2.0000      -0.326723        -8.8906
 213   2.0000      -0.323876        -8.8131
 214   2.0000      -0.320775        -8.7287
 215   2.0000      -0.315996        -8.5987
 216   2.0000      -0.313097        -8.5198
 217   2.0000      -0.300414        -8.1747
 218   2.0000      -0.299625        -8.1532
 219   2.0000      -0.290808        -7.9133
 220   2.0000      -0.279562        -7.6073
 221   2.0000      -0.253179        -6.8893
 222   2.0000      -0.211967        -5.7679
 223   0.0000      -0.105209        -2.8629
 224   0.0000      -0.062834        -1.7098
 225   0.0000      -0.040915        -1.1134
 226   0.0000      -0.032630        -0.8879
 227   0.0000      -0.019590        -0.5331

MULLIKEN ATOMIC CHARGES
-----------------------
   0 C :    0.332606
   1 C :   -0.393470
   2 C :   -0.193568
   3 N :    0.125608
   4 C :   -0.210756
   5 N :    0.151266
   6 C :    0.018154
   7 C :   -0.033523
   8 C :   -0.061686
   9 C :    0.113891
  10 C :   -0.084925
  11 C :   -0.025361
  12 S :    0.169679
  13 C :   -0.133082
  14 C :    0.047599
  15 Br:   -0.007926
  16 C :    0.158592
  17 O :   -0.196864
  18 C :   -0.149621
  19 C :   -0.035981
  20 C :   -0.110239
  21 C :    0.046290
  22 C :    0.012782
  23 N :    0.011214
  24 C :    0.007880
  25 C :   -0.122249
  26 C :    0.098833
  27 C :   -0.003473
  28 N :    0.008375
  29 C :   -0.092252
  30 S :    0.142502
  31 C :   -0.022370
  32 C :   -0.010752
  33 C :    0.018111
  34 C :    0.048272
  35 C :   -0.051928
  36 S :    0.095948
  37 C :   -0.025971
  38 C :    0.027654
  39 C :    0.050871
  40 C :   -0.041004
  41 S :    0.152650
  42 C :   -0.015930
  43 C :    0.091734
  44 O :   -0.195425
  45 C :    0.250330
  46 C :   -0.129564
  47 C :    0.153259
  48 O :   -0.175794
  49 C :   -0.130570
  50 N :   -0.050083
  51 C :    0.084114
  52 C :   -0.013894
  53 C :    0.025227
  54 N :   -0.048460
  55 C :   -0.017273
  56 C :    0.038863
  57 H :   -0.017424
  58 H :   -0.013879
  59 H :   -0.014375
  60 H :    0.018886
  61 H :   -0.003417
  62 H :    0.030425
  63 H :    0.009799
  64 H :    0.025659
  65 H :    0.023372
  66 H :    0.009455
  67 H :   -0.005165
  68 H :   -0.010315
  69 H :   -0.012536
  70 H :   -0.010472
  71 H :   -0.003709
  72 H :    0.009941
  73 H :   -0.010395
  74 H :    0.199681
  75 H :    0.010324
  76 H :    0.005914
  77 H :   -0.000112
  78 H :    0.027042
  79 H :    0.032990
Sum of atomic charges:    0.0000000

LOEWDIN ATOMIC CHARGES
----------------------
   0 C :    0.072838
   1 C :   -0.176274
   2 C :   -0.019736
   3 N :   -0.085126
   4 C :   -0.027922
   5 N :   -0.067511
   6 C :   -0.016983
   7 C :   -0.048639
   8 C :    0.013487
   9 C :   -0.039130
  10 C :   -0.143525
  11 C :   -0.014477
  12 S :    0.436498
  13 C :   -0.285583
  14 C :   -0.068179
  15 Br:    0.113314
  16 C :    0.073164
  17 O :   -0.182794
  18 C :   -0.146903
  19 C :    0.044328
  20 C :   -0.217369
  21 C :   -0.012892
  22 C :   -0.059884
  23 N :   -0.033079
  24 C :   -0.009801
  25 C :    0.010868
  26 C :   -0.034128
  27 C :   -0.047062
  28 N :   -0.049306
  29 C :   -0.150543
  30 S :    0.517315
  31 C :   -0.086260
  32 C :   -0.127875
  33 C :   -0.051214
  34 C :   -0.021319
  35 C :   -0.207187
  36 S :    0.429434
  37 C :   -0.144392
  38 C :   -0.047207
  39 C :   -0.007464
  40 C :   -0.165799
  41 S :    0.443359
  42 C :   -0.022024
  43 C :   -0.018619
  44 O :    0.032556
  45 C :    0.047911
  46 C :   -0.078835
  47 C :    0.028295
  48 O :   -0.037793
  49 C :    0.002833
  50 N :   -0.082475
  51 C :    0.052564
  52 C :   -0.050780
  53 C :    0.038796
  54 N :   -0.078592
  55 C :   -0.044755
  56 C :    0.000887
  57 H :    0.037071
  58 H :    0.037619
  59 H :    0.033136
  60 H :    0.050017
  61 H :    0.022036
  62 H :    0.040059
  63 H :    0.029651
  64 H :    0.028629
  65 H :    0.027441
  66 H :    0.020615
  67 H :    0.041907
  68 H :    0.033855
  69 H :    0.032993
  70 H :    0.033136
  71 H :    0.036258
  72 H :    0.049342
  73 H :    0.037729
  74 H :    0.108272
  75 H :    0.026828
  76 H :    0.038568
  77 H :    0.033419
  78 H :    0.022421
  79 H :    0.029985

  Mayer bond orders larger than 0.100000
B(  0-C ,  1-C ) :   1.5594 B(  0-C ,  6-C ) :   0.9700 B(  0-C , 18-C ) :   1.1508
B(  1-C ,  2-C ) :   1.1702 B(  1-C ,  4-C ) :   1.1507 B(  2-C ,  3-N ) :   2.9311
B(  4-C ,  5-N ) :   2.9782 B(  6-C ,  7-C ) :   1.2921 B(  6-C , 11-C ) :   1.4343
B(  7-C ,  8-C ) :   1.4397 B(  7-C , 16-C ) :   0.9426 B(  8-C ,  9-C ) :   1.2170
B(  8-C , 57-H ) :   1.0190 B(  9-C , 10-C ) :   1.3341 B(  9-C , 14-C ) :   1.1689
B( 10-C , 11-C ) :   1.3004 B( 10-C , 12-S ) :   1.0837 B( 11-C , 58-H ) :   0.9752
B( 12-S , 13-C ) :   1.0844 B( 13-C , 14-C ) :   1.6157 B( 13-C , 15-Br) :   0.9980
B( 14-C , 59-H ) :   0.9917 B( 16-C , 17-O ) :   2.0942 B( 16-C , 18-C ) :   1.0257
B( 18-C , 19-C ) :   1.2820 B( 19-C , 20-C ) :   1.4741 B( 19-C , 60-H ) :   0.9459
B( 20-C , 21-C ) :   1.1672 B( 20-C , 30-S ) :   1.0392 B( 21-C , 22-C ) :   1.2838
B( 21-C , 28-N ) :   1.4880 B( 22-C , 23-N ) :   1.5159 B( 22-C , 29-C ) :   1.1475
B( 23-N , 24-C ) :   1.6324 B( 24-C , 25-C ) :   1.2366 B( 24-C , 61-H ) :   0.9785
B( 25-C , 26-C ) :   1.0249 B( 25-C , 28-N ) :   1.6231 B( 26-C , 27-C ) :   1.0960
B( 26-C , 62-H ) :   0.9262 B( 26-C , 63-H ) :   0.9321 B( 27-C , 64-H ) :   0.9686
B( 27-C , 65-H ) :   0.9702 B( 27-C , 66-H ) :   0.9742 B( 29-C , 30-S ) :   1.1330
B( 29-C , 31-C ) :   1.3815 B( 31-C , 32-C ) :   1.3554 B( 31-C , 67-H ) :   0.9827
B( 32-C , 33-C ) :   1.2161 B( 32-C , 36-S ) :   1.1090 B( 33-C , 34-C ) :   1.5103
B( 33-C , 68-H ) :   0.9992 B( 34-C , 35-C ) :   1.2501 B( 34-C , 69-H ) :   0.9940
B( 35-C , 36-S ) :   1.0438 B( 35-C , 37-C ) :   1.4113 B( 37-C , 38-C ) :   1.2156
B( 37-C , 41-S ) :   1.0936 B( 38-C , 39-C ) :   1.5560 B( 38-C , 70-H ) :   0.9971
B( 39-C , 40-C ) :   1.1679 B( 39-C , 71-H ) :   0.9990 B( 40-C , 41-S ) :   1.0465
B( 40-C , 42-C ) :   1.5094 B( 42-C , 43-C ) :   1.2204 B( 42-C , 72-H ) :   0.9752
B( 43-C , 44-O ) :   1.0918 B( 43-C , 45-C ) :   0.1057 B( 43-C , 47-C ) :   1.3249
B( 44-O , 45-C ) :   1.1939 B( 45-C , 46-C ) :   1.4354 B( 45-C , 49-C ) :   0.9633
B( 45-C , 54-N ) :  -0.1067 B( 46-C , 47-C ) :   1.2089 B( 46-C , 73-H ) :   1.0189
B( 47-C , 48-O ) :   1.2593 B( 48-O , 74-H ) :   0.9562 B( 49-C , 50-N ) :   1.5633
B( 49-C , 54-N ) :   1.6148 B( 50-N , 51-C ) :   1.5221 B( 51-C , 52-C ) :   1.3803
B( 51-C , 75-H ) :   0.9753 B( 52-C , 53-C ) :   1.3210 B( 52-C , 76-H ) :   0.9697
B( 53-C , 54-N ) :   1.5029 B( 53-C , 55-C ) :   1.0580 B( 55-C , 56-C ) :   1.9584
B( 55-C , 77-H ) :   0.9627 B( 56-C , 78-H ) :   0.9327 B( 56-C , 79-H ) :   0.9465

-----------------------------------------------------------------------------
         ABSORPTION SPECTRUM VIA TRANSITION ELECTRIC DIPOLE MOMENTS
-----------------------------------------------------------------------------
State   Energy  Wavelength   fosc         T2         TX        TY        TZ
        (cm-1)    (nm)                  (au**2)     (au)      (au)      (au)
-----------------------------------------------------------------------------
   0    8495.7   1177.1   0.284621611  11.02923  -0.35495  -0.75146  -3.21536
   1   16145.5    619.4   0.013968029   0.28481   0.07300  -0.03514   0.52749
   2   18489.2    540.9   0.878425591  15.64095  -1.49604   3.64550  -0.33641
   3   20990.3    476.4   0.500717914   7.85328  -0.85695   2.50901  -0.90764
   4   22729.4    440.0   0.232124056   3.36208   0.14535  -0.84038   1.62318
   5   23535.6    424.9   0.036115452   0.50518  -0.10142  -0.00187   0.70348
   6   23857.6    419.2   0.237555195   3.27803   0.46369  -1.73636   0.21923
   7   24731.5    404.3   0.035437200   0.47172  -0.19917   0.18979   0.62931
   8   26000.8    384.6   0.131442126   1.66427   0.02198   1.16410  -0.55558
   9   26149.3    382.4   0.031872989   0.40127   0.08174   0.19056   0.59856
  10   26914.8    371.5   0.201410193   2.46357   0.21631  -0.15883  -1.54647
  11   27190.5    367.8   0.085436357   1.03443  -0.19018   0.48784   0.87194
  12   27915.5    358.2   0.001535994   0.01811   0.13148   0.02827  -0.00521
  13   28320.6    353.1   0.007960578   0.09254  -0.16906   0.24972   0.03996
  14   28443.5    351.6   0.004435637   0.05134  -0.12609   0.01367   0.18776
  15   29723.8    336.4   0.133187364   1.47515   0.38852  -0.47917  -1.04623
  16   30076.5    332.5   0.674254542   7.38027   0.34416   0.52306  -2.64353
  17   30576.1    327.1   0.020351664   0.21913   0.00773  -0.29155   0.36615
  18   30840.3    324.3   0.009637125   0.10287  -0.00698   0.05259  -0.31632
  19   31067.6    321.9   0.111801929   1.18472  -0.34564   0.19096   1.01430
  20   31482.6    317.6   0.096296619   1.00697   0.27453  -0.32323  -0.90946
  21   32434.6    308.3   0.041493028   0.42116  -0.32660   0.48840   0.27560
  22   32742.6    305.4   0.006992962   0.07031   0.09013   0.01855   0.24868
  23   32927.0    303.7   0.013591863   0.13589  -0.02201  -0.00225   0.36797
  24   33425.5    299.2   0.084019616   0.82752   0.18445  -0.09878  -0.88529
  25   33564.8    297.9   0.068565351   0.67251  -0.03630  -0.06349   0.81680
  26   33626.1    297.4   0.045608721   0.44653   0.22657  -0.05052  -0.62661
  27   34077.0    293.5   0.032375054   0.31277   0.14164   0.12374   0.52668
  28   34386.2    290.8   0.017350123   0.16611   0.20397  -0.16612  -0.31131
  29   34928.6    286.3   0.028171080   0.26552  -0.12568   0.34228  -0.36410
  30   35211.6    284.0   0.156539374   1.46357   0.67354  -0.28574  -0.96347
  31   35455.7    282.0   0.043275422   0.40182   0.24440   0.23571  -0.53528
  32   35861.4    278.9   0.023874526   0.21917   0.37907   0.00946  -0.27457
  33   36012.3    277.7   0.003777341   0.03453  -0.16951  -0.03281  -0.06872
  34   36387.6    274.8   0.179036203   1.61981   0.36049   0.11295  -1.21536
  35   36693.9    272.5   0.019082664   0.17121   0.16048  -0.02045   0.38084
  36   37120.2    269.4   0.003000701   0.02661   0.09065   0.10133  -0.09015
  37   37228.6    268.6   0.042258806   0.37369  -0.14312  -0.01656   0.59408
  38   37515.2    266.6   0.003464443   0.03040  -0.15173  -0.06525  -0.05587
  39   37772.9    264.7   0.035891255   0.31281  -0.26734  -0.32294   0.37020
  40   38263.1    261.3   0.038530959   0.33152   0.34427  -0.11037  -0.44812
  41   38411.4    260.3   0.060702596   0.52026  -0.01162  -0.44873   0.56460
  42   38556.8    259.4   0.017026175   0.14538   0.13635   0.31322  -0.16934
  43   38692.0    258.5   0.009899382   0.08423   0.04935   0.15952  -0.23737
  44   39109.9    255.7   0.002767980   0.02330  -0.14089   0.04281   0.04021
  45   39179.6    255.2   0.324393716   2.72576  -0.19417  -1.09321   1.22186
  46   39376.7    254.0   0.072572168   0.60675  -0.04159  -0.60503   0.48883
  47   39892.3    250.7   0.017002951   0.14032   0.12750  -0.17223   0.30724
  48   40115.3    249.3   0.022435113   0.18412  -0.10057   0.28016  -0.30905

FINAL SINGLE POINT ENERGY     -6369.972316305651

DIPOLE MOMENT
-------------
                                X             Y             Z
Electronic contribution:      0.29322     -73.20178      74.77819
Nuclear contribution   :     -0.94508      75.49523     -70.85033
                        -----------------------------------------
Total Dipole Moment    :     -0.65187       2.29345       3.92786
                        -----------------------------------------
Magnitude (a.u.)       :      4.59488
Magnitude (Debye)      :     11.67926

Rotational constants in cm-1:     0.001731     0.001024     0.000691
Rotational constants in MHz :    51.907245    30.687092    20.710191

                             ****ORCA TERMINATED NORMALLY****
TOTAL RUN TIME: 0 days 0 hours 8 minutes 18 seconds 33 msec
