                         Program Version 4.2.0 -  RELEASE  -
|  1> # ORCA input file
|  2> # SCF done       -199.699870938277          0.000970185856
|  3> ! CAM-B3LYP def2-SVP def2/J RIJCOSX Grid4 TightSCF
|  4> %maxcore 5000
|  5> %tddft
|  6>     Mode sTDDFT
|  7>     Ethresh 5.0
|  8>     maxcore 5000
|  9> end
| 10>
| 11> %pal
| 12>   nprocs 6
| 13>   end
| 14> * xyz 0 1
| 15>    C       -3.38106         4.77975        -0.66281
| 16>    C       -2.91593         6.03943        -0.91901
| 17>    C       -1.61010         6.32596        -1.37378
| 18>    N       -0.56442         6.61945        -1.74320
| 19>    C       -3.68261         7.21932        -0.80473
| 20>    N       -4.25939         8.21049        -0.75791
| 21>    C       -2.64716         3.53931        -0.86239
| 22>    C       -3.52192         2.44316        -0.65377
| 23>    C       -3.11704         1.13699        -0.79141
| 24>    C       -1.78459         0.89922        -1.14210
| 25>    C       -0.91486         2.00043        -1.33940
| 26>    C       -1.32450         3.31999        -1.20682
| 27>    S        0.68831         1.48098        -1.76083
| 28>    C        0.17714        -0.18364        -1.67032
| 29>    C       -1.12705        -0.34487        -1.34054
| 30>   Br        1.41228        -1.54992        -2.01903
| 31>    C       -4.86005         2.94141        -0.28446
| 32>    O       -5.85876         2.28563        -0.09966
| 33>    C       -4.72195         4.42502        -0.20709
| 34>    C       -5.69462         5.24822         0.23104
| 35>    C       -6.97740         4.78324         0.75025
| 36>    C       -7.05252         4.17182         1.96069
| 37>    S       -8.65497         3.82597         2.47892
| 38>    C       -9.27701         4.49251         1.00447
| 39>    C       -8.27317         4.96809         0.15083
| 40>    C       -8.62511         5.47015        -1.12287
| 41>    C       -7.50658         5.86518        -2.05134
| 42>    C       -7.04411         4.66587        -2.88200
| 43>    C       -9.95588         5.52107        -1.51319
| 44>    C      -10.31316         6.02025        -2.89007
| 45>    C      -10.78771         7.47408        -2.84943
| 46>    C      -10.98187         5.12048        -0.61527
| 47>    C      -12.42886         5.16173        -0.71705
| 48>    C      -13.02727         4.66333         0.40867
| 49>    S      -11.95249         4.12090         1.62249
| 50>    C      -10.60777         4.59434         0.63320
| 51>    C      -13.25035         5.63705        -1.80772
| 52>    C      -14.48223         6.15682        -1.63060
| 53>    C      -15.39549         6.59462        -2.63808
| 54>    S      -16.79237         7.47825        -2.09756
| 55>    C      -17.37529         7.63302        -3.71802
| 56>    C      -16.51988         7.03518        -4.63007
| 57>    C      -15.40620         6.43804        -4.02010
| 58>    C      -14.37731         5.69209        -4.81334
| 59>    C      -14.88928         5.36403        -6.22475
| 60>    C      -13.78744         4.86241        -7.01483
| 61>    N      -12.88733         4.48673        -7.60958
| 62>    C      -15.49429         6.62759        -6.86948
| 63>    C      -15.82552         6.37699        -8.25431
| 64>    N      -16.11116         6.15938        -9.33848
| 65>    C      -16.76118         7.02909        -6.10345
| 66>    C      -18.58876         8.33409        -3.95762
| 67>    N      -19.11408         8.36326        -5.19935
| 68>    C      -20.14494         9.14544        -5.36903
| 69>    C      -20.68576         9.88355        -4.29479
| 70>    N      -20.22626         9.62880        -3.06008
| 71>    N      -19.19304         8.89206        -2.90287
| 72>    C      -21.75842        10.82362        -4.46436
| 73>    C      -21.91788        11.97792        -3.78160
| 74>    C      -21.05876        12.65612        -2.82548
| 75>    C      -19.69117        12.65453        -2.81017
| 76>    C      -18.91491        13.40327        -1.90058
| 77>    N      -18.24021        13.99454        -1.18512
| 78>    C      -18.88699        11.98187        -3.75296
| 79>    N      -18.18154        11.50044        -4.52054
| 80>    C      -21.91551        13.53158        -2.03630
| 81>    C      -23.19925        13.58620        -2.63965
| 82>    C      -23.22934        12.69031        -3.81041
| 83>    O      -24.12628        12.51878        -4.60073
| 84>    C      -24.21467        14.36772        -2.14247
| 85>    C      -23.95521        15.12257        -0.99409
| 86>    C      -22.67538        15.04929        -0.39098
| 87>    C      -21.64631        14.26433        -0.89546
| 88>    S      -22.57701        16.05378         1.02214
| 89>    C      -24.23015        16.55646         0.78575
| 90>    C      -24.82812        15.99989        -0.29472
| 91>   Br      -25.00955        17.76660         1.98649
| 92>    H       -3.80822         0.32436        -0.63173
| 93>    H       -0.62522         4.12387        -1.36545
| 94>    H       -1.60660        -1.30143        -1.24123
| 95>    H       -5.51789         6.31532         0.30147
| 96>    H       -6.23209         3.92666         2.60695
| 97>    H       -6.66414         6.22514        -1.46135
| 98>    H       -7.80059         6.68538        -2.70490
| 99>    H       -6.76338         3.84153        -2.23053
|100>    H       -6.18552         4.93757        -3.49287
|101>    H       -7.83762         4.31568        -3.53782
|102>    H      -11.07617         5.37368        -3.32214
|103>    H       -9.45568         5.94996        -3.55453
|104>    H      -11.65106         7.58808        -2.19821
|105>    H      -11.05599         7.81392        -3.84765
|106>    H       -9.99337         8.11393        -2.47199
|107>    H      -14.08091         4.54857         0.57172
|108>    H      -12.84796         5.56029        -2.79902
|109>    H      -14.84309         6.31038        -0.62226
|110>    H      -14.11984         4.75938        -4.30473
|111>    H      -13.46626         6.29587        -4.89767
|112>    H      -15.66121         4.58629        -6.17336
|113>    H      -14.75706         7.43909        -6.83158
|114>    H      -17.57267         6.33073        -6.33301
|115>    H      -17.10270         8.01574        -6.42277
|116>    H      -20.56330         9.20022        -6.36496
|117>    H      -22.53436        10.56448        -5.17598
|118>    H      -25.17899        14.39698        -2.62502
|119>    H      -20.69025        14.23162        -0.39963
|120>    H      -25.84288        16.19846        -0.58766
|121> *
|122>
|123>                          ****END OF INPUT****

CARTESIAN COORDINATES (ANGSTROEM)
---------------------------------
  C     -3.381060    4.779750   -0.662810
  C     -2.915930    6.039430   -0.919010
  C     -1.610100    6.325960   -1.373780
  N     -0.564420    6.619450   -1.743200
  C     -3.682610    7.219320   -0.804730
  N     -4.259390    8.210490   -0.757910
  C     -2.647160    3.539310   -0.862390
  C     -3.521920    2.443160   -0.653770
  C     -3.117040    1.136990   -0.791410
  C     -1.784590    0.899220   -1.142100
  C     -0.914860    2.000430   -1.339400
  C     -1.324500    3.319990   -1.206820
  S      0.688310    1.480980   -1.760830
  C      0.177140   -0.183640   -1.670320
  C     -1.127050   -0.344870   -1.340540
  Br     1.412280   -1.549920   -2.019030
  C     -4.860050    2.941410   -0.284460
  O     -5.858760    2.285630   -0.099660
  C     -4.721950    4.425020   -0.207090
  C     -5.694620    5.248220    0.231040
  C     -6.977400    4.783240    0.750250
  C     -7.052520    4.171820    1.960690
  S     -8.654970    3.825970    2.478920
  C     -9.277010    4.492510    1.004470
  C     -8.273170    4.968090    0.150830
  C     -8.625110    5.470150   -1.122870
  C     -7.506580    5.865180   -2.051340
  C     -7.044110    4.665870   -2.882000
  C     -9.955880    5.521070   -1.513190
  C    -10.313160    6.020250   -2.890070
  C    -10.787710    7.474080   -2.849430
  C    -10.981870    5.120480   -0.615270
  C    -12.428860    5.161730   -0.717050
  C    -13.027270    4.663330    0.408670
  S    -11.952490    4.120900    1.622490
  C    -10.607770    4.594340    0.633200
  C    -13.250350    5.637050   -1.807720
  C    -14.482230    6.156820   -1.630600
  C    -15.395490    6.594620   -2.638080
  S    -16.792370    7.478250   -2.097560
  C    -17.375290    7.633020   -3.718020
  C    -16.519880    7.035180   -4.630070
  C    -15.406200    6.438040   -4.020100
  C    -14.377310    5.692090   -4.813340
  C    -14.889280    5.364030   -6.224750
  C    -13.787440    4.862410   -7.014830
  N    -12.887330    4.486730   -7.609580
  C    -15.494290    6.627590   -6.869480
  C    -15.825520    6.376990   -8.254310
  N    -16.111160    6.159380   -9.338480
  C    -16.761180    7.029090   -6.103450
  C    -18.588760    8.334090   -3.957620
  N    -19.114080    8.363260   -5.199350
  C    -20.144940    9.145440   -5.369030
  C    -20.685760    9.883550   -4.294790
  N    -20.226260    9.628800   -3.060080
  N    -19.193040    8.892060   -2.902870
  C    -21.758420   10.823620   -4.464360
  C    -21.917880   11.977920   -3.781600
  C    -21.058760   12.656120   -2.825480
  C    -19.691170   12.654530   -2.810170
  C    -18.914910   13.403270   -1.900580
  N    -18.240210   13.994540   -1.185120
  C    -18.886990   11.981870   -3.752960
  N    -18.181540   11.500440   -4.520540
  C    -21.915510   13.531580   -2.036300
  C    -23.199250   13.586200   -2.639650
  C    -23.229340   12.690310   -3.810410
  O    -24.126280   12.518780   -4.600730
  C    -24.214670   14.367720   -2.142470
  C    -23.955210   15.122570   -0.994090
  C    -22.675380   15.049290   -0.390980
  C    -21.646310   14.264330   -0.895460
  S    -22.577010   16.053780    1.022140
  C    -24.230150   16.556460    0.785750
  C    -24.828120   15.999890   -0.294720
  Br   -25.009550   17.766600    1.986490
  H     -3.808220    0.324360   -0.631730
  H     -0.625220    4.123870   -1.365450
  H     -1.606600   -1.301430   -1.241230
  H     -5.517890    6.315320    0.301470
  H     -6.232090    3.926660    2.606950
  H     -6.664140    6.225140   -1.461350
  H     -7.800590    6.685380   -2.704900
  H     -6.763380    3.841530   -2.230530
  H     -6.185520    4.937570   -3.492870
  H     -7.837620    4.315680   -3.537820
  H    -11.076170    5.373680   -3.322140
  H     -9.455680    5.949960   -3.554530
  H    -11.651060    7.588080   -2.198210
  H    -11.055990    7.813920   -3.847650
  H     -9.993370    8.113930   -2.471990
  H    -14.080910    4.548570    0.571720
  H    -12.847960    5.560290   -2.799020
  H    -14.843090    6.310380   -0.622260
  H    -14.119840    4.759380   -4.304730
  H    -13.466260    6.295870   -4.897670
  H    -15.661210    4.586290   -6.173360
  H    -14.757060    7.439090   -6.831580
  H    -17.572670    6.330730   -6.333010
  H    -17.102700    8.015740   -6.422770
  H    -20.563300    9.200220   -6.364960
  H    -22.534360   10.564480   -5.175980
  H    -25.178990   14.396980   -2.625020
  H    -20.690250   14.231620   -0.399630
  H    -25.842880   16.198460   -0.587660

 Total Charge           Charge          ....    0
 Multiplicity           Mult            ....    1
 Number of Electrons    NEL             ....  612
 Basis Dimension        Dim             .... 1279

ORBITAL ENERGIES
----------------

  NO   OCC          E(Eh)            E(eV)
   0   2.0000    -482.891056    -13140.1337
   1   2.0000    -482.890845    -13140.1279
   2   2.0000     -88.982257     -2421.3303
   3   2.0000     -88.982251     -2421.3301
   4   2.0000     -88.965081     -2420.8629
   5   2.0000     -88.956760     -2420.6365
   6   2.0000     -88.955836     -2420.6114
   7   2.0000     -62.568766     -1702.5827
   8   2.0000     -62.568577     -1702.5775
   9   2.0000     -56.402727     -1534.7962
  10   2.0000     -56.402536     -1534.7910
  11   2.0000     -56.399991     -1534.7218
  12   2.0000     -56.399965     -1534.7211
  13   2.0000     -56.399801     -1534.7166
  14   2.0000     -56.399775     -1534.7159
  15   2.0000     -19.227202      -523.1988
  16   2.0000     -19.222996      -523.0843
  17   2.0000     -14.470831      -393.7713
  18   2.0000     -14.456776      -393.3889
  19   2.0000     -14.441921      -392.9847
  20   2.0000     -14.425388      -392.5348
  21   2.0000     -14.425064      -392.5259
  22   2.0000     -14.424123      -392.5003
  23   2.0000     -14.422880      -392.4665
  24   2.0000     -14.408136      -392.0653
  25   2.0000     -14.405283      -391.9877
  26   2.0000     -10.377709      -282.3918
  27   2.0000     -10.374330      -282.2999
  28   2.0000     -10.368278      -282.1352
  29   2.0000     -10.365750      -282.0664
  30   2.0000     -10.365437      -282.0579
  31   2.0000     -10.353342      -281.7287
  32   2.0000     -10.352832      -281.7149
  33   2.0000     -10.351182      -281.6700
  34   2.0000     -10.350927      -281.6630
  35   2.0000     -10.348595      -281.5996
  36   2.0000     -10.338045      -281.3125
  37   2.0000     -10.337216      -281.2899
  38   2.0000     -10.333966      -281.2015
  39   2.0000     -10.333949      -281.2010
  40   2.0000     -10.333527      -281.1896
  41   2.0000     -10.328136      -281.0429
  42   2.0000     -10.327444      -281.0240
  43   2.0000     -10.326500      -280.9983
  44   2.0000     -10.326297      -280.9928
  45   2.0000     -10.325993      -280.9846
  46   2.0000     -10.324745      -280.9506
  47   2.0000     -10.317920      -280.7649
  48   2.0000     -10.316984      -280.7394
  49   2.0000     -10.316897      -280.7371
  50   2.0000     -10.315645      -280.7030
  51   2.0000     -10.315484      -280.6986
  52   2.0000     -10.314483      -280.6714
  53   2.0000     -10.313890      -280.6552
  54   2.0000     -10.313734      -280.6510
  55   2.0000     -10.309757      -280.5428
  56   2.0000     -10.308677      -280.5134
  57   2.0000     -10.307757      -280.4883
  58   2.0000     -10.306371      -280.4506
  59   2.0000     -10.306223      -280.4466
  60   2.0000     -10.305657      -280.4312
  61   2.0000     -10.303568      -280.3743
  62   2.0000     -10.302932      -280.3570
  63   2.0000     -10.302915      -280.3566
  64   2.0000     -10.302455      -280.3441
  65   2.0000     -10.302053      -280.3331
  66   2.0000     -10.301310      -280.3129
  67   2.0000     -10.301123      -280.3078
  68   2.0000     -10.300662      -280.2953
  69   2.0000     -10.300565      -280.2926
  70   2.0000     -10.299768      -280.2709
  71   2.0000     -10.294845      -280.1370
  72   2.0000     -10.293653      -280.1045
  73   2.0000     -10.292278      -280.0671
  74   2.0000     -10.290906      -280.0298
  75   2.0000     -10.290734      -280.0251
  76   2.0000     -10.288964      -279.9769
  77   2.0000     -10.284894      -279.8662
  78   2.0000     -10.282531      -279.8019
  79   2.0000     -10.278229      -279.6848
  80   2.0000     -10.277007      -279.6516
  81   2.0000     -10.268544      -279.4213
  82   2.0000     -10.267131      -279.3828
  83   2.0000     -10.257635      -279.1244
  84   2.0000     -10.255832      -279.0754
  85   2.0000      -8.798190      -239.4109
  86   2.0000      -8.798021      -239.4063
  87   2.0000      -8.078267      -219.8208
  88   2.0000      -8.078250      -219.8203
  89   2.0000      -8.060098      -219.3264
  90   2.0000      -8.053217      -219.1392
  91   2.0000      -8.051847      -219.1019
  92   2.0000      -6.634537      -180.5349
  93   2.0000      -6.634366      -180.5303
  94   2.0000      -6.619911      -180.1369
  95   2.0000      -6.619756      -180.1327
  96   2.0000      -6.619689      -180.1309
  97   2.0000      -6.619510      -180.1260
  98   2.0000      -6.047965      -164.5735
  99   2.0000      -6.047939      -164.5728
 100   2.0000      -6.043664      -164.4565
 101   2.0000      -6.043652      -164.4561
 102   2.0000      -6.039488      -164.3428
 103   2.0000      -6.039468      -164.3423
 104   2.0000      -6.029290      -164.0653
 105   2.0000      -6.025213      -163.9544
 106   2.0000      -6.022639      -163.8843
 107   2.0000      -6.022327      -163.8759
 108   2.0000      -6.021367      -163.8497
 109   2.0000      -6.018420      -163.7695
 110   2.0000      -6.017166      -163.7354
 111   2.0000      -6.014964      -163.6755
 112   2.0000      -6.013506      -163.6358
 113   2.0000      -2.750399       -74.8422
 114   2.0000      -2.750228       -74.8375
 115   2.0000      -2.746316       -74.7311
 116   2.0000      -2.746119       -74.7257
 117   2.0000      -2.746113       -74.7255
 118   2.0000      -2.745970       -74.7216
 119   2.0000      -2.734515       -74.4099
 120   2.0000      -2.734494       -74.4094
 121   2.0000      -2.734349       -74.4054
 122   2.0000      -2.734329       -74.4049
 123   2.0000      -1.161399       -31.6033
 124   2.0000      -1.142421       -31.0869
 125   2.0000      -1.138618       -30.9834
 126   2.0000      -1.044800       -28.4305
 127   2.0000      -1.031441       -28.0669
 128   2.0000      -1.031092       -28.0575
 129   2.0000      -1.021717       -27.8023
 130   2.0000      -1.021311       -27.7913
 131   2.0000      -1.013674       -27.5835
 132   2.0000      -1.007150       -27.4060
 133   2.0000      -1.003380       -27.3033
 134   2.0000      -1.002713       -27.2852
 135   2.0000      -0.999984       -27.2109
 136   2.0000      -0.998194       -27.1622
 137   2.0000      -0.997569       -27.1452
 138   2.0000      -0.989707       -26.9313
 139   2.0000      -0.978082       -26.6150
 140   2.0000      -0.966773       -26.3072
 141   2.0000      -0.952632       -25.9224
 142   2.0000      -0.950133       -25.8544
 143   2.0000      -0.945079       -25.7169
 144   2.0000      -0.929226       -25.2855
 145   2.0000      -0.917749       -24.9732
 146   2.0000      -0.916541       -24.9404
 147   2.0000      -0.915961       -24.9246
 148   2.0000      -0.909904       -24.7598
 149   2.0000      -0.899247       -24.4698
 150   2.0000      -0.893744       -24.3200
 151   2.0000      -0.893723       -24.3194
 152   2.0000      -0.885483       -24.0952
 153   2.0000      -0.877134       -23.8680
 154   2.0000      -0.869324       -23.6555
 155   2.0000      -0.867910       -23.6170
 156   2.0000      -0.860042       -23.4029
 157   2.0000      -0.855923       -23.2909
 158   2.0000      -0.841648       -22.9024
 159   2.0000      -0.837113       -22.7790
 160   2.0000      -0.836507       -22.7625
 161   2.0000      -0.826509       -22.4905
 162   2.0000      -0.818785       -22.2803
 163   2.0000      -0.802544       -21.8383
 164   2.0000      -0.796250       -21.6671
 165   2.0000      -0.789650       -21.4875
 166   2.0000      -0.776172       -21.1207
 167   2.0000      -0.773298       -21.0425
 168   2.0000      -0.769897       -20.9500
 169   2.0000      -0.761919       -20.7329
 170   2.0000      -0.759082       -20.6557
 171   2.0000      -0.756576       -20.5875
 172   2.0000      -0.741672       -20.1819
 173   2.0000      -0.723577       -19.6895
 174   2.0000      -0.715532       -19.4706
 175   2.0000      -0.713993       -19.4287
 176   2.0000      -0.706847       -19.2343
 177   2.0000      -0.700753       -19.0685
 178   2.0000      -0.697680       -18.9848
 179   2.0000      -0.696679       -18.9576
 180   2.0000      -0.694376       -18.8949
 181   2.0000      -0.684462       -18.6252
 182   2.0000      -0.682834       -18.5808
 183   2.0000      -0.671560       -18.2741
 184   2.0000      -0.666057       -18.1243
 185   2.0000      -0.665209       -18.1013
 186   2.0000      -0.657080       -17.8801
 187   2.0000      -0.650846       -17.7104
 188   2.0000      -0.642535       -17.4843
 189   2.0000      -0.638956       -17.3869
 190   2.0000      -0.632366       -17.2075
 191   2.0000      -0.631586       -17.1863
 192   2.0000      -0.629121       -17.1193
 193   2.0000      -0.621705       -16.9174
 194   2.0000      -0.617227       -16.7956
 195   2.0000      -0.612240       -16.6599
 196   2.0000      -0.610074       -16.6010
 197   2.0000      -0.604196       -16.4410
 198   2.0000      -0.596806       -16.2399
 199   2.0000      -0.595320       -16.1995
 200   2.0000      -0.593530       -16.1508
 201   2.0000      -0.579768       -15.7763
 202   2.0000      -0.574935       -15.6448
 203   2.0000      -0.570404       -15.5215
 204   2.0000      -0.568601       -15.4724
 205   2.0000      -0.561535       -15.2802
 206   2.0000      -0.558376       -15.1942
 207   2.0000      -0.555593       -15.1185
 208   2.0000      -0.553154       -15.0521
 209   2.0000      -0.550658       -14.9842
 210   2.0000      -0.548202       -14.9173
 211   2.0000      -0.546550       -14.8724
 212   2.0000      -0.545119       -14.8334
 213   2.0000      -0.542666       -14.7667
 214   2.0000      -0.536738       -14.6054
 215   2.0000      -0.536136       -14.5890
 216   2.0000      -0.532971       -14.5029
 217   2.0000      -0.531614       -14.4659
 218   2.0000      -0.529481       -14.4079
 219   2.0000      -0.528036       -14.3686
 220   2.0000      -0.522819       -14.2266
 221   2.0000      -0.518060       -14.0971
 222   2.0000      -0.516176       -14.0459
 223   2.0000      -0.515412       -14.0251
 224   2.0000      -0.514991       -14.0136
 225   2.0000      -0.513973       -13.9859
 226   2.0000      -0.510259       -13.8848
 227   2.0000      -0.509198       -13.8560
 228   2.0000      -0.507207       -13.8018
 229   2.0000      -0.503817       -13.7096
 230   2.0000      -0.501369       -13.6429
 231   2.0000      -0.500813       -13.6278
 232   2.0000      -0.500060       -13.6073
 233   2.0000      -0.498579       -13.5670
 234   2.0000      -0.490327       -13.3425
 235   2.0000      -0.487763       -13.2727
 236   2.0000      -0.483124       -13.1465
 237   2.0000      -0.481869       -13.1123
 238   2.0000      -0.477427       -12.9914
 239   2.0000      -0.475319       -12.9341
 240   2.0000      -0.474657       -12.9161
 241   2.0000      -0.467429       -12.7194
 242   2.0000      -0.466371       -12.6906
 243   2.0000      -0.464460       -12.6386
 244   2.0000      -0.463624       -12.6159
 245   2.0000      -0.461568       -12.5599
 246   2.0000      -0.459830       -12.5126
 247   2.0000      -0.459685       -12.5087
 248   2.0000      -0.457082       -12.4378
 249   2.0000      -0.454784       -12.3753
 250   2.0000      -0.454622       -12.3709
 251   2.0000      -0.452530       -12.3140
 252   2.0000      -0.451778       -12.2935
 253   2.0000      -0.450232       -12.2514
 254   2.0000      -0.447546       -12.1784
 255   2.0000      -0.447010       -12.1638
 256   2.0000      -0.446145       -12.1402
 257   2.0000      -0.444224       -12.0880
 258   2.0000      -0.443251       -12.0615
 259   2.0000      -0.441112       -12.0033
 260   2.0000      -0.439206       -11.9514
 261   2.0000      -0.438199       -11.9240
 262   2.0000      -0.436365       -11.8741
 263   2.0000      -0.436295       -11.8722
 264   2.0000      -0.432491       -11.7687
 265   2.0000      -0.432257       -11.7623
 266   2.0000      -0.430309       -11.7093
 267   2.0000      -0.429429       -11.6853
 268   2.0000      -0.427587       -11.6352
 269   2.0000      -0.426075       -11.5941
 270   2.0000      -0.423125       -11.5138
 271   2.0000      -0.421915       -11.4809
 272   2.0000      -0.417738       -11.3672
 273   2.0000      -0.417465       -11.3598
 274   2.0000      -0.417315       -11.3557
 275   2.0000      -0.416220       -11.3259
 276   2.0000      -0.409376       -11.1397
 277   2.0000      -0.407756       -11.0956
 278   2.0000      -0.404003       -10.9935
 279   2.0000      -0.402953       -10.9649
 280   2.0000      -0.399804       -10.8792
 281   2.0000      -0.395494       -10.7619
 282   2.0000      -0.394766       -10.7421
 283   2.0000      -0.391471       -10.6525
 284   2.0000      -0.389091       -10.5877
 285   2.0000      -0.387852       -10.5540
 286   2.0000      -0.380284       -10.3481
 287   2.0000      -0.380125       -10.3437
 288   2.0000      -0.378318       -10.2946
 289   2.0000      -0.377928       -10.2839
 290   2.0000      -0.370964       -10.0944
 291   2.0000      -0.358118        -9.7449
 292   2.0000      -0.350373        -9.5341
 293   2.0000      -0.341104        -9.2819
 294   2.0000      -0.334195        -9.0939
 295   2.0000      -0.328754        -8.9458
 296   2.0000      -0.325099        -8.8464
 297   2.0000      -0.323113        -8.7923
 298   2.0000      -0.322796        -8.7837
 299   2.0000      -0.322352        -8.7717
 300   2.0000      -0.308992        -8.4081
 301   2.0000      -0.300646        -8.1810
 302   2.0000      -0.299378        -8.1465
 303   2.0000      -0.288475        -7.8498
 304   2.0000      -0.271154        -7.3785
 305   2.0000      -0.256231        -6.9724
 306   0.0000      -0.102155        -2.7798
 307   0.0000      -0.091985        -2.5031
 308   0.0000      -0.069129        -1.8811
 309   0.0000      -0.060327        -1.6416
 310   0.0000      -0.051033        -1.3887

MULLIKEN ATOMIC CHARGES
-----------------------
   0 C :    0.319269
   1 C :   -0.348266
   2 C :   -0.186676
   3 N :    0.162826
   4 C :   -0.191095
   5 N :    0.162067
   6 C :    0.012788
   7 C :   -0.013882
   8 C :   -0.066283
   9 C :    0.117311
  10 C :   -0.090139
  11 C :   -0.017741
  12 S :    0.191878
  13 C :   -0.121300
  14 C :    0.038910
  15 Br:    0.030503
  16 C :    0.138953
  17 O :   -0.128270
  18 C :   -0.044166
  19 C :   -0.118384
  20 C :    0.048959
  21 C :   -0.073632
  22 S :    0.133552
  23 C :   -0.131255
  24 C :    0.123522
  25 C :   -0.114394
  26 C :    0.049496
  27 C :    0.044010
  28 C :   -0.132811
  29 C :    0.020480
  30 C :    0.031110
  31 C :    0.131213
  32 C :    0.068490
  33 C :   -0.123108
  34 S :    0.139378
  35 C :   -0.166177
  36 C :   -0.023808
  37 C :    0.034089
  38 C :   -0.123351
  39 S :    0.198707
  40 C :   -0.091910
  41 C :   -0.097770
  42 C :   -0.082258
  43 C :    0.175232
  44 C :   -0.081520
  45 C :   -0.256558
  46 N :    0.156439
  47 C :   -0.094924
  48 C :   -0.255938
  49 N :    0.162015
  50 C :    0.235818
  51 C :   -0.050576
  52 N :   -0.049738
  53 C :    0.074312
  54 C :   -0.050411
  55 N :   -0.043494
  56 N :   -0.063321
  57 C :    0.060398
  58 C :   -0.098243
  59 C :    0.292915
  60 C :   -0.316977
  61 C :   -0.184721
  62 N :    0.159707
  63 C :   -0.172647
  64 N :    0.154048
  65 C :    0.007511
  66 C :   -0.005225
  67 C :    0.133354
  68 O :   -0.134106
  69 C :   -0.065334
  70 C :    0.111776
  71 C :   -0.087095
  72 C :   -0.016587
  73 S :    0.192315
  74 C :   -0.125548
  75 C :    0.043124
  76 Br:    0.030308
  77 H :   -0.005979
  78 H :   -0.003858
  79 H :   -0.000422
  80 H :    0.063251
  81 H :    0.015769
  82 H :   -0.012915
  83 H :    0.008919
  84 H :    0.011556
  85 H :    0.014417
  86 H :    0.012270
  87 H :    0.009447
  88 H :    0.003427
  89 H :    0.023606
  90 H :    0.014651
  91 H :    0.012937
  92 H :    0.024510
  93 H :   -0.022508
  94 H :   -0.016072
  95 H :    0.047560
  96 H :    0.037366
  97 H :    0.048040
  98 H :    0.049246
  99 H :    0.027408
 100 H :    0.048540
 101 H :    0.015763
 102 H :    0.031290
 103 H :   -0.005799
 104 H :    0.001109
 105 H :   -0.000670
Sum of atomic charges:   -0.0000000

LOEWDIN ATOMIC CHARGES
----------------------
   0 C :    0.076177
   1 C :   -0.132021
   2 C :   -0.018949
   3 N :   -0.044713
   4 C :   -0.020421
   5 N :   -0.043832
   6 C :   -0.022851
   7 C :   -0.051803
   8 C :    0.024354
   9 C :   -0.029641
  10 C :   -0.142404
  11 C :   -0.007696
  12 S :    0.436308
  13 C :   -0.268844
  14 C :   -0.069866
  15 Br:    0.142368
  16 C :    0.080694
  17 O :   -0.124778
  18 C :   -0.082763
  19 C :    0.081408
  20 C :   -0.065374
  21 C :   -0.152153
  22 S :    0.422749
  23 C :   -0.176637
  24 C :   -0.036542
  25 C :   -0.017271
  26 C :   -0.027690
  27 C :   -0.050148
  28 C :   -0.019965
  29 C :   -0.030817
  30 C :   -0.051209
  31 C :   -0.038504
  32 C :   -0.065179
  33 C :   -0.164380
  34 S :    0.426680
  35 C :   -0.176447
  36 C :   -0.003845
  37 C :   -0.050761
  38 C :   -0.149444
  39 S :    0.491551
  40 C :   -0.207387
  41 C :   -0.026085
  42 C :   -0.074074
  43 C :   -0.009727
  44 C :   -0.032450
  45 C :   -0.037054
  46 N :   -0.048668
  47 C :   -0.035008
  48 C :   -0.035767
  49 N :   -0.048217
  50 C :   -0.006308
  51 C :    0.009728
  52 N :   -0.051039
  53 C :    0.061143
  54 C :   -0.063586
  55 N :   -0.006894
  56 N :   -0.063041
  57 C :    0.054136
  58 C :   -0.055243
  59 C :    0.077634
  60 C :   -0.121728
  61 C :   -0.017656
  62 N :   -0.043635
  63 C :   -0.012309
  64 N :   -0.057643
  65 C :   -0.015804
  66 C :   -0.053798
  67 C :    0.085438
  68 O :   -0.132869
  69 C :    0.025468
  70 C :   -0.030881
  71 C :   -0.140720
  72 C :   -0.007844
  73 S :    0.437345
  74 C :   -0.269565
  75 C :   -0.069647
  76 Br:    0.141953
  77 H :    0.042685
  78 H :    0.041712
  79 H :    0.040076
  80 H :    0.048294
  81 H :    0.024498
  82 H :    0.027761
  83 H :    0.028626
  84 H :    0.024493
  85 H :    0.024274
  86 H :    0.025038
  87 H :    0.022651
  88 H :    0.028872
  89 H :    0.024924
  90 H :    0.023175
  91 H :    0.027861
  92 H :    0.023283
  93 H :    0.025187
  94 H :    0.027536
  95 H :    0.043976
  96 H :    0.041027
  97 H :    0.058684
  98 H :    0.058698
  99 H :    0.045854
 100 H :    0.048013
 101 H :    0.033459
 102 H :    0.050347
 103 H :    0.042836
 104 H :    0.042693
 105 H :    0.039928

  Mayer bond orders larger than 0.100000
B(  0-C ,  1-C ) :   1.6672 B(  0-C ,  6-C ) :   1.0178 B(  0-C , 18-C ) :   0.9994
B(  1-C ,  2-C ) :   1.1316 B(  1-C ,  4-C ) :   1.1586 B(  2-C ,  3-N ) :   2.9785
B(  4-C ,  5-N ) :   2.9500 B(  6-C ,  7-C ) :   1.2676 B(  6-C , 11-C ) :   1.3960
B(  7-C ,  8-C ) :   1.4209 B(  7-C , 16-C ) :   0.9377 B(  8-C ,  9-C ) :   1.2504
B(  8-C , 77-H ) :   1.0166 B(  9-C , 10-C ) :   1.2970 B(  9-C , 14-C ) :   1.1645
B( 10-C , 11-C ) :   1.3406 B( 10-C , 12-S ) :   1.0879 B( 11-C , 78-H ) :   0.9804
B( 12-S , 13-C ) :   1.0869 B( 13-C , 14-C ) :   1.6148 B( 13-C , 15-Br) :   1.0226
B( 14-C , 79-H ) :   1.0011 B( 16-C , 17-O ) :   2.2302 B( 16-C , 18-C ) :   0.9156
B( 18-C , 19-C ) :   1.7781 B( 19-C , 20-C ) :   0.9494 B( 19-C , 80-H ) :   0.9258
B( 20-C , 21-C ) :   1.6330 B( 20-C , 24-C ) :   1.1811 B( 21-C , 22-S ) :   1.1175
B( 21-C , 81-H ) :   0.9647 B( 22-S , 23-C ) :   1.0829 B( 23-C , 24-C ) :   1.3751
B( 23-C , 35-C ) :   1.3720 B( 24-C , 25-C ) :   1.2629 B( 25-C , 26-C ) :   1.0689
B( 25-C , 28-C ) :   1.5216 B( 26-C , 27-C ) :   1.1140 B( 26-C , 82-H ) :   0.8908
B( 26-C , 83-H ) :   0.9082 B( 27-C , 84-H ) :   0.9579 B( 27-C , 85-H ) :   0.9647
B( 27-C , 86-H ) :   0.9595 B( 28-C , 29-C ) :   1.0574 B( 28-C , 31-C ) :   1.2465
B( 29-C , 30-C ) :   1.1097 B( 29-C , 87-H ) :   0.9258 B( 29-C , 88-H ) :   0.9081
B( 30-C , 89-H ) :   0.9651 B( 30-C , 90-H ) :   0.9649 B( 30-C , 91-H ) :   0.9560
B( 31-C , 32-C ) :   1.1400 B( 31-C , 35-C ) :   1.3752 B( 32-C , 33-C ) :   1.5907
B( 32-C , 36-C ) :   1.0460 B( 33-C , 34-S ) :   1.1277 B( 33-C , 92-H ) :   0.9598
B( 34-S , 35-C ) :   1.0802 B( 36-C , 37-C ) :   1.7297 B( 36-C , 93-H ) :   0.9490
B( 37-C , 38-C ) :   1.1094 B( 37-C , 94-H ) :   0.9506 B( 38-C , 39-S ) :   1.1460
B( 38-C , 40-C ) :   0.1125 B( 38-C , 42-C ) :   1.4842 B( 39-S , 40-C ) :   1.1221
B( 40-C , 41-C ) :   1.5118 B( 40-C , 51-C ) :   1.0988 B( 41-C , 42-C ) :   1.3379
B( 41-C , 50-C ) :   1.0635 B( 42-C , 43-C ) :   1.0614 B( 43-C , 44-C ) :   1.0816
B( 43-C , 95-H ) :   0.9046 B( 43-C , 96-H ) :   0.8813 B( 44-C , 45-C ) :   1.0807
B( 44-C , 47-C ) :   1.0621 B( 44-C , 97-H ) :   0.8539 B( 45-C , 46-N ) :   3.1249
B( 47-C , 48-C ) :   1.0901 B( 47-C , 50-C ) :   1.0615 B( 47-C , 98-H ) :   0.8523
B( 48-C , 49-N ) :   3.1241 B( 50-C , 99-H ) :   0.8846 B( 50-C ,100-H ) :   0.8999
B( 51-C , 52-N ) :   1.4575 B( 51-C , 56-N ) :   1.5480 B( 52-N , 53-C ) :   1.6024
B( 53-C , 54-C ) :   1.2381 B( 53-C ,101-H ) :   0.9840 B( 54-C , 55-N ) :   1.4606
B( 54-C , 57-C ) :   1.0012 B( 55-N , 56-N ) :   1.3841 B( 57-C , 58-C ) :   1.7823
B( 57-C ,102-H ) :   0.9449 B( 58-C , 59-C ) :   0.9986 B( 58-C , 67-C ) :   0.9243
B( 59-C , 60-C ) :   1.6864 B( 59-C , 65-C ) :   1.0253 B( 60-C , 61-C ) :   1.1309
B( 60-C , 63-C ) :   1.1620 B( 61-C , 62-N ) :   2.9901 B( 63-C , 64-N ) :   2.9848
B( 65-C , 66-C ) :   1.2655 B( 65-C , 72-C ) :   1.4082 B( 66-C , 67-C ) :   0.9237
B( 66-C , 69-C ) :   1.4205 B( 67-C , 68-O ) :   2.2815 B( 69-C , 70-C ) :   1.2581
B( 69-C ,103-H ) :   1.0158 B( 70-C , 71-C ) :   1.2974 B( 70-C , 75-C ) :   1.1656
B( 71-C , 72-C ) :   1.3348 B( 71-C , 73-S ) :   1.0876 B( 72-C ,104-H ) :   0.9827
B( 73-S , 74-C ) :   1.0872 B( 74-C , 75-C ) :   1.6177 B( 74-C , 76-Br) :   1.0227
B( 75-C ,105-H ) :   0.9998

-----------------------------------------------------------------------------
         ABSORPTION SPECTRUM VIA TRANSITION ELECTRIC DIPOLE MOMENTS
-----------------------------------------------------------------------------
State   Energy  Wavelength   fosc         T2         TX        TY        TZ
        (cm-1)    (nm)                  (au**2)     (au)      (au)      (au)
-----------------------------------------------------------------------------
   0   20014.1    499.6   0.547703320   9.00918   2.19936  -2.00965   0.36514
   1   20723.1    482.6   0.188814668   2.99955   1.34520  -1.06633   0.23007
   2   21412.8    467.0   0.047596147   0.73177   0.77783   0.13943  -0.32758
   3   23158.3    431.8   0.000614167   0.00873   0.04696   0.03816  -0.07120
   4   26544.9    376.7   0.000124809   0.00155   0.01966  -0.00627  -0.03350
   5   26602.3    375.9   0.246309426   3.04816   1.45123  -0.68894  -0.68370
   6   27111.4    368.8   0.113665014   1.38023   0.84359  -0.76657   0.28450
   7   27372.9    365.3   0.377563584   4.54094  -1.67234   0.25483  -1.29587
   8   28219.7    354.4   0.009334739   0.10890   0.25316  -0.13615   0.16208
   9   28564.5    350.1   0.655350923   7.55307   1.39936  -2.35216  -0.24943
  10   28628.3    349.3   0.281689060   3.23930   1.40368  -1.12278  -0.09142
  11   29240.6    342.0   0.023240238   0.26166  -0.45851   0.21631  -0.06810
  12   29252.9    341.8   0.086716364   0.97590   0.81771  -0.47117   0.29198
  13   30119.8    332.0   0.016446900   0.17977   0.22072  -0.33642  -0.13369
  14   30636.9    326.4   0.016545005   0.17779   0.26060  -0.04691  -0.32814
  15   30643.0    326.3   0.027198859   0.29221  -0.44958  -0.03688   0.29787
  16   30810.1    324.6   0.045643243   0.48771  -0.05775   0.69596  -0.00254
  17   30849.2    324.2   0.038083323   0.40641   0.52176  -0.25681   0.26121
  18   31432.9    318.1   0.005006425   0.05243  -0.11502   0.19307   0.04391
  19   32450.6    308.2   0.088401085   0.89683   0.32170  -0.01586   0.89055
  20   32972.6    303.3   0.036551732   0.36495  -0.58222  -0.01409   0.16052
  21   32974.1    303.3   0.042596710   0.42528   0.12517  -0.63939  -0.02813
  22   33403.6    299.4   0.637499072   6.28292   2.00255  -1.17533  -0.94409
  23   33573.7    297.9   0.016729540   0.16404   0.29890   0.03932   0.27047
  24   33902.8    295.0   0.135775694   1.31844  -0.14873  -0.68698  -0.90796
  25   34205.6    292.3   0.384202512   3.69776   1.36769  -1.29157  -0.39877
  26   34538.1    289.5   0.361842401   3.44903   0.93441   1.52745   0.49275
  27   34589.4    289.1   0.200786583   1.91103   0.10498   1.07797  -0.85906
  28   35551.1    281.3   0.155981697   1.44443  -0.86420   0.83308  -0.05969
  29   36097.6    277.0   0.026661150   0.24315   0.13533  -0.46806   0.07586
  30   37049.2    269.9   0.131069189   1.16465  -0.75635  -0.29526   0.71092
  31   37445.0    267.1   0.029719370   0.26129   0.42532  -0.06095  -0.27690
  32   37771.6    264.7   0.021065079   0.18360   0.35688  -0.22049   0.08730
  33   37879.9    264.0   0.107483916   0.93414   0.24187  -0.68801  -0.63425
  34   38001.2    263.1   0.000027631   0.00024   0.00024   0.01052   0.01134
  35   38446.2    260.1   0.019530501   0.16724   0.32752   0.15792   0.18716
  36   38679.2    258.5   0.113011632   0.96188   0.79978  -0.16341  -0.54362
  37   39277.0    254.6   0.104395454   0.87502   0.92705   0.02863   0.12156
  38   39623.3    252.4   0.042191096   0.35055   0.51863  -0.28553  -0.00700
  39   39752.1    251.6   0.034149199   0.28281  -0.51362  -0.05793   0.12511
  40   40177.1    248.9   0.084528858   0.69263  -0.38996   0.73186   0.07032

FINAL SINGLE POINT ENERGY    -10043.401718908808

DIPOLE MOMENT
-------------
                                X             Y             Z
Electronic contribution:      3.64405      32.69042      64.40319
Nuclear contribution   :     -5.16098     -33.84958     -61.94101
                        -----------------------------------------
Total Dipole Moment    :     -1.51693      -1.15916       2.46218
                        -----------------------------------------
Magnitude (a.u.)       :      3.11561
Magnitude (Debye)      :      7.91926

Rotational constants in cm-1:     0.001325     0.000140     0.000132
Rotational constants in MHz :    39.720613     4.184485     3.964131

                             ****ORCA TERMINATED NORMALLY****
TOTAL RUN TIME: 0 days 0 hours 11 minutes 25 seconds 892 msec
