                         Program Version 4.2.0 -  RELEASE  -
|  1> # ORCA input file
|  2> # SCF done       -205.208786764915          0.000941993989
|  3> ! CAM-B3LYP def2-SVP def2/J RIJCOSX Grid4 TightSCF
|  4> %maxcore 5000
|  5> %tddft
|  6>     Mode sTDDFT
|  7>     Ethresh 5.0
|  8>     maxcore 5000
|  9> end
| 10>
| 11> %pal
| 12>   nprocs 6
| 13>   end
| 14> * xyz 0 1
| 15>    C      -15.90699         2.49932         0.15544
| 16>    C      -16.68748         2.79203         1.24260
| 17>    C      -18.09148         2.66334         1.26924
| 18>    N      -19.23328         2.57708         1.34503
| 19>    C      -16.17858         3.25806         2.47241
| 20>    N      -15.80036         3.63903         3.48684
| 21>    C      -16.38393         2.01313        -1.13700
| 22>    C      -15.27120         1.82204        -1.99790
| 23>    C      -15.40003         1.36804        -3.28885
| 24>    C      -16.68831         1.08964        -3.75583
| 25>    C      -17.79322         1.28382        -2.89163
| 26>    C      -17.66204         1.74221        -1.58531
| 27>    S      -19.29109         0.88150        -3.67056
| 28>    C      -18.42778         0.46300        -5.12680
| 29>    C      -17.08471         0.61635        -5.03591
| 30>   Br      -19.37871        -0.13455        -6.62796
| 31>    C      -14.04870         2.18448        -1.27770
| 32>    O      -12.89416         2.14901        -1.69873
| 33>    C      -14.46767         2.60606         0.06318
| 34>    C      -13.55239         3.01864         1.00100
| 35>    N      -12.25199         3.03349         0.68526
| 36>    C      -11.20259         3.40072         1.45825
| 37>    S      -11.40069         3.94187         3.09276
| 38>    C       -9.68092         4.13488         3.20937
| 39>    N       -9.16523         4.60608         4.42900
| 40>    O       -7.96264         4.74657         4.51554
| 41>    O       -9.97624         4.83752         5.30633
| 42>    C       -9.00430         3.80264         2.06874
| 43>    C       -9.86402         3.37535         1.03583
| 44>    C       -9.47112         2.97123        -0.28265
| 45>    C       -8.20554         2.84382        -0.73136
| 46>    C       -7.90186         2.44002        -2.06286
| 47>    C       -6.63601         2.24486        -2.60015
| 48>    C       -5.47794         2.44307        -1.83009
| 49>    N       -4.56563         2.61869        -1.15856
| 50>    C       -6.67529         1.83802        -3.96050
| 51>    C       -7.98691         1.74167        -4.41422
| 52>    S       -9.16964         2.12717        -3.23010
| 53>    S       -8.16566         1.25242        -6.06797
| 54>    C       -6.43929         1.16701        -6.16828
| 55>    C       -5.75693         1.49607        -4.99795
| 56>    C       -4.35740         1.39185        -5.17808
| 57>    C       -3.37585         1.64869        -4.21101
| 58>    N       -2.53320         1.84619        -3.45776
| 59>    C       -4.00779         0.98790        -6.47393
| 60>    S       -5.41927         0.73594        -7.48330
| 61>    C       -2.69483         0.79706        -6.93473
| 62>    C       -2.30660         0.40775        -8.19073
| 63>    C       -0.96844         0.21971        -8.62778
| 64>    C       -0.85309        -0.16694        -9.92699
| 65>    C       -2.09341        -0.30687       -10.59198
| 66>    S       -3.41170         0.06852        -9.50853
| 67>    C       -2.33521        -0.67997       -11.90093
| 68>    C       -1.40120        -1.00434       -12.90995
| 69>    C       -1.97589        -1.33125       -14.10181
| 70>    C       -3.39030        -1.28038       -14.09526
| 71>    S       -3.96741        -0.81006       -12.51527
| 72>    C       -4.23336        -1.57788       -15.14603
| 73>    C       -5.62066        -1.48682       -15.05590
| 74>    C       -6.56593        -1.82825       -15.99499
| 75>    C       -7.93299        -1.26545       -15.87432
| 76>    O       -8.39548        -0.68308       -14.91702
| 77>    C       -8.57810        -1.52259       -17.17632
| 78>    C       -9.80458        -1.12424       -17.62157
| 79>    C      -10.20707        -1.46709       -18.93226
| 80>    C       -9.31988        -2.21424       -19.75993
| 81>    C       -9.72348        -2.54796       -21.06698
| 82>    C      -10.95484        -2.15263       -21.51084
| 83>    C      -11.84187        -1.41891       -20.71209
| 84>    C      -11.46476        -1.08466       -19.44097
| 85>    F      -11.34287        -2.47252       -22.75930
| 86>    C       -8.05519        -2.61777       -19.26875
| 87>    C       -7.69260        -2.28348       -17.99296
| 88>    C       -6.49006        -2.58622       -17.21454
| 89>    C       -5.58463        -3.57458       -17.52210
| 90>    C       -4.60318        -4.06222       -16.63708
| 91>    N       -3.81493        -4.53226       -15.94607
| 92>    C       -5.59907        -4.30418       -18.72727
| 93>    N       -5.54627        -4.91526       -19.69843
| 94>    H      -14.53485         1.23238        -3.91874
| 95>    H      -18.53452         1.87348        -0.96740
| 96>    H      -16.40152         0.40483        -5.83806
| 97>    H      -13.83291         3.33717         1.99661
| 98>    H      -12.06987         2.71111        -0.28573
| 99>    H       -7.93496         3.87539         1.99364
|100>    H      -10.26865         2.74774        -0.98010
|101>    H       -7.35370         3.03553        -0.09449
|102>    H       -1.91277         0.98066        -6.20833
|103>    H       -0.13960         0.37778        -7.96097
|104>    H        0.08190        -0.35540       -10.42260
|105>    H       -0.34102        -0.98671       -12.73254
|106>    H       -1.43182        -1.61535       -14.98470
|107>    H       -3.76855        -1.86999       -16.07605
|108>    H       -6.02571        -1.01542       -14.16417
|109>    H      -10.46178        -0.55470       -16.98160
|110>    H       -9.06752        -3.11488       -21.70904
|111>    H      -12.80049        -1.13462       -21.11621
|112>    H      -12.13071        -0.51951       -18.80622
|113>    H       -7.40326        -3.17627       -19.92140
|114> *
|115>
|116>                          ****END OF INPUT****

CARTESIAN COORDINATES (ANGSTROEM)
---------------------------------
  C    -15.906990    2.499320    0.155440
  C    -16.687480    2.792030    1.242600
  C    -18.091480    2.663340    1.269240
  N    -19.233280    2.577080    1.345030
  C    -16.178580    3.258060    2.472410
  N    -15.800360    3.639030    3.486840
  C    -16.383930    2.013130   -1.137000
  C    -15.271200    1.822040   -1.997900
  C    -15.400030    1.368040   -3.288850
  C    -16.688310    1.089640   -3.755830
  C    -17.793220    1.283820   -2.891630
  C    -17.662040    1.742210   -1.585310
  S    -19.291090    0.881500   -3.670560
  C    -18.427780    0.463000   -5.126800
  C    -17.084710    0.616350   -5.035910
  Br   -19.378710   -0.134550   -6.627960
  C    -14.048700    2.184480   -1.277700
  O    -12.894160    2.149010   -1.698730
  C    -14.467670    2.606060    0.063180
  C    -13.552390    3.018640    1.001000
  N    -12.251990    3.033490    0.685260
  C    -11.202590    3.400720    1.458250
  S    -11.400690    3.941870    3.092760
  C     -9.680920    4.134880    3.209370
  N     -9.165230    4.606080    4.429000
  O     -7.962640    4.746570    4.515540
  O     -9.976240    4.837520    5.306330
  C     -9.004300    3.802640    2.068740
  C     -9.864020    3.375350    1.035830
  C     -9.471120    2.971230   -0.282650
  C     -8.205540    2.843820   -0.731360
  C     -7.901860    2.440020   -2.062860
  C     -6.636010    2.244860   -2.600150
  C     -5.477940    2.443070   -1.830090
  N     -4.565630    2.618690   -1.158560
  C     -6.675290    1.838020   -3.960500
  C     -7.986910    1.741670   -4.414220
  S     -9.169640    2.127170   -3.230100
  S     -8.165660    1.252420   -6.067970
  C     -6.439290    1.167010   -6.168280
  C     -5.756930    1.496070   -4.997950
  C     -4.357400    1.391850   -5.178080
  C     -3.375850    1.648690   -4.211010
  N     -2.533200    1.846190   -3.457760
  C     -4.007790    0.987900   -6.473930
  S     -5.419270    0.735940   -7.483300
  C     -2.694830    0.797060   -6.934730
  C     -2.306600    0.407750   -8.190730
  C     -0.968440    0.219710   -8.627780
  C     -0.853090   -0.166940   -9.926990
  C     -2.093410   -0.306870  -10.591980
  S     -3.411700    0.068520   -9.508530
  C     -2.335210   -0.679970  -11.900930
  C     -1.401200   -1.004340  -12.909950
  C     -1.975890   -1.331250  -14.101810
  C     -3.390300   -1.280380  -14.095260
  S     -3.967410   -0.810060  -12.515270
  C     -4.233360   -1.577880  -15.146030
  C     -5.620660   -1.486820  -15.055900
  C     -6.565930   -1.828250  -15.994990
  C     -7.932990   -1.265450  -15.874320
  O     -8.395480   -0.683080  -14.917020
  C     -8.578100   -1.522590  -17.176320
  C     -9.804580   -1.124240  -17.621570
  C    -10.207070   -1.467090  -18.932260
  C     -9.319880   -2.214240  -19.759930
  C     -9.723480   -2.547960  -21.066980
  C    -10.954840   -2.152630  -21.510840
  C    -11.841870   -1.418910  -20.712090
  C    -11.464760   -1.084660  -19.440970
  F    -11.342870   -2.472520  -22.759300
  C     -8.055190   -2.617770  -19.268750
  C     -7.692600   -2.283480  -17.992960
  C     -6.490060   -2.586220  -17.214540
  C     -5.584630   -3.574580  -17.522100
  C     -4.603180   -4.062220  -16.637080
  N     -3.814930   -4.532260  -15.946070
  C     -5.599070   -4.304180  -18.727270
  N     -5.546270   -4.915260  -19.698430
  H    -14.534850    1.232380   -3.918740
  H    -18.534520    1.873480   -0.967400
  H    -16.401520    0.404830   -5.838060
  H    -13.832910    3.337170    1.996610
  H    -12.069870    2.711110   -0.285730
  H     -7.934960    3.875390    1.993640
  H    -10.268650    2.747740   -0.980100
  H     -7.353700    3.035530   -0.094490
  H     -1.912770    0.980660   -6.208330
  H     -0.139600    0.377780   -7.960970
  H      0.081900   -0.355400  -10.422600
  H     -0.341020   -0.986710  -12.732540
  H     -1.431820   -1.615350  -14.984700
  H     -3.768550   -1.869990  -16.076050
  H     -6.025710   -1.015420  -14.164170
  H    -10.461780   -0.554700  -16.981600
  H     -9.067520   -3.114880  -21.709040
  H    -12.800490   -1.134620  -21.116210
  H    -12.130710   -0.519510  -18.806220
  H     -7.403260   -3.176270  -19.921400

 Total Charge           Charge          ....    0
 Multiplicity           Mult            ....    1
 Number of Electrons    NEL             ....  612
 Basis Dimension        Dim             .... 1252

ORBITAL ENERGIES
----------------

  NO   OCC          E(Eh)            E(eV)
   0   2.0000    -482.895330    -13140.2500
   1   2.0000     -89.000826     -2421.8356
   2   2.0000     -88.998762     -2421.7794
   3   2.0000     -88.997376     -2421.7417
   4   2.0000     -88.994890     -2421.6741
   5   2.0000     -88.987783     -2421.4807
   6   2.0000     -88.976473     -2421.1729
   7   2.0000     -88.971335     -2421.0331
   8   2.0000     -62.573035     -1702.6988
   9   2.0000     -56.407002     -1534.9126
  10   2.0000     -56.404256     -1534.8378
  11   2.0000     -56.404230     -1534.8371
  12   2.0000     -24.782919      -674.3775
  13   2.0000     -19.247125      -523.7409
  14   2.0000     -19.247034      -523.7384
  15   2.0000     -19.246805      -523.7322
  16   2.0000     -19.207201      -522.6545
  17   2.0000     -14.658935      -398.8899
  18   2.0000     -14.506629      -394.7454
  19   2.0000     -14.429434      -392.6449
  20   2.0000     -14.424847      -392.5200
  21   2.0000     -14.413200      -392.2031
  22   2.0000     -14.412823      -392.1929
  23   2.0000     -14.410268      -392.1233
  24   2.0000     -14.409301      -392.0970
  25   2.0000     -10.393056      -282.8094
  26   2.0000     -10.384547      -282.5779
  27   2.0000     -10.381953      -282.5073
  28   2.0000     -10.370302      -282.1903
  29   2.0000     -10.366099      -282.0759
  30   2.0000     -10.358218      -281.8614
  31   2.0000     -10.357903      -281.8529
  32   2.0000     -10.357293      -281.8363
  33   2.0000     -10.353499      -281.7330
  34   2.0000     -10.349232      -281.6169
  35   2.0000     -10.348899      -281.6079
  36   2.0000     -10.346304      -281.5372
  37   2.0000     -10.344583      -281.4904
  38   2.0000     -10.344161      -281.4789
  39   2.0000     -10.339251      -281.3453
  40   2.0000     -10.338747      -281.3316
  41   2.0000     -10.338620      -281.3282
  42   2.0000     -10.336941      -281.2825
  43   2.0000     -10.336812      -281.2790
  44   2.0000     -10.335466      -281.2423
  45   2.0000     -10.333376      -281.1855
  46   2.0000     -10.333251      -281.1821
  47   2.0000     -10.331520      -281.1349
  48   2.0000     -10.327734      -281.0319
  49   2.0000     -10.322912      -280.9007
  50   2.0000     -10.322508      -280.8897
  51   2.0000     -10.321915      -280.8736
  52   2.0000     -10.320681      -280.8400
  53   2.0000     -10.320576      -280.8372
  54   2.0000     -10.320029      -280.8223
  55   2.0000     -10.319192      -280.7995
  56   2.0000     -10.317511      -280.7537
  57   2.0000     -10.317120      -280.7431
  58   2.0000     -10.316209      -280.7183
  59   2.0000     -10.315711      -280.7048
  60   2.0000     -10.314839      -280.6810
  61   2.0000     -10.313974      -280.6575
  62   2.0000     -10.313452      -280.6433
  63   2.0000     -10.312414      -280.6150
  64   2.0000     -10.312328      -280.6127
  65   2.0000     -10.312058      -280.6054
  66   2.0000     -10.311864      -280.6001
  67   2.0000     -10.311572      -280.5921
  68   2.0000     -10.311081      -280.5788
  69   2.0000     -10.309579      -280.5379
  70   2.0000     -10.308324      -280.5038
  71   2.0000     -10.306041      -280.4416
  72   2.0000     -10.302059      -280.3333
  73   2.0000     -10.301123      -280.3078
  74   2.0000     -10.297163      -280.2001
  75   2.0000     -10.295409      -280.1523
  76   2.0000     -10.295092      -280.1437
  77   2.0000     -10.294727      -280.1338
  78   2.0000     -10.293302      -280.0950
  79   2.0000     -10.291419      -280.0437
  80   2.0000     -10.289578      -279.9937
  81   2.0000     -10.285858      -279.8924
  82   2.0000     -10.284736      -279.8619
  83   2.0000      -8.802464      -239.5272
  84   2.0000      -8.096035      -220.3043
  85   2.0000      -8.093899      -220.2462
  86   2.0000      -8.092360      -220.2043
  87   2.0000      -8.090024      -220.1408
  88   2.0000      -8.083742      -219.9698
  89   2.0000      -8.072877      -219.6742
  90   2.0000      -8.067697      -219.5332
  91   2.0000      -6.638839      -180.6520
  92   2.0000      -6.624175      -180.2530
  93   2.0000      -6.623934      -180.2464
  94   2.0000      -6.065640      -165.0545
  95   2.0000      -6.063831      -165.0052
  96   2.0000      -6.061948      -164.9540
  97   2.0000      -6.061304      -164.9365
  98   2.0000      -6.059636      -164.8911
  99   2.0000      -6.059556      -164.8889
 100   2.0000      -6.057639      -164.8367
 101   2.0000      -6.057549      -164.8343
 102   2.0000      -6.055404      -164.7759
 103   2.0000      -6.054751      -164.7581
 104   2.0000      -6.053964      -164.7367
 105   2.0000      -6.053405      -164.7215
 106   2.0000      -6.051632      -164.6733
 107   2.0000      -6.049121      -164.6049
 108   2.0000      -6.045018      -164.4933
 109   2.0000      -6.042624      -164.4282
 110   2.0000      -6.038460      -164.3149
 111   2.0000      -6.037339      -164.2843
 112   2.0000      -6.033770      -164.1872
 113   2.0000      -6.033297      -164.1744
 114   2.0000      -6.028745      -164.0505
 115   2.0000      -2.754673       -74.9585
 116   2.0000      -2.750595       -74.8475
 117   2.0000      -2.750428       -74.8429
 118   2.0000      -2.738763       -74.5255
 119   2.0000      -2.738750       -74.5252
 120   2.0000      -1.329603       -36.1803
 121   2.0000      -1.297674       -35.3115
 122   2.0000      -1.161883       -31.6164
 123   2.0000      -1.149152       -31.2700
 124   2.0000      -1.121739       -30.5241
 125   2.0000      -1.115308       -30.3491
 126   2.0000      -1.052565       -28.6418
 127   2.0000      -1.036602       -28.2074
 128   2.0000      -1.026544       -27.9337
 129   2.0000      -1.025948       -27.9175
 130   2.0000      -1.021686       -27.8015
 131   2.0000      -1.018744       -27.7214
 132   2.0000      -1.013090       -27.5676
 133   2.0000      -1.006632       -27.3918
 134   2.0000      -1.002929       -27.2911
 135   2.0000      -1.001704       -27.2577
 136   2.0000      -0.999186       -27.1892
 137   2.0000      -0.995767       -27.0962
 138   2.0000      -0.989773       -26.9331
 139   2.0000      -0.988382       -26.8953
 140   2.0000      -0.971725       -26.4420
 141   2.0000      -0.964816       -26.2540
 142   2.0000      -0.955132       -25.9905
 143   2.0000      -0.936399       -25.4807
 144   2.0000      -0.929619       -25.2962
 145   2.0000      -0.922046       -25.0901
 146   2.0000      -0.919021       -25.0078
 147   2.0000      -0.915472       -24.9113
 148   2.0000      -0.908840       -24.7308
 149   2.0000      -0.900971       -24.5167
 150   2.0000      -0.899465       -24.4757
 151   2.0000      -0.892779       -24.2938
 152   2.0000      -0.888676       -24.1821
 153   2.0000      -0.883189       -24.0328
 154   2.0000      -0.879948       -23.9446
 155   2.0000      -0.876342       -23.8465
 156   2.0000      -0.869099       -23.6494
 157   2.0000      -0.862485       -23.4694
 158   2.0000      -0.856863       -23.3164
 159   2.0000      -0.850306       -23.1380
 160   2.0000      -0.842993       -22.9390
 161   2.0000      -0.835591       -22.7376
 162   2.0000      -0.830179       -22.5903
 163   2.0000      -0.822412       -22.3790
 164   2.0000      -0.809788       -22.0355
 165   2.0000      -0.802683       -21.8421
 166   2.0000      -0.784771       -21.3547
 167   2.0000      -0.776764       -21.1368
 168   2.0000      -0.769558       -20.9407
 169   2.0000      -0.759179       -20.6583
 170   2.0000      -0.751675       -20.4541
 171   2.0000      -0.746132       -20.3033
 172   2.0000      -0.735617       -20.0172
 173   2.0000      -0.724665       -19.7191
 174   2.0000      -0.717212       -19.5163
 175   2.0000      -0.714403       -19.4399
 176   2.0000      -0.708099       -19.2684
 177   2.0000      -0.705464       -19.1966
 178   2.0000      -0.704313       -19.1653
 179   2.0000      -0.701736       -19.0952
 180   2.0000      -0.689926       -18.7739
 181   2.0000      -0.682947       -18.5839
 182   2.0000      -0.681486       -18.5442
 183   2.0000      -0.675393       -18.3784
 184   2.0000      -0.671193       -18.2641
 185   2.0000      -0.669189       -18.2096
 186   2.0000      -0.659872       -17.9560
 187   2.0000      -0.654137       -17.8000
 188   2.0000      -0.650682       -17.7060
 189   2.0000      -0.645676       -17.5697
 190   2.0000      -0.640749       -17.4357
 191   2.0000      -0.640480       -17.4283
 192   2.0000      -0.636965       -17.3327
 193   2.0000      -0.636334       -17.3155
 194   2.0000      -0.631872       -17.1941
 195   2.0000      -0.629898       -17.1404
 196   2.0000      -0.626360       -17.0441
 197   2.0000      -0.618954       -16.8426
 198   2.0000      -0.616383       -16.7726
 199   2.0000      -0.614245       -16.7145
 200   2.0000      -0.607089       -16.5197
 201   2.0000      -0.597039       -16.2463
 202   2.0000      -0.593124       -16.1397
 203   2.0000      -0.590105       -16.0576
 204   2.0000      -0.579214       -15.7612
 205   2.0000      -0.578897       -15.7526
 206   2.0000      -0.573723       -15.6118
 207   2.0000      -0.571128       -15.5412
 208   2.0000      -0.567318       -15.4375
 209   2.0000      -0.565780       -15.3957
 210   2.0000      -0.560650       -15.2561
 211   2.0000      -0.558709       -15.2032
 212   2.0000      -0.555381       -15.1127
 213   2.0000      -0.552507       -15.0345
 214   2.0000      -0.552280       -15.0283
 215   2.0000      -0.550719       -14.9858
 216   2.0000      -0.550225       -14.9724
 217   2.0000      -0.547305       -14.8929
 218   2.0000      -0.543249       -14.7826
 219   2.0000      -0.538685       -14.6584
 220   2.0000      -0.532967       -14.5028
 221   2.0000      -0.531925       -14.4744
 222   2.0000      -0.530976       -14.4486
 223   2.0000      -0.528715       -14.3871
 224   2.0000      -0.528110       -14.3706
 225   2.0000      -0.526264       -14.3204
 226   2.0000      -0.521728       -14.1969
 227   2.0000      -0.521434       -14.1889
 228   2.0000      -0.520271       -14.1573
 229   2.0000      -0.514845       -14.0097
 230   2.0000      -0.514280       -13.9943
 231   2.0000      -0.511509       -13.9189
 232   2.0000      -0.511046       -13.9063
 233   2.0000      -0.510979       -13.9044
 234   2.0000      -0.507307       -13.8045
 235   2.0000      -0.504018       -13.7150
 236   2.0000      -0.499933       -13.6039
 237   2.0000      -0.495270       -13.4770
 238   2.0000      -0.493324       -13.4240
 239   2.0000      -0.491974       -13.3873
 240   2.0000      -0.489678       -13.3248
 241   2.0000      -0.489567       -13.3218
 242   2.0000      -0.489486       -13.3196
 243   2.0000      -0.481728       -13.1085
 244   2.0000      -0.481054       -13.0901
 245   2.0000      -0.477561       -12.9951
 246   2.0000      -0.476196       -12.9579
 247   2.0000      -0.471928       -12.8418
 248   2.0000      -0.469259       -12.7692
 249   2.0000      -0.468652       -12.7527
 250   2.0000      -0.465924       -12.6784
 251   2.0000      -0.463381       -12.6092
 252   2.0000      -0.462282       -12.5793
 253   2.0000      -0.460448       -12.5294
 254   2.0000      -0.456185       -12.4134
 255   2.0000      -0.454602       -12.3704
 256   2.0000      -0.453212       -12.3325
 257   2.0000      -0.451773       -12.2934
 258   2.0000      -0.450092       -12.2476
 259   2.0000      -0.445761       -12.1298
 260   2.0000      -0.443558       -12.0698
 261   2.0000      -0.442939       -12.0530
 262   2.0000      -0.441950       -12.0261
 263   2.0000      -0.441642       -12.0177
 264   2.0000      -0.439026       -11.9465
 265   2.0000      -0.438965       -11.9449
 266   2.0000      -0.437720       -11.9110
 267   2.0000      -0.436085       -11.8665
 268   2.0000      -0.435643       -11.8545
 269   2.0000      -0.430672       -11.7192
 270   2.0000      -0.429764       -11.6945
 271   2.0000      -0.424933       -11.5630
 272   2.0000      -0.424260       -11.5447
 273   2.0000      -0.421908       -11.4807
 274   2.0000      -0.421178       -11.4608
 275   2.0000      -0.418913       -11.3992
 276   2.0000      -0.415115       -11.2959
 277   2.0000      -0.410507       -11.1705
 278   2.0000      -0.401357       -10.9215
 279   2.0000      -0.401168       -10.9163
 280   2.0000      -0.399330       -10.8663
 281   2.0000      -0.393728       -10.7139
 282   2.0000      -0.392786       -10.6882
 283   2.0000      -0.386626       -10.5206
 284   2.0000      -0.384994       -10.4762
 285   2.0000      -0.384675       -10.4675
 286   2.0000      -0.383482       -10.4351
 287   2.0000      -0.377873       -10.2824
 288   2.0000      -0.376266       -10.2387
 289   2.0000      -0.370067       -10.0700
 290   2.0000      -0.369285       -10.0488
 291   2.0000      -0.364386        -9.9155
 292   2.0000      -0.355570        -9.6756
 293   2.0000      -0.351994        -9.5782
 294   2.0000      -0.349149        -9.5008
 295   2.0000      -0.338786        -9.2188
 296   2.0000      -0.331170        -9.0116
 297   2.0000      -0.330644        -8.9973
 298   2.0000      -0.324200        -8.8219
 299   2.0000      -0.309981        -8.4350
 300   2.0000      -0.308938        -8.4066
 301   2.0000      -0.303687        -8.2637
 302   2.0000      -0.297969        -8.1081
 303   2.0000      -0.290843        -7.9142
 304   2.0000      -0.272226        -7.4077
 305   2.0000      -0.239784        -6.5248
 306   0.0000      -0.121945        -3.3183
 307   0.0000      -0.099901        -2.7184
 308   0.0000      -0.081937        -2.2296
 309   0.0000      -0.071814        -1.9541
 310   0.0000      -0.065142        -1.7726

MULLIKEN ATOMIC CHARGES
-----------------------
   0 C :    0.327318
   1 C :   -0.340493
   2 C :   -0.185894
   3 N :    0.153682
   4 C :   -0.196701
   5 N :    0.152248
   6 C :    0.008607
   7 C :   -0.001623
   8 C :   -0.066033
   9 C :    0.113422
  10 C :   -0.090711
  11 C :   -0.017561
  12 S :    0.195765
  13 C :   -0.125176
  14 C :    0.041916
  15 Br:    0.031734
  16 C :    0.171075
  17 O :   -0.233824
  18 C :   -0.130859
  19 C :    0.031209
  20 N :   -0.015562
  21 C :   -0.112730
  22 S :    0.186368
  23 C :    0.007786
  24 N :    0.273542
  25 O :   -0.236839
  26 O :   -0.253149
  27 C :    0.004681
  28 C :    0.136975
  29 C :   -0.056768
  30 C :    0.002476
  31 C :   -0.089811
  32 C :   -0.019035
  33 C :   -0.326506
  34 N :    0.215660
  35 C :    0.159351
  36 C :   -0.226893
  37 S :    0.153970
  38 S :    0.197923
  39 C :   -0.221610
  40 C :    0.162440
  41 C :   -0.022873
  42 C :   -0.323100
  43 N :    0.209340
  44 C :   -0.078394
  45 S :    0.153118
  46 C :   -0.027791
  47 C :   -0.032903
  48 C :    0.045332
  49 C :    0.035552
  50 C :   -0.019777
  51 S :    0.074744
  52 C :   -0.050796
  53 C :    0.036175
  54 C :    0.046398
  55 C :   -0.018435
  56 S :    0.108362
  57 C :    0.003753
  58 C :    0.015595
  59 C :   -0.122357
  60 C :    0.140112
  61 O :   -0.153951
  62 C :    0.004640
  63 C :   -0.086630
  64 C :    0.103860
  65 C :    0.104378
  66 C :   -0.101315
  67 C :    0.303590
  68 C :   -0.030501
  69 C :   -0.013504
  70 F :   -0.191586
  71 C :   -0.092794
  72 C :    0.045813
  73 C :    0.289433
  74 C :   -0.338566
  75 C :   -0.219143
  76 N :    0.158144
  77 C :   -0.176589
  78 N :    0.141394
  79 H :   -0.011743
  80 H :   -0.003268
  81 H :   -0.001633
  82 H :    0.046987
  83 H :    0.189843
  84 H :    0.023942
  85 H :    0.004936
  86 H :    0.018329
  87 H :    0.023693
  88 H :    0.007424
  89 H :   -0.001942
  90 H :    0.001460
  91 H :    0.006598
  92 H :    0.012362
  93 H :    0.017024
  94 H :   -0.015318
  95 H :   -0.002452
  96 H :    0.000896
  97 H :   -0.010646
  98 H :   -0.005589
Sum of atomic charges:   -0.0000000

LOEWDIN ATOMIC CHARGES
----------------------
   0 C :    0.077961
   1 C :   -0.144470
   2 C :   -0.020044
   3 N :   -0.049281
   4 C :   -0.020403
   5 N :   -0.049420
   6 C :   -0.017831
   7 C :   -0.052632
   8 C :    0.024954
   9 C :   -0.033396
  10 C :   -0.142916
  11 C :   -0.005963
  12 S :    0.441568
  13 C :   -0.270045
  14 C :   -0.070160
  15 Br:    0.143082
  16 C :    0.099609
  17 O :   -0.180891
  18 C :   -0.144373
  19 C :    0.113810
  20 N :    0.076964
  21 C :   -0.110663
  22 S :    0.478333
  23 C :   -0.195737
  24 N :    0.272345
  25 O :   -0.203632
  26 O :   -0.219577
  27 C :    0.006517
  28 C :   -0.087662
  29 C :   -0.022315
  30 C :   -0.029654
  31 C :   -0.127318
  32 C :   -0.095144
  33 C :   -0.042324
  34 N :   -0.030578
  35 C :   -0.063510
  36 C :   -0.329405
  37 S :    0.456350
  38 S :    0.430951
  39 C :   -0.333155
  40 C :   -0.059248
  41 C :   -0.094158
  42 C :   -0.042269
  43 N :   -0.032476
  44 C :   -0.137169
  45 S :    0.449924
  46 C :   -0.052824
  47 C :   -0.147013
  48 C :   -0.010939
  49 C :   -0.030585
  50 C :   -0.154964
  51 S :    0.382059
  52 C :   -0.179686
  53 C :   -0.007900
  54 C :   -0.025956
  55 C :   -0.102134
  56 S :    0.403568
  57 C :   -0.060034
  58 C :    0.050391
  59 C :   -0.098147
  60 C :    0.078310
  61 O :   -0.155765
  62 C :   -0.057909
  63 C :    0.030417
  64 C :   -0.019701
  65 C :    0.002695
  66 C :   -0.042521
  67 C :    0.091804
  68 C :   -0.038905
  69 C :    0.002903
  70 F :   -0.066407
  71 C :    0.008142
  72 C :   -0.015707
  73 C :    0.067679
  74 C :   -0.146474
  75 C :   -0.023988
  76 N :   -0.058718
  77 C :   -0.019308
  78 N :   -0.058667
  79 H :    0.040985
  80 H :    0.042748
  81 H :    0.039475
  82 H :    0.037584
  83 H :    0.082121
  84 H :    0.049969
  85 H :    0.022353
  86 H :    0.044015
  87 H :    0.053589
  88 H :    0.041941
  89 H :    0.037310
  90 H :    0.037983
  91 H :    0.042329
  92 H :    0.039460
  93 H :    0.034627
  94 H :    0.038092
  95 H :    0.042871
  96 H :    0.040861
  97 H :    0.034748
  98 H :    0.038673

  Mayer bond orders larger than 0.100000
B(  0-C ,  1-C ) :   1.6353 B(  0-C ,  6-C ) :   1.0043 B(  0-C , 18-C ) :   1.0891
B(  1-C ,  2-C ) :   1.1412 B(  1-C ,  4-C ) :   1.1483 B(  2-C ,  3-N ) :   2.9699
B(  4-C ,  5-N ) :   2.9568 B(  6-C ,  7-C ) :   1.2734 B(  6-C , 11-C ) :   1.4242
B(  7-C ,  8-C ) :   1.4177 B(  7-C , 16-C ) :   0.9875 B(  8-C ,  9-C ) :   1.2429
B(  8-C , 79-H ) :   1.0184 B(  9-C , 10-C ) :   1.3077 B(  9-C , 14-C ) :   1.1654
B( 10-C , 11-C ) :   1.3192 B( 10-C , 12-S ) :   1.0924 B( 11-C , 80-H ) :   0.9807
B( 12-S , 13-C ) :   1.0900 B( 13-C , 14-C ) :   1.6143 B( 13-C , 15-Br) :   1.0231
B( 14-C , 81-H ) :   0.9998 B( 16-C , 17-O ) :   2.0082 B( 16-C , 18-C ) :   1.0095
B( 17-O , 83-H ) :   0.1453 B( 18-C , 19-C ) :   1.4612 B( 19-C , 20-N ) :   1.3347
B( 19-C , 82-H ) :   0.9314 B( 20-N , 21-C ) :   1.1986 B( 20-N , 83-H ) :   0.8177
B( 21-C , 22-S ) :   1.1383 B( 21-C , 28-C ) :   1.3702 B( 22-S , 23-C ) :   1.0829
B( 23-C , 24-N ) :   0.9557 B( 23-C , 27-C ) :   1.5153 B( 24-N , 25-O ) :   1.5431
B( 24-N , 26-O ) :   1.5180 B( 25-O , 26-O ) :   0.2660 B( 27-C , 28-C ) :   1.2137
B( 27-C , 84-H ) :   1.0008 B( 28-C , 29-C ) :   1.0799 B( 29-C , 30-C ) :   1.6930
B( 29-C , 85-H ) :   0.9658 B( 30-C , 31-C ) :   1.1731 B( 30-C , 86-H ) :   0.9673
B( 31-C , 32-C ) :   1.4874 B( 31-C , 37-S ) :   1.1169 B( 32-C , 33-C ) :   1.1775
B( 32-C , 35-C ) :   1.2486 B( 33-C , 34-N ) :   2.9871 B( 35-C , 36-C ) :   1.4151
B( 35-C , 40-C ) :   1.0509 B( 36-C , 37-S ) :   1.0959 B( 36-C , 38-S ) :   1.0834
B( 38-S , 39-C ) :   1.0866 B( 39-C , 40-C ) :   1.3909 B( 39-C , 45-S ) :   1.1016
B( 40-C , 41-C ) :   1.2785 B( 41-C , 42-C ) :   1.1885 B( 41-C , 44-C ) :   1.4409
B( 42-C , 43-N ) :   2.9779 B( 44-C , 45-S ) :   1.1000 B( 44-C , 46-C ) :   1.2222
B( 46-C , 47-C ) :   1.5595 B( 46-C , 87-H ) :   0.9614 B( 47-C , 48-C ) :   1.1411
B( 47-C , 51-S ) :   1.0344 B( 48-C , 49-C ) :   1.5910 B( 48-C , 88-H ) :   1.0010
B( 49-C , 50-C ) :   1.1849 B( 49-C , 89-H ) :   0.9940 B( 50-C , 51-S ) :   1.0599
B( 50-C , 52-C ) :   1.4945 B( 52-C , 53-C ) :   1.1992 B( 52-C , 56-S ) :   1.0457
B( 53-C , 54-C ) :   1.5645 B( 53-C , 90-H ) :   0.9958 B( 54-C , 55-C ) :   1.1653
B( 54-C , 91-H ) :   1.0003 B( 55-C , 56-S ) :   1.0787 B( 55-C , 57-C ) :   1.5233
B( 57-C , 58-C ) :   1.1989 B( 57-C , 92-H ) :   0.9624 B( 58-C , 59-C ) :   1.5555
B( 58-C , 93-H ) :   0.9353 B( 59-C , 60-C ) :   0.9577 B( 59-C , 73-C ) :   1.0750
B( 60-C , 61-O ) :   2.2491 B( 60-C , 62-C ) :   0.9211 B( 62-C , 63-C ) :   1.4782
B( 62-C , 72-C ) :   1.2152 B( 63-C , 64-C ) :   1.1863 B( 63-C , 94-H ) :   1.0145
B( 64-C , 65-C ) :   1.2561 B( 64-C , 69-C ) :   1.2368 B( 65-C , 66-C ) :   1.2058
B( 65-C , 71-C ) :   1.1983 B( 66-C , 67-C ) :   1.4399 B( 66-C , 95-H ) :   1.0058
B( 67-C , 68-C ) :   1.2566 B( 67-C , 70-F ) :   1.0873 B( 68-C , 69-C ) :   1.4580
B( 68-C , 96-H ) :   0.9932 B( 69-C , 97-H ) :   0.9964 B( 71-C , 72-C ) :   1.4672
B( 71-C , 98-H ) :   0.9921 B( 72-C , 73-C ) :   0.9906 B( 73-C , 74-C ) :   1.6086
B( 74-C , 75-C ) :   1.1663 B( 74-C , 77-C ) :   1.1343 B( 75-C , 76-N ) :   3.0081
B( 77-C , 78-N ) :   2.9735

-----------------------------------------------------------------------------
         ABSORPTION SPECTRUM VIA TRANSITION ELECTRIC DIPOLE MOMENTS
-----------------------------------------------------------------------------
State   Energy  Wavelength   fosc         T2         TX        TY        TZ
        (cm-1)    (nm)                  (au**2)     (au)      (au)      (au)
-----------------------------------------------------------------------------
   0   12112.9    825.6   1.486029002  40.38812  -0.93373  -1.92468  -5.98430
   1   21460.8    466.0   0.849086771  13.02509   3.58818   0.30369  -0.24043
   2   21669.7    461.5   0.279745772   4.24997   1.93036   0.33254   0.64272
   3   22529.8    443.9   0.026199762   0.38284  -0.32416  -0.15373  -0.50411
   4   23059.5    433.7   0.006062876   0.08656  -0.28493  -0.06230  -0.03859
   5   23489.2    425.7   0.214453216   3.00567   1.46250   0.19656  -0.91002
   6   24203.6    413.2   0.025794548   0.35085   0.50076   0.02665   0.31525
   7   24791.1    403.4   0.038818923   0.51549  -0.51414  -0.17682  -0.46892
   8   25788.1    387.8   0.021301267   0.27193  -0.28506  -0.04736   0.43409
   9   26669.4    375.0   0.371585852   4.58693   1.94111  -0.55717  -0.71316
  10   26806.8    373.0   0.193767732   2.37965  -1.43979   0.37969   0.40308
  11   27514.8    363.4   0.190152806   2.27516   1.10015  -0.57278  -0.85834
  12   27589.6    362.5   0.148441353   1.77127   0.30303   0.02109   1.29576
  13   28448.7    351.5   0.007075043   0.08187  -0.01660   0.06372   0.27846
  14   28818.8    347.0   0.013958719   0.15946  -0.17454  -0.12259  -0.33759
  15   29152.7    343.0   0.012407273   0.14011  -0.01183   0.09014   0.36311
  16   29801.3    335.6   1.015196011  11.21476  -0.91627  -1.14042  -3.01242
  17   30239.4    330.7   0.097140034   1.05755   0.54011   0.34179   0.80561
  18   30693.5    325.8   0.007179732   0.07701   0.27460   0.03933   0.00736
  19   31220.2    320.3   0.060005409   0.63275  -0.75273  -0.10928  -0.23280
  20   31795.1    314.5   0.292514332   3.02874   1.60937  -0.23480   0.61931
  21   32250.4    310.1   0.010025083   0.10234  -0.26217   0.09180  -0.15867
  22   32441.5    308.2   0.324572618   3.29372   1.39456  -0.28519   1.12587
  23   32589.1    306.9   0.182422844   1.84282  -0.31393  -0.51856  -1.21464
  24   33293.9    300.4   0.009766467   0.09657   0.30449  -0.03735   0.04961
  25   33571.1    297.9   0.034749240   0.34077  -0.28528   0.21032   0.46384
  26   33597.7    297.6   0.016704934   0.16369  -0.32205   0.23533   0.06772
  27   33770.1    296.1   0.016134637   0.15729   0.33808  -0.18571  -0.09223
  28   33860.7    295.3   0.035536795   0.34551  -0.30076   0.36915   0.34464
  29   33943.4    294.6   0.031114226   0.30177   0.11970  -0.14662  -0.51570
  30   33965.7    294.4   0.648305543   6.28368   0.43764  -0.74139  -2.35425
  31   34179.9    292.6   0.009506674   0.09157  -0.23850   0.18348   0.03193
  32   34736.2    287.9   0.075020598   0.71101   0.72391  -0.40903  -0.14024
  33   34877.0    286.7   0.014724837   0.13899  -0.24863   0.13560   0.24246
  34   35063.6    285.2   0.009153257   0.08594  -0.15443   0.12587   0.21505
  35   35477.3    281.9   0.000080382   0.00075  -0.01410   0.02130  -0.00968
  36   36292.7    275.5   0.008435105   0.07652   0.26030   0.08383   0.04161
  37   36521.3    273.8   0.042631290   0.38429   0.18287  -0.30331   0.50878
  38   36610.9    273.1   0.000019526   0.00018   0.00509  -0.00651   0.01036
  39   36997.3    270.3   0.051678767   0.45985   0.67354  -0.07789  -0.01138
  40   37225.3    268.6   0.058313234   0.51571   0.38175   0.09875   0.60019
  41   37405.9    267.3   0.026128843   0.22996  -0.40108   0.25266  -0.07253
  42   37637.0    265.7   0.287012885   2.51051  -1.30878   0.75179  -0.48209
  43   37862.5    264.1   0.322010441   2.79986   1.66447  -0.07129   0.15599
  44   38058.0    262.8   0.054315645   0.46985  -0.08500   0.57748   0.35936
  45   38321.1    261.0   0.026357720   0.22644   0.20897  -0.16928  -0.39257
  46   38627.8    258.9   0.077425885   0.65987  -0.78517   0.18494   0.09583
  47   38827.1    257.6   0.049122246   0.41650   0.53513  -0.33725  -0.12807
  48   38954.7    256.7   0.064074999   0.54151   0.57449  -0.39724  -0.23168
  49   39263.7    254.7   0.010699636   0.08971   0.24301  -0.17254  -0.02981
  50   39557.5    252.8   0.032655698   0.27177  -0.23053   0.27503   0.37814
  51   40152.7    249.0   0.005233192   0.04291  -0.13677  -0.04056  -0.15018

FINAL SINGLE POINT ENERGY     -8417.371065535612

DIPOLE MOMENT
-------------
                                X             Y             Z
Electronic contribution:   -117.87144      -3.21542      30.53226
Nuclear contribution   :    117.18261       3.72422     -33.58889
                        -----------------------------------------
Total Dipole Moment    :     -0.68883       0.50881      -3.05662
                        -----------------------------------------
Magnitude (a.u.)       :      3.17432
Magnitude (Debye)      :      8.06849

Rotational constants in cm-1:     0.000566     0.000204     0.000152
Rotational constants in MHz :    16.979210     6.121759     4.546144

                             ****ORCA TERMINATED NORMALLY****
TOTAL RUN TIME: 0 days 0 hours 10 minutes 10 seconds 364 msec
