                         Program Version 4.2.0 -  RELEASE  -
|  1> # ORCA input file
|  2> # SCF done       -171.038034559328          0.000452681057
|  3> ! CAM-B3LYP def2-SVP def2/J RIJCOSX Grid4 TightSCF
|  4> %maxcore 5000
|  5> %tddft
|  6>     Mode sTDDFT
|  7>     Ethresh 5.0
|  8>     maxcore 5000
|  9> end
| 10>
| 11> %pal
| 12>   nprocs 6
| 13>   end
| 14> * xyz 0 1
| 15>    C      -12.25634         0.38357         3.46136
| 16>    C      -12.19484         0.62118         4.81123
| 17>    C      -12.10222        -0.38877         5.79084
| 18>    N      -12.01700        -1.16314         6.63407
| 19>    C      -12.21479         1.90009         5.40210
| 20>    N      -12.22841         2.91787         5.93486
| 21>    C      -12.28986        -0.93103         2.83054
| 22>    C      -12.39383        -0.76282         1.42739
| 23>    C      -12.45372        -1.82203         0.55553
| 24>    C      -12.41579        -3.11272         1.09444
| 25>    C      -12.30985        -3.27197         2.49669
| 26>    C      -12.24508        -2.19930         3.37789
| 27>    S      -12.27397        -4.94872         2.94864
| 28>    C      -12.40214        -5.40760         1.27144
| 29>    C      -12.46827        -4.36020         0.41512
| 30>   Br      -12.43344        -7.22451         0.80973
| 31>    C      -12.41741         0.67517         1.11034
| 32>    O      -12.38359         1.18199         0.00412
| 33>    C      -12.36144         1.37201         2.40930
| 34>    C      -12.24960         2.72957         2.55401
| 35>    N      -12.54537         3.64900         1.61413
| 36>    C      -13.44383         3.54330         0.58014
| 37>    S      -14.86253         2.55611         0.71428
| 38>    C      -15.45240         3.23645        -0.76213
| 39>    N      -16.67845         2.76457        -1.24873
| 40>    O      -17.10315         3.24670        -2.28119
| 41>    O      -17.23195         1.90034        -0.59098
| 42>    C      -14.61558         4.17146        -1.30977
| 43>    C      -13.44318         4.35820        -0.55160
| 44>    C      -12.40135         5.27979        -0.92527
| 45>    C      -11.10449         5.13989        -0.59357
| 46>    N      -10.09299         5.99715        -0.92424
| 47>    C      -10.20623         7.30533        -1.37996
| 48>    C      -11.20849         8.18593        -1.09750
| 49>    S      -10.92375         9.73737        -1.77518
| 50>    C       -9.43447         9.21600        -2.45437
| 51>    C       -9.16991         7.90549        -2.17703
| 52>    N       -8.05761         7.19186        -2.57572
| 53>    C       -6.90994         7.73808        -3.07573
| 54>    C       -5.91181         7.01285        -3.62091
| 55>    C       -4.69453         7.56247        -4.09052
| 56>    S       -4.30635         9.25189        -4.02144
| 57>    C       -2.73456         9.04137        -4.75017
| 58>    C       -2.53031         7.68874        -5.03912
| 59>    C       -3.63641         6.85447        -4.66432
| 60>    N       -3.61993         5.51994        -4.85931
| 61>    C       -2.54241         5.04135        -5.40861
| 62>    N       -1.45029         5.72235        -5.80184
| 63>    C       -1.44108         7.01556        -5.62271
| 64>    C       -1.85510        10.12132        -4.97014
| 65>    C       -2.13119        11.40841        -4.63940
| 66>    C       -1.26946        12.52409        -4.82943
| 67>    C       -1.62262        13.85857        -4.44641
| 68>    C       -0.57643        14.71207        -4.75430
| 69>    C       -0.42181        16.10158        -4.58030
| 70>    C        0.75641        16.66674        -4.99477
| 71>    C        1.22573        18.01678        -4.96438
| 72>    C        2.49655        18.05822        -5.51150
| 73>    C        2.85223        16.73002        -5.89826
| 74>    C        1.80707        15.86775        -5.59155
| 75>    C        1.65503        14.48169        -5.76528
| 76>    C        0.47400        13.91113        -5.34982
| 77>    C        0.00898        12.56672        -5.37906
| 78>    C        3.36240        19.20018        -5.69077
| 79>    C        3.08037        20.44842        -5.32817
| 80>    H      -12.53444        -1.66166        -0.50805
| 81>    H      -12.16333        -2.37287         4.43772
| 82>    H      -12.55134        -4.46186        -0.65151
| 83>    H      -11.86939         3.14412         3.47847
| 84>    H      -12.14539         4.57549         1.72421
| 85>    H      -14.83438         4.68119        -2.23045
| 86>    H      -12.70324         6.08882        -1.57243
| 87>    H      -10.76388         4.25260        -0.07685
| 88>    H       -9.15001         5.67085        -0.77704
| 89>    H      -12.08267         8.02653        -0.50132
| 90>    H       -8.85480         9.90356        -3.03405
| 91>    H       -8.15486         6.18923        -2.65892
| 92>    H       -6.82389         8.80897        -2.97202
| 93>    H       -5.99459         5.94017        -3.72933
| 94>    H       -2.50910         3.97211        -5.57317
| 95>    H       -0.55238         7.54389        -5.94664
| 96>    H       -0.90798         9.87197        -5.42760
| 97>    H       -3.09069        11.62224        -4.18306
| 98>    H       -2.55765        14.13472        -3.99166
| 99>    H       -1.21161        16.68996        -4.13412
|100>    H        0.66623        18.84755        -4.57699
|101>    H        3.78733        16.45533        -6.35420
|102>    H        2.44455        13.89268        -6.21086
|103>    H        0.56748        11.73453        -5.76508
|104>    H        4.31308        18.98375        -6.16258
|105>    H        2.14947        20.71011        -4.85516
|106>    H        3.77457        21.25400        -5.49286
|107> *
|108>
|109>                          ****END OF INPUT****

CARTESIAN COORDINATES (ANGSTROEM)
---------------------------------
  C    -12.256340    0.383570    3.461360
  C    -12.194840    0.621180    4.811230
  C    -12.102220   -0.388770    5.790840
  N    -12.017000   -1.163140    6.634070
  C    -12.214790    1.900090    5.402100
  N    -12.228410    2.917870    5.934860
  C    -12.289860   -0.931030    2.830540
  C    -12.393830   -0.762820    1.427390
  C    -12.453720   -1.822030    0.555530
  C    -12.415790   -3.112720    1.094440
  C    -12.309850   -3.271970    2.496690
  C    -12.245080   -2.199300    3.377890
  S    -12.273970   -4.948720    2.948640
  C    -12.402140   -5.407600    1.271440
  C    -12.468270   -4.360200    0.415120
  Br   -12.433440   -7.224510    0.809730
  C    -12.417410    0.675170    1.110340
  O    -12.383590    1.181990    0.004120
  C    -12.361440    1.372010    2.409300
  C    -12.249600    2.729570    2.554010
  N    -12.545370    3.649000    1.614130
  C    -13.443830    3.543300    0.580140
  S    -14.862530    2.556110    0.714280
  C    -15.452400    3.236450   -0.762130
  N    -16.678450    2.764570   -1.248730
  O    -17.103150    3.246700   -2.281190
  O    -17.231950    1.900340   -0.590980
  C    -14.615580    4.171460   -1.309770
  C    -13.443180    4.358200   -0.551600
  C    -12.401350    5.279790   -0.925270
  C    -11.104490    5.139890   -0.593570
  N    -10.092990    5.997150   -0.924240
  C    -10.206230    7.305330   -1.379960
  C    -11.208490    8.185930   -1.097500
  S    -10.923750    9.737370   -1.775180
  C     -9.434470    9.216000   -2.454370
  C     -9.169910    7.905490   -2.177030
  N     -8.057610    7.191860   -2.575720
  C     -6.909940    7.738080   -3.075730
  C     -5.911810    7.012850   -3.620910
  C     -4.694530    7.562470   -4.090520
  S     -4.306350    9.251890   -4.021440
  C     -2.734560    9.041370   -4.750170
  C     -2.530310    7.688740   -5.039120
  C     -3.636410    6.854470   -4.664320
  N     -3.619930    5.519940   -4.859310
  C     -2.542410    5.041350   -5.408610
  N     -1.450290    5.722350   -5.801840
  C     -1.441080    7.015560   -5.622710
  C     -1.855100   10.121320   -4.970140
  C     -2.131190   11.408410   -4.639400
  C     -1.269460   12.524090   -4.829430
  C     -1.622620   13.858570   -4.446410
  C     -0.576430   14.712070   -4.754300
  C     -0.421810   16.101580   -4.580300
  C      0.756410   16.666740   -4.994770
  C      1.225730   18.016780   -4.964380
  C      2.496550   18.058220   -5.511500
  C      2.852230   16.730020   -5.898260
  C      1.807070   15.867750   -5.591550
  C      1.655030   14.481690   -5.765280
  C      0.474000   13.911130   -5.349820
  C      0.008980   12.566720   -5.379060
  C      3.362400   19.200180   -5.690770
  C      3.080370   20.448420   -5.328170
  H    -12.534440   -1.661660   -0.508050
  H    -12.163330   -2.372870    4.437720
  H    -12.551340   -4.461860   -0.651510
  H    -11.869390    3.144120    3.478470
  H    -12.145390    4.575490    1.724210
  H    -14.834380    4.681190   -2.230450
  H    -12.703240    6.088820   -1.572430
  H    -10.763880    4.252600   -0.076850
  H     -9.150010    5.670850   -0.777040
  H    -12.082670    8.026530   -0.501320
  H     -8.854800    9.903560   -3.034050
  H     -8.154860    6.189230   -2.658920
  H     -6.823890    8.808970   -2.972020
  H     -5.994590    5.940170   -3.729330
  H     -2.509100    3.972110   -5.573170
  H     -0.552380    7.543890   -5.946640
  H     -0.907980    9.871970   -5.427600
  H     -3.090690   11.622240   -4.183060
  H     -2.557650   14.134720   -3.991660
  H     -1.211610   16.689960   -4.134120
  H      0.666230   18.847550   -4.576990
  H      3.787330   16.455330   -6.354200
  H      2.444550   13.892680   -6.210860
  H      0.567480   11.734530   -5.765080
  H      4.313080   18.983750   -6.162580
  H      2.149470   20.710110   -4.855160
  H      3.774570   21.254000   -5.492860

 Total Charge           Charge          ....    0
 Multiplicity           Mult            ....    1
 Number of Electrons    NEL             ....  500
 Basis Dimension        Dim             .... 1079

ORBITAL ENERGIES
----------------

  NO   OCC          E(Eh)            E(eV)
   0   2.0000    -482.885129    -13139.9724
   1   2.0000     -88.978786     -2421.2359
   2   2.0000     -88.975246     -2421.1395
   3   2.0000     -88.965691     -2420.8795
   4   2.0000     -88.961226     -2420.7580
   5   2.0000     -62.562850     -1702.4217
   6   2.0000     -56.396803     -1534.6350
   7   2.0000     -56.394082     -1534.5610
   8   2.0000     -56.394051     -1534.5601
   9   2.0000     -19.235033      -523.4118
  10   2.0000     -19.234950      -523.4096
  11   2.0000     -19.217066      -522.9229
  12   2.0000     -14.646535      -398.5525
  13   2.0000     -14.503751      -394.6671
  14   2.0000     -14.466879      -393.6638
  15   2.0000     -14.461636      -393.5211
  16   2.0000     -14.419389      -392.3715
  17   2.0000     -14.414001      -392.2249
  18   2.0000     -14.401528      -391.8855
  19   2.0000     -14.399071      -391.8187
  20   2.0000     -10.369231      -282.1611
  21   2.0000     -10.368304      -282.1359
  22   2.0000     -10.360200      -281.9154
  23   2.0000     -10.358580      -281.8713
  24   2.0000     -10.345190      -281.5069
  25   2.0000     -10.340838      -281.3885
  26   2.0000     -10.340794      -281.3873
  27   2.0000     -10.336763      -281.2776
  28   2.0000     -10.329559      -281.0816
  29   2.0000     -10.329122      -281.0697
  30   2.0000     -10.325091      -280.9600
  31   2.0000     -10.323040      -280.9042
  32   2.0000     -10.322659      -280.8938
  33   2.0000     -10.321497      -280.8622
  34   2.0000     -10.321308      -280.8571
  35   2.0000     -10.317491      -280.7532
  36   2.0000     -10.308354      -280.5046
  37   2.0000     -10.308337      -280.5041
  38   2.0000     -10.307595      -280.4839
  39   2.0000     -10.306086      -280.4429
  40   2.0000     -10.303450      -280.3711
  41   2.0000     -10.302788      -280.3531
  42   2.0000     -10.302692      -280.3505
  43   2.0000     -10.302657      -280.3496
  44   2.0000     -10.302587      -280.3476
  45   2.0000     -10.302235      -280.3381
  46   2.0000     -10.301222      -280.3105
  47   2.0000     -10.299238      -280.2565
  48   2.0000     -10.298051      -280.2242
  49   2.0000     -10.296358      -280.1781
  50   2.0000     -10.295179      -280.1461
  51   2.0000     -10.292993      -280.0866
  52   2.0000     -10.286248      -279.9030
  53   2.0000     -10.285277      -279.8766
  54   2.0000     -10.282192      -279.7927
  55   2.0000     -10.281358      -279.7700
  56   2.0000     -10.279911      -279.7306
  57   2.0000     -10.277548      -279.6663
  58   2.0000     -10.276569      -279.6396
  59   2.0000     -10.276093      -279.6267
  60   2.0000     -10.272985      -279.5421
  61   2.0000     -10.270148      -279.4649
  62   2.0000     -10.269040      -279.4348
  63   2.0000     -10.267633      -279.3965
  64   2.0000     -10.265181      -279.3298
  65   2.0000     -10.265126      -279.3283
  66   2.0000     -10.264500      -279.3112
  67   2.0000     -10.264193      -279.3029
  68   2.0000     -10.257576      -279.1228
  69   2.0000      -8.792285      -239.2502
  70   2.0000      -8.073993      -219.7045
  71   2.0000      -8.071317      -219.6317
  72   2.0000      -8.060677      -219.3422
  73   2.0000      -8.057085      -219.2444
  74   2.0000      -6.628609      -180.3736
  75   2.0000      -6.614007      -179.9763
  76   2.0000      -6.613804      -179.9707
  77   2.0000      -6.043611      -164.4550
  78   2.0000      -6.040999      -164.3839
  79   2.0000      -6.039259      -164.3366
  80   2.0000      -6.036723      -164.2676
  81   2.0000      -6.035501      -164.2343
  82   2.0000      -6.032522      -164.1533
  83   2.0000      -6.029548      -164.0723
  84   2.0000      -6.026603      -163.9922
  85   2.0000      -6.025822      -163.9710
  86   2.0000      -6.023375      -163.9044
  87   2.0000      -6.022222      -163.8730
  88   2.0000      -6.019019      -163.7858
  89   2.0000      -2.744463       -74.6806
  90   2.0000      -2.740412       -74.5704
  91   2.0000      -2.740211       -74.5649
  92   2.0000      -2.728628       -74.2498
  93   2.0000      -2.728621       -74.2496
  94   2.0000      -1.316476       -35.8231
  95   2.0000      -1.135431       -30.8967
  96   2.0000      -1.134159       -30.8620
  97   2.0000      -1.100140       -29.9363
  98   2.0000      -1.078727       -29.3537
  99   2.0000      -1.069995       -29.1160
 100   2.0000      -1.050699       -28.5910
 101   2.0000      -1.023641       -27.8547
 102   2.0000      -1.014470       -27.6051
 103   2.0000      -1.003700       -27.3121
 104   2.0000      -0.995970       -27.1017
 105   2.0000      -0.989427       -26.9237
 106   2.0000      -0.988235       -26.8913
 107   2.0000      -0.986595       -26.8466
 108   2.0000      -0.976881       -26.5823
 109   2.0000      -0.964664       -26.2499
 110   2.0000      -0.961079       -26.1523
 111   2.0000      -0.942566       -25.6485
 112   2.0000      -0.916705       -24.9448
 113   2.0000      -0.909028       -24.7359
 114   2.0000      -0.906874       -24.6773
 115   2.0000      -0.893854       -24.3230
 116   2.0000      -0.891035       -24.2463
 117   2.0000      -0.886082       -24.1115
 118   2.0000      -0.878702       -23.9107
 119   2.0000      -0.872408       -23.7394
 120   2.0000      -0.864609       -23.5272
 121   2.0000      -0.854329       -23.2475
 122   2.0000      -0.849997       -23.1296
 123   2.0000      -0.849047       -23.1037
 124   2.0000      -0.843130       -22.9427
 125   2.0000      -0.829454       -22.5706
 126   2.0000      -0.822171       -22.3724
 127   2.0000      -0.819653       -22.3039
 128   2.0000      -0.798149       -21.7187
 129   2.0000      -0.797293       -21.6954
 130   2.0000      -0.793706       -21.5978
 131   2.0000      -0.768703       -20.9175
 132   2.0000      -0.763564       -20.7776
 133   2.0000      -0.753338       -20.4994
 134   2.0000      -0.749074       -20.3833
 135   2.0000      -0.744465       -20.2579
 136   2.0000      -0.736824       -20.0500
 137   2.0000      -0.731270       -19.8989
 138   2.0000      -0.720692       -19.6110
 139   2.0000      -0.710245       -19.3267
 140   2.0000      -0.703441       -19.1416
 141   2.0000      -0.690404       -18.7868
 142   2.0000      -0.687834       -18.7169
 143   2.0000      -0.685096       -18.6424
 144   2.0000      -0.676947       -18.4207
 145   2.0000      -0.674569       -18.3560
 146   2.0000      -0.669885       -18.2285
 147   2.0000      -0.660977       -17.9861
 148   2.0000      -0.657110       -17.8809
 149   2.0000      -0.652878       -17.7657
 150   2.0000      -0.643543       -17.5117
 151   2.0000      -0.641006       -17.4427
 152   2.0000      -0.639697       -17.4071
 153   2.0000      -0.631234       -17.1768
 154   2.0000      -0.627839       -17.0844
 155   2.0000      -0.623716       -16.9722
 156   2.0000      -0.622694       -16.9444
 157   2.0000      -0.620477       -16.8840
 158   2.0000      -0.615254       -16.7419
 159   2.0000      -0.607406       -16.5284
 160   2.0000      -0.605637       -16.4802
 161   2.0000      -0.603812       -16.4306
 162   2.0000      -0.594708       -16.1828
 163   2.0000      -0.587872       -15.9968
 164   2.0000      -0.584831       -15.9141
 165   2.0000      -0.582501       -15.8507
 166   2.0000      -0.580524       -15.7969
 167   2.0000      -0.575703       -15.6657
 168   2.0000      -0.566899       -15.4261
 169   2.0000      -0.558151       -15.1881
 170   2.0000      -0.555388       -15.1129
 171   2.0000      -0.549103       -14.9418
 172   2.0000      -0.546700       -14.8765
 173   2.0000      -0.545659       -14.8481
 174   2.0000      -0.542035       -14.7495
 175   2.0000      -0.537873       -14.6363
 176   2.0000      -0.532282       -14.4841
 177   2.0000      -0.527401       -14.3513
 178   2.0000      -0.526627       -14.3303
 179   2.0000      -0.524635       -14.2760
 180   2.0000      -0.521552       -14.1922
 181   2.0000      -0.519346       -14.1321
 182   2.0000      -0.516337       -14.0502
 183   2.0000      -0.512165       -13.9367
 184   2.0000      -0.509615       -13.8673
 185   2.0000      -0.508642       -13.8409
 186   2.0000      -0.505253       -13.7486
 187   2.0000      -0.504445       -13.7267
 188   2.0000      -0.501624       -13.6499
 189   2.0000      -0.498849       -13.5744
 190   2.0000      -0.495257       -13.4766
 191   2.0000      -0.494614       -13.4591
 192   2.0000      -0.494440       -13.4544
 193   2.0000      -0.489623       -13.3233
 194   2.0000      -0.486275       -13.2322
 195   2.0000      -0.483827       -13.1656
 196   2.0000      -0.477551       -12.9948
 197   2.0000      -0.475798       -12.9471
 198   2.0000      -0.473391       -12.8816
 199   2.0000      -0.469247       -12.7689
 200   2.0000      -0.465830       -12.6759
 201   2.0000      -0.460920       -12.5423
 202   2.0000      -0.460720       -12.5368
 203   2.0000      -0.459092       -12.4925
 204   2.0000      -0.456600       -12.4247
 205   2.0000      -0.453165       -12.3313
 206   2.0000      -0.451902       -12.2969
 207   2.0000      -0.449073       -12.2199
 208   2.0000      -0.448138       -12.1945
 209   2.0000      -0.445594       -12.1252
 210   2.0000      -0.444543       -12.0966
 211   2.0000      -0.442095       -12.0300
 212   2.0000      -0.439810       -11.9678
 213   2.0000      -0.439137       -11.9495
 214   2.0000      -0.437217       -11.8973
 215   2.0000      -0.433352       -11.7921
 216   2.0000      -0.428920       -11.6715
 217   2.0000      -0.427097       -11.6219
 218   2.0000      -0.422210       -11.4889
 219   2.0000      -0.416609       -11.3365
 220   2.0000      -0.413547       -11.2532
 221   2.0000      -0.412342       -11.2204
 222   2.0000      -0.409257       -11.1364
 223   2.0000      -0.406369       -11.0579
 224   2.0000      -0.392235       -10.6733
 225   2.0000      -0.388149       -10.5621
 226   2.0000      -0.382849       -10.4178
 227   2.0000      -0.377896       -10.2831
 228   2.0000      -0.374524       -10.1913
 229   2.0000      -0.372254       -10.1295
 230   2.0000      -0.369453       -10.0533
 231   2.0000      -0.367383        -9.9970
 232   2.0000      -0.367105        -9.9894
 233   2.0000      -0.363202        -9.8832
 234   2.0000      -0.361701        -9.8424
 235   2.0000      -0.352090        -9.5809
 236   2.0000      -0.350243        -9.5306
 237   2.0000      -0.330028        -8.9805
 238   2.0000      -0.328514        -8.9393
 239   2.0000      -0.324962        -8.8427
 240   2.0000      -0.316620        -8.6157
 241   2.0000      -0.315949        -8.5974
 242   2.0000      -0.315367        -8.5816
 243   2.0000      -0.298074        -8.1110
 244   2.0000      -0.292958        -7.9718
 245   2.0000      -0.288444        -7.8490
 246   2.0000      -0.268194        -7.2979
 247   2.0000      -0.258645        -7.0381
 248   2.0000      -0.250621        -6.8197
 249   2.0000      -0.213183        -5.8010
 250   0.0000      -0.099791        -2.7155
 251   0.0000      -0.085121        -2.3163
 252   0.0000      -0.063628        -1.7314
 253   0.0000      -0.063236        -1.7207
 254   0.0000      -0.038670        -1.0523

MULLIKEN ATOMIC CHARGES
-----------------------
   0 C :    0.308274
   1 C :   -0.342466
   2 C :   -0.185678
   3 N :    0.151473
   4 C :   -0.210641
   5 N :    0.142923
   6 C :    0.014876
   7 C :   -0.003182
   8 C :   -0.069132
   9 C :    0.115687
  10 C :   -0.091110
  11 C :   -0.022226
  12 S :    0.187203
  13 C :   -0.121665
  14 C :    0.036415
  15 Br:    0.024908
  16 C :    0.138487
  17 O :   -0.158153
  18 C :   -0.163198
  19 C :    0.030570
  20 N :   -0.018307
  21 C :   -0.086075
  22 S :    0.189573
  23 C :    0.000462
  24 N :    0.275234
  25 O :   -0.248913
  26 O :   -0.262357
  27 C :    0.001202
  28 C :    0.131894
  29 C :   -0.089732
  30 C :    0.034112
  31 N :   -0.075825
  32 C :    0.119874
  33 C :   -0.189272
  34 S :    0.122823
  35 C :   -0.216008
  36 C :    0.135470
  37 N :   -0.063521
  38 C :    0.052893
  39 C :   -0.022607
  40 C :   -0.111389
  41 S :    0.109506
  42 C :   -0.085065
  43 C :    0.062023
  44 C :    0.015870
  45 N :   -0.062695
  46 C :    0.061166
  47 N :   -0.110316
  48 C :    0.024376
  49 C :    0.000081
  50 C :    0.002253
  51 C :    0.077136
  52 C :   -0.031609
  53 C :    0.053671
  54 C :    0.000978
  55 C :    0.042414
  56 C :   -0.019685
  57 C :    0.056786
  58 C :   -0.021678
  59 C :    0.050981
  60 C :    0.001715
  61 C :    0.050543
  62 C :   -0.031986
  63 C :    0.010155
  64 C :   -0.017906
  65 H :   -0.009086
  66 H :   -0.005648
  67 H :   -0.001495
  68 H :    0.042819
  69 H :    0.152524
  70 H :    0.005989
  71 H :    0.006965
  72 H :    0.019466
  73 H :    0.124585
  74 H :    0.020073
  75 H :    0.017671
  76 H :    0.117097
  77 H :    0.012047
  78 H :   -0.009094
  79 H :    0.008496
  80 H :   -0.003515
  81 H :   -0.021607
  82 H :   -0.025471
  83 H :   -0.025904
  84 H :   -0.025427
  85 H :   -0.029355
  86 H :   -0.022672
  87 H :   -0.025108
  88 H :   -0.030641
  89 H :   -0.022416
  90 H :    0.007841
  91 H :    0.020256
Sum of atomic charges:   -0.0000000

LOEWDIN ATOMIC CHARGES
----------------------
   0 C :    0.082292
   1 C :   -0.152815
   2 C :   -0.020056
   3 N :   -0.055838
   4 C :   -0.022248
   5 N :   -0.061196
   6 C :   -0.022396
   7 C :   -0.048742
   8 C :    0.022050
   9 C :   -0.032018
  10 C :   -0.145299
  11 C :   -0.008057
  12 S :    0.433855
  13 C :   -0.271401
  14 C :   -0.069966
  15 Br:    0.137803
  16 C :    0.067082
  17 O :   -0.161167
  18 C :   -0.157052
  19 C :    0.096296
  20 N :    0.073448
  21 C :   -0.120605
  22 S :    0.484557
  23 C :   -0.198342
  24 N :    0.273741
  25 O :   -0.214360
  26 O :   -0.228355
  27 C :   -0.007131
  28 C :   -0.067668
  29 C :   -0.105112
  30 C :    0.026688
  31 N :    0.013154
  32 C :   -0.035164
  33 C :   -0.217663
  34 S :    0.442827
  35 C :   -0.235622
  36 C :   -0.028345
  37 N :    0.020155
  38 C :    0.028275
  39 C :   -0.098378
  40 C :   -0.174449
  41 S :    0.457739
  42 C :   -0.164184
  43 C :   -0.094603
  44 C :   -0.039344
  45 N :   -0.084606
  46 C :    0.030995
  47 N :   -0.101527
  48 C :    0.065274
  49 C :   -0.049347
  50 C :   -0.024722
  51 C :   -0.067634
  52 C :    0.039941
  53 C :   -0.070698
  54 C :    0.077026
  55 C :   -0.062754
  56 C :    0.027328
  57 C :   -0.066052
  58 C :    0.046263
  59 C :   -0.072865
  60 C :    0.077156
  61 C :   -0.063438
  62 C :    0.016271
  63 C :   -0.025145
  64 C :   -0.048298
  65 H :    0.041445
  66 H :    0.041313
  67 H :    0.039378
  68 H :    0.043358
  69 H :    0.099817
  70 H :    0.044592
  71 H :    0.033556
  72 H :    0.027991
  73 H :    0.080547
  74 H :    0.022880
  75 H :    0.021700
  76 H :    0.080640
  77 H :    0.022453
  78 H :    0.035225
  79 H :    0.015222
  80 H :    0.021714
  81 H :    0.030552
  82 H :    0.018790
  83 H :    0.024125
  84 H :    0.034691
  85 H :    0.023326
  86 H :    0.025314
  87 H :    0.034752
  88 H :    0.021454
  89 H :    0.026942
  90 H :    0.018540
  91 H :    0.024128

  Mayer bond orders larger than 0.100000
B(  0-C ,  1-C ) :   1.6253 B(  0-C ,  6-C ) :   1.0112 B(  0-C , 18-C ) :   1.1117
B(  1-C ,  2-C ) :   1.1409 B(  1-C ,  4-C ) :   1.1435 B(  2-C ,  3-N ) :   2.9714
B(  4-C ,  5-N ) :   2.9748 B(  6-C ,  7-C ) :   1.2753 B(  6-C , 11-C ) :   1.4145
B(  7-C ,  8-C ) :   1.4282 B(  7-C , 16-C ) :   0.9444 B(  8-C ,  9-C ) :   1.2428
B(  8-C , 65-H ) :   1.0177 B(  9-C , 10-C ) :   1.3088 B(  9-C , 14-C ) :   1.1643
B( 10-C , 11-C ) :   1.3266 B( 10-C , 12-S ) :   1.0862 B( 11-C , 66-H ) :   0.9800
B( 12-S , 13-C ) :   1.0873 B( 13-C , 14-C ) :   1.6166 B( 13-C , 15-Br) :   1.0193
B( 14-C , 67-H ) :   1.0003 B( 16-C , 17-O ) :   2.2090 B( 16-C , 18-C ) :   0.9543
B( 18-C , 19-C ) :   1.4961 B( 19-C , 20-N ) :   1.3109 B( 19-C , 68-H ) :   0.9359
B( 20-N , 21-C ) :   1.0892 B( 20-N , 69-H ) :   0.9020 B( 21-C , 22-S ) :   1.1271
B( 21-C , 28-C ) :   1.4426 B( 22-S , 23-C ) :   1.1164 B( 23-C , 24-N ) :   0.9628
B( 23-C , 27-C ) :   1.4855 B( 24-N , 25-O ) :   1.5384 B( 24-N , 26-O ) :   1.5167
B( 25-O , 26-O ) :   0.2610 B( 27-C , 28-C ) :   1.2194 B( 27-C , 70-H ) :   1.0062
B( 28-C , 29-C ) :   1.1014 B( 29-C , 30-C ) :   1.6813 B( 29-C , 71-H ) :   0.9563
B( 30-C , 31-N ) :   1.1665 B( 30-C , 72-H ) :   0.9671 B( 31-N , 32-C ) :   1.0734
B( 31-N , 73-H ) :   0.9219 B( 32-C , 33-C ) :   1.5282 B( 32-C , 36-C ) :   1.2555
B( 33-C , 34-S ) :   1.1621 B( 33-C , 74-H ) :   0.9757 B( 34-S , 35-C ) :   1.1417
B( 35-C , 36-C ) :   1.5181 B( 35-C , 75-H ) :   0.9762 B( 36-C , 37-N ) :   1.1114
B( 37-N , 38-C ) :   1.1509 B( 37-N , 76-H ) :   0.9187 B( 38-C , 39-C ) :   1.6106
B( 38-C , 77-H ) :   0.9675 B( 39-C , 40-C ) :   1.2103 B( 39-C , 78-H ) :   0.9640
B( 40-C , 41-S ) :   1.1234 B( 40-C , 42-C ) :   0.1071 B( 40-C , 44-C ) :   1.3774
B( 41-S , 42-C ) :   1.1296 B( 42-C , 43-C ) :   1.3129 B( 42-C , 49-C ) :   1.2024
B( 43-C , 44-C ) :   1.1757 B( 43-C , 48-C ) :   1.1926 B( 44-C , 45-N ) :   1.3987
B( 45-N , 46-C ) :   1.6736 B( 46-C , 47-N ) :   1.3329 B( 46-C , 79-H ) :   0.9742
B( 47-N , 48-C ) :   1.7241 B( 48-C , 80-H ) :   0.9810 B( 49-C , 50-C ) :   1.6279
B( 49-C , 81-H ) :   0.9694 B( 50-C , 51-C ) :   1.1095 B( 50-C , 82-H ) :   0.9720
B( 51-C , 52-C ) :   1.1560 B( 51-C , 62-C ) :   1.4505 B( 52-C , 53-C ) :   1.3919
B( 52-C , 83-H ) :   1.0147 B( 53-C , 54-C ) :   1.1428 B( 53-C , 61-C ) :   1.1448
B( 54-C , 55-C ) :   1.4295 B( 54-C , 84-H ) :   1.0042 B( 55-C , 56-C ) :   1.1175
B( 55-C , 59-C ) :   1.1416 B( 56-C , 57-C ) :   1.4832 B( 56-C , 85-H ) :   1.0104
B( 57-C , 58-C ) :   1.1765 B( 57-C , 63-C ) :   1.0750 B( 58-C , 59-C ) :   1.3759
B( 58-C , 86-H ) :   1.0119 B( 59-C , 60-C ) :   1.1617 B( 60-C , 61-C ) :   1.4014
B( 60-C , 87-H ) :   1.0040 B( 61-C , 62-C ) :   1.1348 B( 62-C , 88-H ) :   1.0092
B( 63-C , 64-C ) :   1.9486 B( 63-C , 89-H ) :   0.9647 B( 64-C , 90-H ) :   0.9520
B( 64-C , 91-H ) :   0.9490

-----------------------------------------------------------------------------
         ABSORPTION SPECTRUM VIA TRANSITION ELECTRIC DIPOLE MOMENTS
-----------------------------------------------------------------------------
State   Energy  Wavelength   fosc         T2         TX        TY        TZ
        (cm-1)    (nm)                  (au**2)     (au)      (au)      (au)
-----------------------------------------------------------------------------
   0    6558.8   1524.7   0.010109081   0.50741  -0.47730  -0.51262   0.12971
   1   16523.0    605.2   0.528913463  10.53830   2.39724   2.03588  -0.80418
   2   17195.7    581.5   0.687221507  13.15687   2.37902   2.63783  -0.73414
   3   19576.6    510.8   0.098779639   1.66114   0.31079  -0.86667   0.90191
   4   21294.8    469.6   0.356648827   5.51368   0.58223  -1.65527   1.56037
   5   22223.8    450.0   0.237771836   3.52224   1.12568   1.49385  -0.15332
   6   23783.7    420.5   0.006299943   0.08720  -0.15293   0.25022  -0.03472
   7   25164.2    397.4   0.022005588   0.28789   0.29313  -0.42431   0.14807
   8   26542.5    376.8   0.035088655   0.43521   0.05246  -0.65528  -0.05537
   9   26881.2    372.0   0.393754094   4.82228  -0.03316  -2.17922  -0.26870
  10   27890.6    358.5   0.214408362   2.53081  -0.60015  -1.47291  -0.03420
  11   28587.5    349.8   0.134571604   1.54972  -0.61755  -0.42068  -0.99568
  12   28791.6    347.3   0.554689999   6.34249   1.62134   1.91433  -0.22156
  13   28858.3    346.5   0.047952366   0.54703   0.46663  -0.55636   0.14055
  14   29146.7    343.1   0.330718721   3.73547   0.16026  -1.83211  -0.59426
  15   29624.7    337.6   0.220006085   2.44488  -1.16255  -0.99044   0.33523
  16   29974.4    333.6   0.011306643   0.12418  -0.29166   0.12229   0.15543
  17   29994.3    333.4   0.004093613   0.04493   0.02401   0.13971   0.15759
  18   30001.7    333.3   0.070337211   0.77182   0.30297  -0.80409   0.18291
  19   30635.7    326.4   0.085359987   0.91728   0.22409   0.93079  -0.02641
  20   31135.8    321.2   0.085443867   0.90343  -0.89236  -0.26747  -0.18867
  21   31230.1    320.2   0.056039414   0.59074   0.12624   0.69344   0.30650
  22   31836.9    314.1   0.102290128   1.05774  -0.29362   0.59534   0.78556
  23   32499.5    307.7   0.108916662   1.10330   0.87781  -0.44956  -0.36143
  24   32721.4    305.6   0.140169027   1.41025  -0.15587  -1.17522   0.06932
  25   32851.5    304.4   0.186151758   1.86546   0.72933  -1.10718  -0.32817
  26   33769.0    296.1   0.426102041   4.15404   0.37573   1.07569   1.68990
  27   34262.2    291.9   0.079845355   0.76720  -0.59156   0.45697   0.45656
  28   34519.8    289.7   0.175753663   1.67615  -0.96674   0.63262   0.58426
  29   34751.6    287.8   0.000084143   0.00080   0.02148  -0.01494  -0.01061
  30   35165.4    284.4   0.022287025   0.20865   0.30957   0.28349  -0.18013
  31   35838.2    279.0   0.000511621   0.00470   0.00358  -0.06835   0.00393
  32   36214.6    276.1   0.000420569   0.00382   0.02234  -0.04285  -0.03857
  33   36266.3    275.7   0.000275809   0.00250  -0.03334   0.01147  -0.03551
  34   36836.3    271.5   0.210084830   1.87756  -0.76884  -1.13053   0.09136
  35   37235.0    268.6   0.003829379   0.03386  -0.12112  -0.13551   0.02871
  36   37393.3    267.4   0.199535444   1.75672   0.88560   0.96653  -0.19560
  37   37800.5    264.5   0.168595390   1.46833  -1.02320  -0.50910   0.40275
  38   37872.3    264.0   0.002131358   0.01853  -0.08201  -0.09919   0.04431
  39   37970.2    263.4   0.046940135   0.40698  -0.20465  -0.58171   0.16346
  40   38550.0    259.4   0.082217183   0.70212   0.07384   0.78952  -0.27078
  41   38607.3    259.0   0.208070706   1.77426   0.36663   1.03247  -0.75753
  42   38760.3    258.0   0.181751139   1.54371   0.91278   0.78467   0.30794
  43   39006.0    256.4   0.032757614   0.27648   0.27785   0.08509   0.43822
  44   39448.2    253.5   0.000074594   0.00062  -0.01665  -0.01703   0.00743
  45   39537.7    252.9   0.034327983   0.28583  -0.07128  -0.45359   0.27388
  46   39555.0    252.8   0.103751533   0.86351  -0.63168  -0.66049   0.16809
  47   39762.7    251.5   0.084788694   0.70200  -0.28547  -0.78446  -0.07165
  48   39971.2    250.2   0.017365566   0.14303  -0.27821  -0.22988  -0.11305
  49   40302.3    248.1   0.049797641   0.40677   0.49978  -0.37072  -0.13986

FINAL SINGLE POINT ENERGY     -6709.926078654044

DIPOLE MOMENT
-------------
                                X             Y             Z
Electronic contribution:   -112.34236    -213.88808      58.99280
Nuclear contribution   :    114.70037     216.16255     -60.36077
                        -----------------------------------------
Total Dipole Moment    :      2.35801       2.27448      -1.36797
                        -----------------------------------------
Magnitude (a.u.)       :      3.55032
Magnitude (Debye)      :      9.02420

Rotational constants in cm-1:     0.001476     0.000194     0.000184
Rotational constants in MHz :    44.234637     5.828265     5.501340

                             ****ORCA TERMINATED NORMALLY****
TOTAL RUN TIME: 0 days 0 hours 9 minutes 37 seconds 63 msec
