                         Program Version 4.2.0 -  RELEASE  -
|  1> # ORCA input file
|  2> # SCF done       -170.817840570958          0.000486471555
|  3> ! CAM-B3LYP def2-SVP def2/J RIJCOSX Grid4 TightSCF
|  4> %maxcore 5000
|  5> %tddft
|  6>     Mode sTDDFT
|  7>     Ethresh 5.0
|  8>     maxcore 5000
|  9> end
| 10>
| 11> %pal
| 12>   nprocs 6
| 13>   end
| 14> * xyz 0 1
| 15>    C      -14.51044        -0.83871        -5.78513
| 16>    C      -15.05908        -1.78925        -4.96365
| 17>    C      -14.75936        -3.16504        -5.03159
| 18>    N      -14.55180        -4.29389        -5.04375
| 19>    C      -15.98272        -1.50558        -3.93706
| 20>    N      -16.73073        -1.31520        -3.08732
| 21>    C      -13.53370        -1.08314        -6.84407
| 22>    C      -13.17626         0.15559        -7.43740
| 23>    C      -12.27527         0.25044        -8.47040
| 24>    C      -11.70144        -0.93338        -8.94589
| 25>    C      -12.06484        -2.16457        -8.34982
| 26>    C      -12.97364        -2.25983        -7.30181
| 27>    S      -11.24366        -3.50162        -9.09356
| 28>    C      -10.43426        -2.40537       -10.18127
| 29>    C      -10.76041        -1.10347        -9.99760
| 30>   Br       -9.23591        -3.08103       -11.45586
| 31>    C      -13.92586         1.23129        -6.77679
| 32>    O      -13.87166         2.43420        -7.01125
| 33>    C      -14.76819         0.58264        -5.76749
| 34>    C      -15.66045         1.29814        -5.00670
| 35>    N      -15.76488         2.62393        -5.14886
| 36>    C      -16.67147         3.43530        -4.54368
| 37>    S      -17.93736         2.78718        -3.54400
| 38>    C      -18.59861         4.38088        -3.38564
| 39>    N      -19.75420         4.53575        -2.60528
| 40>    O      -20.21857         5.65463        -2.50259
| 41>    O      -20.20526         3.52891        -2.09051
| 42>    C      -17.89326         5.33809        -4.06259
| 43>    C      -16.76049         4.82038        -4.72245
| 44>    C      -15.85474         5.64915        -5.47618
| 45>    C      -14.53447         5.43328        -5.66166
| 46>    C      -13.70059         6.28887        -6.43376
| 47>    C      -12.36273         6.10815        -6.54944
| 48>    C      -11.50990         6.93880        -7.32254
| 49>    C      -10.16314         6.79071        -7.36645
| 50>    C       -9.29305         7.61339        -8.13275
| 51>    C       -7.94524         7.51041        -8.09406
| 52>    C       -7.06956         8.33205        -8.87289
| 53>    C       -5.72867         8.35847        -8.79819
| 54>    C       -4.91668         7.53617        -7.84369
| 55>    C       -4.92998         9.27108        -9.69787
| 56>    N       -3.85961         8.56269       -10.35530
| 57>    C       -3.58998         8.60025       -11.65682
| 58>    C       -2.53505         7.93672       -12.22525
| 59>    C       -2.20525         7.90734       -13.58431
| 60>    C       -2.61041         8.66567       -14.66059
| 61>    C       -3.23484         9.94921       -14.81916
| 62>    C       -3.22977        11.00637       -13.93413
| 63>    C       -3.79974        12.26553       -14.19833
| 64>    N       -4.26796        13.30549       -14.33943
| 65>    C       -2.60498        10.97823       -12.67847
| 66>    N       -2.12154        10.99368       -11.63500
| 67>    C       -3.67707        10.05727       -16.21150
| 68>    C       -3.15736         8.95900       -16.93752
| 69>    C       -2.41366         8.08263       -16.00787
| 70>    O       -1.79791         7.07461       -16.28368
| 71>    C       -3.36718         8.79531       -18.28376
| 72>    C       -4.13971         9.75730       -18.94483
| 73>    C       -4.66872        10.84141       -18.20804
| 74>    C       -4.44763        11.01138       -16.84576
| 75>    S       -5.60421        11.90400       -19.21709
| 76>    C       -5.26976        10.89274       -20.59760
| 77>    C       -4.50077         9.81416       -20.31948
| 78>   Br       -5.97133        11.35573       -22.27542
| 79>    H      -12.02415         1.20676        -8.90196
| 80>    H      -13.21896        -3.22143        -6.88313
| 81>    H      -10.35623        -0.29610       -10.58047
| 82>    H      -16.30776         0.82621        -4.27866
| 83>    H      -15.13803         3.03134        -5.86523
| 84>    H      -18.17525         6.37553        -4.06161
| 85>    H      -16.29519         6.55277        -5.87687
| 86>    H      -14.03973         4.59954        -5.18208
| 87>    H      -14.17424         7.11525        -6.94737
| 88>    H      -11.89872         5.28370        -6.02256
| 89>    H      -11.97448         7.73321        -7.89270
| 90>    H       -9.70315         6.00724        -6.77662
| 91>    H       -9.75190         8.36249        -8.76562
| 92>    H       -7.50247         6.76580        -7.44791
| 93>    H       -7.55937         8.99156        -9.57890
| 94>    H       -4.62221         6.59212        -8.30493
| 95>    H       -5.47835         7.30732        -6.94317
| 96>    H       -4.01500         8.07160        -7.55152
| 97>    H       -4.49944        10.08515        -9.09539
| 98>    H       -5.57151         9.71988       -10.45824
| 99>    H       -3.17613         8.12589        -9.75285
|100>    H       -4.31279         9.11898       -12.27164
|101>    H       -1.92348         7.32758       -11.57232
|102>    H       -1.55042         7.09133       -13.87945
|103>    H       -2.94896         7.95328       -18.81251
|104>    H       -4.87636        11.85352       -16.32840
|105>    H       -4.19906         9.08701       -21.05110
|106> *
|107>
|108>                          ****END OF INPUT****

CARTESIAN COORDINATES (ANGSTROEM)
---------------------------------
  C    -14.510440   -0.838710   -5.785130
  C    -15.059080   -1.789250   -4.963650
  C    -14.759360   -3.165040   -5.031590
  N    -14.551800   -4.293890   -5.043750
  C    -15.982720   -1.505580   -3.937060
  N    -16.730730   -1.315200   -3.087320
  C    -13.533700   -1.083140   -6.844070
  C    -13.176260    0.155590   -7.437400
  C    -12.275270    0.250440   -8.470400
  C    -11.701440   -0.933380   -8.945890
  C    -12.064840   -2.164570   -8.349820
  C    -12.973640   -2.259830   -7.301810
  S    -11.243660   -3.501620   -9.093560
  C    -10.434260   -2.405370  -10.181270
  C    -10.760410   -1.103470   -9.997600
  Br    -9.235910   -3.081030  -11.455860
  C    -13.925860    1.231290   -6.776790
  O    -13.871660    2.434200   -7.011250
  C    -14.768190    0.582640   -5.767490
  C    -15.660450    1.298140   -5.006700
  N    -15.764880    2.623930   -5.148860
  C    -16.671470    3.435300   -4.543680
  S    -17.937360    2.787180   -3.544000
  C    -18.598610    4.380880   -3.385640
  N    -19.754200    4.535750   -2.605280
  O    -20.218570    5.654630   -2.502590
  O    -20.205260    3.528910   -2.090510
  C    -17.893260    5.338090   -4.062590
  C    -16.760490    4.820380   -4.722450
  C    -15.854740    5.649150   -5.476180
  C    -14.534470    5.433280   -5.661660
  C    -13.700590    6.288870   -6.433760
  C    -12.362730    6.108150   -6.549440
  C    -11.509900    6.938800   -7.322540
  C    -10.163140    6.790710   -7.366450
  C     -9.293050    7.613390   -8.132750
  C     -7.945240    7.510410   -8.094060
  C     -7.069560    8.332050   -8.872890
  C     -5.728670    8.358470   -8.798190
  C     -4.916680    7.536170   -7.843690
  C     -4.929980    9.271080   -9.697870
  N     -3.859610    8.562690  -10.355300
  C     -3.589980    8.600250  -11.656820
  C     -2.535050    7.936720  -12.225250
  C     -2.205250    7.907340  -13.584310
  C     -2.610410    8.665670  -14.660590
  C     -3.234840    9.949210  -14.819160
  C     -3.229770   11.006370  -13.934130
  C     -3.799740   12.265530  -14.198330
  N     -4.267960   13.305490  -14.339430
  C     -2.604980   10.978230  -12.678470
  N     -2.121540   10.993680  -11.635000
  C     -3.677070   10.057270  -16.211500
  C     -3.157360    8.959000  -16.937520
  C     -2.413660    8.082630  -16.007870
  O     -1.797910    7.074610  -16.283680
  C     -3.367180    8.795310  -18.283760
  C     -4.139710    9.757300  -18.944830
  C     -4.668720   10.841410  -18.208040
  C     -4.447630   11.011380  -16.845760
  S     -5.604210   11.904000  -19.217090
  C     -5.269760   10.892740  -20.597600
  C     -4.500770    9.814160  -20.319480
  Br    -5.971330   11.355730  -22.275420
  H    -12.024150    1.206760   -8.901960
  H    -13.218960   -3.221430   -6.883130
  H    -10.356230   -0.296100  -10.580470
  H    -16.307760    0.826210   -4.278660
  H    -15.138030    3.031340   -5.865230
  H    -18.175250    6.375530   -4.061610
  H    -16.295190    6.552770   -5.876870
  H    -14.039730    4.599540   -5.182080
  H    -14.174240    7.115250   -6.947370
  H    -11.898720    5.283700   -6.022560
  H    -11.974480    7.733210   -7.892700
  H     -9.703150    6.007240   -6.776620
  H     -9.751900    8.362490   -8.765620
  H     -7.502470    6.765800   -7.447910
  H     -7.559370    8.991560   -9.578900
  H     -4.622210    6.592120   -8.304930
  H     -5.478350    7.307320   -6.943170
  H     -4.015000    8.071600   -7.551520
  H     -4.499440   10.085150   -9.095390
  H     -5.571510    9.719880  -10.458240
  H     -3.176130    8.125890   -9.752850
  H     -4.312790    9.118980  -12.271640
  H     -1.923480    7.327580  -11.572320
  H     -1.550420    7.091330  -13.879450
  H     -2.948960    7.953280  -18.812510
  H     -4.876360   11.853520  -16.328400
  H     -4.199060    9.087010  -21.051100

 Total Charge           Charge          ....    0
 Multiplicity           Mult            ....    1
 Number of Electrons    NEL             ....  514
 Basis Dimension        Dim             .... 1079

ORBITAL ENERGIES
----------------

  NO   OCC          E(Eh)            E(eV)
   0   2.0000    -482.892654    -13140.1772
   1   2.0000    -482.879912    -13139.8304
   2   2.0000     -88.993639     -2421.6400
   3   2.0000     -88.984317     -2421.3864
   4   2.0000     -88.968026     -2420.9431
   5   2.0000     -62.570374     -1702.6264
   6   2.0000     -62.557610     -1702.2791
   7   2.0000     -56.404335     -1534.8400
   8   2.0000     -56.401599     -1534.7655
   9   2.0000     -56.401571     -1534.7648
  10   2.0000     -56.391550     -1534.4921
  11   2.0000     -56.388857     -1534.4188
  12   2.0000     -56.388816     -1534.4177
  13   2.0000     -19.242247      -523.6082
  14   2.0000     -19.241390      -523.5848
  15   2.0000     -19.237729      -523.4852
  16   2.0000     -19.197728      -522.3967
  17   2.0000     -14.653812      -398.7505
  18   2.0000     -14.501254      -394.5992
  19   2.0000     -14.473275      -393.8378
  20   2.0000     -14.424725      -392.5167
  21   2.0000     -14.420461      -392.4007
  22   2.0000     -14.409761      -392.1095
  23   2.0000     -14.403672      -391.9438
  24   2.0000     -10.384908      -282.5877
  25   2.0000     -10.375463      -282.3307
  26   2.0000     -10.374883      -282.3149
  27   2.0000     -10.366937      -282.0987
  28   2.0000     -10.354822      -281.7690
  29   2.0000     -10.352322      -281.7010
  30   2.0000     -10.351241      -281.6716
  31   2.0000     -10.350743      -281.6580
  32   2.0000     -10.348910      -281.6081
  33   2.0000     -10.348113      -281.5865
  34   2.0000     -10.334531      -281.2169
  35   2.0000     -10.333324      -281.1840
  36   2.0000     -10.331295      -281.1288
  37   2.0000     -10.327046      -281.0132
  38   2.0000     -10.325238      -280.9640
  39   2.0000     -10.323600      -280.9194
  40   2.0000     -10.318065      -280.7688
  41   2.0000     -10.316549      -280.7276
  42   2.0000     -10.316386      -280.7231
  43   2.0000     -10.314996      -280.6853
  44   2.0000     -10.314707      -280.6775
  45   2.0000     -10.312897      -280.6282
  46   2.0000     -10.312459      -280.6163
  47   2.0000     -10.311185      -280.5816
  48   2.0000     -10.308596      -280.5112
  49   2.0000     -10.305525      -280.4276
  50   2.0000     -10.305006      -280.4135
  51   2.0000     -10.304672      -280.4044
  52   2.0000     -10.304235      -280.3925
  53   2.0000     -10.298366      -280.2328
  54   2.0000     -10.297904      -280.2202
  55   2.0000     -10.297245      -280.2023
  56   2.0000     -10.296639      -280.1858
  57   2.0000     -10.295861      -280.1646
  58   2.0000     -10.293419      -280.0982
  59   2.0000     -10.290986      -280.0320
  60   2.0000     -10.289610      -279.9945
  61   2.0000     -10.289541      -279.9926
  62   2.0000     -10.286711      -279.9156
  63   2.0000     -10.286643      -279.9138
  64   2.0000     -10.286167      -279.9008
  65   2.0000     -10.286059      -279.8979
  66   2.0000     -10.285182      -279.8740
  67   2.0000     -10.284974      -279.8684
  68   2.0000     -10.284599      -279.8582
  69   2.0000     -10.280464      -279.7456
  70   2.0000     -10.273537      -279.5571
  71   2.0000     -10.272643      -279.5328
  72   2.0000      -8.799805      -239.4549
  73   2.0000      -8.787027      -239.1072
  74   2.0000      -8.088903      -220.1102
  75   2.0000      -8.080227      -219.8742
  76   2.0000      -8.063972      -219.4318
  77   2.0000      -6.636163      -180.5792
  78   2.0000      -6.623258      -180.2280
  79   2.0000      -6.621526      -180.1809
  80   2.0000      -6.621293      -180.1746
  81   2.0000      -6.608777      -179.8340
  82   2.0000      -6.608625      -179.8298
  83   2.0000      -6.058515      -164.8606
  84   2.0000      -6.054141      -164.7416
  85   2.0000      -6.050425      -164.6404
  86   2.0000      -6.049900      -164.6262
  87   2.0000      -6.045612      -164.5095
  88   2.0000      -6.041505      -164.3977
  89   2.0000      -6.033684      -164.1849
  90   2.0000      -6.029401      -164.0683
  91   2.0000      -6.025201      -163.9540
  92   2.0000      -2.752000       -74.8857
  93   2.0000      -2.747897       -74.7741
  94   2.0000      -2.747786       -74.7710
  95   2.0000      -2.739160       -74.5363
  96   2.0000      -2.736134       -74.4540
  97   2.0000      -2.736109       -74.4533
  98   2.0000      -2.735062       -74.4248
  99   2.0000      -2.734944       -74.4216
 100   2.0000      -2.723425       -74.1082
 101   2.0000      -2.723421       -74.1081
 102   2.0000      -1.323896       -36.0250
 103   2.0000      -1.152400       -31.3584
 104   2.0000      -1.143113       -31.1057
 105   2.0000      -1.112638       -30.2764
 106   2.0000      -1.108382       -30.1606
 107   2.0000      -1.072729       -29.1904
 108   2.0000      -1.032010       -28.0824
 109   2.0000      -1.021489       -27.7961
 110   2.0000      -1.014167       -27.5969
 111   2.0000      -1.013275       -27.5726
 112   2.0000      -1.005191       -27.3526
 113   2.0000      -1.002062       -27.2675
 114   2.0000      -0.998068       -27.1588
 115   2.0000      -0.986332       -26.8395
 116   2.0000      -0.977990       -26.6125
 117   2.0000      -0.950748       -25.8712
 118   2.0000      -0.941011       -25.6062
 119   2.0000      -0.935745       -25.4629
 120   2.0000      -0.932625       -25.3780
 121   2.0000      -0.921798       -25.0834
 122   2.0000      -0.917435       -24.9647
 123   2.0000      -0.909513       -24.7491
 124   2.0000      -0.901721       -24.5371
 125   2.0000      -0.898780       -24.4571
 126   2.0000      -0.895151       -24.3583
 127   2.0000      -0.892800       -24.2943
 128   2.0000      -0.882271       -24.0078
 129   2.0000      -0.876653       -23.8550
 130   2.0000      -0.869444       -23.6588
 131   2.0000      -0.860090       -23.4043
 132   2.0000      -0.855896       -23.2901
 133   2.0000      -0.838669       -22.8214
 134   2.0000      -0.833356       -22.6768
 135   2.0000      -0.821879       -22.3645
 136   2.0000      -0.819484       -22.2993
 137   2.0000      -0.801419       -21.8077
 138   2.0000      -0.797179       -21.6924
 139   2.0000      -0.784232       -21.3400
 140   2.0000      -0.771116       -20.9831
 141   2.0000      -0.762854       -20.7583
 142   2.0000      -0.755271       -20.5520
 143   2.0000      -0.745492       -20.2859
 144   2.0000      -0.734686       -19.9918
 145   2.0000      -0.732016       -19.9192
 146   2.0000      -0.722990       -19.6736
 147   2.0000      -0.709980       -19.3195
 148   2.0000      -0.699746       -19.0411
 149   2.0000      -0.693746       -18.8778
 150   2.0000      -0.689684       -18.7672
 151   2.0000      -0.680211       -18.5095
 152   2.0000      -0.677107       -18.4250
 153   2.0000      -0.666108       -18.1257
 154   2.0000      -0.662812       -18.0360
 155   2.0000      -0.660989       -17.9864
 156   2.0000      -0.654785       -17.8176
 157   2.0000      -0.646823       -17.6009
 158   2.0000      -0.645649       -17.5690
 159   2.0000      -0.639483       -17.4012
 160   2.0000      -0.635192       -17.2845
 161   2.0000      -0.630934       -17.1686
 162   2.0000      -0.627694       -17.0804
 163   2.0000      -0.622152       -16.9296
 164   2.0000      -0.619041       -16.8450
 165   2.0000      -0.612978       -16.6800
 166   2.0000      -0.611638       -16.6435
 167   2.0000      -0.607579       -16.5331
 168   2.0000      -0.601031       -16.3549
 169   2.0000      -0.590505       -16.0685
 170   2.0000      -0.585934       -15.9441
 171   2.0000      -0.585216       -15.9245
 172   2.0000      -0.578463       -15.7408
 173   2.0000      -0.572209       -15.5706
 174   2.0000      -0.568572       -15.4716
 175   2.0000      -0.565998       -15.4016
 176   2.0000      -0.563452       -15.3323
 177   2.0000      -0.562673       -15.3111
 178   2.0000      -0.555917       -15.1273
 179   2.0000      -0.553574       -15.0635
 180   2.0000      -0.546870       -14.8811
 181   2.0000      -0.544412       -14.8142
 182   2.0000      -0.539340       -14.6762
 183   2.0000      -0.539220       -14.6729
 184   2.0000      -0.533520       -14.5178
 185   2.0000      -0.532262       -14.4836
 186   2.0000      -0.528877       -14.3915
 187   2.0000      -0.526832       -14.3358
 188   2.0000      -0.523066       -14.2334
 189   2.0000      -0.520929       -14.1752
 190   2.0000      -0.517131       -14.0718
 191   2.0000      -0.514516       -14.0007
 192   2.0000      -0.511179       -13.9099
 193   2.0000      -0.508656       -13.8412
 194   2.0000      -0.506634       -13.7862
 195   2.0000      -0.505632       -13.7589
 196   2.0000      -0.504733       -13.7345
 197   2.0000      -0.499077       -13.5806
 198   2.0000      -0.492483       -13.4012
 199   2.0000      -0.489468       -13.3191
 200   2.0000      -0.486930       -13.2500
 201   2.0000      -0.485335       -13.2066
 202   2.0000      -0.481417       -13.1000
 203   2.0000      -0.477339       -12.9890
 204   2.0000      -0.473980       -12.8977
 205   2.0000      -0.472849       -12.8669
 206   2.0000      -0.471549       -12.8315
 207   2.0000      -0.469437       -12.7740
 208   2.0000      -0.467944       -12.7334
 209   2.0000      -0.460682       -12.5358
 210   2.0000      -0.459305       -12.4983
 211   2.0000      -0.457228       -12.4418
 212   2.0000      -0.456233       -12.4147
 213   2.0000      -0.454307       -12.3623
 214   2.0000      -0.450465       -12.2578
 215   2.0000      -0.449227       -12.2241
 216   2.0000      -0.448292       -12.1987
 217   2.0000      -0.447886       -12.1876
 218   2.0000      -0.446125       -12.1397
 219   2.0000      -0.444771       -12.1028
 220   2.0000      -0.441003       -12.0003
 221   2.0000      -0.437066       -11.8932
 222   2.0000      -0.434677       -11.8282
 223   2.0000      -0.434529       -11.8241
 224   2.0000      -0.434179       -11.8146
 225   2.0000      -0.433471       -11.7953
 226   2.0000      -0.429561       -11.6889
 227   2.0000      -0.425411       -11.5760
 228   2.0000      -0.419900       -11.4261
 229   2.0000      -0.419437       -11.4135
 230   2.0000      -0.417396       -11.3579
 231   2.0000      -0.411654       -11.2017
 232   2.0000      -0.401211       -10.9175
 233   2.0000      -0.399386       -10.8678
 234   2.0000      -0.397193       -10.8082
 235   2.0000      -0.392599       -10.6832
 236   2.0000      -0.389020       -10.5858
 237   2.0000      -0.382110       -10.3977
 238   2.0000      -0.381445       -10.3796
 239   2.0000      -0.380577       -10.3560
 240   2.0000      -0.379014       -10.3135
 241   2.0000      -0.370801       -10.0900
 242   2.0000      -0.369491       -10.0544
 243   2.0000      -0.369101       -10.0437
 244   2.0000      -0.360900        -9.8206
 245   2.0000      -0.357184        -9.7195
 246   2.0000      -0.346052        -9.4166
 247   2.0000      -0.342895        -9.3306
 248   2.0000      -0.326462        -8.8835
 249   2.0000      -0.321130        -8.7384
 250   2.0000      -0.320096        -8.7102
 251   2.0000      -0.306451        -8.3390
 252   2.0000      -0.302888        -8.2420
 253   2.0000      -0.287823        -7.8321
 254   2.0000      -0.286906        -7.8071
 255   2.0000      -0.262388        -7.1400
 256   2.0000      -0.251874        -6.8538
 257   0.0000      -0.094743        -2.5781
 258   0.0000      -0.075800        -2.0626
 259   0.0000      -0.071623        -1.9490
 260   0.0000      -0.061822        -1.6823
 261   0.0000      -0.042779        -1.1641

MULLIKEN ATOMIC CHARGES
-----------------------
   0 C :    0.325102
   1 C :   -0.342807
   2 C :   -0.184676
   3 N :    0.152633
   4 C :   -0.195889
   5 N :    0.144969
   6 C :    0.009261
   7 C :   -0.010700
   8 C :   -0.064746
   9 C :    0.114735
  10 C :   -0.093226
  11 C :   -0.016540
  12 S :    0.192987
  13 C :   -0.124043
  14 C :    0.038787
  15 Br:    0.028336
  16 C :    0.159763
  17 O :   -0.213177
  18 C :   -0.125038
  19 C :    0.021519
  20 N :   -0.007105
  21 C :   -0.123943
  22 S :    0.175165
  23 C :    0.009094
  24 N :    0.273863
  25 O :   -0.246181
  26 O :   -0.254810
  27 C :    0.008097
  28 C :    0.126979
  29 C :   -0.044906
  30 C :    0.027572
  31 C :    0.007072
  32 C :    0.028962
  33 C :    0.017710
  34 C :    0.014818
  35 C :    0.022581
  36 C :   -0.002895
  37 C :    0.017706
  38 C :   -0.184423
  39 C :    0.059794
  40 C :    0.207238
  41 N :   -0.121394
  42 C :    0.091438
  43 C :   -0.034066
  44 C :    0.045830
  45 C :   -0.162523
  46 C :    0.291813
  47 C :   -0.382068
  48 C :   -0.170840
  49 N :    0.134205
  50 C :   -0.204784
  51 N :    0.139630
  52 C :   -0.005187
  53 C :    0.009739
  54 C :    0.129459
  55 O :   -0.162941
  56 C :   -0.078659
  57 C :    0.114072
  58 C :   -0.092148
  59 C :   -0.027484
  60 S :    0.176835
  61 C :   -0.124728
  62 C :    0.038569
  63 Br:    0.014809
  64 H :   -0.010397
  65 H :   -0.004318
  66 H :   -0.003629
  67 H :    0.048010
  68 H :    0.177278
  69 H :    0.012338
  70 H :   -0.002124
  71 H :   -0.004854
  72 H :   -0.010545
  73 H :   -0.010470
  74 H :   -0.011058
  75 H :   -0.013425
  76 H :   -0.011352
  77 H :   -0.015030
  78 H :   -0.023148
  79 H :    0.041595
  80 H :    0.035073
  81 H :    0.019595
  82 H :    0.048498
  83 H :    0.018964
  84 H :    0.133365
  85 H :    0.037902
  86 H :   -0.016684
  87 H :    0.023061
  88 H :   -0.013894
  89 H :   -0.008185
  90 H :   -0.005782
Sum of atomic charges:   -0.0000000

LOEWDIN ATOMIC CHARGES
----------------------
   0 C :    0.078514
   1 C :   -0.148055
   2 C :   -0.020094
   3 N :   -0.052698
   4 C :   -0.020969
   5 N :   -0.051906
   6 C :   -0.018404
   7 C :   -0.052248
   8 C :    0.023303
   9 C :   -0.034113
  10 C :   -0.143836
  11 C :   -0.007009
  12 S :    0.438640
  13 C :   -0.271059
  14 C :   -0.070468
  15 Br:    0.140207
  16 C :    0.093081
  17 O :   -0.175300
  18 C :   -0.146298
  19 C :    0.109429
  20 N :    0.080970
  21 C :   -0.113800
  22 S :    0.473703
  23 C :   -0.202463
  24 N :    0.272929
  25 O :   -0.212134
  26 O :   -0.221739
  27 C :    0.001558
  28 C :   -0.084380
  29 C :   -0.035155
  30 C :   -0.015772
  31 C :   -0.024583
  32 C :   -0.012377
  33 C :   -0.023215
  34 C :   -0.020965
  35 C :   -0.018298
  36 C :   -0.027633
  37 C :   -0.042166
  38 C :   -0.039088
  39 C :   -0.055303
  40 C :    0.050998
  41 N :    0.052765
  42 C :    0.116198
  43 C :   -0.133749
  44 C :    0.078108
  45 C :   -0.142801
  46 C :    0.070474
  47 C :   -0.178397
  48 C :   -0.023805
  49 N :   -0.072823
  50 C :   -0.013423
  51 N :   -0.072040
  52 C :   -0.018785
  53 C :   -0.050184
  54 C :    0.080097
  55 O :   -0.161606
  56 C :    0.018134
  57 C :   -0.036983
  58 C :   -0.146497
  59 C :   -0.016986
  60 S :    0.425249
  61 C :   -0.275182
  62 C :   -0.070674
  63 Br:    0.129691
  64 H :    0.041222
  65 H :    0.042241
  66 H :    0.038841
  67 H :    0.035842
  68 H :    0.088515
  69 H :    0.047460
  70 H :    0.033204
  71 H :    0.025459
  72 H :    0.028387
  73 H :    0.029221
  74 H :    0.028431
  75 H :    0.027373
  76 H :    0.028508
  77 H :    0.024494
  78 H :    0.027320
  79 H :    0.039402
  80 H :    0.037656
  81 H :    0.029772
  82 H :    0.036936
  83 H :    0.035023
  84 H :    0.087493
  85 H :    0.038588
  86 H :    0.027855
  87 H :    0.045895
  88 H :    0.039449
  89 H :    0.039038
  90 H :    0.037792

  Mayer bond orders larger than 0.100000
B(  0-C ,  1-C ) :   1.6274 B(  0-C ,  6-C ) :   1.0044 B(  0-C , 18-C ) :   1.1022
B(  1-C ,  2-C ) :   1.1422 B(  1-C ,  4-C ) :   1.1469 B(  2-C ,  3-N ) :   2.9690
B(  4-C ,  5-N ) :   2.9550 B(  6-C ,  7-C ) :   1.2728 B(  6-C , 11-C ) :   1.4235
B(  7-C ,  8-C ) :   1.4258 B(  7-C , 16-C ) :   0.9767 B(  8-C ,  9-C ) :   1.2419
B(  8-C , 64-H ) :   1.0179 B(  9-C , 10-C ) :   1.3085 B(  9-C , 14-C ) :   1.1639
B( 10-C , 11-C ) :   1.3213 B( 10-C , 12-S ) :   1.0910 B( 11-C , 65-H ) :   0.9800
B( 12-S , 13-C ) :   1.0887 B( 13-C , 14-C ) :   1.6162 B( 13-C , 15-Br) :   1.0205
B( 14-C , 66-H ) :   1.0004 B( 16-C , 17-O ) :   2.0546 B( 16-C , 18-C ) :   0.9993
B( 17-O , 68-H ) :   0.1344 B( 18-C , 19-C ) :   1.4499 B( 19-C , 20-N ) :   1.3423
B( 19-C , 67-H ) :   0.9305 B( 20-N , 21-C ) :   1.1775 B( 20-N , 68-H ) :   0.8268
B( 21-C , 22-S ) :   1.1390 B( 21-C , 28-C ) :   1.3968 B( 22-S , 23-C ) :   1.0865
B( 23-C , 24-N ) :   0.9624 B( 23-C , 27-C ) :   1.4945 B( 24-N , 25-O ) :   1.5388
B( 24-N , 26-O ) :   1.5183 B( 25-O , 26-O ) :   0.2630 B( 27-C , 28-C ) :   1.2146
B( 27-C , 69-H ) :   1.0090 B( 28-C , 29-C ) :   1.0511 B( 29-C , 30-C ) :   1.6847
B( 29-C , 70-H ) :   0.9692 B( 30-C , 31-C ) :   1.1360 B( 30-C , 71-H ) :   0.9707
B( 31-C , 32-C ) :   1.6448 B( 31-C , 72-H ) :   0.9912 B( 32-C , 33-C ) :   1.1198
B( 32-C , 73-H ) :   0.9834 B( 33-C , 34-C ) :   1.6490 B( 33-C , 74-H ) :   0.9858
B( 34-C , 35-C ) :   1.1086 B( 34-C , 75-H ) :   0.9854 B( 35-C , 36-C ) :   1.6871
B( 35-C , 76-H ) :   0.9891 B( 36-C , 37-C ) :   1.0936 B( 36-C , 77-H ) :   0.9752
B( 37-C , 38-C ) :   1.8102 B( 37-C , 78-H ) :   0.9705 B( 38-C , 39-C ) :   1.0615
B( 38-C , 40-C ) :   1.0349 B( 39-C , 79-H ) :   0.9490 B( 39-C , 80-H ) :   0.9465
B( 39-C , 81-H ) :   0.9531 B( 40-C , 41-N ) :   0.9709 B( 40-C , 82-H ) :   0.9253
B( 40-C , 83-H ) :   0.9413 B( 41-N , 42-C ) :   1.3845 B( 41-N , 84-H ) :   0.9264
B( 42-C , 43-C ) :   1.4155 B( 42-C , 85-H ) :   0.9548 B( 43-C , 44-C ) :   1.3504
B( 43-C , 86-H ) :   0.9542 B( 44-C , 45-C ) :   1.4862 B( 44-C , 87-H ) :   0.9281
B( 45-C , 46-C ) :   1.1110 B( 45-C , 54-C ) :   0.9789 B( 46-C , 47-C ) :   1.5622
B( 46-C , 52-C ) :   0.9992 B( 47-C , 48-C ) :   1.1278 B( 47-C , 50-C ) :   1.1927
B( 48-C , 49-N ) :   2.9787 B( 50-C , 51-N ) :   2.9544 B( 52-C , 53-C ) :   1.2814
B( 52-C , 59-C ) :   1.4221 B( 53-C , 54-C ) :   0.9150 B( 53-C , 56-C ) :   1.4350
B( 54-C , 55-O ) :   2.2393 B( 56-C , 57-C ) :   1.2409 B( 56-C , 88-H ) :   1.0165
B( 57-C , 58-C ) :   1.3197 B( 57-C , 62-C ) :   1.1607 B( 58-C , 59-C ) :   1.3184
B( 58-C , 60-S ) :   1.0812 B( 59-C , 89-H ) :   0.9821 B( 60-S , 61-C ) :   1.0851
B( 61-C , 62-C ) :   1.6227 B( 61-C , 63-Br) :   1.0134 B( 62-C , 90-H ) :   0.9995

-----------------------------------------------------------------------------
         ABSORPTION SPECTRUM VIA TRANSITION ELECTRIC DIPOLE MOMENTS
-----------------------------------------------------------------------------
State   Energy  Wavelength   fosc         T2         TX        TY        TZ
        (cm-1)    (nm)                  (au**2)     (au)      (au)      (au)
-----------------------------------------------------------------------------
   0   19656.9    508.7   0.490553270   8.21574  -0.35318  -2.84441  -0.01859
   1   22284.5    448.7   0.384689382   5.68306   0.48228   1.43718  -1.83983
   2   23117.5    432.6   0.007926968   0.11289   0.07171   0.09698   0.31359
   3   26118.9    382.9   0.285488421   3.59840   0.02997   1.88448   0.21504
   4   27191.0    367.8   1.933484409  23.40948   4.40136   0.09373  -2.00717
   5   28600.9    349.6   0.011174186   0.12862   0.01479  -0.21062   0.28990
   6   28719.1    348.2   0.008977415   0.10291  -0.25588   0.00143  -0.19348
   7   28898.7    346.0   0.004062508   0.04628  -0.16425  -0.06324   0.12370
   8   29503.8    338.9   0.008355263   0.09323   0.09243   0.10062   0.27306
   9   29710.4    336.6   0.792965746   8.78661   2.08365  -0.39933  -2.07016
  10   30491.5    328.0   0.659955726   7.12543  -0.28351   0.11478  -2.65177
  11   30965.6    322.9   0.264208398   2.80894   1.51955  -0.27049  -0.65325
  12   31199.9    320.5   0.322815395   3.40625   1.80632  -0.03399  -0.37721
  13   31451.0    318.0   0.000688688   0.00721  -0.06476  -0.01810   0.05184
  14   32044.3    312.1   0.211803643   2.17600   0.37624   0.45137   1.35304
  15   32247.7    310.1   0.040560565   0.41408  -0.05847  -0.05665  -0.63832
  16   32628.7    306.5   0.104307035   1.05242   0.24444   0.22532   0.97051
  17   33423.7    299.2   0.007871026   0.07753  -0.20580   0.17052   0.07807
  18   33997.5    294.1   0.540933325   5.23808   1.49762   0.75547  -1.55708
  19   34273.0    291.8   0.006919246   0.06646   0.24585  -0.00237   0.07754
  20   34523.7    289.7   0.068925029   0.65726  -0.72341  -0.25104  -0.26628
  21   34857.4    286.9   0.030531236   0.28835   0.45478  -0.14846  -0.24391
  22   34894.8    286.6   0.016263612   0.15344  -0.37077   0.00600   0.12623
  23   35381.4    282.6   0.346357146   3.22274   0.27315   0.65048   1.65076
  24   35744.9    279.8   0.001855835   0.01709   0.04901   0.11847  -0.02558
  25   36226.3    276.0   0.000881043   0.00801  -0.00662  -0.04503  -0.07704
  26   36395.4    274.8   0.005119454   0.04631  -0.08487  -0.01137   0.19742
  27   37391.9    267.4   0.030101603   0.26503  -0.30622   0.32412   0.25730
  28   37954.5    263.5   0.175176480   1.51946  -0.93991   0.54758   0.57981
  29   38286.8    261.2   0.034386162   0.29567  -0.17184  -0.41209  -0.31036
  30   39020.3    256.3   0.137906594   1.16351  -0.21732   0.93533  -0.49137
  31   39281.4    254.6   0.000303966   0.00255   0.00435   0.01132   0.04899
  32   39830.4    251.1   0.000085164   0.00070  -0.00525   0.02497   0.00728
  33   40057.8    249.6   0.043985094   0.36149   0.16552  -0.56162  -0.13667

FINAL SINGLE POINT ENERGY     -8868.243256117370

DIPOLE MOMENT
-------------
                                X             Y             Z
Electronic contribution:     15.33841     -51.13531    -151.26760
Nuclear contribution   :    -13.94022      50.93779     150.32573
                        -----------------------------------------
Total Dipole Moment    :      1.39818      -0.19752      -0.94187
                        -----------------------------------------
Magnitude (a.u.)       :      1.69737
Magnitude (Debye)      :      4.31436

Rotational constants in cm-1:     0.000858     0.000210     0.000192
Rotational constants in MHz :    25.715303     6.300925     5.765281

                             ****ORCA TERMINATED NORMALLY****
TOTAL RUN TIME: 0 days 0 hours 7 minutes 32 seconds 841 msec
