                         Program Version 4.2.0 -  RELEASE  -
|  1> # ORCA input file
|  2> # SCF done       -166.600502500045          0.000916877393
|  3> ! CAM-B3LYP def2-SVP def2/J RIJCOSX Grid4 TightSCF
|  4> %maxcore 5000
|  5> %tddft
|  6>     Mode sTDDFT
|  7>     Ethresh 5.0
|  8>     maxcore 5000
|  9> end
| 10>
| 11> %pal
| 12>   nprocs 6
| 13>   end
| 14> * xyz 0 1
| 15>    C       -6.70785        -2.58691         3.13901
| 16>    C       -5.75686        -3.49148         2.73205
| 17>    C       -5.78460        -4.86400         3.04899
| 18>    N       -5.75847        -5.99180         3.26672
| 19>    C       -4.61826        -3.18479         1.96001
| 20>    N       -3.65875        -3.01965         1.34931
| 21>    C       -7.84435        -2.88817         4.00288
| 22>    C       -8.55091        -1.68788         4.25515
| 23>    C       -9.67729        -1.64055         5.03823
| 24>    C      -10.12624        -2.83718         5.60822
| 25>    C       -9.41303        -4.03114         5.35281
| 26>    C       -8.27555        -4.07940         4.55569
| 27>    S      -10.14013        -5.39298         6.15271
| 28>    C      -11.37409        -4.35200         6.80964
| 29>    C      -11.25113        -3.05235         6.45119
| 30>   Br      -12.70957        -5.07907         7.90931
| 31>    C       -7.89132        -0.56869         3.54901
| 32>    O       -8.28708         0.57792         3.50423
| 33>    C       -6.73191        -1.16909         2.84974
| 34>    C       -5.95471        -0.53089         1.91888
| 35>    C       -5.86668         0.86535         1.65721
| 36>    C       -5.68021         1.26654         0.33025
| 37>    C       -5.74919         2.58687        -0.05266
| 38>    C       -5.96751         3.61177         0.87440
| 39>    C       -6.01739         3.24560         2.26763
| 40>    C       -5.93889         1.88465         2.65751
| 41>    C       -5.84410         1.61938         4.03600
| 42>    C       -5.93791         2.64918         4.93578
| 43>    C       -6.10942         3.94718         4.44137
| 44>    N       -6.11753         4.23542         3.16770
| 45>    C       -6.11546         4.97926         0.55256
| 46>    C       -6.13703         5.61012        -0.66722
| 47>    C       -6.29130         7.01183        -0.83500
| 48>    C       -6.29650         7.43706        -2.12921
| 49>    C       -6.15096         6.39597        -3.06921
| 50>    S       -5.99969         4.85900        -2.24633
| 51>    C       -6.11626         6.46610        -4.44892
| 52>    C       -6.22584         7.59926        -5.28345
| 53>    C       -6.13873         7.30910        -6.61121
| 54>    C       -5.97467         5.93076        -6.90490
| 55>    S       -5.91467         5.01986        -5.41113
| 56>    C       -5.79444         5.41186        -8.16412
| 57>    C       -5.66813         4.07331        -8.56973
| 58>    S       -4.85666         3.76015       -10.10158
| 59>    C       -5.00772         2.02715        -9.93215
| 60>    C       -5.69083         1.73620        -8.76391
| 61>    C       -6.06454         2.86499        -8.01090
| 62>    S       -7.13250         2.57819        -6.65454
| 63>    C       -6.72729         0.80776        -6.53804
| 64>    S       -6.18925         0.16998        -8.15944
| 65>    C       -4.45919         1.18452       -10.92640
| 66>    C       -4.51035        -0.17121       -10.91193
| 67>    C       -3.93814        -0.99275       -11.91120
| 68>    O       -4.03839        -2.34230       -11.78674
| 69>    C       -3.42155        -2.92367       -12.84552
| 70>    C       -2.91370        -1.93020       -13.67187
| 71>    C       -3.24008        -0.69473       -13.07933
| 72>    O       -2.93407         0.53145       -13.55624
| 73>    O       -2.22208        -2.03855       -14.84098
| 74>    C       -3.36881        -4.34131       -12.97385
| 75>    C       -3.90194        -5.20151       -12.08164
| 76>    C       -3.84260        -6.62710       -12.21981
| 77>    C       -4.36780        -7.47560       -11.33528
| 78>    H      -10.19457        -0.70925         5.20802
| 79>    H       -7.77114        -5.01599         4.38713
| 80>    H      -11.92454        -2.27610         6.76556
| 81>    H       -5.39289        -1.15519         1.23337
| 82>    H       -5.54629         0.50534        -0.42558
| 83>    H       -5.64507         2.82528        -1.09858
| 84>    H       -5.67315         0.60838         4.37657
| 85>    H       -5.86945         2.47387         5.99819
| 86>    H       -6.21008         4.78894         5.11510
| 87>    H       -6.23749         5.62116         1.41615
| 88>    H       -6.39486         7.66078         0.01652
| 89>    H       -6.40386         8.46374        -2.43044
| 90>    H       -6.36629         8.58832        -4.88603
| 91>    H       -6.19689         8.04028        -7.39828
| 92>    H       -5.66770         6.13936        -8.95682
| 93>    H       -5.91791         0.67576        -5.81901
| 94>    H       -7.61188         0.26297        -6.21666
| 95>    H       -3.96280         1.68157       -11.74674
| 96>    H       -5.00159        -0.70291       -10.11011
| 97>    H       -2.44816         0.41425       -14.38369
| 98>    H       -2.10606        -2.96847       -15.06158
| 99>    H       -2.86173        -4.72153       -13.85237
|100>    H       -4.40363        -4.80518       -11.21058
|101>    H       -3.33782        -7.00669       -13.09966
|102>    H       -4.87436        -7.12304       -10.45232
|103>    H       -4.30834        -8.54216       -11.46337
|104> *
|105>
|106>                          ****END OF INPUT****

CARTESIAN COORDINATES (ANGSTROEM)
---------------------------------
  C     -6.707850   -2.586910    3.139010
  C     -5.756860   -3.491480    2.732050
  C     -5.784600   -4.864000    3.048990
  N     -5.758470   -5.991800    3.266720
  C     -4.618260   -3.184790    1.960010
  N     -3.658750   -3.019650    1.349310
  C     -7.844350   -2.888170    4.002880
  C     -8.550910   -1.687880    4.255150
  C     -9.677290   -1.640550    5.038230
  C    -10.126240   -2.837180    5.608220
  C     -9.413030   -4.031140    5.352810
  C     -8.275550   -4.079400    4.555690
  S    -10.140130   -5.392980    6.152710
  C    -11.374090   -4.352000    6.809640
  C    -11.251130   -3.052350    6.451190
  Br   -12.709570   -5.079070    7.909310
  C     -7.891320   -0.568690    3.549010
  O     -8.287080    0.577920    3.504230
  C     -6.731910   -1.169090    2.849740
  C     -5.954710   -0.530890    1.918880
  C     -5.866680    0.865350    1.657210
  C     -5.680210    1.266540    0.330250
  C     -5.749190    2.586870   -0.052660
  C     -5.967510    3.611770    0.874400
  C     -6.017390    3.245600    2.267630
  C     -5.938890    1.884650    2.657510
  C     -5.844100    1.619380    4.036000
  C     -5.937910    2.649180    4.935780
  C     -6.109420    3.947180    4.441370
  N     -6.117530    4.235420    3.167700
  C     -6.115460    4.979260    0.552560
  C     -6.137030    5.610120   -0.667220
  C     -6.291300    7.011830   -0.835000
  C     -6.296500    7.437060   -2.129210
  C     -6.150960    6.395970   -3.069210
  S     -5.999690    4.859000   -2.246330
  C     -6.116260    6.466100   -4.448920
  C     -6.225840    7.599260   -5.283450
  C     -6.138730    7.309100   -6.611210
  C     -5.974670    5.930760   -6.904900
  S     -5.914670    5.019860   -5.411130
  C     -5.794440    5.411860   -8.164120
  C     -5.668130    4.073310   -8.569730
  S     -4.856660    3.760150  -10.101580
  C     -5.007720    2.027150   -9.932150
  C     -5.690830    1.736200   -8.763910
  C     -6.064540    2.864990   -8.010900
  S     -7.132500    2.578190   -6.654540
  C     -6.727290    0.807760   -6.538040
  S     -6.189250    0.169980   -8.159440
  C     -4.459190    1.184520  -10.926400
  C     -4.510350   -0.171210  -10.911930
  C     -3.938140   -0.992750  -11.911200
  O     -4.038390   -2.342300  -11.786740
  C     -3.421550   -2.923670  -12.845520
  C     -2.913700   -1.930200  -13.671870
  C     -3.240080   -0.694730  -13.079330
  O     -2.934070    0.531450  -13.556240
  O     -2.222080   -2.038550  -14.840980
  C     -3.368810   -4.341310  -12.973850
  C     -3.901940   -5.201510  -12.081640
  C     -3.842600   -6.627100  -12.219810
  C     -4.367800   -7.475600  -11.335280
  H    -10.194570   -0.709250    5.208020
  H     -7.771140   -5.015990    4.387130
  H    -11.924540   -2.276100    6.765560
  H     -5.392890   -1.155190    1.233370
  H     -5.546290    0.505340   -0.425580
  H     -5.645070    2.825280   -1.098580
  H     -5.673150    0.608380    4.376570
  H     -5.869450    2.473870    5.998190
  H     -6.210080    4.788940    5.115100
  H     -6.237490    5.621160    1.416150
  H     -6.394860    7.660780    0.016520
  H     -6.403860    8.463740   -2.430440
  H     -6.366290    8.588320   -4.886030
  H     -6.196890    8.040280   -7.398280
  H     -5.667700    6.139360   -8.956820
  H     -5.917910    0.675760   -5.819010
  H     -7.611880    0.262970   -6.216660
  H     -3.962800    1.681570  -11.746740
  H     -5.001590   -0.702910  -10.110110
  H     -2.448160    0.414250  -14.383690
  H     -2.106060   -2.968470  -15.061580
  H     -2.861730   -4.721530  -13.852370
  H     -4.403630   -4.805180  -11.210580
  H     -3.337820   -7.006690  -13.099660
  H     -4.874360   -7.123040  -10.452320
  H     -4.308340   -8.542160  -11.463370

 Total Charge           Charge          ....    0
 Multiplicity           Mult            ....    1
 Number of Electrons    NEL             ....  504
 Basis Dimension        Dim             .... 1054

ORBITAL ENERGIES
----------------

  NO   OCC          E(Eh)            E(eV)
   0   2.0000    -482.881644    -13139.8775
   1   2.0000     -88.970488     -2421.0101
   2   2.0000     -88.948913     -2420.4230
   3   2.0000     -88.945920     -2420.3415
   4   2.0000     -88.944256     -2420.2963
   5   2.0000     -88.940000     -2420.1804
   6   2.0000     -88.939744     -2420.1735
   7   2.0000     -62.559365     -1702.3269
   8   2.0000     -56.393312     -1534.5400
   9   2.0000     -56.390601     -1534.4663
  10   2.0000     -56.390569     -1534.4654
  11   2.0000     -19.281016      -524.6631
  12   2.0000     -19.265340      -524.2365
  13   2.0000     -19.257667      -524.0278
  14   2.0000     -19.206257      -522.6288
  15   2.0000     -14.407379      -392.0447
  16   2.0000     -14.407245      -392.0411
  17   2.0000     -14.395426      -391.7195
  18   2.0000     -10.357363      -281.8382
  19   2.0000     -10.354097      -281.7493
  20   2.0000     -10.333647      -281.1928
  21   2.0000     -10.333116      -281.1784
  22   2.0000     -10.332483      -281.1612
  23   2.0000     -10.331222      -281.1268
  24   2.0000     -10.327437      -281.0239
  25   2.0000     -10.325277      -280.9651
  26   2.0000     -10.322657      -280.8938
  27   2.0000     -10.319695      -280.8132
  28   2.0000     -10.312779      -280.6250
  29   2.0000     -10.310820      -280.5717
  30   2.0000     -10.310574      -280.5650
  31   2.0000     -10.308590      -280.5110
  32   2.0000     -10.308217      -280.5008
  33   2.0000     -10.307952      -280.4936
  34   2.0000     -10.307416      -280.4790
  35   2.0000     -10.306667      -280.4587
  36   2.0000     -10.305511      -280.4272
  37   2.0000     -10.304346      -280.3955
  38   2.0000     -10.302348      -280.3412
  39   2.0000     -10.301880      -280.3284
  40   2.0000     -10.301834      -280.3272
  41   2.0000     -10.301045      -280.3057
  42   2.0000     -10.299169      -280.2546
  43   2.0000     -10.298842      -280.2457
  44   2.0000     -10.294300      -280.1221
  45   2.0000     -10.292165      -280.0641
  46   2.0000     -10.291992      -280.0593
  47   2.0000     -10.288292      -279.9586
  48   2.0000     -10.287459      -279.9360
  49   2.0000     -10.286868      -279.9199
  50   2.0000     -10.286668      -279.9145
  51   2.0000     -10.285440      -279.8810
  52   2.0000     -10.285146      -279.8730
  53   2.0000     -10.284232      -279.8482
  54   2.0000     -10.283790      -279.8362
  55   2.0000     -10.283710      -279.8340
  56   2.0000     -10.282755      -279.8080
  57   2.0000     -10.281965      -279.7865
  58   2.0000     -10.280206      -279.7386
  59   2.0000     -10.278610      -279.6952
  60   2.0000     -10.274674      -279.5881
  61   2.0000     -10.271666      -279.5063
  62   2.0000     -10.270864      -279.4844
  63   2.0000     -10.270245      -279.4676
  64   2.0000     -10.269382      -279.4441
  65   2.0000     -10.264842      -279.3206
  66   2.0000     -10.260160      -279.1932
  67   2.0000      -8.788793      -239.1552
  68   2.0000      -8.066484      -219.5002
  69   2.0000      -8.044641      -218.9058
  70   2.0000      -8.041774      -218.8278
  71   2.0000      -8.040423      -218.7910
  72   2.0000      -8.035390      -218.6541
  73   2.0000      -8.035183      -218.6484
  74   2.0000      -6.625084      -180.2777
  75   2.0000      -6.610537      -179.8819
  76   2.0000      -6.610331      -179.8762
  77   2.0000      -6.036176      -164.2527
  78   2.0000      -6.031911      -164.1367
  79   2.0000      -6.027690      -164.0218
  80   2.0000      -6.014208      -163.6549
  81   2.0000      -6.011452      -163.5799
  82   2.0000      -6.010207      -163.5461
  83   2.0000      -6.010123      -163.5437
  84   2.0000      -6.007399      -163.4696
  85   2.0000      -6.006005      -163.4317
  86   2.0000      -6.005955      -163.4303
  87   2.0000      -6.005944      -163.4301
  88   2.0000      -6.005780      -163.4256
  89   2.0000      -6.002872      -163.3465
  90   2.0000      -6.001709      -163.3148
  91   2.0000      -6.001579      -163.3113
  92   2.0000      -6.001359      -163.3053
  93   2.0000      -5.994750      -163.1254
  94   2.0000      -5.994678      -163.1235
  95   2.0000      -2.740934       -74.5846
  96   2.0000      -2.736870       -74.4740
  97   2.0000      -2.736748       -74.4707
  98   2.0000      -2.725170       -74.1556
  99   2.0000      -2.725152       -74.1551
 100   2.0000      -1.201830       -32.7034
 101   2.0000      -1.158656       -31.5286
 102   2.0000      -1.142147       -31.0794
 103   2.0000      -1.121243       -30.5106
 104   2.0000      -1.034485       -28.1498
 105   2.0000      -1.016369       -27.6568
 106   2.0000      -1.006261       -27.3817
 107   2.0000      -1.001453       -27.2509
 108   2.0000      -0.993718       -27.0405
 109   2.0000      -0.985864       -26.8267
 110   2.0000      -0.982379       -26.7319
 111   2.0000      -0.972234       -26.4558
 112   2.0000      -0.952234       -25.9116
 113   2.0000      -0.934893       -25.4397
 114   2.0000      -0.934421       -25.4269
 115   2.0000      -0.916430       -24.9373
 116   2.0000      -0.911511       -24.8035
 117   2.0000      -0.904444       -24.6112
 118   2.0000      -0.901872       -24.5412
 119   2.0000      -0.887026       -24.1372
 120   2.0000      -0.883484       -24.0408
 121   2.0000      -0.880977       -23.9726
 122   2.0000      -0.879513       -23.9328
 123   2.0000      -0.870641       -23.6913
 124   2.0000      -0.860759       -23.4224
 125   2.0000      -0.848890       -23.0995
 126   2.0000      -0.844913       -22.9913
 127   2.0000      -0.841520       -22.8989
 128   2.0000      -0.839513       -22.8443
 129   2.0000      -0.824932       -22.4475
 130   2.0000      -0.823389       -22.4055
 131   2.0000      -0.820588       -22.3293
 132   2.0000      -0.819089       -22.2885
 133   2.0000      -0.806312       -21.9409
 134   2.0000      -0.790309       -21.5054
 135   2.0000      -0.771342       -20.9893
 136   2.0000      -0.754946       -20.5431
 137   2.0000      -0.750263       -20.4157
 138   2.0000      -0.735525       -20.0146
 139   2.0000      -0.725347       -19.7377
 140   2.0000      -0.720823       -19.6146
 141   2.0000      -0.719367       -19.5750
 142   2.0000      -0.711715       -19.3667
 143   2.0000      -0.706020       -19.2118
 144   2.0000      -0.699518       -19.0348
 145   2.0000      -0.687651       -18.7119
 146   2.0000      -0.683846       -18.6084
 147   2.0000      -0.682188       -18.5633
 148   2.0000      -0.671150       -18.2629
 149   2.0000      -0.667537       -18.1646
 150   2.0000      -0.660213       -17.9653
 151   2.0000      -0.651800       -17.7364
 152   2.0000      -0.649326       -17.6691
 153   2.0000      -0.641073       -17.4445
 154   2.0000      -0.631066       -17.1722
 155   2.0000      -0.623257       -16.9597
 156   2.0000      -0.620550       -16.8860
 157   2.0000      -0.617876       -16.8133
 158   2.0000      -0.616156       -16.7665
 159   2.0000      -0.613949       -16.7064
 160   2.0000      -0.607833       -16.5400
 161   2.0000      -0.601330       -16.3630
 162   2.0000      -0.598690       -16.2912
 163   2.0000      -0.589311       -16.0360
 164   2.0000      -0.582700       -15.8561
 165   2.0000      -0.580571       -15.7981
 166   2.0000      -0.573558       -15.6073
 167   2.0000      -0.565012       -15.3747
 168   2.0000      -0.562194       -15.2981
 169   2.0000      -0.556127       -15.1330
 170   2.0000      -0.552260       -15.0278
 171   2.0000      -0.546240       -14.8640
 172   2.0000      -0.541988       -14.7483
 173   2.0000      -0.541326       -14.7302
 174   2.0000      -0.540081       -14.6963
 175   2.0000      -0.537130       -14.6160
 176   2.0000      -0.532902       -14.5010
 177   2.0000      -0.529662       -14.4128
 178   2.0000      -0.527613       -14.3571
 179   2.0000      -0.521251       -14.1839
 180   2.0000      -0.515651       -14.0316
 181   2.0000      -0.512904       -13.9568
 182   2.0000      -0.510423       -13.8893
 183   2.0000      -0.506926       -13.7942
 184   2.0000      -0.503802       -13.7091
 185   2.0000      -0.503262       -13.6944
 186   2.0000      -0.501328       -13.6418
 187   2.0000      -0.497849       -13.5472
 188   2.0000      -0.496070       -13.4988
 189   2.0000      -0.495481       -13.4827
 190   2.0000      -0.492841       -13.4109
 191   2.0000      -0.489839       -13.3292
 192   2.0000      -0.488382       -13.2895
 193   2.0000      -0.486935       -13.2502
 194   2.0000      -0.486225       -13.2308
 195   2.0000      -0.484955       -13.1963
 196   2.0000      -0.484535       -13.1849
 197   2.0000      -0.480557       -13.0766
 198   2.0000      -0.479822       -13.0566
 199   2.0000      -0.475230       -12.9317
 200   2.0000      -0.468592       -12.7510
 201   2.0000      -0.466960       -12.7066
 202   2.0000      -0.466717       -12.7000
 203   2.0000      -0.465198       -12.6587
 204   2.0000      -0.462833       -12.5943
 205   2.0000      -0.457767       -12.4565
 206   2.0000      -0.454841       -12.3769
 207   2.0000      -0.450568       -12.2606
 208   2.0000      -0.446213       -12.1421
 209   2.0000      -0.441806       -12.0221
 210   2.0000      -0.441372       -12.0103
 211   2.0000      -0.436441       -11.8762
 212   2.0000      -0.436282       -11.8718
 213   2.0000      -0.433544       -11.7973
 214   2.0000      -0.432053       -11.7568
 215   2.0000      -0.428938       -11.6720
 216   2.0000      -0.427750       -11.6397
 217   2.0000      -0.423367       -11.5204
 218   2.0000      -0.420646       -11.4463
 219   2.0000      -0.418574       -11.3900
 220   2.0000      -0.417039       -11.3482
 221   2.0000      -0.414905       -11.2901
 222   2.0000      -0.413595       -11.2545
 223   2.0000      -0.412002       -11.2111
 224   2.0000      -0.407536       -11.0896
 225   2.0000      -0.404811       -11.0155
 226   2.0000      -0.400955       -10.9105
 227   2.0000      -0.399158       -10.8616
 228   2.0000      -0.396080       -10.7779
 229   2.0000      -0.388352       -10.5676
 230   2.0000      -0.382457       -10.4072
 231   2.0000      -0.378754       -10.3064
 232   2.0000      -0.371184       -10.1004
 233   2.0000      -0.364544        -9.9197
 234   2.0000      -0.361219        -9.8293
 235   2.0000      -0.351283        -9.5589
 236   2.0000      -0.340126        -9.2553
 237   2.0000      -0.337178        -9.1751
 238   2.0000      -0.331154        -9.0112
 239   2.0000      -0.328101        -8.9281
 240   2.0000      -0.323321        -8.7980
 241   2.0000      -0.321866        -8.7584
 242   2.0000      -0.315128        -8.5751
 243   2.0000      -0.310548        -8.4504
 244   2.0000      -0.308342        -8.3904
 245   2.0000      -0.302084        -8.2201
 246   2.0000      -0.289175        -7.8688
 247   2.0000      -0.284470        -7.7408
 248   2.0000      -0.267700        -7.2845
 249   2.0000      -0.263563        -7.1719
 250   2.0000      -0.231742        -6.3060
 251   2.0000      -0.203509        -5.5378
 252   0.0000      -0.097501        -2.6531
 253   0.0000      -0.069701        -1.8967
 254   0.0000      -0.051954        -1.4137
 255   0.0000      -0.034316        -0.9338
 256   0.0000      -0.014826        -0.4034

MULLIKEN ATOMIC CHARGES
-----------------------
   0 C :    0.304511
   1 C :   -0.351441
   2 C :   -0.183897
   3 N :    0.141783
   4 C :   -0.201247
   5 N :    0.152017
   6 C :    0.018039
   7 C :   -0.011815
   8 C :   -0.074803
   9 C :    0.118511
  10 C :   -0.092222
  11 C :   -0.024008
  12 S :    0.183092
  13 C :   -0.122719
  14 C :    0.038408
  15 Br:    0.019209
  16 C :    0.121821
  17 O :   -0.142516
  18 C :   -0.103268
  19 C :   -0.064250
  20 C :    0.065388
  21 C :    0.007188
  22 C :   -0.074319
  23 C :    0.130619
  24 C :   -0.063970
  25 C :    0.111569
  26 C :    0.041226
  27 C :   -0.000202
  28 C :    0.027999
  29 N :   -0.050336
  30 C :   -0.061294
  31 C :    0.013923
  32 C :    0.024605
  33 C :    0.039027
  34 C :   -0.041586
  35 S :    0.055901
  36 C :   -0.044414
  37 C :    0.027918
  38 C :    0.036993
  39 C :   -0.040798
  40 S :    0.103825
  41 C :    0.015899
  42 C :   -0.175068
  43 S :    0.120039
  44 C :   -0.126064
  45 C :   -0.018971
  46 C :   -0.001852
  47 S :    0.057226
  48 C :   -0.095031
  49 S :    0.023929
  50 C :    0.023508
  51 C :   -0.014788
  52 C :    0.101484
  53 O :   -0.214594
  54 C :    0.092324
  55 C :    0.089475
  56 C :    0.055511
  57 O :   -0.174749
  58 O :   -0.203755
  59 C :   -0.055213
  60 C :    0.014999
  61 C :    0.005016
  62 C :   -0.017415
  63 H :   -0.012707
  64 H :   -0.007694
  65 H :   -0.005162
  66 H :    0.030472
  67 H :   -0.014204
  68 H :   -0.013513
  69 H :   -0.006969
  70 H :   -0.007642
  71 H :   -0.001042
  72 H :   -0.001362
  73 H :   -0.008227
  74 H :   -0.012691
  75 H :   -0.014314
  76 H :   -0.008800
  77 H :   -0.007405
  78 H :    0.102957
  79 H :    0.089531
  80 H :   -0.005715
  81 H :   -0.004339
  82 H :    0.193607
  83 H :    0.191505
  84 H :   -0.035892
  85 H :   -0.000361
  86 H :   -0.014096
  87 H :    0.015700
  88 H :    0.021988
Sum of atomic charges:    0.0000000

LOEWDIN ATOMIC CHARGES
----------------------
   0 C :    0.075196
   1 C :   -0.147702
   2 C :   -0.018114
   3 N :   -0.060500
   4 C :   -0.024774
   5 N :   -0.056615
   6 C :   -0.021586
   7 C :   -0.048871
   8 C :    0.018584
   9 C :   -0.033808
  10 C :   -0.145026
  11 C :   -0.011415
  12 S :    0.429678
  13 C :   -0.272710
  14 C :   -0.070789
  15 Br:    0.133190
  16 C :    0.075552
  17 O :   -0.137672
  18 C :   -0.112895
  19 C :    0.076550
  20 C :   -0.043765
  21 C :    0.020838
  22 C :   -0.042220
  23 C :    0.004891
  24 C :    0.013375
  25 C :   -0.008600
  26 C :    0.028983
  27 C :   -0.043334
  28 C :    0.025184
  29 N :   -0.065228
  30 C :   -0.057078
  31 C :   -0.126746
  32 C :   -0.034004
  33 C :   -0.028152
  34 C :   -0.189348
  35 S :    0.388793
  36 C :   -0.165111
  37 C :   -0.044620
  38 C :   -0.020128
  39 C :   -0.164302
  40 S :    0.391361
  41 C :   -0.066510
  42 C :   -0.201130
  43 S :    0.418971
  44 C :   -0.178498
  45 C :   -0.207733
  46 C :   -0.207597
  47 S :    0.317407
  48 C :   -0.232236
  49 S :    0.306783
  50 C :   -0.051966
  51 C :   -0.031741
  52 C :   -0.001269
  53 O :    0.005360
  54 C :   -0.015268
  55 C :   -0.019702
  56 C :   -0.003931
  57 O :   -0.043612
  58 O :   -0.064692
  59 C :   -0.053503
  60 C :   -0.017196
  61 C :   -0.029489
  62 C :   -0.044429
  63 H :    0.039953
  64 H :    0.040533
  65 H :    0.038247
  66 H :    0.045610
  67 H :    0.033939
  68 H :    0.012613
  69 H :    0.031515
  70 H :    0.032155
  71 H :    0.020407
  72 H :    0.036476
  73 H :    0.035154
  74 H :    0.032683
  75 H :    0.031431
  76 H :    0.034159
  77 H :    0.035721
  78 H :    0.021290
  79 H :    0.029050
  80 H :    0.030836
  81 H :    0.022592
  82 H :    0.104219
  83 H :    0.098504
  84 H :    0.023451
  85 H :    0.031929
  86 H :    0.025490
  87 H :    0.022703
  88 H :    0.024258

  Mayer bond orders larger than 0.100000
B(  0-C ,  1-C ) :   1.6222 B(  0-C ,  6-C ) :   1.0038 B(  0-C , 18-C ) :   1.0788
B(  1-C ,  2-C ) :   1.1412 B(  1-C ,  4-C ) :   1.1467 B(  2-C ,  3-N ) :   2.9662
B(  4-C ,  5-N ) :   2.9809 B(  6-C ,  7-C ) :   1.2727 B(  6-C , 11-C ) :   1.4095
B(  7-C ,  8-C ) :   1.4301 B(  7-C , 16-C ) :   0.9329 B(  8-C ,  9-C ) :   1.2392
B(  8-C , 63-H ) :   1.0170 B(  9-C , 10-C ) :   1.3114 B(  9-C , 14-C ) :   1.1619
B( 10-C , 11-C ) :   1.3273 B( 10-C , 12-S ) :   1.0839 B( 11-C , 64-H ) :   0.9798
B( 12-S , 13-C ) :   1.0860 B( 13-C , 14-C ) :   1.6194 B( 13-C , 15-Br) :   1.0156
B( 14-C , 65-H ) :   1.0002 B( 16-C , 17-O ) :   2.2208 B( 16-C , 18-C ) :   0.9523
B( 18-C , 19-C ) :   1.5369 B( 19-C , 20-C ) :   1.1663 B( 19-C , 66-H ) :   0.9478
B( 20-C , 21-C ) :   1.3332 B( 20-C , 25-C ) :   1.1732 B( 21-C , 22-C ) :   1.3650
B( 21-C , 67-H ) :   0.9905 B( 22-C , 23-C ) :   1.3192 B( 22-C , 68-H ) :   0.9773
B( 23-C , 24-C ) :   1.1531 B( 23-C , 30-C ) :   1.2125 B( 24-C , 25-C ) :   1.2708
B( 24-C , 29-N ) :   1.4697 B( 25-C , 26-C ) :   1.2953 B( 26-C , 27-C ) :   1.5186
B( 26-C , 69-H ) :   0.9622 B( 27-C , 28-C ) :   1.2571 B( 27-C , 70-H ) :   0.9735
B( 28-C , 29-N ) :   1.6420 B( 28-C , 71-H ) :   0.9788 B( 30-C , 31-C ) :   1.4911
B( 30-C , 72-H ) :   0.9566 B( 31-C , 32-C ) :   1.1593 B( 31-C , 35-S ) :   1.0488
B( 32-C , 33-C ) :   1.5702 B( 32-C , 73-H ) :   1.0011 B( 33-C , 34-C ) :   1.1960
B( 33-C , 74-H ) :   0.9938 B( 34-C , 35-S ) :   1.0336 B( 34-C , 36-C ) :   1.4926
B( 36-C , 37-C ) :   1.1846 B( 36-C , 40-S ) :   1.0586 B( 37-C , 38-C ) :   1.5877
B( 37-C , 75-H ) :   0.9940 B( 38-C , 39-C ) :   1.1464 B( 38-C , 76-H ) :   0.9983
B( 39-C , 40-S ) :   1.0381 B( 39-C , 41-C ) :   1.5927 B( 41-C , 42-C ) :   1.1739
B( 41-C , 77-H ) :   0.9455 B( 42-C , 43-S ) :   1.0835 B( 42-C , 46-C ) :   1.5142
B( 43-S , 44-C ) :   1.0994 B( 44-C , 45-C ) :   1.5465 B( 44-C , 50-C ) :   1.1544
B( 45-C , 46-C ) :   1.2770 B( 45-C , 49-S ) :   1.0117 B( 46-C , 47-S ) :   1.0115
B( 47-S , 48-C ) :   0.9789 B( 48-C , 49-S ) :   0.9732 B( 48-C , 78-H ) :   0.9475
B( 48-C , 79-H ) :   0.9592 B( 50-C , 51-C ) :   1.6210 B( 50-C , 80-H ) :   0.9555
B( 51-C , 52-C ) :   1.1922 B( 51-C , 81-H ) :   0.9394 B( 52-C , 53-O ) :   1.1158
B( 52-C , 54-C ) :   0.1116 B( 52-C , 56-C ) :   1.4086 B( 53-O , 54-C ) :   1.1234
B( 54-C , 55-C ) :   1.3229 B( 54-C , 59-C ) :   1.1240 B( 55-C , 56-C ) :   1.2494
B( 55-C , 58-O ) :   1.2254 B( 56-C , 57-O ) :   1.2356 B( 57-O , 82-H ) :   0.9497
B( 58-O , 83-H ) :   0.9585 B( 59-C , 60-C ) :   1.6974 B( 59-C , 84-H ) :   0.9612
B( 60-C , 61-C ) :   1.0977 B( 60-C , 85-H ) :   0.9860 B( 61-C , 62-C ) :   1.8987
B( 61-C , 86-H ) :   0.9734 B( 62-C , 87-H ) :   0.9584 B( 62-C , 88-H ) :   0.9519

-----------------------------------------------------------------------------
         ABSORPTION SPECTRUM VIA TRANSITION ELECTRIC DIPOLE MOMENTS
-----------------------------------------------------------------------------
State   Energy  Wavelength   fosc         T2         TX        TY        TZ
        (cm-1)    (nm)                  (au**2)     (au)      (au)      (au)
-----------------------------------------------------------------------------
   0   10231.6    977.4   1.129128881  36.33092  -0.73575  -1.19101   5.86269
   1   17577.5    568.9   1.174425827  21.99602  -0.37361   4.27143   1.90035
   2   18330.1    545.6   0.307322119   5.51956   0.08256  -2.01092   1.21200
   3   20698.6    483.1   0.219323081   3.48834  -0.16864   1.75654   0.61193
   4   21985.2    454.9   0.169878325   2.54380   0.53014   1.44756  -0.40907
   5   24125.0    414.5   0.242197748   3.30505   0.08875  -1.74072  -0.51677
   6   24403.7    409.8   0.066767869   0.90072  -0.62829   0.49330  -0.51247
   7   24577.5    406.9   0.340394267   4.55953  -0.57972   2.05383   0.07249
   8   26780.8    373.4   0.035437161   0.43562   0.38866   0.38313  -0.37118
   9   27528.8    363.3   0.132443981   1.58387  -1.03831  -0.31188   0.63915
  10   28045.5    356.6   0.016515294   0.19387  -0.41364  -0.01268   0.15036
  11   28185.4    354.8   0.032133031   0.37532  -0.22538  -0.56202  -0.09303
  12   28640.4    349.2   0.128151874   1.47306   0.93181   0.05246  -0.77591
  13   29740.0    336.2   0.045251030   0.50091  -0.00975  -0.68149   0.19078
  14   29950.8    333.9   0.032067623   0.35248  -0.07237  -0.53951   0.23702
  15   30165.1    331.5   0.005956504   0.06501   0.08990  -0.21641   0.10045
  16   30378.6    329.2   0.019397663   0.21021  -0.30129  -0.27512   0.20915
  17   30864.8    324.0   0.069835998   0.74489  -0.42411  -0.63681  -0.39936
  18   30925.1    323.4   0.041215356   0.43876   0.49648   0.21157  -0.38406
  19   31140.6    321.1   0.053404443   0.56458   0.01131   0.74989   0.04604
  20   31811.9    314.3   0.003173557   0.03284   0.07344   0.16568  -0.00037
  21   32106.2    311.5   0.002938829   0.03013  -0.07676  -0.12264   0.09592
  22   32895.0    304.0   0.165167244   1.65299   1.03652  -0.08215  -0.75622
  23   33043.2    302.6   0.274878719   2.73863   1.48236  -0.06638  -0.73268
  24   33324.8    300.1   0.049836616   0.49233  -0.53134   0.08148   0.45096
  25   33607.7    297.6   0.017191169   0.16840  -0.13841  -0.29065   0.25449
  26   33891.1    295.1   0.044237242   0.42971   0.37512  -0.52971  -0.09167
  27   34378.2    290.9   0.141409831   1.35417   0.54271  -0.75236  -0.70255
  28   34542.8    289.5   0.053234646   0.50736   0.59795   0.20448  -0.32863
  29   34828.6    287.1   0.035697075   0.33742  -0.26483   0.37351  -0.35746
  30   35488.9    281.8   0.018662298   0.17312   0.01916   0.25679   0.32682
  31   35650.7    280.5   0.262144845   2.42074   0.65932   0.91473  -1.07205
  32   36469.3    274.2   0.059513788   0.53724   0.46723  -0.23754  -0.51236
  33   36664.1    272.7   0.015620437   0.14026   0.18829   0.07664  -0.31453
  34   36970.8    270.5   0.030504804   0.27163  -0.37312   0.30704   0.19530
  35   37030.5    270.0   0.019053475   0.16939   0.00074  -0.15127  -0.38277
  36   37193.6    268.9   0.021540260   0.19066  -0.11571   0.37239  -0.19646
  37   37460.2    266.9   0.128712346   1.13116  -0.11588  -1.02971   0.23963
  38   37836.9    264.3   0.079152788   0.68869  -0.08579  -0.77915   0.27252
  39   37934.8    263.6   0.095175350   0.82597  -0.22702  -0.54785   0.68869
  40   38321.1    261.0   0.018416327   0.15821   0.07604  -0.35887  -0.15376
  41   38765.4    258.0   0.207313614   1.76059   0.24931  -1.29964   0.09679
  42   39040.0    256.1   0.035820280   0.30206   0.22085   0.47354  -0.17043
  43   39478.0    253.3   0.007338334   0.06120   0.12248  -0.16925  -0.13247
  44   39927.4    250.5   0.003687177   0.03040   0.06434  -0.06761  -0.14728
  45   40051.2    249.7   0.004867264   0.04001  -0.01857  -0.14802  -0.13325
  46   40106.3    249.3   0.055791537   0.45796   0.33849   0.25779  -0.52624
  47   40152.4    249.1   0.026388387   0.21636   0.29906   0.16683  -0.31478

FINAL SINGLE POINT ENERGY     -7307.306069664948

DIPOLE MOMENT
-------------
                                X             Y             Z
Electronic contribution:    -79.69129     -55.50596     144.34112
Nuclear contribution   :     79.01672      57.10286    -146.41447
                        -----------------------------------------
Total Dipole Moment    :     -0.67457       1.59690      -2.07334
                        -----------------------------------------
Magnitude (a.u.)       :      2.70257
Magnitude (Debye)      :      6.86940

Rotational constants in cm-1:     0.000972     0.000293     0.000239
Rotational constants in MHz :    29.151124     8.782779     7.178701

                             ****ORCA TERMINATED NORMALLY****
TOTAL RUN TIME: 0 days 0 hours 9 minutes 6 seconds 348 msec
