                         Program Version 4.2.0 -  RELEASE  -
|  1> # ORCA input file
|  2> # SCF done       -174.240967431867          0.000965811796
|  3> ! CAM-B3LYP def2-SVP def2/J RIJCOSX Grid4 TightSCF
|  4> %maxcore 5000
|  5> %tddft
|  6>     Mode sTDDFT
|  7>     Ethresh 5.0
|  8>     maxcore 5000
|  9> end
| 10>
| 11> %pal
| 12>   nprocs 6
| 13>   end
| 14> * xyz 0 1
| 15>    C      -12.77433         3.88802       -10.01883
| 16>    C      -13.60056         2.83963        -9.70994
| 17>    C      -13.69628         1.65607       -10.47197
| 18>    N      -13.81448         0.67022       -11.04726
| 19>    C      -14.47505         2.80769        -8.60430
| 20>    N      -15.20668         2.73281        -7.72227
| 21>    C      -11.91811         3.97999       -11.19453
| 22>    C      -11.29492         5.25288       -11.20682
| 23>    C      -10.42655         5.64526       -12.19651
| 24>    C      -10.15918         4.73752       -13.22615
| 25>    C      -10.78397         3.46679       -13.20590
| 26>    C      -11.66301         3.07147       -12.20475
| 27>    S      -10.30883         2.49991       -14.56763
| 28>    C       -9.29253         3.79572       -15.13969
| 29>    C       -9.30749         4.89834       -14.35195
| 30>   Br       -8.30265         3.57117       -16.71614
| 31>    C      -11.72303         6.01591       -10.02617
| 32>    O      -11.32597         7.11766        -9.68908
| 33>    C      -12.64321         5.13427        -9.28593
| 34>    C      -13.12904         5.38492        -8.03265
| 35>    N      -13.12739         6.57782        -7.39958
| 36>    C      -13.13709         7.82620        -7.97414
| 37>    S      -14.01819         8.11244        -9.44054
| 38>    C      -13.69819         9.80372        -9.28438
| 39>    N      -14.16525        10.65354       -10.30109
| 40>    O      -13.94202        11.84171       -10.18956
| 41>    O      -14.76480        10.12359       -11.21831
| 42>    C      -12.98531        10.12507        -8.16356
| 43>    C      -12.64260         8.99322        -7.39149
| 44>    C      -11.85601         9.10750        -6.19068
| 45>    C      -11.19799         8.12103        -5.54895
| 46>    C      -10.45688         8.29782        -4.33923
| 47>    O      -10.31778         7.21878        -3.51902
| 48>    C       -9.73299         7.60392        -2.40515
| 49>    C       -9.45732         8.95859        -2.43645
| 50>    N       -8.96007         9.64809        -1.31390
| 51>    O       -8.38878         8.99315        -0.46885
| 52>    O       -9.17227        10.85335        -1.22728
| 53>    C       -9.89029         9.42303        -3.72754
| 54>    N       -9.76297        10.64110        -4.31927
| 55>    N       -8.96277        11.62744        -3.75750
| 56>    C       -8.39855        12.65438        -4.43001
| 57>    S       -7.97563        14.04209        -3.46471
| 58>    C       -7.10255        14.70654        -4.81265
| 59>    N       -6.45880        15.92942        -4.63393
| 60>    O       -5.84258        16.39317        -5.57768
| 61>    O       -6.56693        16.45086        -3.53453
| 62>    C       -7.15190        13.90782        -5.92312
| 63>    C       -7.91637        12.74004        -5.74402
| 64>    C       -8.03843        11.77898        -6.82321
| 65>    C       -9.17888        11.21907        -7.28894
| 66>    C       -9.29054        10.26011        -8.33172
| 67>    C       -8.31543         9.70210        -9.11027
| 68>    C       -8.56989         8.72684       -10.11879
| 69>    C       -7.47480         8.32985       -10.81154
| 70>    C       -6.27113         8.96254       -10.40520
| 71>    S       -6.59644        10.06380        -9.07773
| 72>    C       -5.01203         8.80643       -10.92592
| 73>    C       -4.62267         7.96778       -12.01133
| 74>    C       -3.31065         8.03140       -12.32061
| 75>    C       -2.54934         8.92992       -11.49852
| 76>    S       -3.62456         9.67949       -10.30754
| 77>    C       -1.24005         9.19951       -11.57409
| 78>    H       -9.97246         6.62364       -12.18272
| 79>    H      -12.11171         2.09273       -12.23318
| 80>    H       -8.74373         5.78942       -14.55967
| 81>    H      -13.52383         4.56986        -7.44034
| 82>    H      -13.24997         6.56660        -6.39325
| 83>    H      -12.70668        11.13634        -7.92701
| 84>    H      -11.81598        10.10829        -5.78617
| 85>    H      -11.22019         7.10242        -5.90573
| 86>    H       -9.56935         6.89074        -1.62119
| 87>    H       -9.74662        10.63920        -5.33837
| 88>    H       -9.11684        11.73757        -2.74670
| 89>    H       -6.66110        14.16496        -6.84445
| 90>    H       -7.10716        11.57863        -7.33218
| 91>    H      -10.12780        11.56022        -6.88599
| 92>    H      -10.29195         9.91249        -8.54866
| 93>    H       -9.56664         8.35195       -10.26751
| 94>    H       -7.48440         7.60210       -11.60371
| 95>    H       -5.33736         7.34872       -12.52428
| 96>    H       -2.83532         7.47546       -13.10919
| 97>    H       -0.62302         8.72269       -12.31512
| 98>    H       -0.76615         9.89513       -10.90605
| 99> *
|100>
|101>                          ****END OF INPUT****

CARTESIAN COORDINATES (ANGSTROEM)
---------------------------------
  C    -12.774330    3.888020  -10.018830
  C    -13.600560    2.839630   -9.709940
  C    -13.696280    1.656070  -10.471970
  N    -13.814480    0.670220  -11.047260
  C    -14.475050    2.807690   -8.604300
  N    -15.206680    2.732810   -7.722270
  C    -11.918110    3.979990  -11.194530
  C    -11.294920    5.252880  -11.206820
  C    -10.426550    5.645260  -12.196510
  C    -10.159180    4.737520  -13.226150
  C    -10.783970    3.466790  -13.205900
  C    -11.663010    3.071470  -12.204750
  S    -10.308830    2.499910  -14.567630
  C     -9.292530    3.795720  -15.139690
  C     -9.307490    4.898340  -14.351950
  Br    -8.302650    3.571170  -16.716140
  C    -11.723030    6.015910  -10.026170
  O    -11.325970    7.117660   -9.689080
  C    -12.643210    5.134270   -9.285930
  C    -13.129040    5.384920   -8.032650
  N    -13.127390    6.577820   -7.399580
  C    -13.137090    7.826200   -7.974140
  S    -14.018190    8.112440   -9.440540
  C    -13.698190    9.803720   -9.284380
  N    -14.165250   10.653540  -10.301090
  O    -13.942020   11.841710  -10.189560
  O    -14.764800   10.123590  -11.218310
  C    -12.985310   10.125070   -8.163560
  C    -12.642600    8.993220   -7.391490
  C    -11.856010    9.107500   -6.190680
  C    -11.197990    8.121030   -5.548950
  C    -10.456880    8.297820   -4.339230
  O    -10.317780    7.218780   -3.519020
  C     -9.732990    7.603920   -2.405150
  C     -9.457320    8.958590   -2.436450
  N     -8.960070    9.648090   -1.313900
  O     -8.388780    8.993150   -0.468850
  O     -9.172270   10.853350   -1.227280
  C     -9.890290    9.423030   -3.727540
  N     -9.762970   10.641100   -4.319270
  N     -8.962770   11.627440   -3.757500
  C     -8.398550   12.654380   -4.430010
  S     -7.975630   14.042090   -3.464710
  C     -7.102550   14.706540   -4.812650
  N     -6.458800   15.929420   -4.633930
  O     -5.842580   16.393170   -5.577680
  O     -6.566930   16.450860   -3.534530
  C     -7.151900   13.907820   -5.923120
  C     -7.916370   12.740040   -5.744020
  C     -8.038430   11.778980   -6.823210
  C     -9.178880   11.219070   -7.288940
  C     -9.290540   10.260110   -8.331720
  C     -8.315430    9.702100   -9.110270
  C     -8.569890    8.726840  -10.118790
  C     -7.474800    8.329850  -10.811540
  C     -6.271130    8.962540  -10.405200
  S     -6.596440   10.063800   -9.077730
  C     -5.012030    8.806430  -10.925920
  C     -4.622670    7.967780  -12.011330
  C     -3.310650    8.031400  -12.320610
  C     -2.549340    8.929920  -11.498520
  S     -3.624560    9.679490  -10.307540
  C     -1.240050    9.199510  -11.574090
  H     -9.972460    6.623640  -12.182720
  H    -12.111710    2.092730  -12.233180
  H     -8.743730    5.789420  -14.559670
  H    -13.523830    4.569860   -7.440340
  H    -13.249970    6.566600   -6.393250
  H    -12.706680   11.136340   -7.927010
  H    -11.815980   10.108290   -5.786170
  H    -11.220190    7.102420   -5.905730
  H     -9.569350    6.890740   -1.621190
  H     -9.746620   10.639200   -5.338370
  H     -9.116840   11.737570   -2.746700
  H     -6.661100   14.164960   -6.844450
  H     -7.107160   11.578630   -7.332180
  H    -10.127800   11.560220   -6.885990
  H    -10.291950    9.912490   -8.548660
  H     -9.566640    8.351950  -10.267510
  H     -7.484400    7.602100  -11.603710
  H     -5.337360    7.348720  -12.524280
  H     -2.835320    7.475460  -13.109190
  H     -0.623020    8.722690  -12.315120
  H     -0.766150    9.895130  -10.906050

 Total Charge           Charge          ....    0
 Multiplicity           Mult            ....    1
 Number of Electrons    NEL             ....  502
 Basis Dimension        Dim             .... 1025

ORBITAL ENERGIES
----------------

  NO   OCC          E(Eh)            E(eV)
   0   2.0000    -482.896757    -13140.2888
   1   2.0000     -88.996362     -2421.7141
   2   2.0000     -88.988591     -2421.5027
   3   2.0000     -88.970938     -2421.0223
   4   2.0000     -88.949925     -2420.4505
   5   2.0000     -88.943124     -2420.2654
   6   2.0000     -62.574460     -1702.7376
   7   2.0000     -56.408427     -1534.9513
   8   2.0000     -56.405679     -1534.8766
   9   2.0000     -56.405654     -1534.8759
  10   2.0000     -19.339928      -526.2662
  11   2.0000     -19.272301      -524.4260
  12   2.0000     -19.271715      -524.4100
  13   2.0000     -19.249764      -523.8127
  14   2.0000     -19.249656      -523.8098
  15   2.0000     -19.238691      -523.5114
  16   2.0000     -19.220924      -523.0279
  17   2.0000     -19.220068      -523.0046
  18   2.0000     -14.683063      -399.5464
  19   2.0000     -14.661219      -398.9521
  20   2.0000     -14.632936      -398.1824
  21   2.0000     -14.519470      -395.0949
  22   2.0000     -14.498237      -394.5171
  23   2.0000     -14.488450      -394.2508
  24   2.0000     -14.432758      -392.7353
  25   2.0000     -14.427734      -392.5986
  26   2.0000     -10.389267      -282.7063
  27   2.0000     -10.385605      -282.6067
  28   2.0000     -10.382796      -282.5302
  29   2.0000     -10.381354      -282.4910
  30   2.0000     -10.371857      -282.2326
  31   2.0000     -10.367473      -282.1133
  32   2.0000     -10.366356      -282.0829
  33   2.0000     -10.359939      -281.9083
  34   2.0000     -10.357558      -281.8435
  35   2.0000     -10.357515      -281.8423
  36   2.0000     -10.356799      -281.8228
  37   2.0000     -10.355515      -281.7879
  38   2.0000     -10.339546      -281.3534
  39   2.0000     -10.335403      -281.2406
  40   2.0000     -10.330461      -281.1061
  41   2.0000     -10.325878      -280.9814
  42   2.0000     -10.323366      -280.9131
  43   2.0000     -10.322176      -280.8807
  44   2.0000     -10.321589      -280.8647
  45   2.0000     -10.320479      -280.8345
  46   2.0000     -10.319741      -280.8144
  47   2.0000     -10.318949      -280.7929
  48   2.0000     -10.317423      -280.7514
  49   2.0000     -10.316389      -280.7232
  50   2.0000     -10.316374      -280.7228
  51   2.0000     -10.313790      -280.6525
  52   2.0000     -10.311781      -280.5978
  53   2.0000     -10.311398      -280.5874
  54   2.0000     -10.310807      -280.5713
  55   2.0000     -10.309714      -280.5416
  56   2.0000     -10.309022      -280.5228
  57   2.0000     -10.297852      -280.2188
  58   2.0000     -10.295628      -280.1583
  59   2.0000     -10.291449      -280.0446
  60   2.0000     -10.291227      -280.0385
  61   2.0000     -10.289618      -279.9947
  62   2.0000     -10.289614      -279.9946
  63   2.0000     -10.289363      -279.9878
  64   2.0000     -10.281220      -279.7662
  65   2.0000     -10.280240      -279.7395
  66   2.0000     -10.275608      -279.6135
  67   2.0000      -8.803894      -239.5661
  68   2.0000      -8.091630      -220.1845
  69   2.0000      -8.084619      -219.9937
  70   2.0000      -8.066851      -219.5102
  71   2.0000      -8.045586      -218.9315
  72   2.0000      -8.039927      -218.7775
  73   2.0000      -6.640268      -180.6909
  74   2.0000      -6.625604      -180.2919
  75   2.0000      -6.625365      -180.2853
  76   2.0000      -6.061207      -164.9338
  77   2.0000      -6.056813      -164.8143
  78   2.0000      -6.054295      -164.7457
  79   2.0000      -6.053223      -164.7166
  80   2.0000      -6.050001      -164.6289
  81   2.0000      -6.045850      -164.5159
  82   2.0000      -6.036787      -164.2693
  83   2.0000      -6.032230      -164.1453
  84   2.0000      -6.027818      -164.0253
  85   2.0000      -6.015339      -163.6857
  86   2.0000      -6.011321      -163.5764
  87   2.0000      -6.009778      -163.5344
  88   2.0000      -6.006540      -163.4463
  89   2.0000      -6.005813      -163.4265
  90   2.0000      -6.000405      -163.2793
  91   2.0000      -2.756100       -74.9973
  92   2.0000      -2.752010       -74.8860
  93   2.0000      -2.751867       -74.8821
  94   2.0000      -2.740188       -74.5643
  95   2.0000      -2.740175       -74.5640
  96   2.0000      -1.350690       -36.7541
  97   2.0000      -1.331957       -36.2444
  98   2.0000      -1.301189       -35.4071
  99   2.0000      -1.261177       -34.3184
 100   2.0000      -1.170318       -31.8460
 101   2.0000      -1.155326       -31.4380
 102   2.0000      -1.151443       -31.3324
 103   2.0000      -1.140436       -31.0328
 104   2.0000      -1.120034       -30.4777
 105   2.0000      -1.116585       -30.3838
 106   2.0000      -1.038297       -28.2535
 107   2.0000      -1.028150       -27.9774
 108   2.0000      -1.021251       -27.7897
 109   2.0000      -1.020178       -27.7605
 110   2.0000      -1.009381       -27.4667
 111   2.0000      -1.004358       -27.3300
 112   2.0000      -0.996339       -27.1118
 113   2.0000      -0.981095       -26.6970
 114   2.0000      -0.973340       -26.4859
 115   2.0000      -0.958602       -26.0849
 116   2.0000      -0.956521       -26.0283
 117   2.0000      -0.938372       -25.5344
 118   2.0000      -0.923237       -25.1226
 119   2.0000      -0.919657       -25.0251
 120   2.0000      -0.915356       -24.9081
 121   2.0000      -0.901837       -24.5402
 122   2.0000      -0.900647       -24.5079
 123   2.0000      -0.889734       -24.2109
 124   2.0000      -0.886222       -24.1153
 125   2.0000      -0.869944       -23.6724
 126   2.0000      -0.865209       -23.5435
 127   2.0000      -0.859350       -23.3841
 128   2.0000      -0.849728       -23.1223
 129   2.0000      -0.844325       -22.9753
 130   2.0000      -0.843254       -22.9461
 131   2.0000      -0.837026       -22.7766
 132   2.0000      -0.829677       -22.5766
 133   2.0000      -0.821104       -22.3434
 134   2.0000      -0.810393       -22.0519
 135   2.0000      -0.787207       -21.4210
 136   2.0000      -0.779473       -21.2105
 137   2.0000      -0.772625       -21.0242
 138   2.0000      -0.767995       -20.8982
 139   2.0000      -0.752861       -20.4864
 140   2.0000      -0.741756       -20.1842
 141   2.0000      -0.733108       -19.9489
 142   2.0000      -0.725704       -19.7474
 143   2.0000      -0.717853       -19.5338
 144   2.0000      -0.709829       -19.3154
 145   2.0000      -0.704326       -19.1657
 146   2.0000      -0.694815       -18.9069
 147   2.0000      -0.689199       -18.7541
 148   2.0000      -0.686669       -18.6852
 149   2.0000      -0.677005       -18.4222
 150   2.0000      -0.673195       -18.3186
 151   2.0000      -0.663048       -18.0425
 152   2.0000      -0.660414       -17.9708
 153   2.0000      -0.655271       -17.8308
 154   2.0000      -0.648340       -17.6422
 155   2.0000      -0.647260       -17.6128
 156   2.0000      -0.643331       -17.5059
 157   2.0000      -0.641478       -17.4555
 158   2.0000      -0.638559       -17.3761
 159   2.0000      -0.635452       -17.2915
 160   2.0000      -0.629673       -17.1343
 161   2.0000      -0.626031       -17.0352
 162   2.0000      -0.622282       -16.9332
 163   2.0000      -0.619672       -16.8621
 164   2.0000      -0.617971       -16.8159
 165   2.0000      -0.614325       -16.7166
 166   2.0000      -0.610896       -16.6233
 167   2.0000      -0.602123       -16.3846
 168   2.0000      -0.600114       -16.3299
 169   2.0000      -0.598268       -16.2797
 170   2.0000      -0.595707       -16.2100
 171   2.0000      -0.590104       -16.0575
 172   2.0000      -0.586235       -15.9523
 173   2.0000      -0.580367       -15.7926
 174   2.0000      -0.579505       -15.7691
 175   2.0000      -0.573925       -15.6173
 176   2.0000      -0.572855       -15.5882
 177   2.0000      -0.563884       -15.3441
 178   2.0000      -0.563021       -15.3206
 179   2.0000      -0.561414       -15.2768
 180   2.0000      -0.557145       -15.1607
 181   2.0000      -0.552326       -15.0296
 182   2.0000      -0.544267       -14.8103
 183   2.0000      -0.543224       -14.7819
 184   2.0000      -0.538145       -14.6437
 185   2.0000      -0.534312       -14.5394
 186   2.0000      -0.533018       -14.5041
 187   2.0000      -0.526392       -14.3238
 188   2.0000      -0.525017       -14.2864
 189   2.0000      -0.523831       -14.2542
 190   2.0000      -0.523095       -14.2341
 191   2.0000      -0.517333       -14.0773
 192   2.0000      -0.513907       -13.9841
 193   2.0000      -0.509794       -13.8722
 194   2.0000      -0.504254       -13.7214
 195   2.0000      -0.504048       -13.7158
 196   2.0000      -0.499031       -13.5793
 197   2.0000      -0.496189       -13.5020
 198   2.0000      -0.491030       -13.3616
 199   2.0000      -0.489420       -13.3178
 200   2.0000      -0.484663       -13.1884
 201   2.0000      -0.479651       -13.0520
 202   2.0000      -0.476673       -12.9709
 203   2.0000      -0.473935       -12.8964
 204   2.0000      -0.472553       -12.8588
 205   2.0000      -0.467760       -12.7284
 206   2.0000      -0.464309       -12.6345
 207   2.0000      -0.463991       -12.6258
 208   2.0000      -0.462535       -12.5862
 209   2.0000      -0.457406       -12.4466
 210   2.0000      -0.454957       -12.3800
 211   2.0000      -0.453249       -12.3335
 212   2.0000      -0.451476       -12.2853
 213   2.0000      -0.441885       -12.0243
 214   2.0000      -0.440845       -11.9960
 215   2.0000      -0.440054       -11.9745
 216   2.0000      -0.431982       -11.7548
 217   2.0000      -0.429824       -11.6961
 218   2.0000      -0.425993       -11.5919
 219   2.0000      -0.422723       -11.5029
 220   2.0000      -0.422279       -11.4908
 221   2.0000      -0.418830       -11.3969
 222   2.0000      -0.417231       -11.3534
 223   2.0000      -0.412860       -11.2345
 224   2.0000      -0.410103       -11.1595
 225   2.0000      -0.401944       -10.9375
 226   2.0000      -0.398924       -10.8553
 227   2.0000      -0.398207       -10.8358
 228   2.0000      -0.396187       -10.7808
 229   2.0000      -0.389280       -10.5928
 230   2.0000      -0.386274       -10.5111
 231   2.0000      -0.385014       -10.4768
 232   2.0000      -0.378232       -10.2922
 233   2.0000      -0.375221       -10.2103
 234   2.0000      -0.369981       -10.0677
 235   2.0000      -0.369801       -10.0628
 236   2.0000      -0.369451       -10.0533
 237   2.0000      -0.362124        -9.8539
 238   2.0000      -0.350252        -9.5308
 239   2.0000      -0.349313        -9.5053
 240   2.0000      -0.342802        -9.3281
 241   2.0000      -0.341247        -9.2858
 242   2.0000      -0.338854        -9.2207
 243   2.0000      -0.330435        -8.9916
 244   2.0000      -0.327748        -8.9185
 245   2.0000      -0.315171        -8.5762
 246   2.0000      -0.307484        -8.3671
 247   2.0000      -0.304250        -8.2791
 248   2.0000      -0.288353        -7.8465
 249   2.0000      -0.253332        -6.8935
 250   2.0000      -0.224349        -6.1048
 251   0.0000      -0.099810        -2.7160
 252   0.0000      -0.079916        -2.1746
 253   0.0000      -0.072045        -1.9604
 254   0.0000      -0.068845        -1.8734
 255   0.0000      -0.057291        -1.5590

MULLIKEN ATOMIC CHARGES
-----------------------
   0 C :    0.305091
   1 C :   -0.336255
   2 C :   -0.184670
   3 N :    0.155869
   4 C :   -0.213470
   5 N :    0.156419
   6 C :    0.007593
   7 C :    0.008395
   8 C :   -0.072225
   9 C :    0.118246
  10 C :   -0.094557
  11 C :   -0.015185
  12 S :    0.196710
  13 C :   -0.123992
  14 C :    0.036803
  15 Br:    0.032574
  16 C :    0.168878
  17 O :   -0.164060
  18 C :   -0.149024
  19 C :    0.039233
  20 N :   -0.027767
  21 C :   -0.085762
  22 S :    0.202583
  23 C :   -0.004573
  24 N :    0.275167
  25 O :   -0.238645
  26 O :   -0.256053
  27 C :    0.003228
  28 C :    0.137926
  29 C :   -0.072183
  30 C :   -0.010116
  31 C :    0.034347
  32 O :   -0.154121
  33 C :    0.104506
  34 C :    0.052102
  35 N :    0.295724
  36 O :   -0.219592
  37 O :   -0.274163
  38 C :    0.079209
  39 N :   -0.021521
  40 N :   -0.032947
  41 C :   -0.102559
  42 S :    0.156552
  43 C :   -0.016030
  44 N :    0.279172
  45 O :   -0.261618
  46 O :   -0.277004
  47 C :    0.013818
  48 C :    0.057087
  49 C :   -0.056916
  50 C :   -0.020287
  51 C :   -0.016185
  52 C :   -0.016113
  53 C :    0.034051
  54 C :    0.018622
  55 C :   -0.036143
  56 S :    0.051357
  57 C :   -0.064034
  58 C :    0.030353
  59 C :    0.055154
  60 C :   -0.065149
  61 S :    0.084289
  62 C :   -0.026559
  63 H :   -0.018904
  64 H :   -0.004321
  65 H :   -0.003047
  66 H :    0.048514
  67 H :    0.163943
  68 H :    0.014401
  69 H :   -0.002533
  70 H :   -0.004916
  71 H :    0.035292
  72 H :    0.131540
  73 H :    0.162972
  74 H :    0.009536
  75 H :    0.026687
  76 H :   -0.013662
  77 H :   -0.013923
  78 H :   -0.011075
  79 H :   -0.026554
  80 H :   -0.015251
  81 H :   -0.009317
  82 H :    0.022623
  83 H :    0.026415
Sum of atomic charges:   -0.0000000

LOEWDIN ATOMIC CHARGES
----------------------
   0 C :    0.081044
   1 C :   -0.144539
   2 C :   -0.019919
   3 N :   -0.047638
   4 C :   -0.024067
   5 N :   -0.052597
   6 C :   -0.021469
   7 C :   -0.049279
   8 C :    0.021069
   9 C :   -0.030886
  10 C :   -0.143403
  11 C :   -0.004879
  12 S :    0.440824
  13 C :   -0.268988
  14 C :   -0.072264
  15 Br:    0.143634
  16 C :    0.081148
  17 O :   -0.154687
  18 C :   -0.148167
  19 C :    0.102930
  20 N :    0.068742
  21 C :   -0.107401
  22 S :    0.493632
  23 C :   -0.196149
  24 N :    0.273261
  25 O :   -0.205015
  26 O :   -0.221825
  27 C :   -0.008386
  28 C :   -0.080866
  29 C :   -0.035101
  30 C :   -0.038744
  31 C :   -0.028665
  32 O :    0.052487
  33 C :    0.088352
  34 C :   -0.108184
  35 N :    0.301398
  36 O :   -0.180529
  37 O :   -0.210609
  38 C :   -0.001004
  39 N :    0.045414
  40 N :    0.029860
  41 C :   -0.103594
  42 S :    0.444203
  43 C :   -0.222225
  44 N :    0.273695
  45 O :   -0.227515
  46 O :   -0.241743
  47 C :    0.008048
  48 C :   -0.127752
  49 C :   -0.026579
  50 C :   -0.063923
  51 C :   -0.077772
  52 C :   -0.133279
  53 C :   -0.028649
  54 C :   -0.044092
  55 C :   -0.183154
  56 S :    0.376846
  57 C :   -0.172530
  58 C :   -0.028374
  59 C :   -0.026325
  60 C :   -0.140383
  61 S :    0.353623
  62 C :   -0.069957
  63 H :    0.039966
  64 H :    0.042389
  65 H :    0.038459
  66 H :    0.046397
  67 H :    0.105366
  68 H :    0.045040
  69 H :    0.027932
  70 H :    0.029823
  71 H :    0.040863
  72 H :    0.074490
  73 H :    0.057250
  74 H :    0.046124
  75 H :    0.017532
  76 H :    0.022603
  77 H :    0.034917
  78 H :    0.025886
  79 H :    0.024453
  80 H :    0.030879
  81 H :    0.034324
  82 H :    0.029871
  83 H :    0.028333

  Mayer bond orders larger than 0.100000
B(  0-C ,  1-C ) :   1.6433 B(  0-C ,  6-C ) :   1.0136 B(  0-C , 18-C ) :   1.0920
B(  1-C ,  2-C ) :   1.1403 B(  1-C ,  4-C ) :   1.1405 B(  2-C ,  3-N ) :   2.9718
B(  4-C ,  5-N ) :   2.9845 B(  6-C ,  7-C ) :   1.2709 B(  6-C , 11-C ) :   1.4131
B(  7-C ,  8-C ) :   1.4234 B(  7-C , 16-C ) :   0.9508 B(  8-C ,  9-C ) :   1.2521
B(  8-C , 63-H ) :   1.0171 B(  9-C , 10-C ) :   1.3031 B(  9-C , 14-C ) :   1.1647
B( 10-C , 11-C ) :   1.3289 B( 10-C , 12-S ) :   1.0905 B( 11-C , 64-H ) :   0.9799
B( 12-S , 13-C ) :   1.0904 B( 13-C , 14-C ) :   1.6153 B( 13-C , 15-Br) :   1.0239
B( 14-C , 65-H ) :   0.9995 B( 16-C , 17-O ) :   2.1072 B( 16-C , 18-C ) :   0.9741
B( 18-C , 19-C ) :   1.5255 B( 19-C , 20-N ) :   1.2919 B( 19-C , 66-H ) :   0.9353
B( 20-N , 21-C ) :   1.0880 B( 20-N , 67-H ) :   0.9073 B( 21-C , 22-S ) :   1.1453
B( 21-C , 28-C ) :   1.4343 B( 22-S , 23-C ) :   1.1151 B( 23-C , 24-N ) :   0.9535
B( 23-C , 27-C ) :   1.5056 B( 24-N , 25-O ) :   1.5445 B( 24-N , 26-O ) :   1.5193
B( 25-O , 26-O ) :   0.2663 B( 27-C , 28-C ) :   1.2008 B( 27-C , 68-H ) :   1.0011
B( 28-C , 29-C ) :   1.1069 B( 29-C , 30-C ) :   1.6835 B( 29-C , 69-H ) :   0.9585
B( 30-C , 31-C ) :   1.1464 B( 30-C , 70-H ) :   0.9432 B( 31-C , 32-O ) :   1.0774
B( 31-C , 38-C ) :   1.4103 B( 32-O , 33-C ) :   1.2467 B( 33-C , 34-C ) :   1.4180
B( 33-C , 71-H ) :   1.0108 B( 34-C , 35-N ) :   0.9412 B( 34-C , 38-C ) :   1.2269
B( 35-N , 36-O ) :   1.5663 B( 35-N , 37-O ) :   1.4406 B( 36-O , 37-O ) :   0.2509
B( 37-O , 73-H ) :   0.1184 B( 38-C , 39-N ) :   1.2269 B( 39-N , 40-N ) :   0.9750
B( 39-N , 72-H ) :   0.8813 B( 40-N , 41-C ) :   1.2586 B( 40-N , 73-H ) :   0.8601
B( 41-C , 42-S ) :   1.1327 B( 41-C , 48-C ) :   1.3641 B( 42-S , 43-C ) :   1.0581
B( 43-C , 44-N ) :   0.9880 B( 43-C , 47-C ) :   1.4744 B( 44-N , 45-O ) :   1.5268
B( 44-N , 46-O ) :   1.4997 B( 45-O , 46-O ) :   0.2495 B( 47-C , 48-C ) :   1.2517
B( 47-C , 74-H ) :   1.0080 B( 48-C , 49-C ) :   1.0315 B( 49-C , 50-C ) :   1.7026
B( 49-C , 75-H ) :   0.9398 B( 50-C , 51-C ) :   1.1622 B( 50-C , 76-H ) :   0.9331
B( 51-C , 52-C ) :   1.6360 B( 51-C , 77-H ) :   0.9550 B( 52-C , 53-C ) :   1.1339
B( 52-C , 56-S ) :   1.0376 B( 53-C , 54-C ) :   1.6085 B( 53-C , 78-H ) :   0.9780
B( 54-C , 55-C ) :   1.1613 B( 54-C , 79-H ) :   0.9893 B( 55-C , 56-S ) :   1.0221
B( 55-C , 57-C ) :   1.5717 B( 57-C , 58-C ) :   1.1418 B( 57-C , 61-S ) :   1.0475
B( 58-C , 59-C ) :   1.6696 B( 58-C , 80-H ) :   0.9918 B( 59-C , 60-C ) :   1.0768
B( 59-C , 81-H ) :   0.9930 B( 60-C , 61-S ) :   1.0060 B( 60-C , 62-C ) :   1.8683
B( 62-C , 82-H ) :   0.9508 B( 62-C , 83-H ) :   0.9417

-----------------------------------------------------------------------------
         ABSORPTION SPECTRUM VIA TRANSITION ELECTRIC DIPOLE MOMENTS
-----------------------------------------------------------------------------
State   Energy  Wavelength   fosc         T2         TX        TY        TZ
        (cm-1)    (nm)                  (au**2)     (au)      (au)      (au)
-----------------------------------------------------------------------------
   0   14767.1    677.2   0.017219373   0.38388   0.43778   0.42850   0.09282
   1   17506.1    571.2   0.192177377   3.61401   1.19369   0.19868  -1.46617
   2   18117.0    552.0   0.002220334   0.04035   0.09329   0.11150   0.13860
   3   18982.5    526.8   0.460448747   7.98551   2.47535  -0.70269  -1.16805
   4   20108.1    497.3   0.580418851   9.50268   0.56532  -2.24085  -2.04002
   5   22423.8    446.0   0.037176556   0.54580   0.06081   0.51647   0.52475
   6   22944.6    435.8   0.018835896   0.27026  -0.35362   0.37626  -0.06034
   7   23619.3    423.4   0.055126508   0.76837  -0.30144  -0.68007  -0.46369
   8   24130.7    414.4   0.181135372   2.47121  -1.44345  -0.20319   0.58854
   9   24212.8    413.0   0.013638753   0.18544   0.41303  -0.07356  -0.09713
  10   25491.9    392.3   0.411455448   5.31369  -0.23988   2.07523   0.97447
  11   26094.7    383.2   0.131789721   1.66267  -1.08999  -0.31553   0.61240
  12   27497.2    363.7   0.190541161   2.28126  -1.09407  -0.31894  -0.99123
  13   27945.3    357.8   0.079490299   0.93644  -0.53353  -0.44934  -0.67073
  14   28739.4    348.0   0.334531962   3.83208   1.40188   0.86194  -1.06013
  15   29221.1    342.2   0.205210864   2.31196  -0.51463   0.79562   1.18916
  16   29814.2    335.4   0.015316163   0.16912  -0.29227  -0.26258  -0.12147
  17   30037.7    332.9   0.024692864   0.27063   0.31029  -0.38143   0.16989
  18   30351.2    329.5   0.072052168   0.78153   0.79423   0.36260  -0.13877
  19   30384.7    329.1   0.125380572   1.35847  -0.90067   0.30229   0.67519
  20   30999.2    322.6   0.126095118   1.33913   0.21750   1.07336  -0.37381
  21   31275.0    319.7   0.028661708   0.30170   0.31611   0.01770  -0.44885
  22   32442.2    308.2   0.289390782   2.93663   1.19250   0.48633   1.13051
  23   32572.8    307.0   0.095737158   0.96761  -0.72015  -0.36800   0.55998
  24   33152.3    301.6   0.040913606   0.40628  -0.49676  -0.32547   0.23148
  25   33180.8    301.4   0.261926336   2.59877   0.93194   0.87196  -0.98486
  26   33545.2    298.1   0.025877964   0.25397  -0.23653  -0.44276   0.04451
  27   33847.5    295.4   0.314378023   3.05774  -0.00476   1.16682  -1.30240
  28   34032.5    293.8   0.076890213   0.74379   0.81575   0.09776  -0.26226
  29   34193.7    292.5   0.094214697   0.90709  -0.18609  -0.14391  -0.92290
  30   34917.2    286.4   0.049058223   0.46254   0.27921  -0.42163   0.45476
  31   34935.3    286.2   0.000400867   0.00378   0.02296   0.05700  -0.00112
  32   35758.1    279.7   0.007064194   0.06504  -0.05185  -0.09994  -0.22882
  33   36093.8    277.1   0.101779501   0.92833  -0.58872   0.41354  -0.64087
  34   36549.9    273.6   0.343207347   3.09134  -0.78294  -0.99163  -1.22270
  35   36872.0    271.2   0.025330429   0.22616  -0.38831   0.27454   0.00211
  36   37071.7    269.7   0.009454938   0.08396  -0.15820  -0.15393  -0.18773
  37   37095.4    269.6   0.149670091   1.32828   0.42104   0.65439   0.85017
  38   37492.3    266.7   0.152831811   1.34198   0.18090   0.89511   0.71277
  39   37666.0    265.5   0.041157571   0.35973   0.41120  -0.35449   0.25492
  40   38278.7    261.2   0.017010479   0.14630   0.06212   0.17299  -0.33543
  41   38438.5    260.2   0.018957632   0.16237   0.09767  -0.38953  -0.03307
  42   38950.9    256.7   0.019759730   0.16701   0.20344  -0.04211   0.35192
  43   39192.9    255.1   0.002064786   0.01734  -0.10016  -0.08291  -0.02089
  44   39539.0    252.9   0.100732836   0.83873   0.20453  -0.16060   0.87813
  45   39779.9    251.4   0.022439982   0.18571  -0.20920  -0.33258  -0.17702
  46   39797.0    251.3   0.000784554   0.00649   0.07748  -0.01615  -0.01504
  47   39856.2    250.9   0.013909061   0.11489  -0.14162  -0.13746  -0.27556
  48   39898.8    250.6   0.056768523   0.46841   0.32300   0.36338   0.48170
  49   40028.3    249.8   0.074153783   0.60988  -0.57306  -0.48623  -0.21226
  50   40191.6    248.8   0.094665402   0.77541   0.10635   0.24347   0.83954

FINAL SINGLE POINT ENERGY     -7175.430505902083

DIPOLE MOMENT
-------------
                                X             Y             Z
Electronic contribution:     -4.92204     -54.63538     -78.74853
Nuclear contribution   :      5.33236      51.19416      77.67008
                        -----------------------------------------
Total Dipole Moment    :      0.41032      -3.44122      -1.07845
                        -----------------------------------------
Magnitude (a.u.)       :      3.62952
Magnitude (Debye)      :      9.22550

Rotational constants in cm-1:     0.001131     0.000561     0.000442
Rotational constants in MHz :    33.918732    16.820759    13.242916

                             ****ORCA TERMINATED NORMALLY****
TOTAL RUN TIME: 0 days 0 hours 10 minutes 20 seconds 601 msec
