                         Program Version 4.2.0 -  RELEASE  -
|  1> # ORCA input file
|  2> # SCF done       -198.884467966049          0.000587992846
|  3> ! CAM-B3LYP def2-SVP def2/J RIJCOSX Grid4 TightSCF
|  4> %maxcore 5000
|  5> %tddft
|  6>     Mode sTDDFT
|  7>     Ethresh 5.0
|  8>     maxcore 5000
|  9> end
| 10>
| 11> %pal
| 12>   nprocs 6
| 13>   end
| 14> * xyz 0 1
| 15>    C       -8.24694         2.00025        -2.91455
| 16>    C       -8.46675         1.23009        -4.02415
| 17>    C       -9.72391         1.06338        -4.64238
| 18>    N      -10.71668         0.89193        -5.19300
| 19>    C       -7.46246         0.52040        -4.71557
| 20>    N       -6.69468        -0.07477        -5.32745
| 21>    C       -9.24739         2.76946        -2.18830
| 22>    C       -8.61803         3.50557        -1.15524
| 23>    C       -9.30678         4.34301        -0.31520
| 24>    C      -10.68890         4.44772        -0.49046
| 25>    C      -11.31326         3.70189        -1.51735
| 26>    C      -10.61729         2.86211        -2.37436
| 27>    S      -13.02684         4.00055        -1.57135
| 28>    C      -12.87084         5.11702        -0.24055
| 29>    C      -11.61222         5.25183         0.23333
| 30>   Br      -14.39304         6.02518         0.37260
| 31>    C       -7.16272         3.25297        -1.18537
| 32>    O       -6.29698         3.91555        -0.66116
| 33>    C       -6.97574         2.18735        -2.23116
| 34>    C       -5.80881         1.53780        -2.39476
| 35>    C       -4.75041         1.70023        -1.42042
| 36>    C       -3.42794         1.98598        -1.60665
| 37>    O       -2.79314         2.09050        -0.42993
| 38>    C       -3.68246         1.82647         0.53287
| 39>    C       -4.91853         1.57130         0.00475
| 40>    C       -6.15810         1.15077         0.68043
| 41>    O       -7.27580         1.49496         0.29600
| 42>    C       -6.01893         0.24373         1.79118
| 43>    C       -4.91190        -0.41102         2.30836
| 44>    C       -5.22054        -1.23862         3.37153
| 45>    C       -6.57991        -1.25971         3.68527
| 46>    S       -7.47345        -0.21908         2.62484
| 47>    C       -7.15076        -2.05477         4.69432
| 48>    C       -8.47423        -2.20025         5.01316
| 49>    C       -8.98095        -3.10182         5.98961
| 50>    C      -10.33552        -3.13432         6.07184
| 51>    C      -10.98294        -2.24251         5.18207
| 52>    S       -9.79733        -1.35061         4.24078
| 53>    C      -12.33737        -2.05445         5.01753
| 54>    C      -13.39498        -2.75196         5.66616
| 55>    C      -14.62989        -2.34720         5.29029
| 56>    C      -14.63331        -1.27413         4.34502
| 57>    S      -12.97743        -0.85822         3.92584
| 58>    C      -15.72819        -0.67604         3.81527
| 59>    C      -15.72329         0.45344         2.92148
| 60>    C      -16.46844         0.57275         1.77659
| 61>    O      -16.19904         1.72246         1.14178
| 62>    C      -15.30922         2.38855         1.87060
| 63>    C      -14.96778         1.68384         3.00176
| 64>    C      -14.11535         2.08819         4.11426
| 65>    O      -13.85542         1.34466         5.05032
| 66>    C      -13.51617         3.42459         4.10159
| 67>    C      -13.92552         4.65043         3.62531
| 68>    C      -13.03887         5.67601         3.94171
| 69>    C      -11.92657         5.24745         4.65112
| 70>    S      -12.03293         3.54184         4.97638
| 71>    C      -10.91918         6.09189         5.17783
| 72>    C       -9.74280         5.78203         5.78565
| 73>    C       -8.96678         4.56237         5.87533
| 74>    C       -8.81202         3.62752         4.88440
| 75>    C       -7.94883         2.52059         4.99193
| 76>    N       -7.25658         1.60735         5.06152
| 77>    C       -9.42164         3.76803         3.62139
| 78>    N       -9.87298         3.91523         2.57670
| 79>    C       -8.14586         4.66361         7.07662
| 80>    C       -8.20351         5.99793         7.55351
| 81>    C       -9.12455         6.78027         6.70365
| 82>    O       -9.37508         7.96068         6.76795
| 83>    C       -7.50059         6.41589         8.65737
| 84>    C       -6.71588         5.47102         9.32739
| 85>    C       -6.67688         4.13881         8.85011
| 86>    C       -7.37931         3.71703         7.72790
| 87>    S       -5.65676         3.13679         9.83644
| 88>    C       -5.29749         4.50214        10.86042
| 89>    C       -5.91008         5.64993        10.48544
| 90>   Br       -4.15077         4.28085        12.32730
| 91>    H       -8.80022         4.89174         0.46128
| 92>    H      -11.13713         2.31762        -3.14546
| 93>    H      -11.33534         5.88173         1.05833
| 94>    H       -5.63997         0.84572        -3.20789
| 95>    H       -2.86403         2.17633        -2.49795
| 96>    H       -3.34793         1.91186         1.54793
| 97>    H       -3.92184        -0.30212         1.90580
| 98>    H       -4.49684        -1.82538         3.90898
| 99>    H       -6.45009        -2.64788         5.26903
|100>    H       -8.31861        -3.70539         6.58481
|101>    H      -10.88699        -3.76539         6.74518
|102>    H      -13.20247        -3.53084         6.38201
|103>    H      -15.55118        -2.75371         5.66854
|104>    H      -16.69653        -1.10264         4.04228
|105>    H      -17.16611        -0.09851         1.31690
|106>    H      -14.97370         3.32952         1.48604
|107>    H      -14.85695         4.81194         3.11667
|108>    H      -13.18998         6.70261         3.65786
|109>    H      -11.17389         7.14830         5.19737
|110>    H       -7.55464         7.43858         8.99592
|111>    H       -7.32860         2.69077         7.40345
|112>    H       -5.80073         6.58516        11.00345
|113> *
|114>
|115>                          ****END OF INPUT****

CARTESIAN COORDINATES (ANGSTROEM)
---------------------------------
  C     -8.246940    2.000250   -2.914550
  C     -8.466750    1.230090   -4.024150
  C     -9.723910    1.063380   -4.642380
  N    -10.716680    0.891930   -5.193000
  C     -7.462460    0.520400   -4.715570
  N     -6.694680   -0.074770   -5.327450
  C     -9.247390    2.769460   -2.188300
  C     -8.618030    3.505570   -1.155240
  C     -9.306780    4.343010   -0.315200
  C    -10.688900    4.447720   -0.490460
  C    -11.313260    3.701890   -1.517350
  C    -10.617290    2.862110   -2.374360
  S    -13.026840    4.000550   -1.571350
  C    -12.870840    5.117020   -0.240550
  C    -11.612220    5.251830    0.233330
  Br   -14.393040    6.025180    0.372600
  C     -7.162720    3.252970   -1.185370
  O     -6.296980    3.915550   -0.661160
  C     -6.975740    2.187350   -2.231160
  C     -5.808810    1.537800   -2.394760
  C     -4.750410    1.700230   -1.420420
  C     -3.427940    1.985980   -1.606650
  O     -2.793140    2.090500   -0.429930
  C     -3.682460    1.826470    0.532870
  C     -4.918530    1.571300    0.004750
  C     -6.158100    1.150770    0.680430
  O     -7.275800    1.494960    0.296000
  C     -6.018930    0.243730    1.791180
  C     -4.911900   -0.411020    2.308360
  C     -5.220540   -1.238620    3.371530
  C     -6.579910   -1.259710    3.685270
  S     -7.473450   -0.219080    2.624840
  C     -7.150760   -2.054770    4.694320
  C     -8.474230   -2.200250    5.013160
  C     -8.980950   -3.101820    5.989610
  C    -10.335520   -3.134320    6.071840
  C    -10.982940   -2.242510    5.182070
  S     -9.797330   -1.350610    4.240780
  C    -12.337370   -2.054450    5.017530
  C    -13.394980   -2.751960    5.666160
  C    -14.629890   -2.347200    5.290290
  C    -14.633310   -1.274130    4.345020
  S    -12.977430   -0.858220    3.925840
  C    -15.728190   -0.676040    3.815270
  C    -15.723290    0.453440    2.921480
  C    -16.468440    0.572750    1.776590
  O    -16.199040    1.722460    1.141780
  C    -15.309220    2.388550    1.870600
  C    -14.967780    1.683840    3.001760
  C    -14.115350    2.088190    4.114260
  O    -13.855420    1.344660    5.050320
  C    -13.516170    3.424590    4.101590
  C    -13.925520    4.650430    3.625310
  C    -13.038870    5.676010    3.941710
  C    -11.926570    5.247450    4.651120
  S    -12.032930    3.541840    4.976380
  C    -10.919180    6.091890    5.177830
  C     -9.742800    5.782030    5.785650
  C     -8.966780    4.562370    5.875330
  C     -8.812020    3.627520    4.884400
  C     -7.948830    2.520590    4.991930
  N     -7.256580    1.607350    5.061520
  C     -9.421640    3.768030    3.621390
  N     -9.872980    3.915230    2.576700
  C     -8.145860    4.663610    7.076620
  C     -8.203510    5.997930    7.553510
  C     -9.124550    6.780270    6.703650
  O     -9.375080    7.960680    6.767950
  C     -7.500590    6.415890    8.657370
  C     -6.715880    5.471020    9.327390
  C     -6.676880    4.138810    8.850110
  C     -7.379310    3.717030    7.727900
  S     -5.656760    3.136790    9.836440
  C     -5.297490    4.502140   10.860420
  C     -5.910080    5.649930   10.485440
  Br    -4.150770    4.280850   12.327300
  H     -8.800220    4.891740    0.461280
  H    -11.137130    2.317620   -3.145460
  H    -11.335340    5.881730    1.058330
  H     -5.639970    0.845720   -3.207890
  H     -2.864030    2.176330   -2.497950
  H     -3.347930    1.911860    1.547930
  H     -3.921840   -0.302120    1.905800
  H     -4.496840   -1.825380    3.908980
  H     -6.450090   -2.647880    5.269030
  H     -8.318610   -3.705390    6.584810
  H    -10.886990   -3.765390    6.745180
  H    -13.202470   -3.530840    6.382010
  H    -15.551180   -2.753710    5.668540
  H    -16.696530   -1.102640    4.042280
  H    -17.166110   -0.098510    1.316900
  H    -14.973700    3.329520    1.486040
  H    -14.856950    4.811940    3.116670
  H    -13.189980    6.702610    3.657860
  H    -11.173890    7.148300    5.197370
  H     -7.554640    7.438580    8.995920
  H     -7.328600    2.690770    7.403450
  H     -5.800730    6.585160   11.003450

 Total Charge           Charge          ....    0
 Multiplicity           Mult            ....    1
 Number of Electrons    NEL             ....  612
 Basis Dimension        Dim             .... 1234

ORBITAL ENERGIES
----------------

  NO   OCC          E(Eh)            E(eV)
   0   2.0000    -482.889139    -13140.0815
   1   2.0000    -482.888957    -13140.0766
   2   2.0000     -88.979592     -2421.2578
   3   2.0000     -88.972652     -2421.0689
   4   2.0000     -88.963918     -2420.8313
   5   2.0000     -88.948305     -2420.4064
   6   2.0000     -88.944349     -2420.2988
   7   2.0000     -88.938495     -2420.1395
   8   2.0000     -62.566861     -1702.5308
   9   2.0000     -62.566112     -1702.5105
  10   2.0000     -56.400811     -1534.7441
  11   2.0000     -56.400024     -1534.7227
  12   2.0000     -56.398093     -1534.6701
  13   2.0000     -56.398061     -1534.6693
  14   2.0000     -56.397454     -1534.6528
  15   2.0000     -56.397350     -1534.6499
  16   2.0000     -19.309405      -525.4356
  17   2.0000     -19.294540      -525.0311
  18   2.0000     -19.219655      -522.9934
  19   2.0000     -19.211118      -522.7611
  20   2.0000     -19.197729      -522.3968
  21   2.0000     -19.186109      -522.0806
  22   2.0000     -14.420144      -392.3921
  23   2.0000     -14.419792      -392.3825
  24   2.0000     -14.404375      -391.9630
  25   2.0000     -14.404056      -391.9543
  26   2.0000     -10.371478      -282.2223
  27   2.0000     -10.371368      -282.2193
  28   2.0000     -10.362593      -281.9805
  29   2.0000     -10.358994      -281.8825
  30   2.0000     -10.349314      -281.6192
  31   2.0000     -10.348751      -281.6038
  32   2.0000     -10.347636      -281.5735
  33   2.0000     -10.347521      -281.5704
  34   2.0000     -10.344185      -281.4796
  35   2.0000     -10.330271      -281.1010
  36   2.0000     -10.330180      -281.0985
  37   2.0000     -10.329439      -281.0783
  38   2.0000     -10.328602      -281.0556
  39   2.0000     -10.327902      -281.0365
  40   2.0000     -10.326512      -280.9987
  41   2.0000     -10.323063      -280.9048
  42   2.0000     -10.322995      -280.9030
  43   2.0000     -10.321688      -280.8674
  44   2.0000     -10.321617      -280.8655
  45   2.0000     -10.317692      -280.7587
  46   2.0000     -10.313491      -280.6444
  47   2.0000     -10.311670      -280.5948
  48   2.0000     -10.310374      -280.5595
  49   2.0000     -10.310160      -280.5537
  50   2.0000     -10.310112      -280.5524
  51   2.0000     -10.307896      -280.4921
  52   2.0000     -10.307184      -280.4727
  53   2.0000     -10.307081      -280.4699
  54   2.0000     -10.306671      -280.4588
  55   2.0000     -10.305687      -280.4320
  56   2.0000     -10.305233      -280.4196
  57   2.0000     -10.303264      -280.3661
  58   2.0000     -10.301660      -280.3224
  59   2.0000     -10.300410      -280.2884
  60   2.0000     -10.300255      -280.2842
  61   2.0000     -10.297769      -280.2165
  62   2.0000     -10.296098      -280.1711
  63   2.0000     -10.295970      -280.1676
  64   2.0000     -10.290964      -280.0314
  65   2.0000     -10.290001      -280.0052
  66   2.0000     -10.289923      -280.0031
  67   2.0000     -10.289228      -279.9841
  68   2.0000     -10.288055      -279.9522
  69   2.0000     -10.286827      -279.9188
  70   2.0000     -10.286716      -279.9158
  71   2.0000     -10.285659      -279.8870
  72   2.0000     -10.285647      -279.8867
  73   2.0000     -10.284717      -279.8614
  74   2.0000     -10.283293      -279.8226
  75   2.0000     -10.282459      -279.7999
  76   2.0000     -10.282396      -279.7982
  77   2.0000     -10.279513      -279.7198
  78   2.0000     -10.279175      -279.7106
  79   2.0000     -10.277672      -279.6697
  80   2.0000     -10.277539      -279.6661
  81   2.0000     -10.275390      -279.6076
  82   2.0000     -10.271431      -279.4998
  83   2.0000     -10.266121      -279.3554
  84   2.0000      -8.796300      -239.3595
  85   2.0000      -8.795317      -239.3327
  86   2.0000      -8.075595      -219.7481
  87   2.0000      -8.067620      -219.5311
  88   2.0000      -8.059790      -219.3180
  89   2.0000      -8.042712      -218.8533
  90   2.0000      -8.040165      -218.7840
  91   2.0000      -8.034434      -218.6281
  92   2.0000      -6.632608      -180.4824
  93   2.0000      -6.631175      -180.4434
  94   2.0000      -6.618025      -180.0856
  95   2.0000      -6.617835      -180.0804
  96   2.0000      -6.617354      -180.0674
  97   2.0000      -6.617032      -180.0586
  98   2.0000      -6.045295      -164.5008
  99   2.0000      -6.041006      -164.3841
 100   2.0000      -6.036822      -164.2703
 101   2.0000      -6.036822      -164.2703
 102   2.0000      -6.032514      -164.1530
 103   2.0000      -6.030011      -164.0850
 104   2.0000      -6.029581      -164.0732
 105   2.0000      -6.025275      -163.9561
 106   2.0000      -6.020902      -163.8371
 107   2.0000      -6.011912      -163.5924
 108   2.0000      -6.009935      -163.5386
 109   2.0000      -6.007714      -163.4782
 110   2.0000      -6.005851      -163.4275
 111   2.0000      -6.005154      -163.4085
 112   2.0000      -6.004168      -163.3817
 113   2.0000      -6.001079      -163.2977
 114   2.0000      -6.000144      -163.2722
 115   2.0000      -5.995292      -163.1402
 116   2.0000      -2.748486       -74.7901
 117   2.0000      -2.747146       -74.7536
 118   2.0000      -2.744395       -74.6788
 119   2.0000      -2.744226       -74.6742
 120   2.0000      -2.743307       -74.6492
 121   2.0000      -2.743058       -74.6424
 122   2.0000      -2.732644       -74.3590
 123   2.0000      -2.732633       -74.3587
 124   2.0000      -2.732069       -74.3434
 125   2.0000      -2.732048       -74.3428
 126   2.0000      -1.230296       -33.4781
 127   2.0000      -1.214666       -33.0527
 128   2.0000      -1.135340       -30.8942
 129   2.0000      -1.130494       -30.7623
 130   2.0000      -1.118586       -30.4383
 131   2.0000      -1.101087       -29.9621
 132   2.0000      -1.028199       -27.9787
 133   2.0000      -1.018129       -27.7047
 134   2.0000      -1.008492       -27.4425
 135   2.0000      -1.002869       -27.2895
 136   2.0000      -1.001312       -27.2471
 137   2.0000      -0.997653       -27.1475
 138   2.0000      -0.993231       -27.0272
 139   2.0000      -0.993127       -27.0244
 140   2.0000      -0.982860       -26.7450
 141   2.0000      -0.977697       -26.6045
 142   2.0000      -0.974111       -26.5069
 143   2.0000      -0.966908       -26.3109
 144   2.0000      -0.947230       -25.7754
 145   2.0000      -0.934206       -25.4210
 146   2.0000      -0.926341       -25.2070
 147   2.0000      -0.918642       -24.9975
 148   2.0000      -0.913266       -24.8512
 149   2.0000      -0.909349       -24.7447
 150   2.0000      -0.898671       -24.4541
 151   2.0000      -0.891223       -24.2514
 152   2.0000      -0.890308       -24.2265
 153   2.0000      -0.880494       -23.9595
 154   2.0000      -0.876042       -23.8383
 155   2.0000      -0.870013       -23.6742
 156   2.0000      -0.868071       -23.6214
 157   2.0000      -0.857322       -23.3289
 158   2.0000      -0.850869       -23.1533
 159   2.0000      -0.850277       -23.1372
 160   2.0000      -0.841756       -22.9053
 161   2.0000      -0.834041       -22.6954
 162   2.0000      -0.829270       -22.5656
 163   2.0000      -0.825752       -22.4699
 164   2.0000      -0.824871       -22.4459
 165   2.0000      -0.819310       -22.2946
 166   2.0000      -0.815095       -22.1799
 167   2.0000      -0.814041       -22.1512
 168   2.0000      -0.786133       -21.3918
 169   2.0000      -0.780559       -21.2401
 170   2.0000      -0.764371       -20.7996
 171   2.0000      -0.762074       -20.7371
 172   2.0000      -0.750501       -20.4222
 173   2.0000      -0.741548       -20.1785
 174   2.0000      -0.740430       -20.1481
 175   2.0000      -0.718649       -19.5554
 176   2.0000      -0.712283       -19.3822
 177   2.0000      -0.698322       -19.0023
 178   2.0000      -0.696802       -18.9609
 179   2.0000      -0.693321       -18.8662
 180   2.0000      -0.687676       -18.7126
 181   2.0000      -0.680322       -18.5125
 182   2.0000      -0.678376       -18.4596
 183   2.0000      -0.672849       -18.3092
 184   2.0000      -0.668202       -18.1827
 185   2.0000      -0.663610       -18.0577
 186   2.0000      -0.662061       -18.0156
 187   2.0000      -0.657468       -17.8906
 188   2.0000      -0.655148       -17.8275
 189   2.0000      -0.645170       -17.5560
 190   2.0000      -0.641041       -17.4436
 191   2.0000      -0.638008       -17.3611
 192   2.0000      -0.630029       -17.1440
 193   2.0000      -0.628820       -17.1111
 194   2.0000      -0.624614       -16.9966
 195   2.0000      -0.620631       -16.8882
 196   2.0000      -0.619098       -16.8465
 197   2.0000      -0.607889       -16.5415
 198   2.0000      -0.602795       -16.4029
 199   2.0000      -0.600199       -16.3322
 200   2.0000      -0.597327       -16.2541
 201   2.0000      -0.596231       -16.2243
 202   2.0000      -0.591903       -16.1065
 203   2.0000      -0.585840       -15.9415
 204   2.0000      -0.577675       -15.7193
 205   2.0000      -0.575722       -15.6662
 206   2.0000      -0.567832       -15.4515
 207   2.0000      -0.565892       -15.3987
 208   2.0000      -0.562642       -15.3103
 209   2.0000      -0.553735       -15.0679
 210   2.0000      -0.552744       -15.0409
 211   2.0000      -0.547047       -14.8859
 212   2.0000      -0.545279       -14.8378
 213   2.0000      -0.543112       -14.7788
 214   2.0000      -0.539605       -14.6834
 215   2.0000      -0.537821       -14.6349
 216   2.0000      -0.535780       -14.5793
 217   2.0000      -0.528931       -14.3929
 218   2.0000      -0.527538       -14.3550
 219   2.0000      -0.527314       -14.3489
 220   2.0000      -0.522722       -14.2240
 221   2.0000      -0.521076       -14.1792
 222   2.0000      -0.517973       -14.0948
 223   2.0000      -0.516252       -14.0479
 224   2.0000      -0.515205       -14.0194
 225   2.0000      -0.513079       -13.9616
 226   2.0000      -0.512037       -13.9332
 227   2.0000      -0.509011       -13.8509
 228   2.0000      -0.508596       -13.8396
 229   2.0000      -0.504952       -13.7404
 230   2.0000      -0.504307       -13.7229
 231   2.0000      -0.501518       -13.6470
 232   2.0000      -0.500010       -13.6060
 233   2.0000      -0.497719       -13.5436
 234   2.0000      -0.496011       -13.4972
 235   2.0000      -0.494786       -13.4638
 236   2.0000      -0.492902       -13.4126
 237   2.0000      -0.491421       -13.3723
 238   2.0000      -0.488968       -13.3055
 239   2.0000      -0.485207       -13.2032
 240   2.0000      -0.482571       -13.1314
 241   2.0000      -0.481717       -13.1082
 242   2.0000      -0.476535       -12.9672
 243   2.0000      -0.475987       -12.9523
 244   2.0000      -0.475006       -12.9256
 245   2.0000      -0.472883       -12.8678
 246   2.0000      -0.468344       -12.7443
 247   2.0000      -0.467262       -12.7148
 248   2.0000      -0.462838       -12.5945
 249   2.0000      -0.460140       -12.5210
 250   2.0000      -0.458988       -12.4897
 251   2.0000      -0.457800       -12.4574
 252   2.0000      -0.453494       -12.3402
 253   2.0000      -0.451122       -12.2757
 254   2.0000      -0.450390       -12.2557
 255   2.0000      -0.448561       -12.2060
 256   2.0000      -0.445393       -12.1198
 257   2.0000      -0.444039       -12.0829
 258   2.0000      -0.439823       -11.9682
 259   2.0000      -0.438350       -11.9281
 260   2.0000      -0.437445       -11.9035
 261   2.0000      -0.436707       -11.8834
 262   2.0000      -0.434410       -11.8209
 263   2.0000      -0.432946       -11.7811
 264   2.0000      -0.429800       -11.6955
 265   2.0000      -0.428357       -11.6562
 266   2.0000      -0.427135       -11.6229
 267   2.0000      -0.425289       -11.5727
 268   2.0000      -0.422095       -11.4858
 269   2.0000      -0.417428       -11.3588
 270   2.0000      -0.416030       -11.3207
 271   2.0000      -0.414212       -11.2713
 272   2.0000      -0.409912       -11.1543
 273   2.0000      -0.406670       -11.0661
 274   2.0000      -0.401937       -10.9373
 275   2.0000      -0.398253       -10.8370
 276   2.0000      -0.394372       -10.7314
 277   2.0000      -0.392603       -10.6833
 278   2.0000      -0.387075       -10.5328
 279   2.0000      -0.383449       -10.4342
 280   2.0000      -0.378494       -10.2994
 281   2.0000      -0.378220       -10.2919
 282   2.0000      -0.377264       -10.2659
 283   2.0000      -0.367945       -10.0123
 284   2.0000      -0.365291        -9.9401
 285   2.0000      -0.358579        -9.7574
 286   2.0000      -0.353185        -9.6106
 287   2.0000      -0.351644        -9.5687
 288   2.0000      -0.343287        -9.3413
 289   2.0000      -0.339786        -9.2460
 290   2.0000      -0.334080        -9.0908
 291   2.0000      -0.331489        -9.0203
 292   2.0000      -0.329588        -8.9686
 293   2.0000      -0.319501        -8.6941
 294   2.0000      -0.319451        -8.6927
 295   2.0000      -0.315592        -8.5877
 296   2.0000      -0.312322        -8.4987
 297   2.0000      -0.310173        -8.4402
 298   2.0000      -0.308456        -8.3935
 299   2.0000      -0.299045        -8.1374
 300   2.0000      -0.297483        -8.0949
 301   2.0000      -0.292035        -7.9467
 302   2.0000      -0.288387        -7.8474
 303   2.0000      -0.280206        -7.6248
 304   2.0000      -0.277646        -7.5551
 305   2.0000      -0.214668        -5.8414
 306   0.0000      -0.098827        -2.6892
 307   0.0000      -0.075826        -2.0633
 308   0.0000      -0.071725        -1.9517
 309   0.0000      -0.062655        -1.7049
 310   0.0000      -0.032929        -0.8960

MULLIKEN ATOMIC CHARGES
-----------------------
   0 C :    0.312092
   1 C :   -0.352568
   2 C :   -0.183900
   3 N :    0.144718
   4 C :   -0.189756
   5 N :    0.152602
   6 C :    0.020500
   7 C :    0.024882
   8 C :   -0.035016
   9 C :    0.115215
  10 C :   -0.082342
  11 C :   -0.035206
  12 S :    0.167033
  13 C :   -0.142024
  14 C :    0.073804
  15 Br:   -0.002289
  16 C :    0.140982
  17 O :   -0.157823
  18 C :   -0.043318
  19 C :   -0.047354
  20 C :    0.057085
  21 C :    0.081625
  22 O :   -0.167844
  23 C :    0.068212
  24 C :   -0.029794
  25 C :    0.224897
  26 O :   -0.224814
  27 C :   -0.156411
  28 C :    0.050807
  29 C :   -0.002704
  30 C :   -0.018056
  31 S :    0.165444
  32 C :   -0.004649
  33 C :   -0.022418
  34 C :    0.029854
  35 C :    0.034535
  36 C :   -0.051580
  37 S :    0.083322
  38 C :   -0.054390
  39 C :    0.030930
  40 C :    0.043313
  41 C :    0.014646
  42 S :    0.117882
  43 C :   -0.049868
  44 C :    0.024671
  45 C :    0.084273
  46 O :   -0.151445
  47 C :    0.099168
  48 C :   -0.016242
  49 C :    0.174570
  50 O :   -0.181014
  51 C :   -0.149030
  52 C :    0.037786
  53 C :    0.037645
  54 C :   -0.087874
  55 S :    0.202381
  56 C :    0.052482
  57 C :   -0.130352
  58 C :    0.243627
  59 C :   -0.306052
  60 C :   -0.147406
  61 N :    0.143545
  62 C :   -0.193978
  63 N :    0.168081
  64 C :    0.004581
  65 C :    0.003091
  66 C :    0.139034
  67 O :   -0.141964
  68 C :   -0.068506
  69 C :    0.109928
  70 C :   -0.087194
  71 C :   -0.016222
  72 S :    0.184667
  73 C :   -0.125198
  74 C :    0.041639
  75 Br:    0.025653
  76 H :   -0.018047
  77 H :   -0.010666
  78 H :   -0.009864
  79 H :    0.029710
  80 H :    0.011555
  81 H :    0.019620
  82 H :   -0.015536
  83 H :   -0.023894
  84 H :   -0.016764
  85 H :   -0.013242
  86 H :   -0.014057
  87 H :   -0.013800
  88 H :   -0.012508
  89 H :   -0.002666
  90 H :    0.011612
  91 H :   -0.002321
  92 H :   -0.007261
  93 H :   -0.002477
  94 H :    0.025831
  95 H :   -0.007306
  96 H :   -0.001070
  97 H :   -0.001451
Sum of atomic charges:    0.0000000

LOEWDIN ATOMIC CHARGES
----------------------
   0 C :    0.082995
   1 C :   -0.139261
   2 C :   -0.016790
   3 N :   -0.057560
   4 C :   -0.016925
   5 N :   -0.056084
   6 C :   -0.018444
   7 C :   -0.034622
   8 C :    0.034947
   9 C :   -0.023373
  10 C :   -0.143882
  11 C :   -0.013866
  12 S :    0.413797
  13 C :   -0.284682
  14 C :   -0.053015
  15 Br:    0.135160
  16 C :    0.085971
  17 O :   -0.152767
  18 C :   -0.055589
  19 C :    0.050595
  20 C :   -0.056534
  21 C :    0.048665
  22 O :    0.037285
  23 C :    0.053814
  24 C :   -0.084625
  25 C :    0.073475
  26 O :   -0.163299
  27 C :   -0.223170
  28 C :   -0.026993
  29 C :   -0.067983
  30 C :   -0.141485
  31 S :    0.487886
  32 C :   -0.077738
  33 C :   -0.139457
  34 C :   -0.036435
  35 C :   -0.029513
  36 C :   -0.182946
  37 S :    0.375600
  38 C :   -0.167938
  39 C :   -0.031965
  40 C :   -0.022342
  41 C :   -0.125352
  42 S :    0.412609
  43 C :   -0.058275
  44 C :   -0.057870
  45 C :    0.036861
  46 O :    0.050656
  47 C :    0.065045
  48 C :   -0.112976
  49 C :    0.049069
  50 O :   -0.158057
  51 C :   -0.176385
  52 C :   -0.050749
  53 C :   -0.020154
  54 C :   -0.182482
  55 S :    0.523363
  56 C :    0.052440
  57 C :   -0.094043
  58 C :    0.065302
  59 C :   -0.138936
  60 C :   -0.015406
  61 N :   -0.053031
  62 C :   -0.021953
  63 N :   -0.040596
  64 C :   -0.017014
  65 C :   -0.052125
  66 C :    0.085201
  67 O :   -0.140872
  68 C :    0.023762
  69 C :   -0.032896
  70 C :   -0.142612
  71 C :   -0.010684
  72 S :    0.431669
  73 C :   -0.271514
  74 C :   -0.069487
  75 Br:    0.138125
  76 H :    0.036796
  77 H :    0.038898
  78 H :    0.036354
  79 H :    0.043784
  80 H :    0.026963
  81 H :    0.026732
  82 H :    0.030636
  83 H :    0.027067
  84 H :    0.037994
  85 H :    0.032716
  86 H :    0.031674
  87 H :    0.031506
  88 H :    0.033334
  89 H :    0.035714
  90 H :    0.026202
  91 H :    0.016626
  92 H :    0.026405
  93 H :    0.033760
  94 H :    0.052137
  95 H :    0.042162
  96 H :    0.041451
  97 H :    0.039546

  Mayer bond orders larger than 0.100000
B(  0-C ,  1-C ) :   1.6399 B(  0-C ,  6-C ) :   1.0276 B(  0-C , 18-C ) :   1.0513
B(  1-C ,  2-C ) :   1.1355 B(  1-C ,  4-C ) :   1.1493 B(  2-C ,  3-N ) :   2.9717
B(  4-C ,  5-N ) :   2.9795 B(  6-C ,  7-C ) :   1.2818 B(  6-C , 11-C ) :   1.3903
B(  7-C ,  8-C ) :   1.4359 B(  7-C , 16-C ) :   0.9189 B(  8-C ,  9-C ) :   1.2582
B(  8-C , 76-H ) :   1.0077 B(  9-C , 10-C ) :   1.3109 B(  9-C , 14-C ) :   1.1591
B( 10-C , 11-C ) :   1.3440 B( 10-C , 12-S ) :   1.0664 B( 11-C , 77-H ) :   0.9787
B( 12-S , 13-C ) :   1.0734 B( 13-C , 14-C ) :   1.6169 B( 13-C , 15-Br) :   0.9980
B( 14-C , 78-H ) :   0.9973 B( 16-C , 17-O ) :   2.2377 B( 16-C , 18-C ) :   0.8810
B( 16-C , 26-O ) :   0.1129 B( 18-C , 19-C ) :   1.7704 B( 19-C , 20-C ) :   1.0044
B( 19-C , 79-H ) :   0.9501 B( 20-C , 21-C ) :   1.5339 B( 20-C , 24-C ) :   1.2650
B( 21-C , 22-O ) :   1.1491 B( 21-C , 80-H ) :   1.0104 B( 22-O , 23-C ) :   1.1761
B( 23-C , 24-C ) :   1.5082 B( 23-C , 81-H ) :   1.0022 B( 24-C , 25-C ) :   0.9429
B( 25-C , 26-O ) :   2.0266 B( 25-C , 27-C ) :   1.0784 B( 27-C , 28-C ) :   1.4457
B( 27-C , 31-S ) :   1.1115 B( 28-C , 29-C ) :   1.3273 B( 28-C , 82-H ) :   0.9853
B( 29-C , 30-C ) :   1.3973 B( 29-C , 83-H ) :   1.0008 B( 30-C , 31-S ) :   1.1465
B( 30-C , 32-C ) :   1.1853 B( 32-C , 33-C ) :   1.5690 B( 32-C , 84-H ) :   0.9687
B( 33-C , 34-C ) :   1.1338 B( 33-C , 37-S ) :   1.0461 B( 34-C , 35-C ) :   1.6050
B( 34-C , 85-H ) :   0.9994 B( 35-C , 36-C ) :   1.1744 B( 35-C , 86-H ) :   0.9918
B( 36-C , 37-S ) :   1.0319 B( 36-C , 38-C ) :   1.5390 B( 38-C , 39-C ) :   1.1481
B( 38-C , 42-S ) :   1.0775 B( 39-C , 40-C ) :   1.6395 B( 39-C , 87-H ) :   0.9930
B( 40-C , 41-C ) :   1.1069 B( 40-C , 88-H ) :   0.9965 B( 41-C , 42-S ) :   1.0349
B( 41-C , 43-C ) :   1.7029 B( 43-C , 44-C ) :   1.0321 B( 43-C , 89-H ) :   0.9663
B( 44-C , 45-C ) :   1.5311 B( 44-C , 48-C ) :   1.2271 B( 45-C , 46-O ) :   1.1360
B( 45-C , 90-H ) :   1.0091 B( 46-O , 47-C ) :   1.2171 B( 47-C , 48-C ) :   1.4493
B( 47-C , 91-H ) :   0.9961 B( 48-C , 49-C ) :   0.9858 B( 49-C , 50-O ) :   2.1429
B( 49-C , 51-C ) :   0.9696 B( 51-C , 52-C ) :   1.4972 B( 51-C , 54-C ) :   0.1042
B( 51-C , 55-S ) :   1.1802 B( 52-C , 53-C ) :   1.2853 B( 52-C , 92-H ) :   0.9930
B( 53-C , 54-C ) :   1.4348 B( 53-C , 93-H ) :   1.0004 B( 54-C , 55-S ) :   1.1275
B( 54-C , 56-C ) :   1.1365 B( 56-C , 57-C ) :   1.6598 B( 56-C , 94-H ) :   0.9457
B( 57-C , 58-C ) :   1.0231 B( 57-C , 66-C ) :   0.9406 B( 58-C , 59-C ) :   1.6640
B( 58-C , 64-C ) :   1.0165 B( 59-C , 60-C ) :   1.1340 B( 59-C , 62-C ) :   1.1521
B( 60-C , 61-N ) :   2.9481 B( 62-C , 63-N ) :   2.9866 B( 64-C , 65-C ) :   1.2739
B( 64-C , 71-C ) :   1.4157 B( 65-C , 66-C ) :   0.9224 B( 65-C , 68-C ) :   1.4265
B( 66-C , 67-O ) :   2.2652 B( 68-C , 69-C ) :   1.2534 B( 68-C , 95-H ) :   1.0162
B( 69-C , 70-C ) :   1.3068 B( 69-C , 74-C ) :   1.1639 B( 70-C , 71-C ) :   1.3256
B( 70-C , 72-S ) :   1.0844 B( 71-C , 96-H ) :   0.9849 B( 72-S , 73-C ) :   1.0859
B( 73-C , 74-C ) :   1.6204 B( 73-C , 75-Br) :   1.0200 B( 74-C , 97-H ) :   0.9997

-----------------------------------------------------------------------------
         ABSORPTION SPECTRUM VIA TRANSITION ELECTRIC DIPOLE MOMENTS
-----------------------------------------------------------------------------
State   Energy  Wavelength   fosc         T2         TX        TY        TZ
        (cm-1)    (nm)                  (au**2)     (au)      (au)      (au)
-----------------------------------------------------------------------------
   0   10907.8    916.8   0.027787540   0.83867   0.48347  -0.72713  -0.27605
   1   15935.1    627.5   0.717567519  14.82463  -3.75197  -0.13204   0.85437
   2   18840.2    530.8   0.009358933   0.16354  -0.34718   0.18539  -0.09293
   3   19912.1    502.2   0.140818637   2.32819  -1.24468  -0.82151   0.32262
   4   23614.0    423.5   0.434177469   6.05303   2.34972   0.65885   0.31265
   5   24650.1    405.7   0.086362224   1.15340   0.58916  -0.65992   0.60893
   6   25121.7    398.1   0.028863507   0.37825  -0.34411   0.33814  -0.38144
   7   25430.5    393.2   0.007980378   0.10331   0.13678   0.05459   0.28569
   8   26457.3    378.0   0.133098462   1.65616  -1.21124   0.08741  -0.42593
   9   26490.1    377.5   0.106272130   1.32072   1.05122  -0.10707   0.45187
  10   26902.9    371.7   0.237581481   2.90730   0.60573   0.11529   1.58968
  11   27851.0    359.1   0.027333800   0.32310  -0.15558   0.51338  -0.18797
  12   28188.0    354.8   0.124698579   1.45637   0.07267   0.61806  -1.03397
  13   28529.3    350.5   0.247575012   2.85688  -0.87427   0.92205   1.11461
  14   28916.3    345.8   0.007166659   0.08159   0.19621  -0.20748   0.00680
  15   29071.2    344.0   0.046287019   0.52417  -0.14136  -0.54264   0.45796
  16   29189.2    342.6   0.358321404   4.04134   0.46144  -1.43132   1.33407
  17   29310.6    341.2   0.026721562   0.30013   0.18339  -0.10960  -0.50447
  18   30115.3    332.1   0.047413047   0.51831   0.10737  -0.29865  -0.64621
  19   30164.2    331.5   0.283036063   3.08905  -1.21295   0.92860   0.86920
  20   30337.3    329.6   0.086162138   0.93501  -0.89676   0.23107   0.27828
  21   30655.9    326.2   0.237527137   2.55079   0.93651   0.60255   1.14485
  22   31128.2    321.3   0.011335835   0.11989   0.18916   0.25799   0.13247
  23   31199.1    320.5   0.152347708   1.60757   0.49533  -0.70806   0.92783
  24   31667.7    315.8   0.255083783   2.65181  -0.89761  -0.99473  -0.92554
  25   31821.7    314.3   0.013616487   0.14087  -0.02270   0.29098   0.23598
  26   31940.0    313.1   0.067044519   0.69104   0.47408  -0.55977   0.39108
  27   32018.8    312.3   0.013859697   0.14250   0.05220   0.04545  -0.37110
  28   32208.8    310.5   0.055108460   0.56327   0.52541   0.19411   0.49954
  29   32275.0    309.8   0.152912367   1.55974   1.03145   0.15461   0.68698
  30   32423.5    308.4   0.198840416   2.01893   1.03233  -0.03531   0.97569
  31   32699.7    305.8   0.003222675   0.03244  -0.16205   0.04394   0.06521
  32   32888.9    304.1   0.273026178   2.73294   0.58526   0.70006   1.37852
  33   33319.9    300.1   0.055410772   0.54748  -0.24974   0.30003  -0.62856
  34   33471.9    298.8   0.002449332   0.02409  -0.13173   0.00822   0.08167
  35   33527.8    298.3   0.091721413   0.90062  -0.21505  -0.08022  -0.92084
  36   33670.8    297.0   0.214224705   2.09456  -0.54246  -0.47488  -1.25490
  37   33994.9    294.2   0.012367958   0.11977  -0.26779  -0.00283  -0.21921
  38   34168.6    292.7   0.006951580   0.06698  -0.10994  -0.20739  -0.10900
  39   34265.8    291.8   0.055033868   0.52874   0.57354  -0.30805   0.32389
  40   34575.8    289.2   0.010613854   0.10106  -0.22800  -0.20171   0.09160
  41   34917.9    286.4   0.019772538   0.18642  -0.32787   0.20304  -0.19416
  42   35056.9    285.3   0.019942170   0.18727  -0.11998  -0.26488   0.32049
  43   35092.3    285.0   0.004798769   0.04502   0.03838  -0.13329  -0.16056
  44   35293.6    283.3   0.048690435   0.45417   0.53098  -0.33678   0.24250
  45   35622.5    280.7   0.013609305   0.12577   0.26469  -0.15552   0.17755
  46   35834.0    279.1   0.001457227   0.01339  -0.00647   0.04301  -0.10722
  47   35930.5    278.3   0.002324789   0.02130  -0.06627  -0.03779  -0.12442
  48   36074.9    277.2   0.014635131   0.13356  -0.02088   0.09928   0.35109
  49   36310.1    275.4   0.097108529   0.88045   0.19327  -0.45592  -0.79702
  50   36325.5    275.3   0.022216480   0.20134   0.10476  -0.34793  -0.26328
  51   36455.4    274.3   0.039546269   0.35712   0.06616   0.42228   0.41765
  52   36759.1    272.0   0.012536254   0.11227  -0.30103   0.14638   0.01498
  53   36896.5    271.0   0.005280133   0.04711  -0.12322   0.06930  -0.16470
  54   37294.2    268.1   0.279885338   2.47067   1.38281  -0.60082  -0.44443
  55   37539.6    266.4   0.067994802   0.59630   0.41324  -0.44936   0.47287
  56   37651.8    265.6   0.055313444   0.48364  -0.25604   0.62532   0.16449
  57   37776.9    264.7   0.054379516   0.47390  -0.62369   0.27389   0.09947
  58   37887.1    263.9   0.005242994   0.04556   0.04255  -0.02387  -0.20779
  59   38440.4    260.1   0.040681681   0.34841  -0.04567  -0.40372  -0.42817
  60   38482.4    259.9   0.012955708   0.11083   0.26481  -0.06451   0.19118
  61   38542.0    259.5   0.017170040   0.14666  -0.30625  -0.04175  -0.22611
  62   38699.7    258.4   0.007239904   0.06159  -0.03308   0.11159  -0.21918
  63   39289.6    254.5   0.002765036   0.02317  -0.10383   0.08903   0.06679
  64   39392.5    253.9   0.004055182   0.03389   0.02049  -0.12414  -0.13438
  65   39587.3    252.6   0.043007287   0.35765   0.54007  -0.24526   0.07631
  66   39663.4    252.1   0.000624219   0.00518   0.04803   0.01070   0.05253
  67   39710.2    251.8   0.029819704   0.24722  -0.49277  -0.03953   0.05316
  68   40087.5    249.5   0.020820582   0.17099  -0.33808   0.16035  -0.17599
  69   40283.5    248.2   0.003414709   0.02791  -0.13726   0.05620  -0.07685

FINAL SINGLE POINT ENERGY    -10426.304676201733

DIPOLE MOMENT
-------------
                                X             Y             Z
Electronic contribution:      8.54877      66.02645      57.60401
Nuclear contribution   :     -9.39465     -65.89870     -52.92247
                        -----------------------------------------
Total Dipole Moment    :     -0.84587       0.12775       4.68154
                        -----------------------------------------
Magnitude (a.u.)       :      4.75906
Magnitude (Debye)      :     12.09656

Rotational constants in cm-1:     0.000752     0.000490     0.000423
Rotational constants in MHz :    22.543294    14.692724    12.671475

                             ****ORCA TERMINATED NORMALLY****
TOTAL RUN TIME: 0 days 0 hours 10 minutes 58 seconds 185 msec
