                         Program Version 4.2.0 -  RELEASE  -
|  1> # ORCA input file
|  2> # SCF done       -197.359579290164          0.000365761656
|  3> ! CAM-B3LYP def2-SVP def2/J RIJCOSX Grid4 TightSCF
|  4> %maxcore 5000
|  5> %tddft
|  6>     Mode sTDDFT
|  7>     Ethresh 5.0
|  8>     maxcore 5000
|  9> end
| 10>
| 11> %pal
| 12>   nprocs 6
| 13>   end
| 14> * xyz 0 1
| 15>    C       -3.81670         3.17255        -5.82143
| 16>    C       -3.82431         1.80132        -5.95538
| 17>    C       -3.09873         1.09859        -6.93633
| 18>    N       -2.53502         0.45832        -7.70669
| 19>    C       -4.54589         0.89298        -5.15763
| 20>    N       -5.09150         0.06900        -4.56909
| 21>    C       -3.05935         4.09203        -6.67001
| 22>    C       -3.32079         5.41747        -6.24658
| 23>    C       -2.74709         6.51288        -6.84170
| 24>    C       -1.86788         6.29104        -7.90813
| 25>    C       -1.61337         4.96463        -8.32470
| 26>    C       -2.19693         3.85541        -7.72264
| 27>    S       -0.49467         4.91580        -9.65456
| 28>    C       -0.38557         6.65582        -9.63042
| 29>    C       -1.14686         7.24467        -8.67854
| 30>   Br        0.72505         7.53062       -10.86433
| 31>    C       -4.26019         5.38571        -5.10398
| 32>    O       -4.69666         6.35195        -4.50787
| 33>    C       -4.53301         3.95903        -4.85437
| 34>    C       -5.32396         3.47924        -3.82659
| 35>    C       -5.99436         4.26342        -2.89717
| 36>    C       -6.72260         3.72289        -1.85130
| 37>    C       -7.41294         4.42780        -0.84187
| 38>    C       -8.00998         3.62666         0.09076
| 39>    C       -7.82010         2.25124        -0.14377
| 40>    S       -6.87270         2.00072        -1.59215
| 41>    C       -8.25013         1.17324         0.61448
| 42>    C       -8.96198         1.17479         1.83249
| 43>    C       -9.18038        -0.07188         2.33971
| 44>    C       -8.66137        -1.12451         1.54659
| 45>    S       -7.88670        -0.46047         0.12051
| 46>    C       -8.72650        -2.46434         1.84755
| 47>    C       -8.25920        -3.53322         1.07386
| 48>    S       -7.58696        -3.28997        -0.53189
| 49>    C       -7.24300        -4.97973        -0.71038
| 50>    N       -6.74496        -5.37834        -1.89376
| 51>    C       -6.58222        -6.72620        -2.37227
| 52>    C       -7.62822        -5.71854         0.41856
| 53>    C       -8.20018        -4.88111         1.41439
| 54>    C       -8.44121        -5.36813         2.79500
| 55>    O       -7.67832        -6.09306         3.38379
| 56>    O       -9.56847        -4.88359         3.32515
| 57>    C       -9.88256        -5.32872         4.63862
| 58>    C       -7.43701        -7.13314         0.55068
| 59>    C       -8.26385        -8.01857         1.17288
| 60>    C       -7.99274        -9.40018         1.37816
| 61>    C       -8.97403       -10.07398         2.03126
| 62>    C      -10.08527        -9.26876         2.38201
| 63>    S       -9.86700        -7.64000         1.79617
| 64>    C      -11.18934        -9.63431         3.12920
| 65>    C      -11.50958       -10.91082         3.63656
| 66>    C      -12.64690       -10.93316         4.38906
| 67>    C      -13.27961        -9.67674         4.51886
| 68>    S      -12.39023        -8.46136         3.63509
| 69>    C      -14.40697        -9.40308         5.26947
| 70>    C      -14.98124        -8.14258         5.37455
| 71>    C      -16.04008        -7.76282         6.17347
| 72>    C      -16.67577        -8.41245         7.28484
| 73>    C      -16.11207        -9.32541         8.14835
| 74>    C      -14.75693        -9.70703         8.12587
| 75>    N      -13.65183       -10.01442         8.19274
| 76>    C      -16.79205        -9.90011         9.23842
| 77>    N      -17.30276       -10.41977        10.12687
| 78>    C      -17.96946        -7.76001         7.49095
| 79>    C      -18.03204        -6.61192         6.66269
| 80>    C      -16.79716        -6.53657         5.85039
| 81>    O      -16.48621        -5.66997         5.05982
| 82>    C      -19.11031        -5.76284         6.66000
| 83>    C      -20.18368        -6.06703         7.50576
| 84>    C      -20.11670        -7.22251         8.31723
| 85>    C      -19.02037        -8.07799         8.32740
| 86>    S      -21.55373        -7.41551         9.27570
| 87>    C      -22.21370        -5.95688         8.58498
| 88>    C      -21.40322        -5.35647         7.68233
| 89>   Br      -23.91217        -5.36559         9.12039
| 90>    H       -2.96570         7.51070        -6.49482
| 91>    H       -1.96762         2.86466        -8.07744
| 92>    H       -1.19862         8.30689        -8.52320
| 93>    H       -5.42291         2.40557        -3.71883
| 94>    H       -5.93691         5.33930        -2.97552
| 95>    H       -7.44246         5.50276        -0.83087
| 96>    H       -8.57325         3.99104         0.93110
| 97>    H       -9.28377         2.08585         2.30364
| 98>    H       -9.69979        -0.27127         3.26023
| 99>    H       -9.20301        -2.72931         2.78058
|100>    H       -6.53042        -4.63912        -2.54580
|101>    H       -5.61013        -7.13926        -2.08844
|102>    H       -6.64750        -6.72215        -3.45892
|103>    H       -7.37090        -7.36381        -1.97229
|104>    H       -9.04069        -5.15471         5.31148
|105>    H      -10.11179        -6.39604         4.62629
|106>    H      -10.75532        -4.76195         4.95140
|107>    H       -6.52662        -7.54188         0.13598
|108>    H       -7.06448        -9.83744         1.05540
|109>    H       -8.92527       -11.11585         2.29096
|110>    H      -10.90052       -11.77370         3.43621
|111>    H      -13.04244       -11.80916         4.87093
|112>    H      -14.85358       -10.24109         5.78461
|113>    H      -14.61955        -7.37160         4.70016
|114>    H      -19.12840        -4.89014         6.02616
|115>    H      -19.01649        -8.94908         8.96138
|116>    H      -21.65259        -4.45043         7.16082
|117> *
|118>
|119>                          ****END OF INPUT****

CARTESIAN COORDINATES (ANGSTROEM)
---------------------------------
  C     -3.816700    3.172550   -5.821430
  C     -3.824310    1.801320   -5.955380
  C     -3.098730    1.098590   -6.936330
  N     -2.535020    0.458320   -7.706690
  C     -4.545890    0.892980   -5.157630
  N     -5.091500    0.069000   -4.569090
  C     -3.059350    4.092030   -6.670010
  C     -3.320790    5.417470   -6.246580
  C     -2.747090    6.512880   -6.841700
  C     -1.867880    6.291040   -7.908130
  C     -1.613370    4.964630   -8.324700
  C     -2.196930    3.855410   -7.722640
  S     -0.494670    4.915800   -9.654560
  C     -0.385570    6.655820   -9.630420
  C     -1.146860    7.244670   -8.678540
  Br     0.725050    7.530620  -10.864330
  C     -4.260190    5.385710   -5.103980
  O     -4.696660    6.351950   -4.507870
  C     -4.533010    3.959030   -4.854370
  C     -5.323960    3.479240   -3.826590
  C     -5.994360    4.263420   -2.897170
  C     -6.722600    3.722890   -1.851300
  C     -7.412940    4.427800   -0.841870
  C     -8.009980    3.626660    0.090760
  C     -7.820100    2.251240   -0.143770
  S     -6.872700    2.000720   -1.592150
  C     -8.250130    1.173240    0.614480
  C     -8.961980    1.174790    1.832490
  C     -9.180380   -0.071880    2.339710
  C     -8.661370   -1.124510    1.546590
  S     -7.886700   -0.460470    0.120510
  C     -8.726500   -2.464340    1.847550
  C     -8.259200   -3.533220    1.073860
  S     -7.586960   -3.289970   -0.531890
  C     -7.243000   -4.979730   -0.710380
  N     -6.744960   -5.378340   -1.893760
  C     -6.582220   -6.726200   -2.372270
  C     -7.628220   -5.718540    0.418560
  C     -8.200180   -4.881110    1.414390
  C     -8.441210   -5.368130    2.795000
  O     -7.678320   -6.093060    3.383790
  O     -9.568470   -4.883590    3.325150
  C     -9.882560   -5.328720    4.638620
  C     -7.437010   -7.133140    0.550680
  C     -8.263850   -8.018570    1.172880
  C     -7.992740   -9.400180    1.378160
  C     -8.974030  -10.073980    2.031260
  C    -10.085270   -9.268760    2.382010
  S     -9.867000   -7.640000    1.796170
  C    -11.189340   -9.634310    3.129200
  C    -11.509580  -10.910820    3.636560
  C    -12.646900  -10.933160    4.389060
  C    -13.279610   -9.676740    4.518860
  S    -12.390230   -8.461360    3.635090
  C    -14.406970   -9.403080    5.269470
  C    -14.981240   -8.142580    5.374550
  C    -16.040080   -7.762820    6.173470
  C    -16.675770   -8.412450    7.284840
  C    -16.112070   -9.325410    8.148350
  C    -14.756930   -9.707030    8.125870
  N    -13.651830  -10.014420    8.192740
  C    -16.792050   -9.900110    9.238420
  N    -17.302760  -10.419770   10.126870
  C    -17.969460   -7.760010    7.490950
  C    -18.032040   -6.611920    6.662690
  C    -16.797160   -6.536570    5.850390
  O    -16.486210   -5.669970    5.059820
  C    -19.110310   -5.762840    6.660000
  C    -20.183680   -6.067030    7.505760
  C    -20.116700   -7.222510    8.317230
  C    -19.020370   -8.077990    8.327400
  S    -21.553730   -7.415510    9.275700
  C    -22.213700   -5.956880    8.584980
  C    -21.403220   -5.356470    7.682330
  Br   -23.912170   -5.365590    9.120390
  H     -2.965700    7.510700   -6.494820
  H     -1.967620    2.864660   -8.077440
  H     -1.198620    8.306890   -8.523200
  H     -5.422910    2.405570   -3.718830
  H     -5.936910    5.339300   -2.975520
  H     -7.442460    5.502760   -0.830870
  H     -8.573250    3.991040    0.931100
  H     -9.283770    2.085850    2.303640
  H     -9.699790   -0.271270    3.260230
  H     -9.203010   -2.729310    2.780580
  H     -6.530420   -4.639120   -2.545800
  H     -5.610130   -7.139260   -2.088440
  H     -6.647500   -6.722150   -3.458920
  H     -7.370900   -7.363810   -1.972290
  H     -9.040690   -5.154710    5.311480
  H    -10.111790   -6.396040    4.626290
  H    -10.755320   -4.761950    4.951400
  H     -6.526620   -7.541880    0.135980
  H     -7.064480   -9.837440    1.055400
  H     -8.925270  -11.115850    2.290960
  H    -10.900520  -11.773700    3.436210
  H    -13.042440  -11.809160    4.870930
  H    -14.853580  -10.241090    5.784610
  H    -14.619550   -7.371600    4.700160
  H    -19.128400   -4.890140    6.026160
  H    -19.016490   -8.949080    8.961380
  H    -21.652590   -4.450430    7.160820

 Total Charge           Charge          ....    0
 Multiplicity           Mult            ....    1
 Number of Electrons    NEL             ....  618
 Basis Dimension        Dim             .... 1249

ORBITAL ENERGIES
----------------

  NO   OCC          E(Eh)            E(eV)
   0   2.0000    -482.878066    -13139.7802
   1   2.0000    -482.876743    -13139.7442
   2   2.0000     -88.980645     -2421.2864
   3   2.0000     -88.966462     -2420.9005
   4   2.0000     -88.966337     -2420.8971
   5   2.0000     -88.965748     -2420.8811
   6   2.0000     -88.964361     -2420.8433
   7   2.0000     -88.963628     -2420.8234
   8   2.0000     -88.957771     -2420.6640
   9   2.0000     -62.555744     -1702.2283
  10   2.0000     -62.554471     -1702.1937
  11   2.0000     -56.389683     -1534.4413
  12   2.0000     -56.388404     -1534.4065
  13   2.0000     -56.386992     -1534.3681
  14   2.0000     -56.386954     -1534.3670
  15   2.0000     -56.385717     -1534.3334
  16   2.0000     -56.385679     -1534.3323
  17   2.0000     -19.273351      -524.4545
  18   2.0000     -19.213566      -522.8277
  19   2.0000     -19.198136      -522.4078
  20   2.0000     -19.197769      -522.3979
  21   2.0000     -14.476662      -393.9300
  22   2.0000     -14.401511      -391.8850
  23   2.0000     -14.401178      -391.8760
  24   2.0000     -14.399030      -391.8175
  25   2.0000     -14.397598      -391.7785
  26   2.0000     -10.414348      -283.3888
  27   2.0000     -10.377990      -282.3995
  28   2.0000     -10.349209      -281.6163
  29   2.0000     -10.349175      -281.6154
  30   2.0000     -10.348031      -281.5842
  31   2.0000     -10.347789      -281.5777
  32   2.0000     -10.338929      -281.3366
  33   2.0000     -10.336588      -281.2729
  34   2.0000     -10.335663      -281.2477
  35   2.0000     -10.329687      -281.0851
  36   2.0000     -10.327573      -281.0276
  37   2.0000     -10.327121      -281.0153
  38   2.0000     -10.325924      -280.9827
  39   2.0000     -10.325118      -280.9607
  40   2.0000     -10.325004      -280.9576
  41   2.0000     -10.323791      -280.9246
  42   2.0000     -10.323625      -280.9201
  43   2.0000     -10.322825      -280.8983
  44   2.0000     -10.322601      -280.8923
  45   2.0000     -10.319723      -280.8139
  46   2.0000     -10.319653      -280.8120
  47   2.0000     -10.314299      -280.6663
  48   2.0000     -10.312397      -280.6146
  49   2.0000     -10.312207      -280.6094
  50   2.0000     -10.312104      -280.6066
  51   2.0000     -10.311583      -280.5924
  52   2.0000     -10.308839      -280.5178
  53   2.0000     -10.307461      -280.4803
  54   2.0000     -10.306608      -280.4571
  55   2.0000     -10.306226      -280.4467
  56   2.0000     -10.305023      -280.4139
  57   2.0000     -10.304537      -280.4007
  58   2.0000     -10.304502      -280.3998
  59   2.0000     -10.303970      -280.3853
  60   2.0000     -10.302786      -280.3531
  61   2.0000     -10.302542      -280.3464
  62   2.0000     -10.301342      -280.3138
  63   2.0000     -10.300538      -280.2919
  64   2.0000     -10.295863      -280.1647
  65   2.0000     -10.295581      -280.1570
  66   2.0000     -10.295431      -280.1529
  67   2.0000     -10.294000      -280.1140
  68   2.0000     -10.293033      -280.0877
  69   2.0000     -10.292881      -280.0835
  70   2.0000     -10.292560      -280.0748
  71   2.0000     -10.290857      -280.0285
  72   2.0000     -10.290256      -280.0121
  73   2.0000     -10.289362      -279.9878
  74   2.0000     -10.287620      -279.9404
  75   2.0000     -10.286621      -279.9132
  76   2.0000     -10.286126      -279.8997
  77   2.0000     -10.280989      -279.7599
  78   2.0000     -10.279338      -279.7150
  79   2.0000     -10.276304      -279.6324
  80   2.0000     -10.276050      -279.6255
  81   2.0000     -10.273138      -279.5463
  82   2.0000     -10.270629      -279.4780
  83   2.0000      -8.785149      -239.0561
  84   2.0000      -8.783910      -239.0224
  85   2.0000      -8.076953      -219.7851
  86   2.0000      -8.062663      -219.3962
  87   2.0000      -8.062097      -219.3808
  88   2.0000      -8.061773      -219.3720
  89   2.0000      -8.060249      -219.3305
  90   2.0000      -8.059569      -219.3120
  91   2.0000      -8.053842      -219.1562
  92   2.0000      -6.621367      -180.1766
  93   2.0000      -6.620136      -180.1431
  94   2.0000      -6.606908      -179.7831
  95   2.0000      -6.606748      -179.7787
  96   2.0000      -6.605673      -179.7495
  97   2.0000      -6.605506      -179.7450
  98   2.0000      -6.046604      -164.5365
  99   2.0000      -6.042316      -164.4198
 100   2.0000      -6.038164      -164.3068
 101   2.0000      -6.032360      -164.1489
 102   2.0000      -6.031805      -164.1338
 103   2.0000      -6.031471      -164.1247
 104   2.0000      -6.029954      -164.0834
 105   2.0000      -6.029196      -164.0628
 106   2.0000      -6.028191      -164.0354
 107   2.0000      -6.027861      -164.0264
 108   2.0000      -6.027205      -164.0086
 109   2.0000      -6.025681      -163.9671
 110   2.0000      -6.025165      -163.9531
 111   2.0000      -6.023714      -163.9136
 112   2.0000      -6.023402      -163.9051
 113   2.0000      -6.022997      -163.8941
 114   2.0000      -6.022977      -163.8935
 115   2.0000      -6.021500      -163.8533
 116   2.0000      -6.020737      -163.8326
 117   2.0000      -6.019393      -163.7960
 118   2.0000      -6.015065      -163.6782
 119   2.0000      -2.737289       -74.4854
 120   2.0000      -2.736032       -74.4512
 121   2.0000      -2.733178       -74.3736
 122   2.0000      -2.733041       -74.3698
 123   2.0000      -2.731944       -74.3400
 124   2.0000      -2.731836       -74.3370
 125   2.0000      -2.721559       -74.0574
 126   2.0000      -2.721543       -74.0569
 127   2.0000      -2.720327       -74.0239
 128   2.0000      -2.720314       -74.0235
 129   2.0000      -1.204262       -32.7696
 130   2.0000      -1.112110       -30.2620
 131   2.0000      -1.111071       -30.2338
 132   2.0000      -1.108281       -30.1579
 133   2.0000      -1.080220       -29.3943
 134   2.0000      -1.014846       -27.6154
 135   2.0000      -1.013892       -27.5894
 136   2.0000      -1.010589       -27.4995
 137   2.0000      -1.008571       -27.4446
 138   2.0000      -0.999990       -27.2111
 139   2.0000      -0.999345       -27.1936
 140   2.0000      -0.998727       -27.1768
 141   2.0000      -0.990973       -26.9657
 142   2.0000      -0.985857       -26.8265
 143   2.0000      -0.979090       -26.6424
 144   2.0000      -0.978804       -26.6346
 145   2.0000      -0.975660       -26.5491
 146   2.0000      -0.973440       -26.4887
 147   2.0000      -0.932206       -25.3666
 148   2.0000      -0.929744       -25.2996
 149   2.0000      -0.923452       -25.1284
 150   2.0000      -0.911696       -24.8085
 151   2.0000      -0.903473       -24.5847
 152   2.0000      -0.896708       -24.4007
 153   2.0000      -0.895670       -24.3724
 154   2.0000      -0.893663       -24.3178
 155   2.0000      -0.880898       -23.9705
 156   2.0000      -0.875194       -23.8152
 157   2.0000      -0.874063       -23.7845
 158   2.0000      -0.872037       -23.7293
 159   2.0000      -0.866205       -23.5706
 160   2.0000      -0.863525       -23.4977
 161   2.0000      -0.862660       -23.4742
 162   2.0000      -0.848515       -23.0893
 163   2.0000      -0.840695       -22.8765
 164   2.0000      -0.837425       -22.7875
 165   2.0000      -0.836316       -22.7573
 166   2.0000      -0.829319       -22.5669
 167   2.0000      -0.823333       -22.4040
 168   2.0000      -0.817576       -22.2474
 169   2.0000      -0.815919       -22.2023
 170   2.0000      -0.802659       -21.8415
 171   2.0000      -0.795333       -21.6421
 172   2.0000      -0.782198       -21.2847
 173   2.0000      -0.766002       -20.8440
 174   2.0000      -0.757367       -20.6090
 175   2.0000      -0.745611       -20.2891
 176   2.0000      -0.743488       -20.2313
 177   2.0000      -0.732678       -19.9372
 178   2.0000      -0.725864       -19.7518
 179   2.0000      -0.707710       -19.2578
 180   2.0000      -0.705200       -19.1895
 181   2.0000      -0.691904       -18.8277
 182   2.0000      -0.690599       -18.7922
 183   2.0000      -0.686565       -18.6824
 184   2.0000      -0.681968       -18.5573
 185   2.0000      -0.676748       -18.4153
 186   2.0000      -0.675056       -18.3692
 187   2.0000      -0.666379       -18.1331
 188   2.0000      -0.658023       -17.9057
 189   2.0000      -0.657152       -17.8820
 190   2.0000      -0.647573       -17.6214
 191   2.0000      -0.645993       -17.5784
 192   2.0000      -0.644183       -17.5291
 193   2.0000      -0.642093       -17.4722
 194   2.0000      -0.637693       -17.3525
 195   2.0000      -0.634017       -17.2525
 196   2.0000      -0.628523       -17.1030
 197   2.0000      -0.626876       -17.0582
 198   2.0000      -0.621055       -16.8998
 199   2.0000      -0.617636       -16.8067
 200   2.0000      -0.610629       -16.6161
 201   2.0000      -0.610006       -16.5991
 202   2.0000      -0.608716       -16.5640
 203   2.0000      -0.595535       -16.2053
 204   2.0000      -0.589318       -16.0362
 205   2.0000      -0.585625       -15.9357
 206   2.0000      -0.584031       -15.8923
 207   2.0000      -0.582957       -15.8631
 208   2.0000      -0.580310       -15.7910
 209   2.0000      -0.578834       -15.7509
 210   2.0000      -0.570234       -15.5169
 211   2.0000      -0.568877       -15.4799
 212   2.0000      -0.560991       -15.2653
 213   2.0000      -0.559987       -15.2380
 214   2.0000      -0.550162       -14.9707
 215   2.0000      -0.545567       -14.8456
 216   2.0000      -0.538249       -14.6465
 217   2.0000      -0.535841       -14.5810
 218   2.0000      -0.532657       -14.4943
 219   2.0000      -0.531175       -14.4540
 220   2.0000      -0.525751       -14.3064
 221   2.0000      -0.524962       -14.2849
 222   2.0000      -0.523985       -14.2583
 223   2.0000      -0.522525       -14.2186
 224   2.0000      -0.522096       -14.2070
 225   2.0000      -0.518752       -14.1160
 226   2.0000      -0.517852       -14.0915
 227   2.0000      -0.514830       -14.0092
 228   2.0000      -0.513748       -13.9798
 229   2.0000      -0.512041       -13.9333
 230   2.0000      -0.510069       -13.8797
 231   2.0000      -0.509860       -13.8740
 232   2.0000      -0.505719       -13.7613
 233   2.0000      -0.502074       -13.6621
 234   2.0000      -0.501841       -13.6558
 235   2.0000      -0.497843       -13.5470
 236   2.0000      -0.496998       -13.5240
 237   2.0000      -0.495709       -13.4889
 238   2.0000      -0.493976       -13.4418
 239   2.0000      -0.493008       -13.4154
 240   2.0000      -0.487592       -13.2681
 241   2.0000      -0.486947       -13.2505
 242   2.0000      -0.484311       -13.1788
 243   2.0000      -0.482550       -13.1309
 244   2.0000      -0.481961       -13.1148
 245   2.0000      -0.480161       -13.0659
 246   2.0000      -0.479689       -13.0530
 247   2.0000      -0.478546       -13.0219
 248   2.0000      -0.476668       -12.9708
 249   2.0000      -0.476366       -12.9626
 250   2.0000      -0.472139       -12.8476
 251   2.0000      -0.466616       -12.6973
 252   2.0000      -0.459214       -12.4958
 253   2.0000      -0.458155       -12.4670
 254   2.0000      -0.457423       -12.4471
 255   2.0000      -0.449949       -12.2437
 256   2.0000      -0.448967       -12.2170
 257   2.0000      -0.448174       -12.1954
 258   2.0000      -0.445509       -12.1229
 259   2.0000      -0.440550       -11.9880
 260   2.0000      -0.438400       -11.9295
 261   2.0000      -0.436016       -11.8646
 262   2.0000      -0.435429       -11.8486
 263   2.0000      -0.435172       -11.8416
 264   2.0000      -0.434188       -11.8149
 265   2.0000      -0.432238       -11.7618
 266   2.0000      -0.430507       -11.7147
 267   2.0000      -0.429448       -11.6859
 268   2.0000      -0.428752       -11.6669
 269   2.0000      -0.427921       -11.6443
 270   2.0000      -0.426293       -11.6000
 271   2.0000      -0.423412       -11.5216
 272   2.0000      -0.417725       -11.3669
 273   2.0000      -0.412856       -11.2344
 274   2.0000      -0.411939       -11.2094
 275   2.0000      -0.410385       -11.1671
 276   2.0000      -0.409135       -11.1331
 277   2.0000      -0.407196       -11.0804
 278   2.0000      -0.406290       -11.0557
 279   2.0000      -0.399680       -10.8758
 280   2.0000      -0.395751       -10.7689
 281   2.0000      -0.393114       -10.6972
 282   2.0000      -0.392694       -10.6858
 283   2.0000      -0.387798       -10.5525
 284   2.0000      -0.381842       -10.3904
 285   2.0000      -0.376495       -10.2449
 286   2.0000      -0.374912       -10.2019
 287   2.0000      -0.367536       -10.0012
 288   2.0000      -0.366854        -9.9826
 289   2.0000      -0.366338        -9.9686
 290   2.0000      -0.363936        -9.9032
 291   2.0000      -0.357679        -9.7329
 292   2.0000      -0.352085        -9.5807
 293   2.0000      -0.349547        -9.5117
 294   2.0000      -0.345831        -9.4106
 295   2.0000      -0.339623        -9.2416
 296   2.0000      -0.337869        -9.1939
 297   2.0000      -0.333340        -9.0707
 298   2.0000      -0.323126        -8.7927
 299   2.0000      -0.318332        -8.6623
 300   2.0000      -0.316846        -8.6218
 301   2.0000      -0.304402        -8.2832
 302   2.0000      -0.302643        -8.2353
 303   2.0000      -0.300054        -8.1649
 304   2.0000      -0.283406        -7.7119
 305   2.0000      -0.282017        -7.6741
 306   2.0000      -0.273330        -7.4377
 307   2.0000      -0.234657        -6.3853
 308   2.0000      -0.218120        -5.9353
 309   0.0000      -0.112755        -3.0682
 310   0.0000      -0.101481        -2.7615
 311   0.0000      -0.059722        -1.6251
 312   0.0000      -0.056297        -1.5319
 313   0.0000      -0.040911        -1.1133

MULLIKEN ATOMIC CHARGES
-----------------------
   0 C :    0.330534
   1 C :   -0.372362
   2 C :   -0.192311
   3 N :    0.131344
   4 C :   -0.190609
   5 N :    0.121155
   6 C :    0.012109
   7 C :   -0.009173
   8 C :   -0.076130
   9 C :    0.116716
  10 C :   -0.092493
  11 C :   -0.025306
  12 S :    0.177322
  13 C :   -0.124981
  14 C :    0.036394
  15 Br:    0.013311
  16 C :    0.133131
  17 O :   -0.166560
  18 C :   -0.088910
  19 C :   -0.043709
  20 C :   -0.023798
  21 C :    0.005767
  22 C :    0.022010
  23 C :    0.044095
  24 C :   -0.054604
  25 S :    0.100667
  26 C :   -0.011971
  27 C :    0.024041
  28 C :    0.048786
  29 C :   -0.052992
  30 S :    0.082387
  31 C :    0.028103
  32 C :   -0.114475
  33 S :    0.102442
  34 C :   -0.067576
  35 N :   -0.128052
  36 C :    0.094639
  37 C :    0.081120
  38 C :    0.076361
  39 C :    0.109917
  40 O :   -0.189088
  41 O :   -0.300613
  42 C :    0.190305
  43 C :   -0.063547
  44 C :   -0.025683
  45 C :    0.053752
  46 C :    0.027066
  47 C :   -0.034524
  48 S :    0.097860
  49 C :   -0.060998
  50 C :    0.041726
  51 C :    0.039967
  52 C :   -0.018570
  53 S :    0.100378
  54 C :   -0.004463
  55 C :    0.020717
  56 C :   -0.128109
  57 C :    0.284234
  58 C :   -0.348643
  59 C :   -0.221623
  60 N :    0.156233
  61 C :   -0.180110
  62 N :    0.135801
  63 C :    0.008453
  64 C :   -0.002782
  65 C :    0.135682
  66 O :   -0.161372
  67 C :   -0.078575
  68 C :    0.113329
  69 C :   -0.088899
  70 C :   -0.028084
  71 S :    0.178331
  72 C :   -0.124576
  73 C :    0.038354
  74 Br:    0.014205
  75 H :   -0.016282
  76 H :   -0.011156
  77 H :   -0.005694
  78 H :    0.012703
  79 H :    0.015456
  80 H :   -0.000169
  81 H :   -0.006283
  82 H :   -0.007280
  83 H :   -0.001590
  84 H :    0.008609
  85 H :    0.143819
  86 H :    0.046362
  87 H :    0.043565
  88 H :    0.058763
  89 H :    0.036891
  90 H :    0.031097
  91 H :    0.039188
  92 H :    0.003933
  93 H :   -0.004575
  94 H :   -0.006678
  95 H :   -0.003807
  96 H :    0.000730
  97 H :    0.007683
  98 H :    0.010657
  99 H :   -0.014680
 100 H :   -0.006585
 101 H :   -0.007147
Sum of atomic charges:   -0.0000000

LOEWDIN ATOMIC CHARGES
----------------------
   0 C :    0.074241
   1 C :   -0.163872
   2 C :   -0.019366
   3 N :   -0.075324
   4 C :   -0.019102
   5 N :   -0.080464
   6 C :   -0.018052
   7 C :   -0.047975
   8 C :    0.016428
   9 C :   -0.036448
  10 C :   -0.146563
  11 C :   -0.014591
  12 S :    0.425739
  13 C :   -0.275405
  14 C :   -0.071184
  15 Br:    0.128573
  16 C :    0.081084
  17 O :   -0.160164
  18 C :   -0.113614
  19 C :    0.047401
  20 C :   -0.077133
  21 C :   -0.102369
  22 C :   -0.046740
  23 C :   -0.007191
  24 C :   -0.198785
  25 S :    0.409791
  26 C :   -0.143676
  27 C :   -0.046392
  28 C :   -0.005873
  29 C :   -0.171567
  30 S :    0.387428
  31 C :   -0.033538
  32 C :   -0.169552
  33 S :    0.422006
  34 C :   -0.075907
  35 N :   -0.004697
  36 C :    0.028847
  37 C :   -0.118205
  38 C :   -0.065839
  39 C :    0.058942
  40 O :   -0.163169
  41 O :   -0.081626
  42 C :    0.080189
  43 C :   -0.020281
  44 C :   -0.152815
  45 C :   -0.004324
  46 C :   -0.040991
  47 C :   -0.143421
  48 S :    0.414636
  49 C :   -0.198006
  50 C :   -0.005142
  51 C :   -0.038593
  52 C :   -0.099419
  53 S :    0.397343
  54 C :   -0.073177
  55 C :    0.050911
  56 C :   -0.111226
  57 C :    0.068948
  58 C :   -0.156710
  59 C :   -0.024130
  60 N :   -0.065514
  61 C :   -0.020482
  62 N :   -0.066497
  63 C :   -0.015831
  64 C :   -0.050852
  65 C :    0.077877
  66 O :   -0.161386
  67 C :    0.017339
  68 C :   -0.037232
  69 C :   -0.145314
  70 C :   -0.016497
  71 S :    0.426672
  72 C :   -0.275422
  73 C :   -0.070854
  74 Br:    0.129387
  75 H :    0.038403
  76 H :    0.039418
  77 H :    0.037534
  78 H :    0.029999
  79 H :    0.038273
  80 H :    0.038380
  81 H :    0.035128
  82 H :    0.034784
  83 H :    0.038407
  84 H :    0.044175
  85 H :    0.088814
  86 H :    0.025656
  87 H :    0.037506
  88 H :    0.036541
  89 H :    0.024576
  90 H :    0.015873
  91 H :    0.027884
  92 H :    0.037666
  93 H :    0.037138
  94 H :    0.035003
  95 H :    0.036078
  96 H :    0.039926
  97 H :    0.037906
  98 H :    0.033556
  99 H :    0.038974
 100 H :    0.039859
 101 H :    0.037262

  Mayer bond orders larger than 0.100000
B(  0-C ,  1-C ) :   1.5661 B(  0-C ,  6-C ) :   0.9875 B(  0-C , 18-C ) :   1.1289
B(  1-C ,  2-C ) :   1.1520 B(  1-C ,  4-C ) :   1.1588 B(  2-C ,  3-N ) :   2.9611
B(  4-C ,  5-N ) :   2.9568 B(  6-C ,  7-C ) :   1.2794 B(  6-C , 11-C ) :   1.4233
B(  7-C ,  8-C ) :   1.4315 B(  7-C , 16-C ) :   0.9348 B(  8-C ,  9-C ) :   1.2388
B(  8-C , 75-H ) :   1.0167 B(  9-C , 10-C ) :   1.3191 B(  9-C , 14-C ) :   1.1602
B( 10-C , 11-C ) :   1.3177 B( 10-C , 12-S ) :   1.0822 B( 11-C , 76-H ) :   0.9797
B( 12-S , 13-C ) :   1.0853 B( 13-C , 14-C ) :   1.6206 B( 13-C , 15-Br) :   1.0126
B( 14-C , 77-H ) :   0.9998 B( 16-C , 17-O ) :   2.1862 B( 16-C , 18-C ) :   0.9696
B( 18-C , 19-C ) :   1.4542 B( 19-C , 20-C ) :   1.2857 B( 19-C , 78-H ) :   0.9425
B( 20-C , 21-C ) :   1.3902 B( 20-C , 79-H ) :   0.9790 B( 21-C , 22-C ) :   1.1954
B( 21-C , 25-S ) :   1.0931 B( 22-C , 23-C ) :   1.5209 B( 22-C , 80-H ) :   1.0020
B( 23-C , 24-C ) :   1.2333 B( 23-C , 81-H ) :   0.9950 B( 24-C , 25-S ) :   1.0446
B( 24-C , 26-C ) :   1.4457 B( 26-C , 27-C ) :   1.2073 B( 26-C , 30-S ) :   1.0846
B( 27-C , 28-C ) :   1.5619 B( 27-C , 82-H ) :   0.9944 B( 28-C , 29-C ) :   1.1672
B( 28-C , 83-H ) :   0.9998 B( 29-C , 30-S ) :   1.0208 B( 29-C , 31-C ) :   1.5219
B( 31-C , 32-C ) :   1.2482 B( 31-C , 84-H ) :   0.9533 B( 32-C , 33-S ) :   1.0318
B( 32-C , 38-C ) :   1.4726 B( 33-S , 34-C ) :   1.1480 B( 34-C , 35-N ) :   1.3034
B( 34-C , 37-C ) :   1.3152 B( 35-N , 36-C ) :   0.9901 B( 35-N , 85-H ) :   0.9204
B( 36-C , 86-H ) :   0.9701 B( 36-C , 87-H ) :   0.9703 B( 36-C , 88-H ) :   0.9633
B( 37-C , 38-C ) :   1.2950 B( 37-C , 43-C ) :   1.0681 B( 38-C , 39-C ) :   0.8898
B( 39-C , 40-O ) :   2.1242 B( 39-C , 41-O ) :   1.1763 B( 41-O , 42-C ) :   0.9102
B( 42-C , 89-H ) :   0.9716 B( 42-C , 90-H ) :   0.9714 B( 42-C , 91-H ) :   0.9792
B( 43-C , 44-C ) :   1.6481 B( 43-C , 92-H ) :   0.9546 B( 44-C , 45-C ) :   1.1313
B( 44-C , 48-S ) :   1.0159 B( 45-C , 46-C ) :   1.6021 B( 45-C , 93-H ) :   0.9968
B( 46-C , 47-C ) :   1.1809 B( 46-C , 94-H ) :   0.9930 B( 47-C , 48-S ) :   1.0866
B( 47-C , 49-C ) :   1.4798 B( 49-C , 50-C ) :   1.2155 B( 49-C , 53-S ) :   1.0330
B( 50-C , 51-C ) :   1.5446 B( 50-C , 95-H ) :   0.9938 B( 51-C , 52-C ) :   1.1852
B( 51-C , 96-H ) :   1.0004 B( 52-C , 53-S ) :   1.0858 B( 52-C , 54-C ) :   1.4914
B( 54-C , 55-C ) :   1.2319 B( 54-C , 97-H ) :   0.9615 B( 55-C , 56-C ) :   1.5146
B( 55-C , 98-H ) :   0.9422 B( 56-C , 57-C ) :   1.0977 B( 56-C , 65-C ) :   0.9688
B( 57-C , 58-C ) :   1.5902 B( 57-C , 63-C ) :   1.0040 B( 58-C , 59-C ) :   1.1677
B( 58-C , 61-C ) :   1.1359 B( 59-C , 60-N ) :   3.0135 B( 61-C , 62-N ) :   2.9753
B( 63-C , 64-C ) :   1.2763 B( 63-C , 70-C ) :   1.4232 B( 64-C , 65-C ) :   0.9176
B( 64-C , 67-C ) :   1.4344 B( 65-C , 66-O ) :   2.2444 B( 67-C , 68-C ) :   1.2433
B( 67-C , 99-H ) :   1.0160 B( 68-C , 69-C ) :   1.3193 B( 68-C , 73-C ) :   1.1602
B( 69-C , 70-C ) :   1.3163 B( 69-C , 71-S ) :   1.0814 B( 70-C ,100-H ) :   0.9820
B( 71-S , 72-C ) :   1.0856 B( 72-C , 73-C ) :   1.6217 B( 72-C , 74-Br) :   1.0135
B( 73-C ,101-H ) :   1.0002

-----------------------------------------------------------------------------
         ABSORPTION SPECTRUM VIA TRANSITION ELECTRIC DIPOLE MOMENTS
-----------------------------------------------------------------------------
State   Energy  Wavelength   fosc         T2         TX        TY        TZ
        (cm-1)    (nm)                  (au**2)     (au)      (au)      (au)
-----------------------------------------------------------------------------
   0    9534.8   1048.8   1.801470641  62.20009   4.23901   4.78960  -4.61417
   1   13197.3    757.7   0.268724320   6.70343   2.33141  -0.70000  -0.88201
   2   15505.7    644.9   0.028356725   0.60206  -0.17512   0.36017  -0.66458
   3   17114.7    584.3   0.563841158  10.84584  -2.35283   0.64124   2.21333
   4   20787.7    481.1   0.059212259   0.93774   0.06316  -0.96139  -0.09730
   5   21996.5    454.6   0.518453043   7.75947   0.88847  -2.26038  -1.36409
   6   22468.6    445.1   0.137663831   2.01706  -1.00908   0.79912   0.60019
   7   24072.5    415.4   0.280675847   3.83848  -0.84925   1.39187   1.08625
   8   24741.0    404.2   0.094820152   1.26171  -0.21436   1.05707  -0.31363
   9   25484.1    392.4   0.467770974   6.04281  -1.98231   0.28431   1.42563
  10   25564.8    391.2   0.034922848   0.44972   0.63732  -0.16175   0.13181
  11   26394.9    378.9   0.091961431   1.14700   0.13207  -0.73638   0.76636
  12   26922.2    371.4   0.000096384   0.00118  -0.01276  -0.00949   0.03042
  13   27751.9    360.3   0.030633411   0.36339   0.10466  -0.55919   0.19937
  14   27865.3    358.9   0.005799749   0.06852   0.24071  -0.10237  -0.00997
  15   28250.0    354.0   0.050728491   0.59117  -0.26724  -0.71809   0.06393
  16   28553.2    350.2   0.017929965   0.20673   0.18539  -0.39223  -0.13606
  17   29049.9    344.2   0.005851697   0.06632   0.12140   0.22566   0.02556
  18   29172.6    342.8   0.001572606   0.01775  -0.11685   0.01430  -0.06235
  19   29508.4    338.9   0.018129811   0.20227  -0.21334  -0.23546   0.31829
  20   30010.8    333.2   0.099468711   1.09115   0.24697   0.98581  -0.24151
  21   30821.0    324.5   0.045188846   0.48268  -0.11383   0.39501   0.56008
  22   30969.6    322.9   0.076468225   0.81287   0.71654  -0.04150  -0.54563
  23   31470.4    317.8   0.059218663   0.61949  -0.33015   0.70871  -0.09064
  24   31609.2    316.4   0.001423804   0.01483  -0.09369  -0.03845   0.06762
  25   31710.3    315.4   0.045906738   0.47660  -0.16582   0.66115  -0.10944
  26   31841.6    314.1   0.020602404   0.21301  -0.07702  -0.31368  -0.32967
  27   32088.4    311.6   0.346448526   3.55440  -0.71428  -1.29903   1.16478
  28   32507.9    307.6   0.153069981   1.55016  -0.81619  -0.70354   0.62371
  29   32572.8    307.0   0.169392763   1.71205   0.83703  -0.96652   0.27798
  30   32738.0    305.5   0.426631997   4.29019  -1.70128   1.13097   0.34170
  31   32964.7    303.4   0.050997457   0.50930  -0.66427   0.13906   0.22070
  32   33089.0    302.2   0.023022079   0.22905   0.16957  -0.41112   0.17687
  33   33650.9    297.2   0.086369387   0.84497   0.46283   0.71503  -0.34568
  34   33827.4    295.6   0.016783471   0.16334  -0.23642   0.32149  -0.06397
  35   34220.5    292.2   0.006282900   0.06044  -0.21584   0.11752  -0.00689
  36   34519.4    289.7   0.046254125   0.44113   0.27670   0.60195  -0.04713
  37   34633.9    288.7   0.100354727   0.95392   0.84693  -0.48638   0.00810
  38   35669.2    280.4   0.086432979   0.79774  -0.43352   0.66897  -0.40284
  39   36084.2    277.1   0.009773790   0.08917   0.12717  -0.12888   0.23746
  40   36183.1    276.4   0.130212481   1.18474   0.52746  -0.89042  -0.33715
  41   36424.7    274.5   0.094785653   0.85669   0.45864   0.72601  -0.34532
  42   36526.8    273.8   0.013628436   0.12283  -0.20097   0.02503   0.28604
  43   36644.1    272.9   0.044356841   0.39850  -0.05706  -0.60546  -0.16930
  44   36855.5    271.3   0.021598269   0.19293   0.02198   0.21051  -0.38488
  45   37091.1    269.6   0.062128688   0.55144  -0.35608  -0.50478   0.41212
  46   37275.6    268.3   0.024643564   0.21765   0.06501   0.42733   0.17552
  47   37381.6    267.5   0.019974654   0.17591  -0.17309   0.11006  -0.36584
  48   37644.3    265.6   0.154137914   1.34799   0.11362  -1.14935   0.11868
  49   37797.2    264.6   0.006942830   0.06047  -0.12852   0.20393   0.04867
  50   38222.6    261.6   0.027616082   0.23786  -0.32667   0.24221  -0.26922
  51   38334.1    260.9   0.058998825   0.50668   0.13743   0.24700  -0.65329
  52   38628.5    258.9   0.034385240   0.29305  -0.16919   0.06097  -0.51059
  53   38837.0    257.5   0.071856847   0.60911   0.47152  -0.35057  -0.51369
  54   39230.2    254.9   0.111323139   0.93420  -0.43973   0.85094   0.12937
  55   39325.9    254.3   0.061469625   0.51458   0.36712  -0.59947   0.14295
  56   39503.5    253.1   0.000774138   0.00645   0.02075  -0.07722   0.00763
  57   39563.7    252.8   0.023707958   0.19728  -0.34878   0.16911   0.21686
  58   39746.2    251.6   0.012048320   0.09979  -0.05689   0.21075   0.22835
  59   40118.1    249.3   0.058562133   0.48056  -0.11495  -0.67038   0.13393
  60   40243.5    248.5   0.207764923   1.69962   0.27525   1.03222  -0.74724

FINAL SINGLE POINT ENERGY    -10693.768739277393

DIPOLE MOMENT
-------------
                                X             Y             Z
Electronic contribution:    -43.97117      92.37975     -39.26730
Nuclear contribution   :     44.45203     -92.66520      38.29771
                        -----------------------------------------
Total Dipole Moment    :      0.48086      -0.28545      -0.96959
                        -----------------------------------------
Magnitude (a.u.)       :      1.11929
Magnitude (Debye)      :      2.84501

Rotational constants in cm-1:     0.001132     0.000124     0.000114
Rotational constants in MHz :    33.935377     3.703245     3.412643

                             ****ORCA TERMINATED NORMALLY****
TOTAL RUN TIME: 0 days 0 hours 11 minutes 4 seconds 681 msec
