                         Program Version 4.2.0 -  RELEASE  -
|  1> # ORCA input file
|  2> # SCF done       -177.136807426207          0.000870318606
|  3> ! CAM-B3LYP def2-SVP def2/J RIJCOSX Grid4 TightSCF
|  4> %maxcore 5000
|  5> %tddft
|  6>     Mode sTDDFT
|  7>     Ethresh 5.0
|  8>     maxcore 5000
|  9> end
| 10>
| 11> %pal
| 12>   nprocs 6
| 13>   end
| 14> * xyz 0 1
| 15>    C       -9.10468         3.20422         4.75237
| 16>    C       -8.35847         4.13004         5.44079
| 17>    C       -8.61858         4.52359         6.77000
| 18>    N       -8.76845         4.89727         7.84589
| 19>    C       -7.23139         4.83403         4.96854
| 20>    N       -6.30541         5.45536         4.68954
| 21>    C      -10.26352         2.50799         5.30473
| 22>    C      -10.76635         1.62390         4.32271
| 23>    C      -11.86105         0.82169         4.53151
| 24>    C      -12.49651         0.89799         5.77518
| 25>    C      -11.98892         1.78566         6.75218
| 26>    C      -10.87906         2.59446         6.53962
| 27>    S      -12.92498         1.72786         8.21582
| 28>    C      -13.97071         0.52832         7.50306
| 29>    C      -13.63840         0.18661         6.23598
| 30>   Br      -15.40505        -0.15743         8.49888
| 31>    C       -9.94444         1.72629         3.10025
| 32>    O      -10.12740         1.08217         2.08513
| 33>    C       -8.91122         2.73899         3.39100
| 34>    C       -7.92211         3.22069         2.56364
| 35>    C       -7.58348         2.93121         1.23683
| 36>    S       -6.23147         3.86385         0.57029
| 37>    C       -6.40820         3.06882        -0.92932
| 38>    C       -7.45166         2.12334        -0.92073
| 39>    C       -8.10463         2.04732         0.28797
| 40>    C       -7.57339         1.45096        -2.26794
| 41>    C       -7.31047        -0.05422        -2.16252
| 42>    C       -8.94485         1.71388        -2.89638
| 43>    C       -6.47229         2.15323        -3.02713
| 44>    C       -5.81828         3.08353        -2.20408
| 45>    S       -4.56019         3.91257        -3.02306
| 46>    C       -4.90859         3.01413        -4.49359
| 47>    C       -5.96207         2.11513        -4.30881
| 48>    C       -4.14833         3.27557        -5.64662
| 49>    C       -4.33093         2.66680        -6.85984
| 50>    C       -3.56942         2.95114        -7.99649
| 51>    C       -3.76422         2.34557        -9.21756
| 52>    C       -3.05057         2.57116       -10.41717
| 53>    C       -3.47500         1.82048       -11.47337
| 54>    C       -4.54956         0.95817       -11.16394
| 55>    S       -5.00402         1.13250        -9.48499
| 56>    C       -5.20884         0.07045       -11.99184
| 57>    C       -4.98253        -0.20480       -13.35861
| 58>    C       -5.81408        -1.14934       -13.87423
| 59>    C       -6.75360        -1.68604       -12.94851
| 60>    S       -6.52505        -0.91260       -11.38967
| 61>    C       -7.65291        -2.67268       -13.24545
| 62>    C       -8.61895        -3.30113       -12.40700
| 63>    C       -8.95121        -2.88923       -11.10686
| 64>    C       -9.87546        -3.57536       -10.35766
| 65>    F      -10.18430        -3.08494        -9.14509
| 66>    C      -10.53123        -4.72397       -10.82380
| 67>    C      -10.24127        -5.11775       -12.13630
| 68>    C       -9.32663        -4.42418       -12.88601
| 69>    F       -9.08187        -4.85807       -14.14052
| 70>    C      -11.46019        -5.46517       -10.01215
| 71>    S      -12.67107        -6.49959       -10.73829
| 72>    C      -13.32665        -7.00259        -9.23830
| 73>    C      -12.65107        -6.41537        -8.19916
| 74>    C      -11.59937        -5.54690        -8.64642
| 75>    O      -10.93674        -5.02719        -7.59280
| 76>    C      -11.55460        -5.52981        -6.49273
| 77>    N      -11.06189        -5.14422        -5.22031
| 78>    O      -11.64555        -5.60602        -4.25710
| 79>    O      -10.11185        -4.39564        -5.17524
| 80>    C      -12.59427        -6.37072        -6.77866
| 81>    H      -12.21652         0.15784         3.75909
| 82>    H      -10.53544         3.25282         7.31922
| 83>    H      -14.17484        -0.53585         5.64834
| 84>    H       -7.28144         3.97707         3.00083
| 85>    H       -8.92881         1.39672         0.51532
| 86>    H       -8.06794        -0.51791        -1.53639
| 87>    H       -6.33279        -0.23960        -1.72315
| 88>    H       -7.34357        -0.51046        -3.14848
| 89>    H       -9.72354         1.27829        -2.27605
| 90>    H       -8.99365         1.26809        -3.88649
| 91>    H       -9.12474         2.78326        -2.98360
| 92>    H       -6.32127         1.47324        -5.09163
| 93>    H       -3.36935         4.02102        -5.55286
| 94>    H       -5.10826         1.92225        -6.96627
| 95>    H       -2.78165         3.68938        -7.92464
| 96>    H       -2.24465         3.28240       -10.46271
| 97>    H       -3.04673         1.86321       -12.45869
| 98>    H       -4.21440         0.29711       -13.91919
| 99>    H       -5.78783        -1.48915       -14.89442
|100>    H       -7.60404        -3.05269       -14.25801
|101>    H       -8.50678        -2.01023       -10.67277
|102>    H      -10.72910        -5.98121       -12.56147
|103>    H      -14.14742        -7.68897        -9.21299
|104>    H      -13.21245        -6.87687        -6.06675
|105> *
|106>
|107>                          ****END OF INPUT****

CARTESIAN COORDINATES (ANGSTROEM)
---------------------------------
  C     -9.104680    3.204220    4.752370
  C     -8.358470    4.130040    5.440790
  C     -8.618580    4.523590    6.770000
  N     -8.768450    4.897270    7.845890
  C     -7.231390    4.834030    4.968540
  N     -6.305410    5.455360    4.689540
  C    -10.263520    2.507990    5.304730
  C    -10.766350    1.623900    4.322710
  C    -11.861050    0.821690    4.531510
  C    -12.496510    0.897990    5.775180
  C    -11.988920    1.785660    6.752180
  C    -10.879060    2.594460    6.539620
  S    -12.924980    1.727860    8.215820
  C    -13.970710    0.528320    7.503060
  C    -13.638400    0.186610    6.235980
  Br   -15.405050   -0.157430    8.498880
  C     -9.944440    1.726290    3.100250
  O    -10.127400    1.082170    2.085130
  C     -8.911220    2.738990    3.391000
  C     -7.922110    3.220690    2.563640
  C     -7.583480    2.931210    1.236830
  S     -6.231470    3.863850    0.570290
  C     -6.408200    3.068820   -0.929320
  C     -7.451660    2.123340   -0.920730
  C     -8.104630    2.047320    0.287970
  C     -7.573390    1.450960   -2.267940
  C     -7.310470   -0.054220   -2.162520
  C     -8.944850    1.713880   -2.896380
  C     -6.472290    2.153230   -3.027130
  C     -5.818280    3.083530   -2.204080
  S     -4.560190    3.912570   -3.023060
  C     -4.908590    3.014130   -4.493590
  C     -5.962070    2.115130   -4.308810
  C     -4.148330    3.275570   -5.646620
  C     -4.330930    2.666800   -6.859840
  C     -3.569420    2.951140   -7.996490
  C     -3.764220    2.345570   -9.217560
  C     -3.050570    2.571160  -10.417170
  C     -3.475000    1.820480  -11.473370
  C     -4.549560    0.958170  -11.163940
  S     -5.004020    1.132500   -9.484990
  C     -5.208840    0.070450  -11.991840
  C     -4.982530   -0.204800  -13.358610
  C     -5.814080   -1.149340  -13.874230
  C     -6.753600   -1.686040  -12.948510
  S     -6.525050   -0.912600  -11.389670
  C     -7.652910   -2.672680  -13.245450
  C     -8.618950   -3.301130  -12.407000
  C     -8.951210   -2.889230  -11.106860
  C     -9.875460   -3.575360  -10.357660
  F    -10.184300   -3.084940   -9.145090
  C    -10.531230   -4.723970  -10.823800
  C    -10.241270   -5.117750  -12.136300
  C     -9.326630   -4.424180  -12.886010
  F     -9.081870   -4.858070  -14.140520
  C    -11.460190   -5.465170  -10.012150
  S    -12.671070   -6.499590  -10.738290
  C    -13.326650   -7.002590   -9.238300
  C    -12.651070   -6.415370   -8.199160
  C    -11.599370   -5.546900   -8.646420
  O    -10.936740   -5.027190   -7.592800
  C    -11.554600   -5.529810   -6.492730
  N    -11.061890   -5.144220   -5.220310
  O    -11.645550   -5.606020   -4.257100
  O    -10.111850   -4.395640   -5.175240
  C    -12.594270   -6.370720   -6.778660
  H    -12.216520    0.157840    3.759090
  H    -10.535440    3.252820    7.319220
  H    -14.174840   -0.535850    5.648340
  H     -7.281440    3.977070    3.000830
  H     -8.928810    1.396720    0.515320
  H     -8.067940   -0.517910   -1.536390
  H     -6.332790   -0.239600   -1.723150
  H     -7.343570   -0.510460   -3.148480
  H     -9.723540    1.278290   -2.276050
  H     -8.993650    1.268090   -3.886490
  H     -9.124740    2.783260   -2.983600
  H     -6.321270    1.473240   -5.091630
  H     -3.369350    4.021020   -5.552860
  H     -5.108260    1.922250   -6.966270
  H     -2.781650    3.689380   -7.924640
  H     -2.244650    3.282400  -10.462710
  H     -3.046730    1.863210  -12.458690
  H     -4.214400    0.297110  -13.919190
  H     -5.787830   -1.489150  -14.894420
  H     -7.604040   -3.052690  -14.258010
  H     -8.506780   -2.010230  -10.672770
  H    -10.729100   -5.981210  -12.561470
  H    -14.147420   -7.688970   -9.212990
  H    -13.212450   -6.876870   -6.066750

 Total Charge           Charge          ....    0
 Multiplicity           Mult            ....    1
 Number of Electrons    NEL             ....  526
 Basis Dimension        Dim             .... 1086

ORBITAL ENERGIES
----------------

  NO   OCC          E(Eh)            E(eV)
   0   2.0000    -482.878438    -13139.7903
   1   2.0000     -88.982580     -2421.3391
   2   2.0000     -88.968852     -2420.9655
   3   2.0000     -88.967222     -2420.9212
   4   2.0000     -88.966496     -2420.9014
   5   2.0000     -88.953109     -2420.5371
   6   2.0000     -88.951432     -2420.4915
   7   2.0000     -62.556161     -1702.2397
   8   2.0000     -56.390103     -1534.4527
   9   2.0000     -56.387403     -1534.3793
  10   2.0000     -56.387365     -1534.3782
  11   2.0000     -24.786367      -674.4713
  12   2.0000     -24.782249      -674.3593
  13   2.0000     -19.308097      -525.4000
  14   2.0000     -19.246492      -523.7237
  15   2.0000     -19.243475      -523.6416
  16   2.0000     -19.206198      -522.6272
  17   2.0000     -14.657592      -398.8534
  18   2.0000     -14.404448      -391.9649
  19   2.0000     -14.401159      -391.8755
  20   2.0000     -10.389397      -282.7099
  21   2.0000     -10.363271      -281.9989
  22   2.0000     -10.362815      -281.9865
  23   2.0000     -10.357114      -281.8314
  24   2.0000     -10.352506      -281.7060
  25   2.0000     -10.350272      -281.6452
  26   2.0000     -10.328899      -281.0636
  27   2.0000     -10.326323      -280.9935
  28   2.0000     -10.323963      -280.9293
  29   2.0000     -10.319459      -280.8068
  30   2.0000     -10.319293      -280.8022
  31   2.0000     -10.319115      -280.7974
  32   2.0000     -10.316458      -280.7251
  33   2.0000     -10.316410      -280.7238
  34   2.0000     -10.315292      -280.6934
  35   2.0000     -10.315087      -280.6878
  36   2.0000     -10.314283      -280.6659
  37   2.0000     -10.314181      -280.6631
  38   2.0000     -10.310552      -280.5644
  39   2.0000     -10.309381      -280.5325
  40   2.0000     -10.308354      -280.5046
  41   2.0000     -10.308146      -280.4989
  42   2.0000     -10.306954      -280.4665
  43   2.0000     -10.305395      -280.4240
  44   2.0000     -10.302853      -280.3549
  45   2.0000     -10.301259      -280.3115
  46   2.0000     -10.297550      -280.2106
  47   2.0000     -10.296928      -280.1936
  48   2.0000     -10.296401      -280.1793
  49   2.0000     -10.295539      -280.1559
  50   2.0000     -10.294325      -280.1228
  51   2.0000     -10.294211      -280.1197
  52   2.0000     -10.292981      -280.0863
  53   2.0000     -10.291957      -280.0584
  54   2.0000     -10.291415      -280.0436
  55   2.0000     -10.290615      -280.0219
  56   2.0000     -10.290249      -280.0119
  57   2.0000     -10.288419      -279.9621
  58   2.0000     -10.287701      -279.9426
  59   2.0000     -10.287188      -279.9286
  60   2.0000     -10.286810      -279.9183
  61   2.0000     -10.286250      -279.9031
  62   2.0000     -10.286045      -279.8975
  63   2.0000     -10.283588      -279.8307
  64   2.0000     -10.283426      -279.8262
  65   2.0000     -10.280713      -279.7524
  66   2.0000     -10.280322      -279.7418
  67   2.0000     -10.278337      -279.6878
  68   2.0000     -10.264319      -279.3063
  69   2.0000     -10.263120      -279.2737
  70   2.0000      -8.785596      -239.0682
  71   2.0000      -8.077446      -219.7985
  72   2.0000      -8.064028      -219.4334
  73   2.0000      -8.062523      -219.3924
  74   2.0000      -8.062383      -219.3886
  75   2.0000      -8.049170      -219.0290
  76   2.0000      -8.047794      -218.9916
  77   2.0000      -6.621870      -180.1902
  78   2.0000      -6.607326      -179.7945
  79   2.0000      -6.607163      -179.7901
  80   2.0000      -6.046732      -164.5400
  81   2.0000      -6.042375      -164.4214
  82   2.0000      -6.039932      -164.3549
  83   2.0000      -6.033334      -164.1754
  84   2.0000      -6.032210      -164.1448
  85   2.0000      -6.031599      -164.1282
  86   2.0000      -6.029314      -164.0660
  87   2.0000      -6.027949      -164.0288
  88   2.0000      -6.027608      -164.0195
  89   2.0000      -6.026049      -163.9771
  90   2.0000      -6.024487      -163.9346
  91   2.0000      -6.023730      -163.9140
  92   2.0000      -6.018913      -163.7829
  93   2.0000      -6.017496      -163.7444
  94   2.0000      -6.014846      -163.6723
  95   2.0000      -6.013532      -163.6365
  96   2.0000      -6.010092      -163.5429
  97   2.0000      -6.008693      -163.5048
  98   2.0000      -2.737716       -74.4970
  99   2.0000      -2.733689       -74.3875
 100   2.0000      -2.733538       -74.3834
 101   2.0000      -2.721984       -74.0689
 102   2.0000      -2.721971       -74.0686
 103   2.0000      -1.329302       -36.1721
 104   2.0000      -1.299850       -35.3707
 105   2.0000      -1.298301       -35.3286
 106   2.0000      -1.230619       -33.4868
 107   2.0000      -1.145604       -31.1735
 108   2.0000      -1.120555       -30.4918
 109   2.0000      -1.018869       -27.7248
 110   2.0000      -1.012217       -27.5438
 111   2.0000      -1.005571       -27.3630
 112   2.0000      -1.002843       -27.2887
 113   2.0000      -1.002572       -27.2814
 114   2.0000      -0.982677       -26.7400
 115   2.0000      -0.982028       -26.7223
 116   2.0000      -0.981308       -26.7027
 117   2.0000      -0.976808       -26.5803
 118   2.0000      -0.971257       -26.4292
 119   2.0000      -0.937530       -25.5115
 120   2.0000      -0.936951       -25.4957
 121   2.0000      -0.929398       -25.2902
 122   2.0000      -0.915067       -24.9002
 123   2.0000      -0.907044       -24.6819
 124   2.0000      -0.898104       -24.4387
 125   2.0000      -0.890787       -24.2396
 126   2.0000      -0.889298       -24.1990
 127   2.0000      -0.877939       -23.8899
 128   2.0000      -0.875373       -23.8201
 129   2.0000      -0.866746       -23.5854
 130   2.0000      -0.854004       -23.2386
 131   2.0000      -0.852160       -23.1885
 132   2.0000      -0.845833       -23.0163
 133   2.0000      -0.837080       -22.7781
 134   2.0000      -0.835032       -22.7224
 135   2.0000      -0.830393       -22.5961
 136   2.0000      -0.826832       -22.4992
 137   2.0000      -0.820290       -22.3212
 138   2.0000      -0.818796       -22.2806
 139   2.0000      -0.799290       -21.7498
 140   2.0000      -0.788871       -21.4663
 141   2.0000      -0.779207       -21.2033
 142   2.0000      -0.775585       -21.1047
 143   2.0000      -0.762372       -20.7452
 144   2.0000      -0.749244       -20.3880
 145   2.0000      -0.739501       -20.1229
 146   2.0000      -0.724864       -19.7246
 147   2.0000      -0.717368       -19.5206
 148   2.0000      -0.710273       -19.3275
 149   2.0000      -0.707539       -19.2531
 150   2.0000      -0.699101       -19.0235
 151   2.0000      -0.690832       -18.7985
 152   2.0000      -0.681610       -18.5475
 153   2.0000      -0.677685       -18.4407
 154   2.0000      -0.676169       -18.3995
 155   2.0000      -0.671396       -18.2696
 156   2.0000      -0.657332       -17.8869
 157   2.0000      -0.648574       -17.6486
 158   2.0000      -0.646366       -17.5885
 159   2.0000      -0.642753       -17.4902
 160   2.0000      -0.641917       -17.4674
 161   2.0000      -0.637024       -17.3343
 162   2.0000      -0.632967       -17.2239
 163   2.0000      -0.630403       -17.1541
 164   2.0000      -0.628783       -17.1101
 165   2.0000      -0.627455       -17.0739
 166   2.0000      -0.619566       -16.8592
 167   2.0000      -0.618236       -16.8231
 168   2.0000      -0.614763       -16.7285
 169   2.0000      -0.612134       -16.6570
 170   2.0000      -0.604128       -16.4392
 171   2.0000      -0.596950       -16.2438
 172   2.0000      -0.588785       -16.0217
 173   2.0000      -0.587749       -15.9935
 174   2.0000      -0.580167       -15.7871
 175   2.0000      -0.576337       -15.6829
 176   2.0000      -0.572129       -15.5684
 177   2.0000      -0.569456       -15.4957
 178   2.0000      -0.562189       -15.2979
 179   2.0000      -0.560715       -15.2578
 180   2.0000      -0.556244       -15.1362
 181   2.0000      -0.550397       -14.9771
 182   2.0000      -0.549331       -14.9481
 183   2.0000      -0.545720       -14.8498
 184   2.0000      -0.541932       -14.7467
 185   2.0000      -0.538975       -14.6663
 186   2.0000      -0.535043       -14.5593
 187   2.0000      -0.531985       -14.4760
 188   2.0000      -0.531757       -14.4698
 189   2.0000      -0.528130       -14.3711
 190   2.0000      -0.525585       -14.3019
 191   2.0000      -0.524673       -14.2771
 192   2.0000      -0.515862       -14.0373
 193   2.0000      -0.514207       -13.9923
 194   2.0000      -0.508767       -13.8442
 195   2.0000      -0.506972       -13.7954
 196   2.0000      -0.505210       -13.7475
 197   2.0000      -0.504537       -13.7291
 198   2.0000      -0.504137       -13.7183
 199   2.0000      -0.499354       -13.5881
 200   2.0000      -0.497988       -13.5509
 201   2.0000      -0.496448       -13.5090
 202   2.0000      -0.492505       -13.4017
 203   2.0000      -0.487092       -13.2544
 204   2.0000      -0.483985       -13.1699
 205   2.0000      -0.482797       -13.1376
 206   2.0000      -0.480766       -13.0823
 207   2.0000      -0.477596       -12.9960
 208   2.0000      -0.476811       -12.9747
 209   2.0000      -0.475209       -12.9311
 210   2.0000      -0.473517       -12.8851
 211   2.0000      -0.473168       -12.8755
 212   2.0000      -0.469355       -12.7718
 213   2.0000      -0.463080       -12.6010
 214   2.0000      -0.461304       -12.5527
 215   2.0000      -0.459317       -12.4987
 216   2.0000      -0.454811       -12.3760
 217   2.0000      -0.452340       -12.3088
 218   2.0000      -0.449960       -12.2440
 219   2.0000      -0.448919       -12.2157
 220   2.0000      -0.447486       -12.1767
 221   2.0000      -0.438215       -11.9244
 222   2.0000      -0.438072       -11.9206
 223   2.0000      -0.437762       -11.9121
 224   2.0000      -0.437235       -11.8978
 225   2.0000      -0.435371       -11.8471
 226   2.0000      -0.433949       -11.8083
 227   2.0000      -0.431504       -11.7418
 228   2.0000      -0.428825       -11.6689
 229   2.0000      -0.427651       -11.6370
 230   2.0000      -0.424010       -11.5379
 231   2.0000      -0.421132       -11.4596
 232   2.0000      -0.415089       -11.2951
 233   2.0000      -0.410820       -11.1790
 234   2.0000      -0.410014       -11.1571
 235   2.0000      -0.407658       -11.0929
 236   2.0000      -0.405619       -11.0375
 237   2.0000      -0.404825       -11.0158
 238   2.0000      -0.400666       -10.9027
 239   2.0000      -0.393772       -10.7151
 240   2.0000      -0.392227       -10.6730
 241   2.0000      -0.391133       -10.6433
 242   2.0000      -0.382872       -10.4185
 243   2.0000      -0.379919       -10.3381
 244   2.0000      -0.375026       -10.2050
 245   2.0000      -0.373397       -10.1606
 246   2.0000      -0.368015       -10.0142
 247   2.0000      -0.361934        -9.8487
 248   2.0000      -0.349013        -9.4971
 249   2.0000      -0.342644        -9.3238
 250   2.0000      -0.334108        -9.0915
 251   2.0000      -0.332114        -9.0373
 252   2.0000      -0.328240        -8.9319
 253   2.0000      -0.328176        -8.9301
 254   2.0000      -0.326064        -8.8727
 255   2.0000      -0.325145        -8.8476
 256   2.0000      -0.317654        -8.6438
 257   2.0000      -0.305963        -8.3257
 258   2.0000      -0.299614        -8.1529
 259   2.0000      -0.284632        -7.7452
 260   2.0000      -0.277433        -7.5493
 261   2.0000      -0.250166        -6.8074
 262   2.0000      -0.210872        -5.7381
 263   0.0000      -0.100188        -2.7263
 264   0.0000      -0.076322        -2.0768
 265   0.0000      -0.066443        -1.8080
 266   0.0000      -0.051851        -1.4109
 267   0.0000      -0.033969        -0.9243

MULLIKEN ATOMIC CHARGES
-----------------------
   0 C :    0.326463
   1 C :   -0.373338
   2 C :   -0.187940
   3 N :    0.142119
   4 C :   -0.180529
   5 N :    0.138069
   6 C :    0.012757
   7 C :   -0.006926
   8 C :   -0.078929
   9 C :    0.120724
  10 C :   -0.092765
  11 C :   -0.022087
  12 S :    0.181811
  13 C :   -0.121670
  14 C :    0.034497
  15 Br:    0.017124
  16 C :    0.151432
  17 O :   -0.168539
  18 C :   -0.100602
  19 C :    0.037445
  20 C :   -0.112745
  21 S :    0.165877
  22 C :   -0.058024
  23 C :    0.001219
  24 C :   -0.017530
  25 C :   -0.109017
  26 C :    0.103557
  27 C :    0.103298
  28 C :    0.022689
  29 C :   -0.099287
  30 S :    0.160713
  31 C :   -0.063562
  32 C :   -0.038871
  33 C :    0.030219
  34 C :    0.002298
  35 C :   -0.005883
  36 C :   -0.019464
  37 C :    0.037051
  38 C :    0.028250
  39 C :   -0.040829
  40 S :    0.069351
  41 C :   -0.037905
  42 C :    0.032917
  43 C :    0.032364
  44 C :   -0.001501
  45 S :    0.055262
  46 C :   -0.031810
  47 C :    0.022867
  48 C :   -0.095565
  49 C :    0.225496
  50 F :   -0.177867
  51 C :    0.073396
  52 C :   -0.108684
  53 C :    0.259488
  54 F :   -0.194495
  55 C :   -0.225172
  56 S :    0.152388
  57 C :   -0.138992
  58 C :    0.118787
  59 C :    0.210797
  60 O :   -0.173122
  61 C :    0.232606
  62 N :    0.271087
  63 O :   -0.250281
  64 O :   -0.225688
  65 C :   -0.069065
  66 H :   -0.014396
  67 H :   -0.009430
  68 H :   -0.004723
  69 H :   -0.005313
  70 H :    0.008738
  71 H :    0.024856
  72 H :    0.019634
  73 H :    0.017854
  74 H :    0.023394
  75 H :    0.014150
  76 H :    0.020430
  77 H :   -0.017585
  78 H :   -0.014361
  79 H :    0.007416
  80 H :   -0.012716
  81 H :   -0.008671
  82 H :   -0.011283
  83 H :   -0.010963
  84 H :   -0.008886
  85 H :   -0.007645
  86 H :    0.000607
  87 H :   -0.005730
  88 H :    0.035181
  89 H :    0.013706
Sum of atomic charges:   -0.0000000

LOEWDIN ATOMIC CHARGES
----------------------
   0 C :    0.078417
   1 C :   -0.153985
   2 C :   -0.017763
   3 N :   -0.064638
   4 C :   -0.024014
   5 N :   -0.060757
   6 C :   -0.020306
   7 C :   -0.048824
   8 C :    0.018343
   9 C :   -0.034635
  10 C :   -0.145265
  11 C :   -0.011662
  12 S :    0.428814
  13 C :   -0.273656
  14 C :   -0.071072
  15 Br:    0.131607
  16 C :    0.086853
  17 O :   -0.155395
  18 C :   -0.115486
  19 C :    0.042215
  20 C :   -0.178256
  21 S :    0.456986
  22 C :   -0.163191
  23 C :   -0.042897
  24 C :   -0.002859
  25 C :   -0.035820
  26 C :   -0.021926
  27 C :   -0.022857
  28 C :   -0.013218
  29 C :   -0.208809
  30 S :    0.444469
  31 C :   -0.148864
  32 C :   -0.053476
  33 C :   -0.043210
  34 C :   -0.022789
  35 C :   -0.051424
  36 C :   -0.144261
  37 C :   -0.030183
  38 C :   -0.031113
  39 C :   -0.173025
  40 S :    0.373414
  41 C :   -0.180911
  42 C :   -0.031746
  43 C :   -0.029612
  44 C :   -0.135684
  45 S :    0.385483
  46 C :   -0.058212
  47 C :   -0.047539
  48 C :   -0.044185
  49 C :    0.084718
  50 F :   -0.055396
  51 C :   -0.063623
  52 C :   -0.047190
  53 C :    0.088361
  54 F :   -0.069019
  55 C :   -0.199437
  56 S :    0.484998
  57 C :   -0.184010
  58 C :   -0.081451
  59 C :    0.023010
  60 O :    0.008298
  61 C :    0.027841
  62 N :    0.271713
  63 O :   -0.211260
  64 O :   -0.188328
  65 C :   -0.011983
  66 H :    0.039184
  67 H :    0.040315
  68 H :    0.038014
  69 H :    0.041267
  70 H :    0.034988
  71 H :    0.029971
  72 H :    0.029653
  73 H :    0.026528
  74 H :    0.029445
  75 H :    0.025249
  76 H :    0.029432
  77 H :    0.031949
  78 H :    0.029411
  79 H :    0.022417
  80 H :    0.034191
  81 H :    0.034985
  82 H :    0.032929
  83 H :    0.033280
  84 H :    0.034809
  85 H :    0.036449
  86 H :    0.024010
  87 H :    0.033589
  88 H :    0.030507
  89 H :    0.047107

  Mayer bond orders larger than 0.100000
B(  0-C ,  1-C ) :   1.5906 B(  0-C ,  6-C ) :   0.9885 B(  0-C , 18-C ) :   1.1103
B(  1-C ,  2-C ) :   1.1522 B(  1-C ,  4-C ) :   1.1428 B(  2-C ,  3-N ) :   2.9618
B(  4-C ,  5-N ) :   2.9512 B(  6-C ,  7-C ) :   1.2798 B(  6-C , 11-C ) :   1.4125
B(  7-C ,  8-C ) :   1.4232 B(  7-C , 16-C ) :   0.9527 B(  8-C ,  9-C ) :   1.2395
B(  8-C , 66-H ) :   1.0175 B(  9-C , 10-C ) :   1.3126 B(  9-C , 14-C ) :   1.1602
B( 10-C , 11-C ) :   1.3261 B( 10-C , 12-S ) :   1.0841 B( 11-C , 67-H ) :   0.9791
B( 12-S , 13-C ) :   1.0852 B( 13-C , 14-C ) :   1.6198 B( 13-C , 15-Br) :   1.0151
B( 14-C , 68-H ) :   1.0007 B( 16-C , 17-O ) :   2.1448 B( 16-C , 18-C ) :   0.9546
B( 17-O , 70-H ) :   0.1011 B( 18-C , 19-C ) :   1.5194 B( 19-C , 20-C ) :   1.2839
B( 19-C , 69-H ) :   0.9030 B( 20-C , 21-S ) :   1.0648 B( 20-C , 24-C ) :   1.3481
B( 21-S , 22-C ) :   1.1302 B( 22-C , 23-C ) :   1.4311 B( 22-C , 29-C ) :   1.2129
B( 23-C , 24-C ) :   1.3654 B( 23-C , 25-C ) :   0.9312 B( 24-C , 70-H ) :   0.9826
B( 25-C , 26-C ) :   1.0342 B( 25-C , 27-C ) :   1.0377 B( 25-C , 28-C ) :   0.9415
B( 26-C , 71-H ) :   0.9654 B( 26-C , 72-H ) :   0.9640 B( 26-C , 73-H ) :   0.9649
B( 27-C , 74-H ) :   0.9647 B( 27-C , 75-H ) :   0.9642 B( 27-C , 76-H ) :   0.9640
B( 28-C , 29-C ) :   1.4761 B( 28-C , 32-C ) :   1.3615 B( 29-C , 30-S ) :   1.0740
B( 30-S , 31-C ) :   1.1112 B( 31-C , 32-C ) :   1.4044 B( 31-C , 33-C ) :   1.1508
B( 32-C , 77-H ) :   0.9988 B( 33-C , 34-C ) :   1.6112 B( 33-C , 78-H ) :   0.9701
B( 34-C , 35-C ) :   1.1902 B( 34-C , 79-H ) :   0.9677 B( 35-C , 36-C ) :   1.5278
B( 35-C , 80-H ) :   0.9864 B( 36-C , 37-C ) :   1.1549 B( 36-C , 40-S ) :   1.0351
B( 37-C , 38-C ) :   1.5766 B( 37-C , 81-H ) :   1.0000 B( 38-C , 39-C ) :   1.1947
B( 38-C , 82-H ) :   0.9943 B( 39-C , 40-S ) :   1.0506 B( 39-C , 41-C ) :   1.5037
B( 41-C , 42-C ) :   1.1842 B( 41-C , 45-S ) :   1.0376 B( 42-C , 43-C ) :   1.5959
B( 42-C , 83-H ) :   0.9935 B( 43-C , 44-C ) :   1.1380 B( 43-C , 84-H ) :   0.9991
B( 44-C , 45-S ) :   1.0352 B( 44-C , 46-C ) :   1.5796 B( 46-C , 47-C ) :   1.1336
B( 46-C , 85-H ) :   0.9688 B( 47-C , 48-C ) :   1.2562 B( 47-C , 53-C ) :   1.2792
B( 48-C , 49-C ) :   1.4076 B( 48-C , 86-H ) :   0.9730 B( 49-C , 50-F ) :   1.1508
B( 49-C , 51-C ) :   1.3138 B( 51-C , 52-C ) :   1.2570 B( 51-C , 55-C ) :   1.0512
B( 52-C , 53-C ) :   1.4163 B( 52-C , 87-H ) :   0.9932 B( 53-C , 54-F ) :   1.1004
B( 55-C , 56-S ) :   1.1425 B( 55-C , 57-C ) :   0.1220 B( 55-C , 59-C ) :   1.5001
B( 56-S , 57-C ) :   1.1925 B( 57-C , 58-C ) :   1.4389 B( 57-C , 88-H ) :   0.9769
B( 58-C , 59-C ) :   1.2109 B( 58-C , 65-C ) :   1.0588 B( 59-C , 60-O ) :   1.1186
B( 60-O , 61-C ) :   1.1324 B( 61-C , 62-N ) :   0.9127 B( 61-C , 65-C ) :   1.5830
B( 62-N , 63-O ) :   1.5323 B( 62-N , 64-O ) :   1.5210 B( 63-O , 64-O ) :   0.2810
B( 65-C , 89-H ) :   1.0238

-----------------------------------------------------------------------------
         ABSORPTION SPECTRUM VIA TRANSITION ELECTRIC DIPOLE MOMENTS
-----------------------------------------------------------------------------
State   Energy  Wavelength   fosc         T2         TX        TY        TZ
        (cm-1)    (nm)                  (au**2)     (au)      (au)      (au)
-----------------------------------------------------------------------------
   0   11532.6    867.1   1.717214892  49.02013   0.32362   2.92170   6.35445
   1   17843.0    560.4   0.598837857  11.04883   2.43457   1.55475  -1.64452
   2   19733.1    506.8   0.926550785  15.45785  -2.57377  -1.20087   2.71873
   3   20309.5    492.4   0.031042228   0.50319   0.19470  -0.01951  -0.68183
   4   23363.1    428.0   0.368588728   5.19382   1.62978   1.09348  -1.15843
   5   24883.0    401.9   0.033324714   0.44090   0.25891   0.43935   0.42525
   6   26138.4    382.6   0.364584345   4.59193   1.45858   1.25129  -0.94803
   7   27199.2    367.7   0.244976114   2.96513   1.06572   0.54642  -1.23726
   8   27812.2    359.6   0.035706018   0.42265  -0.55891  -0.33179   0.01375
   9   27975.5    357.5   0.054418192   0.64039  -0.64285  -0.38448  -0.28161
  10   30020.8    333.1   0.016781926   0.18403  -0.38410  -0.19043   0.01545
  11   30205.3    331.1   0.000187624   0.00204   0.04103  -0.01137  -0.01525
  12   30214.8    331.0   0.024780131   0.27000  -0.32123  -0.14689   0.38109
  13   30859.6    324.0   0.064806331   0.69136   0.65464   0.47409   0.19504
  14   31720.5    315.3   0.056543429   0.58684  -0.09059  -0.18510  -0.73781
  15   31988.9    312.6   0.018336212   0.18871  -0.32176  -0.25952  -0.13352
  16   32144.8    311.1   0.005504949   0.05638  -0.13590  -0.08526   0.17505
  17   32753.6    305.3   0.000020538   0.00021   0.00149   0.00419  -0.01366
  18   33027.1    302.8   0.036289165   0.36173   0.44994   0.32521   0.23136
  19   33062.4    302.5   0.400194389   3.98485  -1.58278  -1.15432   0.38369
  20   33434.1    299.1   0.139538681   1.37398   0.67360   0.44122  -0.85181
  21   33692.1    296.8   0.001016732   0.00993   0.01540   0.01631  -0.09712
  22   33815.3    295.7   0.082375308   0.80197   0.58867   0.25587  -0.62448
  23   34039.1    293.8   0.124913722   1.20811   0.81392   0.55813  -0.48387
  24   34365.2    291.0   0.104419312   1.00032   0.46276   0.60491   0.64827
  25   35044.2    285.4   0.011182164   0.10505  -0.04012   0.05486   0.31690
  26   35670.6    280.3   0.033357118   0.30786  -0.37241  -0.37956   0.15845
  27   35803.9    279.3   0.063561899   0.58444   0.51091   0.55177   0.13770
  28   36191.0    276.3   0.047277561   0.43006  -0.30613  -0.15158   0.55980
  29   36209.5    276.2   0.002100828   0.01910   0.08082   0.07851  -0.08003
  30   36952.3    270.6   0.143443060   1.27795  -0.61495  -0.30218  -0.89915
  31   37380.0    267.5   0.115377744   1.01615  -0.02565   0.17038   0.99321
  32   37679.5    265.4   0.069550350   0.60767  -0.36914  -0.26511  -0.63335
  33   38160.2    262.1   0.275230408   2.37444  -0.50601  -0.87526  -1.16289
  34   38368.7    260.6   0.333723686   2.86342  -0.32859  -0.53813  -1.57031
  35   39040.0    256.1   0.023881678   0.20139   0.38661  -0.01937  -0.22703
  36   39116.2    255.6   0.027678876   0.23295  -0.22115  -0.34670  -0.25267
  37   39349.0    254.1   0.010380456   0.08685   0.17078   0.18200   0.15671
  38   39471.1    253.3   0.059029415   0.49234  -0.20954  -0.27088   0.61242
  39   39911.9    250.6   0.080526842   0.66422  -0.16768  -0.12416  -0.78784
  40   40034.5    249.8   0.071157388   0.58514  -0.37951  -0.38363  -0.54216

FINAL SINGLE POINT ENERGY     -7543.576884492938

DIPOLE MOMENT
-------------
                                X             Y             Z
Electronic contribution:    -86.02112     -13.13508     134.85219
Nuclear contribution   :     85.57639      11.21683    -140.24922
                        -----------------------------------------
Total Dipole Moment    :     -0.44473      -1.91825      -5.39703
                        -----------------------------------------
Magnitude (a.u.)       :      5.74503
Magnitude (Debye)      :     14.60272

Rotational constants in cm-1:     0.000933     0.000261     0.000206
Rotational constants in MHz :    27.975694     7.833999     6.163678

                             ****ORCA TERMINATED NORMALLY****
TOTAL RUN TIME: 0 days 0 hours 8 minutes 17 seconds 213 msec
