                         Program Version 4.2.0 -  RELEASE  -
|  1> # ORCA input file
|  2> # SCF done       -204.226431488256          0.000563027408
|  3> ! CAM-B3LYP def2-SVP def2/J RIJCOSX Grid4 TightSCF
|  4> %maxcore 5000
|  5> %tddft
|  6>     Mode sTDDFT
|  7>     Ethresh 5.0
|  8>     maxcore 5000
|  9> end
| 10>
| 11> %pal
| 12>   nprocs 6
| 13>   end
| 14> * xyz 0 1
| 15>    C       -5.82903        -2.48223         1.41475
| 16>    C       -6.98096        -3.07156         1.86668
| 17>    C       -7.06240        -4.40709         2.31275
| 18>    N       -7.18324        -5.48279         2.69425
| 19>    C       -8.23944        -2.43528         1.91253
| 20>    N       -9.29561        -1.98640         1.94967
| 21>    C       -4.53960        -3.13785         1.24470
| 22>    C       -3.64634        -2.22796         0.62646
| 23>    C       -2.34531        -2.55335         0.32986
| 24>    C       -1.90402        -3.83977         0.65745
| 25>    C       -2.80197        -4.74098         1.27890
| 26>    C       -4.11790        -4.41129         1.57938
| 27>    S       -2.04655        -6.27031         1.60748
| 28>    C       -0.55665        -5.68842         0.91336
| 29>    C       -0.61930        -4.41395         0.45853
| 30>   Br        0.94087        -6.81530         0.85888
| 31>    C       -4.32914        -0.94017         0.40569
| 32>    O       -3.82959         0.07952        -0.02450
| 33>    C       -5.69927        -1.11847         0.93477
| 34>    C       -6.58332        -0.10305         1.16774
| 35>    C       -6.57263         1.20055         0.61888
| 36>    S       -7.11249         2.49967         1.64156
| 37>    C       -6.91942         3.67930         0.36359
| 38>    C       -6.48323         3.04847        -0.81080
| 39>    C       -6.29647         1.66685        -0.66671
| 40>    C       -5.91788         0.79635        -1.81580
| 41>    C       -6.18206         1.48046        -3.15089
| 42>    C       -5.49588         2.84075        -3.13699
| 43>    O       -5.59585         3.42934        -4.42381
| 44>    C       -6.18357         3.73896        -2.10099
| 45>    C       -7.14212         5.01467         0.76173
| 46>    C       -7.35758         6.16905         0.04648
| 47>    C       -7.32596         7.48517         0.58157
| 48>    C       -7.42360         8.47870        -0.35091
| 49>    C       -7.56642         7.99831        -1.66823
| 50>    S       -7.69598         6.26331        -1.66555
| 51>    C       -7.45439         8.61995        -2.90563
| 52>    C       -7.27417         9.96680        -3.26075
| 53>    C       -6.99754        10.12788        -4.59058
| 54>    C       -6.93751         8.92221        -5.33312
| 55>    S       -7.34479         7.57897        -4.31095
| 56>    C       -6.48914         8.85072        -6.64026
| 57>    C       -6.22146         7.74745        -7.45479
| 58>    C       -5.53310         7.97815        -8.69637
| 59>    C       -5.11864         6.90423        -9.55008
| 60>    N       -4.45256         7.17557       -10.68355
| 61>    C       -4.18963         8.42255       -10.99237
| 62>    C       -4.59906         9.49025       -10.13950
| 63>    N       -5.25646         9.24094        -9.02545
| 64>    C       -4.31138        10.83462       -10.47789
| 65>    N       -4.06529        11.91389       -10.77389
| 66>    C       -3.49314         8.70789       -12.19541
| 67>    N       -2.93025         8.98343       -13.15367
| 68>    C       -5.35921         5.53834        -9.22880
| 69>    C       -6.13203         5.31590        -8.06664
| 70>    C       -6.53497         6.38930        -7.19429
| 71>    N       -7.25226         5.93421        -6.16935
| 72>    S       -7.41370         4.33932        -6.27980
| 73>    N       -6.60313         4.13917        -7.64744
| 74>    C       -4.89734         4.54180       -10.11667
| 75>    C       -4.77912         3.18661        -9.98565
| 76>    C       -4.78219         2.27250        -8.87345
| 77>    C       -4.40461         2.53419        -7.57888
| 78>    C       -4.32647         1.54886        -6.57633
| 79>    N       -4.23982         0.77846        -5.72826
| 80>    C       -3.97465         3.78463        -7.10174
| 81>    N       -3.59865         4.76736        -6.63814
| 82>    C       -5.02635         0.93446        -9.40931
| 83>    C       -4.93894         0.98571       -10.82218
| 84>    C       -4.69261         2.38165       -11.23742
| 85>    O       -4.50388         2.79685       -12.35697
| 86>    C       -5.09881        -0.12370       -11.61523
| 87>    C       -5.37296        -1.34189       -10.98362
| 88>    C       -5.47840        -1.37939        -9.57364
| 89>    C       -5.30663        -0.25757        -8.77078
| 90>    S       -5.84271        -2.98038        -9.00369
| 91>    C       -5.84269        -3.57003       -10.64516
| 92>    C       -5.58554        -2.61876       -11.57317
| 93>   Br       -6.18596        -5.38430       -10.97592
| 94>    H       -1.68859        -1.83898        -0.14121
| 95>    H       -4.76188        -5.12936         2.05904
| 96>    H        0.20613        -3.89835         0.00271
| 97>    H       -7.35673        -0.27060         1.90924
| 98>    H       -6.44609        -0.15741        -1.74981
| 99>    H       -4.84705         0.57953        -1.73868
|100>    H       -7.25163         1.61764        -3.31853
|101>    H       -5.77512         0.88488        -3.96741
|102>    H       -4.43799         2.69759        -2.87728
|103>    H       -4.99466         4.18201        -4.47405
|104>    H       -7.12215         4.06331        -2.55984
|105>    H       -5.57541         4.62696        -1.91286
|106>    H       -7.14032         5.15152         1.83818
|107>    H       -7.17387         7.65645         1.63261
|108>    H       -7.35501         9.52863        -0.12962
|109>    H       -7.32953        10.77116        -2.54888
|110>    H       -6.79601        11.07727        -5.05482
|111>    H       -6.22316         9.80069        -7.08968
|112>    H       -4.64589         4.91410       -11.10655
|113>    H       -5.01848        -0.05540       -12.68871
|114>    H       -5.40637        -0.33394        -7.70103
|115>    H       -5.54789        -2.80649       -12.63066
|116> *
|117>
|118>                          ****END OF INPUT****

CARTESIAN COORDINATES (ANGSTROEM)
---------------------------------
  C     -5.829030   -2.482230    1.414750
  C     -6.980960   -3.071560    1.866680
  C     -7.062400   -4.407090    2.312750
  N     -7.183240   -5.482790    2.694250
  C     -8.239440   -2.435280    1.912530
  N     -9.295610   -1.986400    1.949670
  C     -4.539600   -3.137850    1.244700
  C     -3.646340   -2.227960    0.626460
  C     -2.345310   -2.553350    0.329860
  C     -1.904020   -3.839770    0.657450
  C     -2.801970   -4.740980    1.278900
  C     -4.117900   -4.411290    1.579380
  S     -2.046550   -6.270310    1.607480
  C     -0.556650   -5.688420    0.913360
  C     -0.619300   -4.413950    0.458530
  Br     0.940870   -6.815300    0.858880
  C     -4.329140   -0.940170    0.405690
  O     -3.829590    0.079520   -0.024500
  C     -5.699270   -1.118470    0.934770
  C     -6.583320   -0.103050    1.167740
  C     -6.572630    1.200550    0.618880
  S     -7.112490    2.499670    1.641560
  C     -6.919420    3.679300    0.363590
  C     -6.483230    3.048470   -0.810800
  C     -6.296470    1.666850   -0.666710
  C     -5.917880    0.796350   -1.815800
  C     -6.182060    1.480460   -3.150890
  C     -5.495880    2.840750   -3.136990
  O     -5.595850    3.429340   -4.423810
  C     -6.183570    3.738960   -2.100990
  C     -7.142120    5.014670    0.761730
  C     -7.357580    6.169050    0.046480
  C     -7.325960    7.485170    0.581570
  C     -7.423600    8.478700   -0.350910
  C     -7.566420    7.998310   -1.668230
  S     -7.695980    6.263310   -1.665550
  C     -7.454390    8.619950   -2.905630
  C     -7.274170    9.966800   -3.260750
  C     -6.997540   10.127880   -4.590580
  C     -6.937510    8.922210   -5.333120
  S     -7.344790    7.578970   -4.310950
  C     -6.489140    8.850720   -6.640260
  C     -6.221460    7.747450   -7.454790
  C     -5.533100    7.978150   -8.696370
  C     -5.118640    6.904230   -9.550080
  N     -4.452560    7.175570  -10.683550
  C     -4.189630    8.422550  -10.992370
  C     -4.599060    9.490250  -10.139500
  N     -5.256460    9.240940   -9.025450
  C     -4.311380   10.834620  -10.477890
  N     -4.065290   11.913890  -10.773890
  C     -3.493140    8.707890  -12.195410
  N     -2.930250    8.983430  -13.153670
  C     -5.359210    5.538340   -9.228800
  C     -6.132030    5.315900   -8.066640
  C     -6.534970    6.389300   -7.194290
  N     -7.252260    5.934210   -6.169350
  S     -7.413700    4.339320   -6.279800
  N     -6.603130    4.139170   -7.647440
  C     -4.897340    4.541800  -10.116670
  C     -4.779120    3.186610   -9.985650
  C     -4.782190    2.272500   -8.873450
  C     -4.404610    2.534190   -7.578880
  C     -4.326470    1.548860   -6.576330
  N     -4.239820    0.778460   -5.728260
  C     -3.974650    3.784630   -7.101740
  N     -3.598650    4.767360   -6.638140
  C     -5.026350    0.934460   -9.409310
  C     -4.938940    0.985710  -10.822180
  C     -4.692610    2.381650  -11.237420
  O     -4.503880    2.796850  -12.356970
  C     -5.098810   -0.123700  -11.615230
  C     -5.372960   -1.341890  -10.983620
  C     -5.478400   -1.379390   -9.573640
  C     -5.306630   -0.257570   -8.770780
  S     -5.842710   -2.980380   -9.003690
  C     -5.842690   -3.570030  -10.645160
  C     -5.585540   -2.618760  -11.573170
  Br    -6.185960   -5.384300  -10.975920
  H     -1.688590   -1.838980   -0.141210
  H     -4.761880   -5.129360    2.059040
  H      0.206130   -3.898350    0.002710
  H     -7.356730   -0.270600    1.909240
  H     -6.446090   -0.157410   -1.749810
  H     -4.847050    0.579530   -1.738680
  H     -7.251630    1.617640   -3.318530
  H     -5.775120    0.884880   -3.967410
  H     -4.437990    2.697590   -2.877280
  H     -4.994660    4.182010   -4.474050
  H     -7.122150    4.063310   -2.559840
  H     -5.575410    4.626960   -1.912860
  H     -7.140320    5.151520    1.838180
  H     -7.173870    7.656450    1.632610
  H     -7.355010    9.528630   -0.129620
  H     -7.329530   10.771160   -2.548880
  H     -6.796010   11.077270   -5.054820
  H     -6.223160    9.800690   -7.089680
  H     -4.645890    4.914100  -11.106550
  H     -5.018480   -0.055400  -12.688710
  H     -5.406370   -0.333940   -7.701030
  H     -5.547890   -2.806490  -12.630660

 Total Charge           Charge          ....    0
 Multiplicity           Mult            ....    1
 Number of Electrons    NEL             ....  630
 Basis Dimension        Dim             .... 1276

ORBITAL ENERGIES
----------------

  NO   OCC          E(Eh)            E(eV)
   0   2.0000    -482.889907    -13140.1024
   1   2.0000    -482.879811    -13139.8277
   2   2.0000     -89.034837     -2422.7611
   3   2.0000     -88.980938     -2421.2944
   4   2.0000     -88.977104     -2421.1901
   5   2.0000     -88.976546     -2421.1749
   6   2.0000     -88.971349     -2421.0335
   7   2.0000     -88.968102     -2420.9451
   8   2.0000     -62.567582     -1702.5505
   9   2.0000     -62.557501     -1702.2761
  10   2.0000     -56.401542     -1534.7640
  11   2.0000     -56.398812     -1534.6897
  12   2.0000     -56.398785     -1534.6890
  13   2.0000     -56.391443     -1534.4892
  14   2.0000     -56.388748     -1534.4158
  15   2.0000     -56.388707     -1534.4147
  16   2.0000     -19.225541      -523.1536
  17   2.0000     -19.224795      -523.1333
  18   2.0000     -19.200979      -522.4852
  19   2.0000     -14.456766      -393.3886
  20   2.0000     -14.451733      -393.2517
  21   2.0000     -14.449817      -393.1995
  22   2.0000     -14.436208      -392.8292
  23   2.0000     -14.422731      -392.4625
  24   2.0000     -14.422651      -392.4603
  25   2.0000     -14.422138      -392.4463
  26   2.0000     -14.419512      -392.3749
  27   2.0000     -14.408156      -392.0658
  28   2.0000     -14.407296      -392.0424
  29   2.0000     -10.375557      -282.3333
  30   2.0000     -10.375543      -282.3329
  31   2.0000     -10.368470      -282.1404
  32   2.0000     -10.364183      -282.0237
  33   2.0000     -10.351197      -281.6704
  34   2.0000     -10.351108      -281.6680
  35   2.0000     -10.351074      -281.6671
  36   2.0000     -10.350246      -281.6445
  37   2.0000     -10.348726      -281.6032
  38   2.0000     -10.346168      -281.5335
  39   2.0000     -10.344300      -281.4827
  40   2.0000     -10.342491      -281.4335
  41   2.0000     -10.340008      -281.3659
  42   2.0000     -10.338282      -281.3190
  43   2.0000     -10.335676      -281.2481
  44   2.0000     -10.333483      -281.1884
  45   2.0000     -10.331704      -281.1400
  46   2.0000     -10.331582      -281.1366
  47   2.0000     -10.330763      -281.1144
  48   2.0000     -10.327004      -281.0121
  49   2.0000     -10.327001      -281.0120
  50   2.0000     -10.326037      -280.9858
  51   2.0000     -10.325790      -280.9790
  52   2.0000     -10.325230      -280.9638
  53   2.0000     -10.325044      -280.9587
  54   2.0000     -10.325024      -280.9582
  55   2.0000     -10.324063      -280.9320
  56   2.0000     -10.323266      -280.9103
  57   2.0000     -10.318106      -280.7699
  58   2.0000     -10.316992      -280.7396
  59   2.0000     -10.315151      -280.6895
  60   2.0000     -10.314864      -280.6817
  61   2.0000     -10.314376      -280.6684
  62   2.0000     -10.314280      -280.6658
  63   2.0000     -10.313734      -280.6510
  64   2.0000     -10.313631      -280.6482
  65   2.0000     -10.313169      -280.6356
  66   2.0000     -10.312288      -280.6116
  67   2.0000     -10.310682      -280.5679
  68   2.0000     -10.309093      -280.5247
  69   2.0000     -10.307249      -280.4745
  70   2.0000     -10.306473      -280.4534
  71   2.0000     -10.305045      -280.4145
  72   2.0000     -10.301507      -280.3183
  73   2.0000     -10.300194      -280.2825
  74   2.0000     -10.299364      -280.2600
  75   2.0000     -10.297899      -280.2201
  76   2.0000     -10.297639      -280.2130
  77   2.0000     -10.297066      -280.1974
  78   2.0000     -10.295652      -280.1589
  79   2.0000     -10.292810      -280.0816
  80   2.0000     -10.291276      -280.0399
  81   2.0000     -10.289471      -279.9907
  82   2.0000     -10.283137      -279.8184
  83   2.0000     -10.280993      -279.7600
  84   2.0000     -10.279918      -279.7308
  85   2.0000     -10.273059      -279.5442
  86   2.0000     -10.260211      -279.1945
  87   2.0000      -8.796982      -239.3781
  88   2.0000      -8.786905      -239.1038
  89   2.0000      -8.125267      -221.0998
  90   2.0000      -8.076901      -219.7836
  91   2.0000      -8.073464      -219.6901
  92   2.0000      -8.072616      -219.6671
  93   2.0000      -8.065792      -219.4813
  94   2.0000      -8.064125      -219.4360
  95   2.0000      -6.633302      -180.5013
  96   2.0000      -6.623157      -180.2253
  97   2.0000      -6.618723      -180.1046
  98   2.0000      -6.618482      -180.0980
  99   2.0000      -6.608646      -179.8304
 100   2.0000      -6.608485      -179.8260
 101   2.0000      -6.096352      -165.8902
 102   2.0000      -6.088548      -165.6778
 103   2.0000      -6.088059      -165.6645
 104   2.0000      -6.046579      -164.5358
 105   2.0000      -6.043177      -164.4432
 106   2.0000      -6.042308      -164.4195
 107   2.0000      -6.041890      -164.4082
 108   2.0000      -6.038851      -164.3255
 109   2.0000      -6.038150      -164.3064
 110   2.0000      -6.037846      -164.2982
 111   2.0000      -6.035447      -164.2329
 112   2.0000      -6.034526      -164.2078
 113   2.0000      -6.034489      -164.2068
 114   2.0000      -6.033834      -164.1890
 115   2.0000      -6.031012      -164.1122
 116   2.0000      -6.029560      -164.0727
 117   2.0000      -6.027189      -164.0082
 118   2.0000      -6.025332      -163.9576
 119   2.0000      -2.749206       -74.8097
 120   2.0000      -2.745058       -74.6968
 121   2.0000      -2.744909       -74.6928
 122   2.0000      -2.739062       -74.5337
 123   2.0000      -2.734950       -74.4218
 124   2.0000      -2.734828       -74.4184
 125   2.0000      -2.733320       -74.3774
 126   2.0000      -2.733294       -74.3767
 127   2.0000      -2.723296       -74.1047
 128   2.0000      -2.723295       -74.1046
 129   2.0000      -1.140088       -31.0234
 130   2.0000      -1.134477       -30.8707
 131   2.0000      -1.116488       -30.3812
 132   2.0000      -1.113450       -30.2985
 133   2.0000      -1.110590       -30.2207
 134   2.0000      -1.039396       -28.2834
 135   2.0000      -1.029928       -28.0258
 136   2.0000      -1.028658       -27.9912
 137   2.0000      -1.020021       -27.7562
 138   2.0000      -1.014366       -27.6023
 139   2.0000      -1.013864       -27.5886
 140   2.0000      -1.006631       -27.3918
 141   2.0000      -1.006157       -27.3789
 142   2.0000      -1.002186       -27.2709
 143   2.0000      -1.001156       -27.2428
 144   2.0000      -0.996608       -27.1191
 145   2.0000      -0.995317       -27.0840
 146   2.0000      -0.989777       -26.9332
 147   2.0000      -0.985041       -26.8043
 148   2.0000      -0.978659       -26.6307
 149   2.0000      -0.970397       -26.4059
 150   2.0000      -0.950529       -25.8652
 151   2.0000      -0.932319       -25.3697
 152   2.0000      -0.931334       -25.3429
 153   2.0000      -0.925343       -25.1799
 154   2.0000      -0.915052       -24.8998
 155   2.0000      -0.914312       -24.8797
 156   2.0000      -0.901759       -24.5381
 157   2.0000      -0.900255       -24.4972
 158   2.0000      -0.898941       -24.4614
 159   2.0000      -0.892109       -24.2755
 160   2.0000      -0.888373       -24.1739
 161   2.0000      -0.878444       -23.9037
 162   2.0000      -0.876623       -23.8541
 163   2.0000      -0.872934       -23.7538
 164   2.0000      -0.864374       -23.5208
 165   2.0000      -0.850783       -23.1510
 166   2.0000      -0.847936       -23.0735
 167   2.0000      -0.842394       -22.9227
 168   2.0000      -0.835527       -22.7359
 169   2.0000      -0.834543       -22.7091
 170   2.0000      -0.823099       -22.3977
 171   2.0000      -0.820160       -22.3177
 172   2.0000      -0.819139       -22.2899
 173   2.0000      -0.800483       -21.7823
 174   2.0000      -0.787777       -21.4365
 175   2.0000      -0.778498       -21.1840
 176   2.0000      -0.767401       -20.8820
 177   2.0000      -0.760387       -20.6912
 178   2.0000      -0.750420       -20.4200
 179   2.0000      -0.740661       -20.1544
 180   2.0000      -0.734242       -19.9797
 181   2.0000      -0.729079       -19.8393
 182   2.0000      -0.721642       -19.6369
 183   2.0000      -0.713127       -19.4052
 184   2.0000      -0.704359       -19.1666
 185   2.0000      -0.700791       -19.0695
 186   2.0000      -0.698831       -19.0161
 187   2.0000      -0.693018       -18.8580
 188   2.0000      -0.687502       -18.7079
 189   2.0000      -0.684806       -18.6345
 190   2.0000      -0.681522       -18.5452
 191   2.0000      -0.671830       -18.2814
 192   2.0000      -0.668216       -18.1831
 193   2.0000      -0.661437       -17.9986
 194   2.0000      -0.660206       -17.9651
 195   2.0000      -0.653100       -17.7718
 196   2.0000      -0.650790       -17.7089
 197   2.0000      -0.644565       -17.5395
 198   2.0000      -0.642890       -17.4939
 199   2.0000      -0.633113       -17.2279
 200   2.0000      -0.632356       -17.2073
 201   2.0000      -0.624645       -16.9975
 202   2.0000      -0.622230       -16.9317
 203   2.0000      -0.618609       -16.8332
 204   2.0000      -0.613010       -16.6808
 205   2.0000      -0.609871       -16.5954
 206   2.0000      -0.604042       -16.4368
 207   2.0000      -0.600579       -16.3426
 208   2.0000      -0.595811       -16.2128
 209   2.0000      -0.590091       -16.0572
 210   2.0000      -0.587161       -15.9775
 211   2.0000      -0.575357       -15.6563
 212   2.0000      -0.573522       -15.6063
 213   2.0000      -0.568511       -15.4700
 214   2.0000      -0.566486       -15.4149
 215   2.0000      -0.564520       -15.3614
 216   2.0000      -0.559084       -15.2134
 217   2.0000      -0.554453       -15.0874
 218   2.0000      -0.552267       -15.0280
 219   2.0000      -0.549907       -14.9637
 220   2.0000      -0.545051       -14.8316
 221   2.0000      -0.542595       -14.7648
 222   2.0000      -0.539316       -14.6755
 223   2.0000      -0.538154       -14.6439
 224   2.0000      -0.535768       -14.5790
 225   2.0000      -0.531406       -14.4603
 226   2.0000      -0.529496       -14.4083
 227   2.0000      -0.528832       -14.3903
 228   2.0000      -0.526745       -14.3335
 229   2.0000      -0.524506       -14.2725
 230   2.0000      -0.521402       -14.1881
 231   2.0000      -0.519079       -14.1249
 232   2.0000      -0.517322       -14.0771
 233   2.0000      -0.514357       -13.9964
 234   2.0000      -0.512609       -13.9488
 235   2.0000      -0.507054       -13.7976
 236   2.0000      -0.505174       -13.7465
 237   2.0000      -0.504029       -13.7153
 238   2.0000      -0.503138       -13.6911
 239   2.0000      -0.499678       -13.5969
 240   2.0000      -0.498376       -13.5615
 241   2.0000      -0.496994       -13.5239
 242   2.0000      -0.494767       -13.4633
 243   2.0000      -0.493252       -13.4221
 244   2.0000      -0.489237       -13.3128
 245   2.0000      -0.487217       -13.2579
 246   2.0000      -0.483219       -13.1491
 247   2.0000      -0.481821       -13.1110
 248   2.0000      -0.478862       -13.0305
 249   2.0000      -0.476060       -12.9542
 250   2.0000      -0.474579       -12.9139
 251   2.0000      -0.473082       -12.8732
 252   2.0000      -0.469208       -12.7678
 253   2.0000      -0.467333       -12.7168
 254   2.0000      -0.464398       -12.6369
 255   2.0000      -0.460191       -12.5224
 256   2.0000      -0.459142       -12.4939
 257   2.0000      -0.455985       -12.4080
 258   2.0000      -0.455522       -12.3954
 259   2.0000      -0.452720       -12.3191
 260   2.0000      -0.450558       -12.2603
 261   2.0000      -0.449309       -12.2263
 262   2.0000      -0.448048       -12.1920
 263   2.0000      -0.447284       -12.1712
 264   2.0000      -0.445539       -12.1237
 265   2.0000      -0.445275       -12.1166
 266   2.0000      -0.444815       -12.1040
 267   2.0000      -0.441352       -12.0098
 268   2.0000      -0.440447       -11.9852
 269   2.0000      -0.437457       -11.9038
 270   2.0000      -0.437087       -11.8937
 271   2.0000      -0.435069       -11.8388
 272   2.0000      -0.433952       -11.8084
 273   2.0000      -0.431692       -11.7469
 274   2.0000      -0.430037       -11.7019
 275   2.0000      -0.428852       -11.6697
 276   2.0000      -0.427600       -11.6356
 277   2.0000      -0.423926       -11.5356
 278   2.0000      -0.422945       -11.5089
 279   2.0000      -0.420287       -11.4366
 280   2.0000      -0.416530       -11.3344
 281   2.0000      -0.415238       -11.2992
 282   2.0000      -0.411406       -11.1949
 283   2.0000      -0.409158       -11.1338
 284   2.0000      -0.406809       -11.0698
 285   2.0000      -0.404717       -11.0129
 286   2.0000      -0.400991       -10.9115
 287   2.0000      -0.397860       -10.8263
 288   2.0000      -0.397639       -10.8203
 289   2.0000      -0.392454       -10.6792
 290   2.0000      -0.389264       -10.5924
 291   2.0000      -0.383265       -10.4292
 292   2.0000      -0.379088       -10.3155
 293   2.0000      -0.378942       -10.3115
 294   2.0000      -0.370185       -10.0732
 295   2.0000      -0.369335       -10.0501
 296   2.0000      -0.365682        -9.9507
 297   2.0000      -0.362850        -9.8736
 298   2.0000      -0.356875        -9.7111
 299   2.0000      -0.355947        -9.6858
 300   2.0000      -0.354982        -9.6596
 301   2.0000      -0.349061        -9.4984
 302   2.0000      -0.347074        -9.4444
 303   2.0000      -0.341650        -9.2968
 304   2.0000      -0.334837        -9.1114
 305   2.0000      -0.330679        -8.9982
 306   2.0000      -0.328975        -8.9519
 307   2.0000      -0.321056        -8.7364
 308   2.0000      -0.319885        -8.7045
 309   2.0000      -0.307823        -8.3763
 310   2.0000      -0.305465        -8.3121
 311   2.0000      -0.299169        -8.1408
 312   2.0000      -0.283918        -7.7258
 313   2.0000      -0.277604        -7.5540
 314   2.0000      -0.231254        -6.2927
 315   0.0000      -0.137946        -3.7537
 316   0.0000      -0.100885        -2.7452
 317   0.0000      -0.079393        -2.1604
 318   0.0000      -0.069213        -1.8834
 319   0.0000      -0.063047        -1.7156

MULLIKEN ATOMIC CHARGES
-----------------------
   0 C :    0.291779
   1 C :   -0.334547
   2 C :   -0.183892
   3 N :    0.157797
   4 C :   -0.209656
   5 N :    0.165215
   6 C :    0.020046
   7 C :   -0.015876
   8 C :   -0.069638
   9 C :    0.119032
  10 C :   -0.090097
  11 C :   -0.023298
  12 S :    0.189486
  13 C :   -0.123380
  14 C :    0.041192
  15 Br:    0.028749
  16 C :    0.144218
  17 O :   -0.155985
  18 C :   -0.083564
  19 C :   -0.010662
  20 C :   -0.126225
  21 S :    0.142360
  22 C :   -0.138883
  23 C :   -0.064624
  24 C :   -0.030278
  25 C :    0.089355
  26 C :    0.072107
  27 C :    0.082106
  28 O :   -0.299174
  29 C :    0.117571
  30 C :    0.027496
  31 C :   -0.043284
  32 C :    0.053772
  33 C :    0.034458
  34 C :   -0.034685
  35 S :    0.085400
  36 C :   -0.032080
  37 C :    0.054773
  38 C :    0.018795
  39 C :    0.025991
  40 S :    0.133943
  41 C :   -0.118433
  42 C :    0.115888
  43 C :   -0.064109
  44 C :   -0.037800
  45 N :    0.057143
  46 C :   -0.123665
  47 C :   -0.146973
  48 N :    0.045408
  49 C :   -0.216825
  50 N :    0.231951
  51 C :   -0.207191
  52 N :    0.237741
  53 C :    0.114117
  54 C :   -0.032715
  55 C :    0.078617
  56 N :   -0.347608
  57 S :    0.577792
  58 N :   -0.302538
  59 C :   -0.070277
  60 C :   -0.108899
  61 C :    0.337694
  62 C :   -0.360053
  63 C :   -0.156476
  64 N :    0.118473
  65 C :   -0.178294
  66 N :    0.120806
  67 C :    0.000961
  68 C :    0.009565
  69 C :    0.122911
  70 O :   -0.142967
  71 C :   -0.075420
  72 C :    0.112672
  73 C :   -0.088566
  74 C :   -0.031431
  75 S :    0.172886
  76 C :   -0.124092
  77 C :    0.038390
  78 Br:    0.015750
  79 H :   -0.007627
  80 H :   -0.004334
  81 H :   -0.001127
  82 H :    0.040815
  83 H :    0.014114
  84 H :    0.059000
  85 H :   -0.009091
  86 H :    0.021541
  87 H :    0.008861
  88 H :    0.182725
  89 H :    0.037008
  90 H :    0.023915
  91 H :    0.010801
  92 H :    0.006395
  93 H :    0.001209
  94 H :   -0.003869
  95 H :    0.004047
  96 H :    0.008622
  97 H :    0.031162
  98 H :   -0.010187
  99 H :   -0.010718
 100 H :   -0.003508
Sum of atomic charges:   -0.0000000

LOEWDIN ATOMIC CHARGES
----------------------
   0 C :    0.073259
   1 C :   -0.135471
   2 C :   -0.018773
   3 N :   -0.047672
   4 C :   -0.025971
   5 N :   -0.047095
   6 C :   -0.022281
   7 C :   -0.050083
   8 C :    0.023879
   9 C :   -0.030830
  10 C :   -0.143421
  11 C :   -0.008657
  12 S :    0.435287
  13 C :   -0.269820
  14 C :   -0.069485
  15 Br:    0.140883
  16 C :    0.084652
  17 O :   -0.137803
  18 C :   -0.086715
  19 C :    0.043633
  20 C :   -0.169025
  21 S :    0.451487
  22 C :   -0.163574
  23 C :   -0.037097
  24 C :   -0.007187
  25 C :   -0.029779
  26 C :   -0.031862
  27 C :    0.070743
  28 O :   -0.129080
  29 C :   -0.058763
  30 C :   -0.039655
  31 C :   -0.159368
  32 C :   -0.002830
  33 C :   -0.038115
  34 C :   -0.141844
  35 S :    0.443326
  36 C :   -0.202986
  37 C :   -0.013784
  38 C :   -0.032984
  39 C :   -0.117252
  40 S :    0.465102
  41 C :   -0.042465
  42 C :   -0.001615
  43 C :   -0.007480
  44 C :    0.026551
  45 N :   -0.009105
  46 C :   -0.016179
  47 C :   -0.045307
  48 N :   -0.000514
  49 C :   -0.038636
  50 N :   -0.017501
  51 C :   -0.032870
  52 N :   -0.003206
  53 C :   -0.082722
  54 C :   -0.029469
  55 C :   -0.045535
  56 N :   -0.299725
  57 S :    0.709018
  58 N :   -0.288580
  59 C :    0.072682
  60 C :   -0.096951
  61 C :    0.079753
  62 C :   -0.150872
  63 C :   -0.003677
  64 N :   -0.078203
  65 C :   -0.005474
  66 N :   -0.095640
  67 C :   -0.012893
  68 C :   -0.051304
  69 C :    0.083298
  70 O :   -0.142319
  71 C :    0.020627
  72 C :   -0.036889
  73 C :   -0.144576
  74 C :   -0.018465
  75 S :    0.422887
  76 C :   -0.275249
  77 C :   -0.069587
  78 Br:    0.130712
  79 H :    0.042199
  80 H :    0.041507
  81 H :    0.039855
  82 H :    0.046826
  83 H :    0.035702
  84 H :    0.042745
  85 H :    0.017673
  86 H :    0.030689
  87 H :    0.016250
  88 H :    0.072950
  89 H :    0.021301
  90 H :    0.026778
  91 H :    0.041544
  92 H :    0.039755
  93 H :    0.038317
  94 H :    0.035308
  95 H :    0.038681
  96 H :    0.042601
  97 H :    0.046986
  98 H :    0.040702
  99 H :    0.037613
 100 H :    0.038506

  Mayer bond orders larger than 0.100000
B(  0-C ,  1-C ) :   1.6478 B(  0-C ,  6-C ) :   1.0126 B(  0-C , 18-C ) :   1.0527
B(  1-C ,  2-C ) :   1.1384 B(  1-C ,  4-C ) :   1.1416 B(  2-C ,  3-N ) :   2.9742
B(  4-C ,  5-N ) :   2.9969 B(  6-C ,  7-C ) :   1.2680 B(  6-C , 11-C ) :   1.4091
B(  7-C ,  8-C ) :   1.4263 B(  7-C , 16-C ) :   0.9410 B(  8-C ,  9-C ) :   1.2462
B(  8-C , 79-H ) :   1.0157 B(  9-C , 10-C ) :   1.3019 B(  9-C , 14-C ) :   1.1652
B( 10-C , 11-C ) :   1.3318 B( 10-C , 12-S ) :   1.0873 B( 11-C , 80-H ) :   0.9798
B( 12-S , 13-C ) :   1.0873 B( 13-C , 14-C ) :   1.6166 B( 13-C , 15-Br) :   1.0221
B( 14-C , 81-H ) :   1.0000 B( 16-C , 17-O ) :   2.1684 B( 16-C , 18-C ) :   0.9592
B( 18-C , 19-C ) :   1.6208 B( 19-C , 20-C ) :   1.1490 B( 19-C , 82-H ) :   0.9325
B( 20-C , 21-S ) :   1.1112 B( 20-C , 24-C ) :   1.4430 B( 21-S , 22-C ) :   1.1241
B( 22-C , 23-C ) :   1.4168 B( 22-C , 30-C ) :   1.1646 B( 23-C , 24-C ) :   1.3673
B( 23-C , 29-C ) :   1.0248 B( 24-C , 25-C ) :   1.0585 B( 25-C , 26-C ) :   1.0847
B( 25-C , 83-H ) :   0.9096 B( 25-C , 84-H ) :   0.8779 B( 26-C , 27-C ) :   1.0462
B( 26-C , 85-H ) :   0.9304 B( 26-C , 86-H ) :   0.9112 B( 27-C , 28-O ) :   1.0303
B( 27-C , 29-C ) :   1.0294 B( 27-C , 87-H ) :   0.9398 B( 28-O , 88-H ) :   0.9420
B( 29-C , 89-H ) :   0.8851 B( 29-C , 90-H ) :   0.9088 B( 30-C , 31-C ) :   1.5863
B( 30-C , 91-H ) :   0.9429 B( 31-C , 32-C ) :   1.1552 B( 31-C , 35-S ) :   1.0351
B( 32-C , 33-C ) :   1.5643 B( 32-C , 92-H ) :   0.9978 B( 33-C , 34-C ) :   1.2134
B( 33-C , 93-H ) :   0.9953 B( 34-C , 35-S ) :   1.0949 B( 34-C , 36-C ) :   1.4114
B( 36-C , 37-C ) :   1.2322 B( 36-C , 40-S ) :   1.0219 B( 37-C , 38-C ) :   1.5191
B( 37-C , 94-H ) :   0.9967 B( 38-C , 39-C ) :   1.2034 B( 38-C , 95-H ) :   1.0021
B( 39-C , 40-S ) :   1.1143 B( 39-C , 41-C ) :   1.3605 B( 41-C , 42-C ) :   1.3774
B( 41-C , 96-H ) :   0.9438 B( 42-C , 43-C ) :   1.1254 B( 42-C , 55-C ) :   1.1336
B( 43-C , 44-C ) :   1.1513 B( 43-C , 48-N ) :   1.5224 B( 44-C , 45-N ) :   1.4782
B( 44-C , 53-C ) :   1.2061 B( 45-N , 46-C ) :   1.7124 B( 46-C , 47-C ) :   1.2553
B( 46-C , 51-C ) :   1.1511 B( 47-C , 48-N ) :   1.6665 B( 47-C , 49-C ) :   1.1581
B( 49-C , 50-N ) :   3.0495 B( 51-C , 52-N ) :   3.0487 B( 53-C , 54-C ) :   1.1749
B( 53-C , 59-C ) :   1.2017 B( 54-C , 55-C ) :   1.1270 B( 54-C , 58-N ) :   1.5214
B( 55-C , 56-N ) :   1.4466 B( 56-N , 57-S ) :   1.2828 B( 56-N , 58-N ) :   0.1193
B( 57-S , 58-N ) :   1.2645 B( 59-C , 60-C ) :   1.5344 B( 59-C , 97-H ) :   0.9310
B( 60-C , 61-C ) :   1.0784 B( 60-C , 69-C ) :   0.9505 B( 61-C , 62-C ) :   1.5955
B( 61-C , 67-C ) :   1.0051 B( 62-C , 63-C ) :   1.1729 B( 62-C , 65-C ) :   1.1973
B( 63-C , 64-N ) :   2.8660 B( 65-C , 66-N ) :   2.9131 B( 67-C , 68-C ) :   1.2764
B( 67-C , 74-C ) :   1.4166 B( 68-C , 69-C ) :   0.9160 B( 68-C , 71-C ) :   1.4302
B( 69-C , 70-O ) :   2.2567 B( 71-C , 72-C ) :   1.2460 B( 71-C , 98-H ) :   1.0166
B( 72-C , 73-C ) :   1.3157 B( 72-C , 77-C ) :   1.1607 B( 73-C , 74-C ) :   1.3217
B( 73-C , 75-S ) :   1.0803 B( 74-C , 99-H ) :   0.9832 B( 75-S , 76-C ) :   1.0832
B( 76-C , 77-C ) :   1.6227 B( 76-C , 78-Br) :   1.0139 B( 77-C ,100-H ) :   1.0002

-----------------------------------------------------------------------------
         ABSORPTION SPECTRUM VIA TRANSITION ELECTRIC DIPOLE MOMENTS
-----------------------------------------------------------------------------
State   Energy  Wavelength   fosc         T2         TX        TY        TZ
        (cm-1)    (nm)                  (au**2)     (au)      (au)      (au)
-----------------------------------------------------------------------------
   0    6442.4   1552.2   0.429829878  21.96471  -0.70827  -0.51072   4.60459
   1   15226.3    656.8   0.087210608   1.88560   0.27929  -1.31690   0.27088
   2   16424.4    608.9   1.053616052  21.11882  -0.88057   4.33261  -1.25376
   3   18858.6    530.3   0.382456391   6.67649   0.30474  -2.56153  -0.14903
   4   19624.0    509.6   0.290661871   4.87613   0.27694  -2.12029   0.55116
   5   20577.7    486.0   0.065812148   1.05289  -0.07160  -0.38357   0.94902
   6   22925.1    436.2   0.103475441   1.48594   0.32798  -1.01364  -0.59237
   7   23934.0    417.8   0.059555363   0.81918  -0.19984   0.70210   0.53507
   8   24373.2    410.3   0.012643589   0.17078  -0.40776   0.01017   0.06638
   9   24771.6    403.7   0.244666390   3.25159  -1.21362   1.28861   0.34380
  10   25082.7    398.7   0.098441623   1.29205   0.05100  -1.10618  -0.25655
  11   25205.6    396.7   0.079533396   1.03879  -0.23758   0.83111   0.54000
  12   25647.2    389.9   0.012400899   0.15918   0.30997  -0.01237  -0.25089
  13   25754.4    388.3   0.041471402   0.53012   0.07625  -0.67105   0.27203
  14   26321.9    379.9   0.108718834   1.35976  -0.00823   1.09224  -0.40829
  15   26413.2    378.6   0.070044877   0.87303  -0.04594   0.93188  -0.05018
  16   26728.4    374.1   0.052916868   0.65177  -0.05942  -0.74876  -0.29599
  17   26888.1    371.9   0.027100299   0.33181  -0.08949  -0.29220   0.48828
  18   27637.7    361.8   0.036484494   0.43459   0.39043  -0.45635  -0.27184
  19   28075.1    356.2   0.076125734   0.89266  -0.60141  -0.63500   0.35741
  20   28278.5    353.6   0.117017089   1.36229   0.30524  -1.12641  -0.01796
  21   28409.0    352.0   0.136029430   1.57635  -0.70403  -0.54102   0.88768
  22   28914.2    345.9   0.075221688   0.85646  -0.29268  -0.76718  -0.42688
  23   29251.2    341.9   0.030752298   0.34611   0.40717   0.26868  -0.32884
  24   29410.3    340.0   0.094416087   1.05687   0.33140  -0.80328  -0.54935
  25   29856.6    334.9   0.286281875   3.15667   1.62885  -0.14873  -0.69382
  26   30174.5    331.4   0.114943540   1.25406  -0.62659  -0.24607  -0.89493
  27   30752.9    325.2   0.106026400   1.13502  -0.56781   0.80541   0.40488
  28   30848.8    324.2   0.417203320   4.45231   0.71678   1.98146  -0.11120
  29   31184.4    320.7   0.221000361   2.33309  -0.25394   0.65993   1.35392
  30   31509.0    317.4   0.098523954   1.02940   0.11217  -0.31234   0.95878
  31   31677.9    315.7   0.180623632   1.87713   1.32037  -0.36148  -0.05549
  32   32110.5    311.4   0.028364055   0.29080  -0.25976   0.36262  -0.30305
  33   32201.5    310.5   0.029691025   0.30355   0.03015   0.24839   0.49086
  34   32424.6    308.4   0.033441223   0.33953   0.26246   0.03750   0.51888
  35   32739.6    305.4   0.016158015   0.16248  -0.04487   0.11386   0.38406
  36   32873.4    304.2   0.046101085   0.46168  -0.06809  -0.61314  -0.28479
  37   33087.5    302.2   0.033778580   0.33609  -0.33638   0.44801   0.14907
  38   33596.2    297.7   0.029431411   0.28840   0.12255  -0.39882  -0.33812
  39   33688.8    296.8   0.017700032   0.17297   0.14093   0.30128  -0.24968
  40   34340.7    291.2   0.278084679   2.66590   1.57821  -0.02461  -0.41778
  41   34558.6    289.4   0.022906628   0.21821   0.30776   0.06480   0.34540
  42   34691.2    288.3   0.074490812   0.70690  -0.03075   0.62628   0.56012
  43   34851.0    286.9   0.007735075   0.07307   0.10342  -0.21402  -0.12871
  44   35373.7    282.7   0.045468436   0.42316  -0.53855  -0.35273   0.09332
  45   35530.8    281.4   0.084644635   0.78428  -0.54049  -0.05400   0.69945
  46   35949.8    278.2   0.210746955   1.92992  -0.37097  -0.82228  -1.05648
  47   36242.0    275.9   0.004790347   0.04351   0.07163   0.16357   0.10784
  48   36375.3    274.9   0.150408930   1.36126  -0.30180  -1.04029   0.43356
  49   36709.1    272.4   0.019190531   0.17210  -0.04989  -0.39401   0.11987
  50   36904.3    271.0   0.054480956   0.48601  -0.00550  -0.58980  -0.37163
  51   37154.6    269.1   0.023956332   0.21227   0.32357   0.17899  -0.27483
  52   37245.0    268.5   0.007052922   0.06234   0.18041   0.03300  -0.16942
  53   37489.4    266.7   0.010169375   0.08930  -0.27552   0.06144   0.09805
  54   37660.1    265.5   0.043609606   0.38122  -0.08614  -0.48326  -0.37451
  55   37912.3    263.8   0.058538830   0.50832   0.14029  -0.66109   0.22717
  56   38035.5    262.9   0.060470384   0.52340  -0.47508   0.12658   0.53073
  57   38175.1    262.0   0.054317357   0.46842   0.60056   0.28225  -0.16758
  58   38291.7    261.2   0.037271640   0.32044  -0.28809  -0.06858   0.48244
  59   38435.6    260.2   0.072747342   0.62310  -0.07144  -0.56340   0.54825
  60   38506.5    259.7   0.010918830   0.09335  -0.15706   0.18494   0.18569
  61   38654.2    258.7   0.178643102   1.52148   0.14219   0.82185  -0.90875
  62   38766.7    258.0   0.094686323   0.80409  -0.12640  -0.57930   0.67270
  63   39012.0    256.3   0.054184139   0.45725  -0.29452  -0.59570   0.12509
  64   39399.1    253.8   0.009767640   0.08162  -0.13052   0.23751  -0.09038
  65   39428.3    253.6   0.047170224   0.39385   0.35191   0.51204  -0.08847
  66   39618.6    252.4   0.013392251   0.11128  -0.09918  -0.31794   0.01905
  67   39746.2    251.6   0.114913217   0.95181   0.09433   0.79447  -0.55833
  68   40015.3    249.9   0.078272890   0.64396   0.26461   0.71104  -0.26147
  69   40132.6    249.2   0.045465437   0.37296  -0.02265  -0.44398   0.41872
  70   40243.2    248.5   0.020312287   0.16617   0.32495   0.24560   0.01587
  71   40301.4    248.1   0.017619383   0.14393  -0.07956   0.33895   0.15069

FINAL SINGLE POINT ENERGY    -10529.001463926254

DIPOLE MOMENT
-------------
                                X             Y             Z
Electronic contribution:     54.81898    -169.04741     -28.67269
Nuclear contribution   :    -55.52663     169.38754      33.25158
                        -----------------------------------------
Total Dipole Moment    :     -0.70765       0.34013       4.57889
                        -----------------------------------------
Magnitude (a.u.)       :      4.64572
Magnitude (Debye)      :     11.80848

Rotational constants in cm-1:     0.000601     0.000334     0.000245
Rotational constants in MHz :    18.013749    10.018592     7.353702

                             ****ORCA TERMINATED NORMALLY****
TOTAL RUN TIME: 0 days 0 hours 13 minutes 10 seconds 167 msec
