                         Program Version 4.2.0 -  RELEASE  -
|  1> # ORCA input file
|  2> # SCF done       -188.263242312542          0.000767801164
|  3> ! CAM-B3LYP def2-SVP def2/J RIJCOSX Grid4 TightSCF
|  4> %maxcore 5000
|  5> %tddft
|  6>     Mode sTDDFT
|  7>     Ethresh 5.0
|  8>     maxcore 5000
|  9> end
| 10>
| 11> %pal
| 12>   nprocs 6
| 13>   end
| 14> * xyz 0 1
| 15>    C       -2.53571         3.54841         5.07551
| 16>    C       -3.33921         4.16022         5.99983
| 17>    C       -3.31019         3.87334         7.38235
| 18>    N       -3.33646         3.68592         8.51425
| 19>    C       -4.31254         5.14835         5.73424
| 20>    N       -5.13058         5.94539         5.62113
| 21>    C       -1.55206         2.51130         5.36940
| 22>    C       -0.95245         2.09252         4.15558
| 23>    C        0.01767         1.12104         4.09833
| 24>    C        0.42121         0.53327         5.30115
| 25>    C       -0.17965         0.95810         6.51134
| 26>    C       -1.16246         1.93892         6.56674
| 27>    S        0.46762         0.10528         7.87869
| 28>    C        1.52105        -0.79830         6.82264
| 29>    C        1.39623        -0.47902         5.51202
| 30>   Br        2.68434        -2.07605         7.54891
| 31>    C       -1.53086         2.85689         3.04048
| 32>    O       -1.25110         2.73511         1.86315
| 33>    C       -2.50340         3.78864         3.63939
| 34>    C       -3.21499         4.74029         2.96668
| 35>    C       -3.21383         5.07287         1.59646
| 36>    N       -3.94914         6.09210         1.19940
| 37>    C       -3.81993         6.30179        -0.09466
| 38>    C       -2.95309         5.41473        -0.78693
| 39>    S       -2.28806         4.27277         0.29951
| 40>    N       -2.80159         5.64922        -2.08539
| 41>    C       -3.50238         6.67779        -2.46014
| 42>    S       -4.46352         7.46871        -1.18118
| 43>    C       -3.47515         7.19217        -3.77706
| 44>    O       -4.17951         8.31030        -4.09324
| 45>    C       -2.76026         6.78110        -4.88768
| 46>    C       -1.82617         5.76931        -5.41583
| 47>    O       -1.32692         4.80212        -4.91563
| 48>    N       -1.61602         6.18723        -6.73172
| 49>    C       -2.29726         7.33886        -7.11627
| 50>    O       -2.24088         7.85477        -8.20171
| 51>    C       -3.04054         7.71217        -5.90945
| 52>    C       -3.92141         8.65017        -5.38727
| 53>    C       -4.46332         9.79523        -6.00134
| 54>    C       -5.39385        10.63218        -5.45049
| 55>    C       -5.81908        11.79419        -6.10592
| 56>    C       -6.79970        12.65572        -5.67351
| 57>    C       -7.16351        13.87313        -6.30038
| 58>    C       -8.17700        14.53767        -5.68163
| 59>    C       -8.68828        13.86751        -4.54608
| 60>    S       -7.80954        12.38467        -4.26563
| 61>    C       -9.75735        14.26903        -3.76236
| 62>    C      -10.49364        15.46912        -3.88570
| 63>    C      -11.51903        15.57630        -2.99592
| 64>    C      -11.65690        14.45982        -2.13786
| 65>    S      -10.40468        13.28691        -2.46944
| 66>    C      -12.63447        14.29682        -1.17891
| 67>    C      -12.80581        13.14335        -0.41678
| 68>    C      -13.74612        12.93220         0.56518
| 69>    C      -14.60178        13.84310         1.27794
| 70>    C      -14.34857        15.16563         1.55764
| 71>    C      -15.21385        15.98930         2.30405
| 72>    N      -15.89231        16.71014         2.88638
| 73>    C      -13.15049        15.83007         1.22740
| 74>    N      -12.17982        16.40834         1.02107
| 75>    C      -15.69322        13.05706         1.85083
| 76>    C      -15.40055        11.68097         1.67566
| 77>    C      -14.13342        11.54695         0.92542
| 78>    O      -13.55709        10.52685         0.61967
| 79>    C      -16.22866        10.68716         2.13593
| 80>    C      -17.40666        11.06857         2.78864
| 81>    C      -17.69516        12.44451         2.94624
| 82>    C      -16.85226        13.45131         2.48913
| 83>    S      -19.20697        12.69141         3.76567
| 84>    C      -19.42649        10.96583         3.88826
| 85>    C      -18.42169        10.24070         3.34244
| 86>   Br      -20.96453        10.28612         4.71929
| 87>    H        0.45140         0.82654         3.15565
| 88>    H       -1.58504         2.22601         7.51477
| 89>    H        1.96745        -0.93747         4.72557
| 90>    H       -3.88050         5.38233         3.53116
| 91>    H       -1.00802         5.68359        -7.36212
| 92>    H       -4.08232         9.98965        -6.99437
| 93>    H       -5.81148        10.40090        -4.47945
| 94>    H       -5.32649        12.05026        -7.03547
| 95>    H       -6.65851        14.21888        -7.18468
| 96>    H       -8.57853        15.47556        -6.01916
| 97>    H      -10.24857        16.21847        -4.61606
| 98>    H      -12.18481        16.41789        -2.92916
| 99>    H      -13.33404        15.11336        -1.06912
|100>    H      -12.21134        12.27395        -0.68089
|101>    H      -15.97871         9.64723         1.99605
|102>    H      -17.11680        14.48658         2.62719
|103>    H      -18.39561         9.16640         3.32903
|104> *
|105>
|106>                          ****END OF INPUT****

CARTESIAN COORDINATES (ANGSTROEM)
---------------------------------
  C     -2.535710    3.548410    5.075510
  C     -3.339210    4.160220    5.999830
  C     -3.310190    3.873340    7.382350
  N     -3.336460    3.685920    8.514250
  C     -4.312540    5.148350    5.734240
  N     -5.130580    5.945390    5.621130
  C     -1.552060    2.511300    5.369400
  C     -0.952450    2.092520    4.155580
  C      0.017670    1.121040    4.098330
  C      0.421210    0.533270    5.301150
  C     -0.179650    0.958100    6.511340
  C     -1.162460    1.938920    6.566740
  S      0.467620    0.105280    7.878690
  C      1.521050   -0.798300    6.822640
  C      1.396230   -0.479020    5.512020
  Br     2.684340   -2.076050    7.548910
  C     -1.530860    2.856890    3.040480
  O     -1.251100    2.735110    1.863150
  C     -2.503400    3.788640    3.639390
  C     -3.214990    4.740290    2.966680
  C     -3.213830    5.072870    1.596460
  N     -3.949140    6.092100    1.199400
  C     -3.819930    6.301790   -0.094660
  C     -2.953090    5.414730   -0.786930
  S     -2.288060    4.272770    0.299510
  N     -2.801590    5.649220   -2.085390
  C     -3.502380    6.677790   -2.460140
  S     -4.463520    7.468710   -1.181180
  C     -3.475150    7.192170   -3.777060
  O     -4.179510    8.310300   -4.093240
  C     -2.760260    6.781100   -4.887680
  C     -1.826170    5.769310   -5.415830
  O     -1.326920    4.802120   -4.915630
  N     -1.616020    6.187230   -6.731720
  C     -2.297260    7.338860   -7.116270
  O     -2.240880    7.854770   -8.201710
  C     -3.040540    7.712170   -5.909450
  C     -3.921410    8.650170   -5.387270
  C     -4.463320    9.795230   -6.001340
  C     -5.393850   10.632180   -5.450490
  C     -5.819080   11.794190   -6.105920
  C     -6.799700   12.655720   -5.673510
  C     -7.163510   13.873130   -6.300380
  C     -8.177000   14.537670   -5.681630
  C     -8.688280   13.867510   -4.546080
  S     -7.809540   12.384670   -4.265630
  C     -9.757350   14.269030   -3.762360
  C    -10.493640   15.469120   -3.885700
  C    -11.519030   15.576300   -2.995920
  C    -11.656900   14.459820   -2.137860
  S    -10.404680   13.286910   -2.469440
  C    -12.634470   14.296820   -1.178910
  C    -12.805810   13.143350   -0.416780
  C    -13.746120   12.932200    0.565180
  C    -14.601780   13.843100    1.277940
  C    -14.348570   15.165630    1.557640
  C    -15.213850   15.989300    2.304050
  N    -15.892310   16.710140    2.886380
  C    -13.150490   15.830070    1.227400
  N    -12.179820   16.408340    1.021070
  C    -15.693220   13.057060    1.850830
  C    -15.400550   11.680970    1.675660
  C    -14.133420   11.546950    0.925420
  O    -13.557090   10.526850    0.619670
  C    -16.228660   10.687160    2.135930
  C    -17.406660   11.068570    2.788640
  C    -17.695160   12.444510    2.946240
  C    -16.852260   13.451310    2.489130
  S    -19.206970   12.691410    3.765670
  C    -19.426490   10.965830    3.888260
  C    -18.421690   10.240700    3.342440
  Br   -20.964530   10.286120    4.719290
  H      0.451400    0.826540    3.155650
  H     -1.585040    2.226010    7.514770
  H      1.967450   -0.937470    4.725570
  H     -3.880500    5.382330    3.531160
  H     -1.008020    5.683590   -7.362120
  H     -4.082320    9.989650   -6.994370
  H     -5.811480   10.400900   -4.479450
  H     -5.326490   12.050260   -7.035470
  H     -6.658510   14.218880   -7.184680
  H     -8.578530   15.475560   -6.019160
  H    -10.248570   16.218470   -4.616060
  H    -12.184810   16.417890   -2.929160
  H    -13.334040   15.113360   -1.069120
  H    -12.211340   12.273950   -0.680890
  H    -15.978710    9.647230    1.996050
  H    -17.116800   14.486580    2.627190
  H    -18.395610    9.166400    3.329030

 Total Charge           Charge          ....    0
 Multiplicity           Mult            ....    1
 Number of Electrons    NEL             ....  584
 Basis Dimension        Dim             .... 1153

ORBITAL ENERGIES
----------------

  NO   OCC          E(Eh)            E(eV)
   0   2.0000    -482.889473    -13140.0906
   1   2.0000    -482.879950    -13139.8315
   2   2.0000     -88.982131     -2421.3269
   3   2.0000     -88.980721     -2421.2885
   4   2.0000     -88.978824     -2421.2369
   5   2.0000     -88.971620     -2421.0409
   6   2.0000     -88.968865     -2420.9659
   7   2.0000     -88.967925     -2420.9403
   8   2.0000     -62.567191     -1702.5398
   9   2.0000     -62.557680     -1702.2810
  10   2.0000     -56.401149     -1534.7533
  11   2.0000     -56.398418     -1534.6790
  12   2.0000     -56.398391     -1534.6782
  13   2.0000     -56.391622     -1534.4940
  14   2.0000     -56.388920     -1534.4205
  15   2.0000     -56.388883     -1534.4195
  16   2.0000     -19.328463      -525.9542
  17   2.0000     -19.232139      -523.3331
  18   2.0000     -19.216613      -522.9106
  19   2.0000     -19.213812      -522.8344
  20   2.0000     -19.204145      -522.5714
  21   2.0000     -14.458760      -393.4429
  22   2.0000     -14.437070      -392.8527
  23   2.0000     -14.435550      -392.8113
  24   2.0000     -14.420822      -392.4105
  25   2.0000     -14.420647      -392.4057
  26   2.0000     -14.407082      -392.0366
  27   2.0000     -14.404814      -391.9749
  28   2.0000     -10.406157      -283.1659
  29   2.0000     -10.404634      -283.1245
  30   2.0000     -10.379288      -282.4348
  31   2.0000     -10.377799      -282.3943
  32   2.0000     -10.375478      -282.3311
  33   2.0000     -10.369209      -282.1605
  34   2.0000     -10.363830      -282.0142
  35   2.0000     -10.355357      -281.7836
  36   2.0000     -10.355159      -281.7782
  37   2.0000     -10.352109      -281.6952
  38   2.0000     -10.350488      -281.6511
  39   2.0000     -10.348621      -281.6003
  40   2.0000     -10.341368      -281.4029
  41   2.0000     -10.341141      -281.3968
  42   2.0000     -10.338234      -281.3177
  43   2.0000     -10.334191      -281.2076
  44   2.0000     -10.333903      -281.1998
  45   2.0000     -10.333059      -281.1768
  46   2.0000     -10.332914      -281.1729
  47   2.0000     -10.331921      -281.1459
  48   2.0000     -10.331428      -281.1324
  49   2.0000     -10.327550      -281.0269
  50   2.0000     -10.323245      -280.9098
  51   2.0000     -10.322270      -280.8833
  52   2.0000     -10.318203      -280.7726
  53   2.0000     -10.315049      -280.6868
  54   2.0000     -10.313385      -280.6415
  55   2.0000     -10.311774      -280.5976
  56   2.0000     -10.311359      -280.5863
  57   2.0000     -10.310973      -280.5758
  58   2.0000     -10.310867      -280.5730
  59   2.0000     -10.310288      -280.5572
  60   2.0000     -10.310274      -280.5568
  61   2.0000     -10.308921      -280.5200
  62   2.0000     -10.307906      -280.4924
  63   2.0000     -10.307836      -280.4905
  64   2.0000     -10.307725      -280.4875
  65   2.0000     -10.307591      -280.4838
  66   2.0000     -10.306647      -280.4581
  67   2.0000     -10.306415      -280.4518
  68   2.0000     -10.302003      -280.3318
  69   2.0000     -10.301329      -280.3134
  70   2.0000     -10.301190      -280.3096
  71   2.0000     -10.300363      -280.2871
  72   2.0000     -10.299729      -280.2699
  73   2.0000     -10.299374      -280.2602
  74   2.0000     -10.297597      -280.2119
  75   2.0000     -10.293322      -280.0955
  76   2.0000     -10.290962      -280.0313
  77   2.0000     -10.290290      -280.0130
  78   2.0000     -10.285378      -279.8794
  79   2.0000     -10.284128      -279.8454
  80   2.0000      -8.796623      -239.3683
  81   2.0000      -8.787119      -239.1097
  82   2.0000      -8.077810      -219.8084
  83   2.0000      -8.076644      -219.7767
  84   2.0000      -8.072293      -219.6582
  85   2.0000      -8.067907      -219.5389
  86   2.0000      -8.064884      -219.4566
  87   2.0000      -8.064269      -219.4399
  88   2.0000      -6.632969      -180.4923
  89   2.0000      -6.623390      -180.2316
  90   2.0000      -6.618356      -180.0946
  91   2.0000      -6.618113      -180.0880
  92   2.0000      -6.608852      -179.8360
  93   2.0000      -6.608689      -179.8316
  94   2.0000      -6.046936      -164.5455
  95   2.0000      -6.046322      -164.5288
  96   2.0000      -6.043314      -164.4469
  97   2.0000      -6.042043      -164.4123
  98   2.0000      -6.041498      -164.3975
  99   2.0000      -6.039516      -164.3436
 100   2.0000      -6.037909      -164.2999
 101   2.0000      -6.037568      -164.2906
 102   2.0000      -6.037300      -164.2833
 103   2.0000      -6.034560      -164.2087
 104   2.0000      -6.034446      -164.2056
 105   2.0000      -6.033876      -164.1901
 106   2.0000      -6.033566      -164.1817
 107   2.0000      -6.030320      -164.0934
 108   2.0000      -6.029883      -164.0814
 109   2.0000      -6.028896      -164.0546
 110   2.0000      -6.026101      -163.9786
 111   2.0000      -6.025329      -163.9575
 112   2.0000      -2.748821       -74.7992
 113   2.0000      -2.744724       -74.6877
 114   2.0000      -2.744580       -74.6838
 115   2.0000      -2.739270       -74.5393
 116   2.0000      -2.735186       -74.4282
 117   2.0000      -2.735053       -74.4246
 118   2.0000      -2.732956       -74.3675
 119   2.0000      -2.732937       -74.3670
 120   2.0000      -2.723506       -74.1104
 121   2.0000      -2.723483       -74.1097
 122   2.0000      -1.243417       -33.8351
 123   2.0000      -1.160676       -31.5836
 124   2.0000      -1.148261       -31.2458
 125   2.0000      -1.140158       -31.0253
 126   2.0000      -1.118928       -30.4476
 127   2.0000      -1.106632       -30.1130
 128   2.0000      -1.066116       -29.0105
 129   2.0000      -1.048103       -28.5203
 130   2.0000      -1.029087       -28.0029
 131   2.0000      -1.019936       -27.7539
 132   2.0000      -1.018793       -27.7228
 133   2.0000      -1.014845       -27.6153
 134   2.0000      -1.004859       -27.3436
 135   2.0000      -0.999065       -27.1859
 136   2.0000      -0.997629       -27.1469
 137   2.0000      -0.996619       -27.1194
 138   2.0000      -0.984798       -26.7977
 139   2.0000      -0.980816       -26.6894
 140   2.0000      -0.949806       -25.8455
 141   2.0000      -0.947180       -25.7741
 142   2.0000      -0.936678       -25.4883
 143   2.0000      -0.934744       -25.4357
 144   2.0000      -0.929919       -25.3044
 145   2.0000      -0.919930       -25.0326
 146   2.0000      -0.914781       -24.8925
 147   2.0000      -0.911493       -24.8030
 148   2.0000      -0.901038       -24.5185
 149   2.0000      -0.900216       -24.4961
 150   2.0000      -0.891751       -24.2658
 151   2.0000      -0.889467       -24.2036
 152   2.0000      -0.881855       -23.9965
 153   2.0000      -0.878189       -23.8967
 154   2.0000      -0.872262       -23.7354
 155   2.0000      -0.869243       -23.6533
 156   2.0000      -0.860487       -23.4150
 157   2.0000      -0.846535       -23.0354
 158   2.0000      -0.839339       -22.8396
 159   2.0000      -0.835208       -22.7272
 160   2.0000      -0.822263       -22.3749
 161   2.0000      -0.818986       -22.2857
 162   2.0000      -0.804126       -21.8814
 163   2.0000      -0.788630       -21.4597
 164   2.0000      -0.777088       -21.1456
 165   2.0000      -0.771297       -20.9881
 166   2.0000      -0.768373       -20.9085
 167   2.0000      -0.762470       -20.7479
 168   2.0000      -0.752575       -20.4786
 169   2.0000      -0.743503       -20.2318
 170   2.0000      -0.733025       -19.9466
 171   2.0000      -0.717621       -19.5274
 172   2.0000      -0.709274       -19.3003
 173   2.0000      -0.704325       -19.1656
 174   2.0000      -0.698788       -19.0150
 175   2.0000      -0.694374       -18.8949
 176   2.0000      -0.691522       -18.8173
 177   2.0000      -0.681655       -18.5488
 178   2.0000      -0.678922       -18.4744
 179   2.0000      -0.670260       -18.2387
 180   2.0000      -0.665851       -18.1187
 181   2.0000      -0.660892       -17.9838
 182   2.0000      -0.659743       -17.9525
 183   2.0000      -0.654335       -17.8053
 184   2.0000      -0.645712       -17.5707
 185   2.0000      -0.642120       -17.4730
 186   2.0000      -0.634611       -17.2686
 187   2.0000      -0.632326       -17.2065
 188   2.0000      -0.626576       -17.0500
 189   2.0000      -0.618353       -16.8262
 190   2.0000      -0.615260       -16.7421
 191   2.0000      -0.610724       -16.6186
 192   2.0000      -0.602392       -16.3919
 193   2.0000      -0.601778       -16.3752
 194   2.0000      -0.599650       -16.3173
 195   2.0000      -0.596567       -16.2334
 196   2.0000      -0.594501       -16.1772
 197   2.0000      -0.588451       -16.0126
 198   2.0000      -0.584076       -15.8935
 199   2.0000      -0.581555       -15.8249
 200   2.0000      -0.570013       -15.5109
 201   2.0000      -0.565262       -15.3816
 202   2.0000      -0.559012       -15.2115
 203   2.0000      -0.557519       -15.1709
 204   2.0000      -0.556189       -15.1347
 205   2.0000      -0.551396       -15.0042
 206   2.0000      -0.548724       -14.9315
 207   2.0000      -0.546635       -14.8747
 208   2.0000      -0.545215       -14.8361
 209   2.0000      -0.543905       -14.8004
 210   2.0000      -0.538530       -14.6542
 211   2.0000      -0.535721       -14.5777
 212   2.0000      -0.530867       -14.4456
 213   2.0000      -0.529214       -14.4007
 214   2.0000      -0.524993       -14.2858
 215   2.0000      -0.523348       -14.2410
 216   2.0000      -0.520331       -14.1589
 217   2.0000      -0.520196       -14.1553
 218   2.0000      -0.518410       -14.1067
 219   2.0000      -0.514961       -14.0128
 220   2.0000      -0.514328       -13.9956
 221   2.0000      -0.512380       -13.9426
 222   2.0000      -0.510336       -13.8869
 223   2.0000      -0.505403       -13.7527
 224   2.0000      -0.504094       -13.7171
 225   2.0000      -0.503590       -13.7034
 226   2.0000      -0.500797       -13.6274
 227   2.0000      -0.499338       -13.5877
 228   2.0000      -0.498168       -13.5558
 229   2.0000      -0.492597       -13.4042
 230   2.0000      -0.491725       -13.3805
 231   2.0000      -0.489687       -13.3251
 232   2.0000      -0.489531       -13.3208
 233   2.0000      -0.484242       -13.1769
 234   2.0000      -0.482864       -13.1394
 235   2.0000      -0.482626       -13.1329
 236   2.0000      -0.480847       -13.0845
 237   2.0000      -0.476371       -12.9627
 238   2.0000      -0.474633       -12.9154
 239   2.0000      -0.464450       -12.6383
 240   2.0000      -0.463605       -12.6153
 241   2.0000      -0.456210       -12.4141
 242   2.0000      -0.454897       -12.3784
 243   2.0000      -0.452930       -12.3249
 244   2.0000      -0.452118       -12.3027
 245   2.0000      -0.448170       -12.1953
 246   2.0000      -0.444974       -12.1084
 247   2.0000      -0.444225       -12.0880
 248   2.0000      -0.442474       -12.0403
 249   2.0000      -0.440037       -11.9740
 250   2.0000      -0.438619       -11.9354
 251   2.0000      -0.435130       -11.8405
 252   2.0000      -0.433871       -11.8062
 253   2.0000      -0.432215       -11.7612
 254   2.0000      -0.431625       -11.7451
 255   2.0000      -0.426012       -11.5924
 256   2.0000      -0.423127       -11.5139
 257   2.0000      -0.421465       -11.4686
 258   2.0000      -0.421219       -11.4619
 259   2.0000      -0.415979       -11.3194
 260   2.0000      -0.412458       -11.2235
 261   2.0000      -0.412258       -11.2181
 262   2.0000      -0.405859       -11.0440
 263   2.0000      -0.400986       -10.9114
 264   2.0000      -0.399115       -10.8605
 265   2.0000      -0.394573       -10.7369
 266   2.0000      -0.391810       -10.6617
 267   2.0000      -0.388706       -10.5772
 268   2.0000      -0.385635       -10.4937
 269   2.0000      -0.380469       -10.3531
 270   2.0000      -0.378739       -10.3060
 271   2.0000      -0.375080       -10.2064
 272   2.0000      -0.373357       -10.1596
 273   2.0000      -0.369463       -10.0536
 274   2.0000      -0.366067        -9.9612
 275   2.0000      -0.361037        -9.8243
 276   2.0000      -0.359715        -9.7884
 277   2.0000      -0.356797        -9.7089
 278   2.0000      -0.349977        -9.5234
 279   2.0000      -0.348358        -9.4793
 280   2.0000      -0.343692        -9.3523
 281   2.0000      -0.341930        -9.3044
 282   2.0000      -0.334323        -9.0974
 283   2.0000      -0.332482        -9.0473
 284   2.0000      -0.324134        -8.8201
 285   2.0000      -0.321002        -8.7349
 286   2.0000      -0.307918        -8.3789
 287   2.0000      -0.302233        -8.2242
 288   2.0000      -0.297889        -8.1060
 289   2.0000      -0.286902        -7.8070
 290   2.0000      -0.274274        -7.4634
 291   2.0000      -0.231892        -6.3101
 292   0.0000      -0.122112        -3.3228
 293   0.0000      -0.105296        -2.8653
 294   0.0000      -0.074624        -2.0306
 295   0.0000      -0.069018        -1.8781
 296   0.0000      -0.053042        -1.4433

MULLIKEN ATOMIC CHARGES
-----------------------
   0 C :    0.316274
   1 C :   -0.341906
   2 C :   -0.188302
   3 N :    0.156983
   4 C :   -0.196805
   5 N :    0.168765
   6 C :    0.015243
   7 C :   -0.018815
   8 C :   -0.062175
   9 C :    0.116531
  10 C :   -0.092147
  11 C :   -0.016390
  12 S :    0.191564
  13 C :   -0.123099
  14 C :    0.039652
  15 Br:    0.028871
  16 C :    0.172972
  17 O :   -0.172905
  18 C :   -0.082095
  19 C :    0.007071
  20 C :   -0.109235
  21 N :   -0.016001
  22 C :   -0.052794
  23 C :   -0.039955
  24 S :    0.207823
  25 N :    0.003614
  26 C :   -0.190487
  27 S :    0.158499
  28 C :    0.185322
  29 O :   -0.211943
  30 C :   -0.053919
  31 C :    0.165782
  32 O :   -0.107104
  33 N :   -0.170815
  34 C :    0.167548
  35 O :   -0.143722
  36 C :   -0.040238
  37 C :    0.117741
  38 C :   -0.049145
  39 C :    0.037178
  40 C :   -0.020126
  41 C :   -0.014156
  42 C :    0.047032
  43 C :    0.030106
  44 C :   -0.043127
  45 S :    0.115036
  46 C :   -0.056104
  47 C :    0.036891
  48 C :    0.041800
  49 C :   -0.016069
  50 S :    0.121701
  51 C :   -0.002930
  52 C :    0.026616
  53 C :   -0.125473
  54 C :    0.279879
  55 C :   -0.341334
  56 C :   -0.177878
  57 N :    0.142371
  58 C :   -0.218079
  59 N :    0.161085
  60 C :    0.009919
  61 C :   -0.002906
  62 C :    0.137992
  63 O :   -0.148819
  64 C :   -0.078588
  65 C :    0.114103
  66 C :   -0.086204
  67 C :   -0.028854
  68 S :    0.181203
  69 C :   -0.125454
  70 C :    0.038908
  71 Br:    0.018790
  72 H :   -0.007120
  73 H :   -0.005114
  74 H :   -0.001644
  75 H :    0.034108
  76 H :    0.140845
  77 H :    0.019101
  78 H :    0.016557
  79 H :    0.000099
  80 H :   -0.000478
  81 H :   -0.002640
  82 H :   -0.002420
  83 H :    0.005319
  84 H :    0.012818
  85 H :    0.015998
  86 H :   -0.011007
  87 H :   -0.005605
  88 H :   -0.003584
Sum of atomic charges:   -0.0000000

LOEWDIN ATOMIC CHARGES
----------------------
   0 C :    0.073280
   1 C :   -0.129842
   2 C :   -0.016937
   3 N :   -0.046988
   4 C :   -0.025453
   5 N :   -0.035454
   6 C :   -0.020122
   7 C :   -0.052458
   8 C :    0.025347
   9 C :   -0.031620
  10 C :   -0.142435
  11 C :   -0.008115
  12 S :    0.436943
  13 C :   -0.270089
  14 C :   -0.069566
  15 Br:    0.141051
  16 C :    0.085338
  17 O :   -0.157813
  18 C :   -0.089704
  19 C :    0.050504
  20 C :   -0.139864
  21 N :   -0.072203
  22 C :   -0.210062
  23 C :   -0.205481
  24 S :    0.504232
  25 N :   -0.074844
  26 C :   -0.127025
  27 S :    0.423651
  28 C :    0.033230
  29 O :    0.012279
  30 C :   -0.066294
  31 C :    0.085401
  32 O :   -0.129963
  33 N :   -0.006493
  34 C :    0.082700
  35 O :   -0.159649
  36 C :   -0.091927
  37 C :    0.070566
  38 C :   -0.034499
  39 C :   -0.003189
  40 C :   -0.042384
  41 C :   -0.139925
  42 C :   -0.018709
  43 C :   -0.026184
  44 C :   -0.157516
  45 S :    0.394923
  46 C :   -0.180792
  47 C :   -0.011354
  48 C :   -0.027392
  49 C :   -0.105156
  50 S :    0.406384
  51 C :   -0.059612
  52 C :    0.050757
  53 C :   -0.096927
  54 C :    0.067866
  55 C :   -0.149352
  56 C :   -0.020070
  57 N :   -0.059780
  58 C :   -0.024951
  59 N :   -0.057850
  60 C :   -0.016802
  61 C :   -0.051198
  62 C :    0.079198
  63 O :   -0.149790
  64 C :    0.020287
  65 C :   -0.035319
  66 C :   -0.144382
  67 C :   -0.015158
  68 S :    0.429202
  69 C :   -0.274033
  70 C :   -0.070242
  71 Br:    0.132915
  72 H :    0.042442
  73 H :    0.041638
  74 H :    0.039692
  75 H :    0.059254
  76 H :    0.095912
  77 H :    0.048741
  78 H :    0.031750
  79 H :    0.039291
  80 H :    0.038739
  81 H :    0.036157
  82 H :    0.036265
  83 H :    0.041456
  84 H :    0.039466
  85 H :    0.036905
  86 H :    0.040578
  87 H :    0.040128
  88 H :    0.038500

  Mayer bond orders larger than 0.100000
B(  0-C ,  1-C ) :   1.6431 B(  0-C ,  6-C ) :   1.0060 B(  0-C , 18-C ) :   1.0623
B(  1-C ,  2-C ) :   1.1454 B(  1-C ,  4-C ) :   1.1393 B(  2-C ,  3-N ) :   2.9683
B(  4-C ,  5-N ) :   2.9699 B(  6-C ,  7-C ) :   1.2709 B(  6-C , 11-C ) :   1.4087
B(  7-C ,  8-C ) :   1.4205 B(  7-C , 16-C ) :   0.9636 B(  8-C ,  9-C ) :   1.2475
B(  8-C , 72-H ) :   1.0172 B(  9-C , 10-C ) :   1.2997 B(  9-C , 14-C ) :   1.1641
B( 10-C , 11-C ) :   1.3332 B( 10-C , 12-S ) :   1.0900 B( 11-C , 73-H ) :   0.9795
B( 12-S , 13-C ) :   1.0867 B( 13-C , 14-C ) :   1.6166 B( 13-C , 15-Br) :   1.0211
B( 14-C , 74-H ) :   1.0006 B( 16-C , 17-O ) :   2.1287 B( 16-C , 18-C ) :   0.9614
B( 18-C , 19-C ) :   1.5635 B( 19-C , 20-C ) :   1.1892 B( 19-C , 75-H ) :   0.9396
B( 20-C , 21-N ) :   1.5937 B( 20-C , 24-S ) :   1.0743 B( 21-N , 22-C ) :   1.4914
B( 21-N , 24-S ) :   0.1165 B( 22-C , 23-C ) :   1.2101 B( 22-C , 27-S ) :   1.0836
B( 23-C , 24-S ) :   1.0938 B( 23-C , 25-N ) :   1.4114 B( 25-N , 26-C ) :   1.7523
B( 25-N , 27-S ) :   0.1142 B( 26-C , 27-S ) :   1.0626 B( 26-C , 28-C ) :   1.0981
B( 28-C , 29-O ) :   1.1850 B( 28-C , 30-C ) :   1.4520 B( 29-O , 37-C ) :   1.1396
B( 30-C , 31-C ) :   0.8503 B( 30-C , 36-C ) :   1.2945 B( 31-C , 32-O ) :   2.3075
B( 31-C , 33-N ) :   1.0707 B( 33-N , 34-C ) :   1.0850 B( 33-N , 76-H ) :   0.9136
B( 34-C , 35-O ) :   2.2600 B( 34-C , 36-C ) :   0.8778 B( 36-C , 37-C ) :   1.3749
B( 37-C , 38-C ) :   1.1861 B( 38-C , 39-C ) :   1.5674 B( 38-C , 77-H ) :   0.9645
B( 39-C , 40-C ) :   1.1651 B( 39-C , 78-H ) :   0.9847 B( 40-C , 41-C ) :   1.5366
B( 40-C , 79-H ) :   0.9838 B( 41-C , 42-C ) :   1.1480 B( 41-C , 45-S ) :   1.0377
B( 42-C , 43-C ) :   1.5826 B( 42-C , 80-H ) :   1.0007 B( 43-C , 44-C ) :   1.1937
B( 43-C , 81-H ) :   0.9936 B( 44-C , 45-S ) :   1.0671 B( 44-C , 46-C ) :   1.4827
B( 46-C , 47-C ) :   1.2016 B( 46-C , 50-S ) :   1.0498 B( 47-C , 48-C ) :   1.5634
B( 47-C , 82-H ) :   0.9941 B( 48-C , 49-C ) :   1.1669 B( 48-C , 83-H ) :   1.0007
B( 49-C , 50-S ) :   1.0753 B( 49-C , 51-C ) :   1.5264 B( 51-C , 52-C ) :   1.2015
B( 51-C , 84-H ) :   0.9597 B( 52-C , 53-C ) :   1.5574 B( 52-C , 85-H ) :   0.9434
B( 53-C , 54-C ) :   1.0780 B( 53-C , 62-C ) :   0.9565 B( 54-C , 55-C ) :   1.6107
B( 54-C , 60-C ) :   1.0076 B( 55-C , 56-C ) :   1.1326 B( 55-C , 58-C ) :   1.1616
B( 56-C , 57-N ) :   2.9791 B( 58-C , 59-N ) :   3.0140 B( 60-C , 61-C ) :   1.2741
B( 60-C , 67-C ) :   1.4202 B( 61-C , 62-C ) :   0.9189 B( 61-C , 64-C ) :   1.4286
B( 62-C , 63-O ) :   2.2567 B( 64-C , 65-C ) :   1.2453 B( 64-C , 86-H ) :   1.0177
B( 65-C , 66-C ) :   1.3142 B( 65-C , 70-C ) :   1.1621 B( 66-C , 67-C ) :   1.3188
B( 66-C , 68-S ) :   1.0832 B( 67-C , 87-H ) :   0.9832 B( 68-S , 69-C ) :   1.0861
B( 69-C , 70-C ) :   1.6197 B( 69-C , 71-Br) :   1.0164 B( 70-C , 88-H ) :   1.0008

-----------------------------------------------------------------------------
         ABSORPTION SPECTRUM VIA TRANSITION ELECTRIC DIPOLE MOMENTS
-----------------------------------------------------------------------------
State   Energy  Wavelength   fosc         T2         TX        TY        TZ
        (cm-1)    (nm)                  (au**2)     (au)      (au)      (au)
-----------------------------------------------------------------------------
   0   11024.3    907.1   1.380207800  41.21632   5.38272  -3.07391  -1.67144
   1   16888.4    592.1   0.875760344  17.07148   0.96050   1.22520  -3.82725
   2   20140.8    496.5   0.938858968  15.34617  -0.28676  -1.50183   3.60672
   3   21361.7    468.1   0.300501132   4.63111  -0.39189   1.52535  -1.46658
   4   23530.9    425.0   0.125536699   1.75634   0.47850  -0.31583   1.19483
   5   23618.8    423.4   0.160636687   2.23905   0.57653   0.14654  -1.37302
   6   24930.9    401.1   0.155628895   2.05508  -0.68787  -1.18991   0.40746
   7   25329.8    394.8   0.050204164   0.65250   0.24701  -0.73478  -0.22712
   8   26024.2    384.3   0.206385981   2.61083  -0.74511   1.30332  -0.59749
   9   26490.1    377.5   0.022312024   0.27729  -0.47782  -0.20279   0.08864
  10   27424.5    364.6   0.062453632   0.74971   0.38981   0.76610  -0.10419
  11   27830.1    359.3   0.001649667   0.01951   0.01035  -0.12212  -0.06704
  12   27861.7    358.9   0.011476540   0.13561   0.20366   0.30386  -0.04240
  13   28373.6    352.4   0.126345519   1.46596   0.77362  -0.93138   0.00258
  14   28939.5    345.5   0.017001709   0.19341  -0.02363   0.14520  -0.41445
  15   30088.9    332.3   0.002392208   0.02617  -0.00439   0.11486   0.11385
  16   30254.6    330.5   0.064859691   0.70576  -0.06742   0.57745  -0.60644
  17   30404.3    328.9   0.054414581   0.58919  -0.53182  -0.46116   0.30608
  18   30972.4    322.9   0.010755886   0.11433   0.32034   0.05353   0.09404
  19   31227.7    320.2   0.012130207   0.12788  -0.29613   0.02593  -0.19878
  20   31656.3    315.9   0.089396345   0.92968   0.75842   0.06466   0.59187
  21   31964.1    312.9   0.057850034   0.59582  -0.77070  -0.01291   0.04092
  22   32084.6    311.7   0.378709487   3.88585   1.15431   1.19780  -1.05769
  23   32272.0    309.9   0.423568833   4.32090   1.37850  -1.55584   0.00492
  24   32509.1    307.6   0.300067991   3.03872   0.17963  -1.73173   0.08693
  25   32753.2    305.3   0.220313296   2.21443  -1.42171   0.15544   0.41111
  26   33053.7    302.5   0.015585617   0.15523  -0.27999  -0.27014   0.06215
  27   33208.0    301.1   0.042010129   0.41647   0.54555  -0.16526  -0.30255
  28   33927.4    294.7   0.000485526   0.00471  -0.03742  -0.00376  -0.05742
  29   34108.3    293.2   0.000832977   0.00804   0.04856   0.07001   0.02795
  30   34342.8    291.2   0.147822551   1.41703   0.74475  -0.75597  -0.53934
  31   34763.0    287.7   0.009664168   0.09152  -0.18964  -0.13596  -0.19254
  32   34863.8    286.8   0.001027362   0.00970  -0.09480  -0.01114  -0.02429
  33   35147.8    284.5   0.016534392   0.15487   0.27259   0.07295  -0.27430
  34   35470.7    281.9   0.006614768   0.06139  -0.18826  -0.13409  -0.08928
  35   35500.8    281.7   0.028731526   0.26644   0.18997   0.46128  -0.13254
  36   35868.3    278.8   0.088565946   0.81289   0.09713   0.89584   0.03033
  37   36163.9    276.5   0.061075484   0.55599  -0.24689  -0.68704   0.15169
  38   36639.4    272.9   0.062765985   0.56396   0.48092  -0.31952  -0.48020
  39   36883.1    271.1   0.095559913   0.85295  -0.58691  -0.28554   0.65342
  40   37384.0    267.5   0.002387607   0.02103   0.08866   0.01707  -0.11346
  41   37423.4    267.2   0.059313145   0.52177  -0.04992  -0.34579  -0.63223
  42   37939.1    263.6   0.030350310   0.26336  -0.04676  -0.42346   0.28611
  43   38088.3    262.5   0.038630979   0.33390   0.10222  -0.32840  -0.46434
  44   38262.2    261.4   0.038466119   0.33097  -0.01195   0.54934  -0.17045
  45   38497.8    259.8   0.202572276   1.73228  -0.53533   1.19672   0.11649
  46   38708.7    258.3   0.061867323   0.52617   0.21248   0.03074   0.69288
  47   39116.8    255.6   0.019439241   0.16360  -0.06568  -0.36923  -0.15151
  48   39367.9    254.0   0.087326791   0.73027   0.56654  -0.42039  -0.48226
  49   39615.8    252.4   0.000577337   0.00480   0.06487   0.02308  -0.00755
  50   39847.5    251.0   0.013622346   0.11255  -0.22548  -0.23465  -0.08152
  51   40143.1    249.1   0.049463066   0.40564   0.31158   0.54575  -0.10354

FINAL SINGLE POINT ENERGY    -10283.968710959387

DIPOLE MOMENT
-------------
                                X             Y             Z
Electronic contribution:    -23.36577    -103.57975     128.00929
Nuclear contribution   :     24.87884     102.68425    -131.54921
                        -----------------------------------------
Total Dipole Moment    :      1.51307      -0.89550      -3.53992
                        -----------------------------------------
Magnitude (a.u.)       :      3.95250
Magnitude (Debye)      :     10.04647

Rotational constants in cm-1:     0.000526     0.000192     0.000147
Rotational constants in MHz :    15.764848     5.759357     4.411363

                             ****ORCA TERMINATED NORMALLY****
TOTAL RUN TIME: 0 days 0 hours 11 minutes 52 seconds 961 msec
