                         Program Version 4.2.0 -  RELEASE  -
|  1> # ORCA input file
|  2> # SCF done       -186.379659512066          0.009331675782
|  3> ! CAM-B3LYP def2-SVP def2/J RIJCOSX Grid4 TightSCF
|  4> %maxcore 5000
|  5> %tddft
|  6>     Mode sTDDFT
|  7>     Ethresh 5.0
|  8>     maxcore 5000
|  9> end
| 10>
| 11> %pal
| 12>   nprocs 6
| 13>   end
| 14> * xyz 0 1
| 15>    C       -8.51769        -4.28124        -0.43302
| 16>    C       -9.88251        -4.29141        -0.57526
| 17>    C      -10.77824        -4.58262         0.47642
| 18>    N      -11.55045        -4.83586         1.28581
| 19>    C      -10.58657        -4.07800        -1.77845
| 20>    N      -11.22944        -3.92429        -2.71845
| 21>    C       -7.80912        -4.55729         0.81423
| 22>    C       -6.42825        -4.67894         0.53118
| 23>    C       -5.50389        -5.00239         1.49535
| 24>    C       -5.96179        -5.17382         2.80656
| 25>    C       -7.33133        -4.97874         3.08876
| 26>    C       -8.27170        -4.68051         2.10890
| 27>    S       -7.67281        -5.19275         4.78129
| 28>    C       -5.99659        -5.57232         5.07478
| 29>    C       -5.21788        -5.52397         3.96860
| 30>   Br       -5.44369        -6.04115         6.79845
| 31>    C       -6.19130        -4.34683        -0.88690
| 32>    O       -5.12148        -4.36617        -1.46703
| 33>    C       -7.51862        -4.03356        -1.45706
| 34>    C       -7.76781        -3.62190        -2.74003
| 35>    C       -6.85455        -3.13712        -3.71087
| 36>    S       -7.21544        -3.42685        -5.39686
| 37>    C       -5.73833        -2.69765        -5.87644
| 38>    C       -5.00630        -2.22168        -4.83160
| 39>    C       -3.70018        -1.51246        -4.96328
| 40>    C       -5.65364        -2.43487        -3.58276
| 41>    C       -5.17653        -1.96072        -2.31660
| 42>    C       -6.01859        -1.47319        -1.36694
| 43>    C       -5.76469        -1.38080         0.01953
| 44>    C       -4.64268        -1.86359         0.63746
| 45>    C       -4.55138        -2.06467         2.01847
| 46>    C       -5.54772        -1.95133         2.99837
| 47>    C       -5.10301        -2.25575         4.33438
| 48>    N       -5.90764        -2.12621         5.37326
| 49>    C       -7.17132        -1.76242         5.13627
| 50>    C       -8.06358        -1.50845         6.26829
| 51>    O       -7.71357        -1.59259         7.44441
| 52>    C       -9.43082        -1.10162         5.90624
| 53>    C       -9.89624        -1.03693         4.65046
| 54>    C       -9.06773        -1.34212         3.48300
| 55>    O       -9.50143        -1.37365         2.34505
| 56>    C       -7.63859        -1.60093         3.79715
| 57>    N       -6.83021        -1.67251         2.76091
| 58>    C       -3.75312        -2.69236         4.37693
| 59>    S       -3.08041        -2.64944         2.75650
| 60>    C       -2.96762        -3.15219         5.41032
| 61>    C       -3.24649        -3.23888         6.77167
| 62>    C       -2.33334        -3.81188         7.68098
| 63>    C       -2.74745        -3.77179         8.98228
| 64>    C       -3.99733        -3.15013         9.13773
| 65>    S       -4.66321        -2.65847         7.59357
| 66>    C       -4.64315        -2.86508        10.33606
| 67>    C       -4.19369        -3.16518        11.64509
| 68>    C       -4.99520        -2.65279        12.61524
| 69>    C       -6.11660        -1.92362        12.12339
| 70>    S       -6.13925        -1.99474        10.36741
| 71>    C       -6.92882        -1.15276        12.90948
| 72>    C       -7.99196        -0.29783        12.49339
| 73>    C       -8.33255         0.83116        13.26294
| 74>    O       -7.62175         0.94342        14.41055
| 75>    C       -7.72333         2.03673        15.29595
| 76>    C       -9.30625         1.76481        12.78971
| 77>    O       -9.53175         2.86294        13.57685
| 78>    C      -10.40577         3.86103        13.11117
| 79>    C       -9.95756         1.56941        11.59238
| 80>    C       -9.69681         0.41369        10.84730
| 81>    C       -8.72192        -0.52722        11.30129
| 82>    N       -8.64619        -1.58777        10.50142
| 83>    S       -9.64367        -1.38686         9.26797
| 84>    N      -10.27277         0.02387         9.70451
| 85>    H       -4.45939        -5.11877         1.24848
| 86>    H       -9.30589        -4.54804         2.36831
| 87>    H       -4.16292        -5.73604         3.96867
| 88>    H       -8.79084        -3.68792        -3.09559
| 89>    H       -5.48867        -2.65653        -6.91970
| 90>    H       -3.40285        -1.44453        -6.00572
| 91>    H       -2.92766        -2.04671        -4.41140
| 92>    H       -3.77483        -0.50655        -4.55042
| 93>    H       -4.11352        -2.03437        -2.13899
| 94>    H       -7.03589        -1.25141        -1.66626
| 95>    H       -6.57578        -1.03563         0.64458
| 96>    H       -3.78824        -2.16695         0.04963
| 97>    H      -10.07181        -0.85453         6.74237
| 98>    H      -10.91616        -0.74684         4.44187
| 99>    H       -1.98124        -3.49713         5.12434
|100>    H       -1.39880        -4.23278         7.35402
|101>    H       -2.18181        -4.16125         9.80828
|102>    H       -3.29939        -3.73234        11.83274
|103>    H       -4.81239        -2.74663        13.67208
|104>    H       -6.67693        -1.10773        13.96129
|105>    H       -7.02421         1.80397        16.09987
|106>    H       -8.72837         2.13801        15.70491
|107>    H       -7.42789         2.96972        14.81668
|108>    H      -10.06430         4.28494        12.16169
|109>    H      -10.39224         4.63597        13.87683
|110>    H      -11.42678         3.48467        12.99681
|111>    H      -10.67532         2.27408        11.21333
|112> *
|113>
|114>                          ****END OF INPUT****

CARTESIAN COORDINATES (ANGSTROEM)
---------------------------------
  C     -8.517690   -4.281240   -0.433020
  C     -9.882510   -4.291410   -0.575260
  C    -10.778240   -4.582620    0.476420
  N    -11.550450   -4.835860    1.285810
  C    -10.586570   -4.078000   -1.778450
  N    -11.229440   -3.924290   -2.718450
  C     -7.809120   -4.557290    0.814230
  C     -6.428250   -4.678940    0.531180
  C     -5.503890   -5.002390    1.495350
  C     -5.961790   -5.173820    2.806560
  C     -7.331330   -4.978740    3.088760
  C     -8.271700   -4.680510    2.108900
  S     -7.672810   -5.192750    4.781290
  C     -5.996590   -5.572320    5.074780
  C     -5.217880   -5.523970    3.968600
  Br    -5.443690   -6.041150    6.798450
  C     -6.191300   -4.346830   -0.886900
  O     -5.121480   -4.366170   -1.467030
  C     -7.518620   -4.033560   -1.457060
  C     -7.767810   -3.621900   -2.740030
  C     -6.854550   -3.137120   -3.710870
  S     -7.215440   -3.426850   -5.396860
  C     -5.738330   -2.697650   -5.876440
  C     -5.006300   -2.221680   -4.831600
  C     -3.700180   -1.512460   -4.963280
  C     -5.653640   -2.434870   -3.582760
  C     -5.176530   -1.960720   -2.316600
  C     -6.018590   -1.473190   -1.366940
  C     -5.764690   -1.380800    0.019530
  C     -4.642680   -1.863590    0.637460
  C     -4.551380   -2.064670    2.018470
  C     -5.547720   -1.951330    2.998370
  C     -5.103010   -2.255750    4.334380
  N     -5.907640   -2.126210    5.373260
  C     -7.171320   -1.762420    5.136270
  C     -8.063580   -1.508450    6.268290
  O     -7.713570   -1.592590    7.444410
  C     -9.430820   -1.101620    5.906240
  C     -9.896240   -1.036930    4.650460
  C     -9.067730   -1.342120    3.483000
  O     -9.501430   -1.373650    2.345050
  C     -7.638590   -1.600930    3.797150
  N     -6.830210   -1.672510    2.760910
  C     -3.753120   -2.692360    4.376930
  S     -3.080410   -2.649440    2.756500
  C     -2.967620   -3.152190    5.410320
  C     -3.246490   -3.238880    6.771670
  C     -2.333340   -3.811880    7.680980
  C     -2.747450   -3.771790    8.982280
  C     -3.997330   -3.150130    9.137730
  S     -4.663210   -2.658470    7.593570
  C     -4.643150   -2.865080   10.336060
  C     -4.193690   -3.165180   11.645090
  C     -4.995200   -2.652790   12.615240
  C     -6.116600   -1.923620   12.123390
  S     -6.139250   -1.994740   10.367410
  C     -6.928820   -1.152760   12.909480
  C     -7.991960   -0.297830   12.493390
  C     -8.332550    0.831160   13.262940
  O     -7.621750    0.943420   14.410550
  C     -7.723330    2.036730   15.295950
  C     -9.306250    1.764810   12.789710
  O     -9.531750    2.862940   13.576850
  C    -10.405770    3.861030   13.111170
  C     -9.957560    1.569410   11.592380
  C     -9.696810    0.413690   10.847300
  C     -8.721920   -0.527220   11.301290
  N     -8.646190   -1.587770   10.501420
  S     -9.643670   -1.386860    9.267970
  N    -10.272770    0.023870    9.704510
  H     -4.459390   -5.118770    1.248480
  H     -9.305890   -4.548040    2.368310
  H     -4.162920   -5.736040    3.968670
  H     -8.790840   -3.687920   -3.095590
  H     -5.488670   -2.656530   -6.919700
  H     -3.402850   -1.444530   -6.005720
  H     -2.927660   -2.046710   -4.411400
  H     -3.774830   -0.506550   -4.550420
  H     -4.113520   -2.034370   -2.138990
  H     -7.035890   -1.251410   -1.666260
  H     -6.575780   -1.035630    0.644580
  H     -3.788240   -2.166950    0.049630
  H    -10.071810   -0.854530    6.742370
  H    -10.916160   -0.746840    4.441870
  H     -1.981240   -3.497130    5.124340
  H     -1.398800   -4.232780    7.354020
  H     -2.181810   -4.161250    9.808280
  H     -3.299390   -3.732340   11.832740
  H     -4.812390   -2.746630   13.672080
  H     -6.676930   -1.107730   13.961290
  H     -7.024210    1.803970   16.099870
  H     -8.728370    2.138010   15.704910
  H     -7.427890    2.969720   14.816680
  H    -10.064300    4.284940   12.161690
  H    -10.392240    4.635970   13.876830
  H    -11.426780    3.484670   12.996810
  H    -10.675320    2.274080   11.213330

 Total Charge           Charge          ....    0
 Multiplicity           Mult            ....    1
 Number of Electrons    NEL             ....  552
 Basis Dimension        Dim             .... 1157

ORBITAL ENERGIES
----------------

  NO   OCC          E(Eh)            E(eV)
   0   2.0000    -482.870999    -13139.5879
   1   2.0000     -89.011401     -2422.1234
   2   2.0000     -88.963390     -2420.8169
   3   2.0000     -88.961007     -2420.7521
   4   2.0000     -88.947067     -2420.3727
   5   2.0000     -88.944578     -2420.3050
   6   2.0000     -88.943571     -2420.2776
   7   2.0000     -62.548324     -1702.0264
   8   2.0000     -56.382305     -1534.2405
   9   2.0000     -56.379595     -1534.1668
  10   2.0000     -56.379506     -1534.1644
  11   2.0000     -19.264322      -524.2089
  12   2.0000     -19.261592      -524.1346
  13   2.0000     -19.213137      -522.8160
  14   2.0000     -19.210956      -522.7567
  15   2.0000     -19.192015      -522.2413
  16   2.0000     -14.434208      -392.7748
  17   2.0000     -14.424544      -392.5118
  18   2.0000     -14.423087      -392.4722
  19   2.0000     -14.421758      -392.4360
  20   2.0000     -14.397882      -391.7863
  21   2.0000     -14.393944      -391.6791
  22   2.0000     -10.361988      -281.9640
  23   2.0000     -10.360503      -281.9236
  24   2.0000     -10.359546      -281.8976
  25   2.0000     -10.356486      -281.8143
  26   2.0000     -10.342324      -281.4290
  27   2.0000     -10.342190      -281.4253
  28   2.0000     -10.338003      -281.3114
  29   2.0000     -10.325729      -280.9774
  30   2.0000     -10.321456      -280.8611
  31   2.0000     -10.321049      -280.8500
  32   2.0000     -10.320282      -280.8292
  33   2.0000     -10.318299      -280.7752
  34   2.0000     -10.317565      -280.7552
  35   2.0000     -10.315907      -280.7101
  36   2.0000     -10.314465      -280.6709
  37   2.0000     -10.312499      -280.6174
  38   2.0000     -10.312270      -280.6111
  39   2.0000     -10.311276      -280.5841
  40   2.0000     -10.311210      -280.5823
  41   2.0000     -10.307943      -280.4934
  42   2.0000     -10.306924      -280.4657
  43   2.0000     -10.303599      -280.3752
  44   2.0000     -10.301127      -280.3079
  45   2.0000     -10.298483      -280.2360
  46   2.0000     -10.297957      -280.2217
  47   2.0000     -10.297825      -280.2181
  48   2.0000     -10.295888      -280.1654
  49   2.0000     -10.295134      -280.1448
  50   2.0000     -10.293624      -280.1038
  51   2.0000     -10.293517      -280.1008
  52   2.0000     -10.293122      -280.0901
  53   2.0000     -10.290849      -280.0282
  54   2.0000     -10.289996      -280.0050
  55   2.0000     -10.289875      -280.0017
  56   2.0000     -10.287641      -279.9409
  57   2.0000     -10.286255      -279.9032
  58   2.0000     -10.286152      -279.9004
  59   2.0000     -10.285792      -279.8906
  60   2.0000     -10.284473      -279.8547
  61   2.0000     -10.283889      -279.8389
  62   2.0000     -10.281790      -279.7817
  63   2.0000     -10.281596      -279.7764
  64   2.0000     -10.277538      -279.6660
  65   2.0000     -10.277386      -279.6619
  66   2.0000     -10.275275      -279.6044
  67   2.0000     -10.273314      -279.5511
  68   2.0000     -10.273099      -279.5452
  69   2.0000     -10.271848      -279.5112
  70   2.0000     -10.263221      -279.2764
  71   2.0000     -10.261720      -279.2356
  72   2.0000     -10.258976      -279.1609
  73   2.0000     -10.255312      -279.0612
  74   2.0000      -8.777660      -238.8523
  75   2.0000      -8.102038      -220.4677
  76   2.0000      -8.058503      -219.2830
  77   2.0000      -8.056289      -219.2228
  78   2.0000      -8.043025      -218.8618
  79   2.0000      -8.038648      -218.7427
  80   2.0000      -8.038365      -218.7350
  81   2.0000      -6.613884      -179.9729
  82   2.0000      -6.599367      -179.5779
  83   2.0000      -6.599308      -179.5763
  84   2.0000      -6.073126      -165.2582
  85   2.0000      -6.065339      -165.0463
  86   2.0000      -6.064789      -165.0313
  87   2.0000      -6.027657      -164.0209
  88   2.0000      -6.026048      -163.9771
  89   2.0000      -6.023904      -163.9188
  90   2.0000      -6.021788      -163.8612
  91   2.0000      -6.020585      -163.8284
  92   2.0000      -6.017526      -163.7452
  93   2.0000      -6.012294      -163.6028
  94   2.0000      -6.008390      -163.4966
  95   2.0000      -6.008078      -163.4881
  96   2.0000      -6.007935      -163.4842
  97   2.0000      -6.005225      -163.4105
  98   2.0000      -6.003916      -163.3749
  99   2.0000      -6.003594      -163.3661
 100   2.0000      -5.999902      -163.2656
 101   2.0000      -5.999798      -163.2628
 102   2.0000      -2.729836       -74.2826
 103   2.0000      -2.725641       -74.1685
 104   2.0000      -2.725632       -74.1682
 105   2.0000      -2.714080       -73.8539
 106   2.0000      -2.714059       -73.8533
 107   2.0000      -1.176166       -32.0051
 108   2.0000      -1.154806       -31.4239
 109   2.0000      -1.125718       -30.6323
 110   2.0000      -1.120580       -30.4925
 111   2.0000      -1.112406       -30.2701
 112   2.0000      -1.105664       -30.0866
 113   2.0000      -1.079324       -29.3699
 114   2.0000      -1.006629       -27.3918
 115   2.0000      -1.004386       -27.3307
 116   2.0000      -0.995659       -27.0932
 117   2.0000      -0.995021       -27.0759
 118   2.0000      -0.980778       -26.6883
 119   2.0000      -0.979869       -26.6636
 120   2.0000      -0.975230       -26.5374
 121   2.0000      -0.973112       -26.4797
 122   2.0000      -0.968667       -26.3588
 123   2.0000      -0.963929       -26.2298
 124   2.0000      -0.955738       -26.0070
 125   2.0000      -0.925494       -25.1840
 126   2.0000      -0.924519       -25.1574
 127   2.0000      -0.905671       -24.6446
 128   2.0000      -0.894945       -24.3527
 129   2.0000      -0.890765       -24.2389
 130   2.0000      -0.885802       -24.1039
 131   2.0000      -0.881704       -23.9924
 132   2.0000      -0.867472       -23.6051
 133   2.0000      -0.865435       -23.5497
 134   2.0000      -0.863146       -23.4874
 135   2.0000      -0.856447       -23.3051
 136   2.0000      -0.854156       -23.2428
 137   2.0000      -0.847748       -23.0684
 138   2.0000      -0.841755       -22.9053
 139   2.0000      -0.830586       -22.6014
 140   2.0000      -0.821027       -22.3413
 141   2.0000      -0.814767       -22.1709
 142   2.0000      -0.810972       -22.0677
 143   2.0000      -0.809071       -22.0159
 144   2.0000      -0.795900       -21.6575
 145   2.0000      -0.788492       -21.4559
 146   2.0000      -0.782254       -21.2862
 147   2.0000      -0.770927       -20.9780
 148   2.0000      -0.768657       -20.9162
 149   2.0000      -0.758125       -20.6296
 150   2.0000      -0.741905       -20.1883
 151   2.0000      -0.741172       -20.1683
 152   2.0000      -0.734314       -19.9817
 153   2.0000      -0.725337       -19.7374
 154   2.0000      -0.712388       -19.3851
 155   2.0000      -0.700839       -19.0708
 156   2.0000      -0.691832       -18.8257
 157   2.0000      -0.689474       -18.7615
 158   2.0000      -0.678308       -18.4577
 159   2.0000      -0.671212       -18.2646
 160   2.0000      -0.670954       -18.2576
 161   2.0000      -0.666770       -18.1437
 162   2.0000      -0.661479       -17.9998
 163   2.0000      -0.652709       -17.7611
 164   2.0000      -0.644809       -17.5461
 165   2.0000      -0.640948       -17.4411
 166   2.0000      -0.640250       -17.4221
 167   2.0000      -0.633089       -17.2272
 168   2.0000      -0.628890       -17.1130
 169   2.0000      -0.624406       -16.9909
 170   2.0000      -0.617715       -16.8089
 171   2.0000      -0.615408       -16.7461
 172   2.0000      -0.615176       -16.7398
 173   2.0000      -0.611505       -16.6399
 174   2.0000      -0.605994       -16.4899
 175   2.0000      -0.600701       -16.3459
 176   2.0000      -0.595544       -16.2056
 177   2.0000      -0.589669       -16.0457
 178   2.0000      -0.585578       -15.9344
 179   2.0000      -0.579288       -15.7632
 180   2.0000      -0.579164       -15.7598
 181   2.0000      -0.571778       -15.5589
 182   2.0000      -0.560666       -15.2565
 183   2.0000      -0.559581       -15.2270
 184   2.0000      -0.554902       -15.0997
 185   2.0000      -0.554043       -15.0763
 186   2.0000      -0.552622       -15.0376
 187   2.0000      -0.549577       -14.9548
 188   2.0000      -0.546935       -14.8828
 189   2.0000      -0.539140       -14.6707
 190   2.0000      -0.537102       -14.6153
 191   2.0000      -0.533916       -14.5286
 192   2.0000      -0.532075       -14.4785
 193   2.0000      -0.528280       -14.3752
 194   2.0000      -0.524726       -14.2785
 195   2.0000      -0.522704       -14.2235
 196   2.0000      -0.520911       -14.1747
 197   2.0000      -0.517795       -14.0899
 198   2.0000      -0.514909       -14.0114
 199   2.0000      -0.511747       -13.9253
 200   2.0000      -0.509426       -13.8622
 201   2.0000      -0.508263       -13.8305
 202   2.0000      -0.504791       -13.7361
 203   2.0000      -0.501906       -13.6576
 204   2.0000      -0.500172       -13.6104
 205   2.0000      -0.497529       -13.5385
 206   2.0000      -0.495815       -13.4918
 207   2.0000      -0.494460       -13.4549
 208   2.0000      -0.492124       -13.3914
 209   2.0000      -0.490626       -13.3506
 210   2.0000      -0.485213       -13.2033
 211   2.0000      -0.484119       -13.1735
 212   2.0000      -0.482529       -13.1303
 213   2.0000      -0.482197       -13.1213
 214   2.0000      -0.481208       -13.0943
 215   2.0000      -0.476883       -12.9767
 216   2.0000      -0.475087       -12.9278
 217   2.0000      -0.472661       -12.8618
 218   2.0000      -0.468015       -12.7353
 219   2.0000      -0.464623       -12.6430
 220   2.0000      -0.461592       -12.5605
 221   2.0000      -0.460048       -12.5185
 222   2.0000      -0.453827       -12.3493
 223   2.0000      -0.451544       -12.2871
 224   2.0000      -0.448978       -12.2173
 225   2.0000      -0.445268       -12.1163
 226   2.0000      -0.444824       -12.1043
 227   2.0000      -0.442394       -12.0381
 228   2.0000      -0.441085       -12.0025
 229   2.0000      -0.437977       -11.9180
 230   2.0000      -0.437728       -11.9112
 231   2.0000      -0.436053       -11.8656
 232   2.0000      -0.432708       -11.7746
 233   2.0000      -0.431118       -11.7313
 234   2.0000      -0.429592       -11.6898
 235   2.0000      -0.425883       -11.5889
 236   2.0000      -0.424944       -11.5633
 237   2.0000      -0.422387       -11.4937
 238   2.0000      -0.420355       -11.4384
 239   2.0000      -0.419243       -11.4082
 240   2.0000      -0.416342       -11.3293
 241   2.0000      -0.409261       -11.1366
 242   2.0000      -0.407505       -11.0888
 243   2.0000      -0.406094       -11.0504
 244   2.0000      -0.404047       -10.9947
 245   2.0000      -0.397156       -10.8072
 246   2.0000      -0.392174       -10.6716
 247   2.0000      -0.391568       -10.6551
 248   2.0000      -0.389519       -10.5994
 249   2.0000      -0.385600       -10.4927
 250   2.0000      -0.383492       -10.4353
 251   2.0000      -0.376890       -10.2557
 252   2.0000      -0.371150       -10.0995
 253   2.0000      -0.366062        -9.9610
 254   2.0000      -0.361010        -9.8236
 255   2.0000      -0.359888        -9.7931
 256   2.0000      -0.357731        -9.7344
 257   2.0000      -0.353713        -9.6250
 258   2.0000      -0.349213        -9.5026
 259   2.0000      -0.346637        -9.4325
 260   2.0000      -0.336341        -9.1523
 261   2.0000      -0.332923        -9.0593
 262   2.0000      -0.330824        -9.0022
 263   2.0000      -0.327503        -8.9118
 264   2.0000      -0.322124        -8.7654
 265   2.0000      -0.317376        -8.6362
 266   2.0000      -0.311784        -8.4841
 267   2.0000      -0.308100        -8.3838
 268   2.0000      -0.301024        -8.1913
 269   2.0000      -0.295046        -8.0286
 270   2.0000      -0.286225        -7.7886
 271   2.0000      -0.281490        -7.6597
 272   2.0000      -0.276264        -7.5175
 273   2.0000      -0.262469        -7.1422
 274   2.0000      -0.243568        -6.6278
 275   2.0000      -0.197088        -5.3630
 276   0.0000      -0.100299        -2.7293
 277   0.0000      -0.085748        -2.3333
 278   0.0000      -0.069198        -1.8830
 279   0.0000      -0.055238        -1.5031
 280   0.0000      -0.040810        -1.1105

MULLIKEN ATOMIC CHARGES
-----------------------
   0 C :    0.320030
   1 C :   -0.344578
   2 C :   -0.180592
   3 N :    0.138196
   4 C :   -0.191048
   5 N :    0.140167
   6 C :    0.029720
   7 C :    0.001187
   8 C :   -0.057897
   9 C :    0.093091
  10 C :   -0.103110
  11 C :   -0.020008
  12 S :    0.158806
  13 C :   -0.133049
  14 C :    0.066279
  15 Br:    0.021306
  16 C :    0.142308
  17 O :   -0.164190
  18 C :   -0.076843
  19 C :   -0.009817
  20 C :   -0.182941
  21 S :    0.133768
  22 C :   -0.113614
  23 C :   -0.088271
  24 C :    0.119478
  25 C :    0.165047
  26 C :   -0.016757
  27 C :    0.015694
  28 C :   -0.034029
  29 C :    0.053300
  30 C :   -0.139034
  31 C :    0.018407
  32 C :    0.057034
  33 N :    0.033474
  34 C :   -0.061614
  35 C :    0.149414
  36 O :   -0.179323
  37 C :   -0.020930
  38 C :   -0.030125
  39 C :    0.152535
  40 O :   -0.123219
  41 C :   -0.146908
  42 N :    0.052769
  43 C :   -0.125832
  44 S :    0.135365
  45 C :   -0.041195
  46 C :   -0.004169
  47 C :    0.011459
  48 C :    0.037542
  49 C :   -0.059760
  50 S :    0.176094
  51 C :   -0.031821
  52 C :    0.025266
  53 C :    0.044926
  54 C :   -0.007086
  55 S :    0.168437
  56 C :   -0.033934
  57 C :   -0.011808
  58 C :    0.145939
  59 O :   -0.308193
  60 C :    0.210555
  61 C :    0.211629
  62 O :   -0.336130
  63 C :    0.178553
  64 C :   -0.198407
  65 C :    0.095364
  66 C :    0.002600
  67 N :   -0.306148
  68 S :    0.529706
  69 N :   -0.280937
  70 H :   -0.025635
  71 H :   -0.011824
  72 H :   -0.014057
  73 H :    0.016966
  74 H :    0.020315
  75 H :    0.006847
  76 H :    0.031085
  77 H :    0.031557
  78 H :   -0.000952
  79 H :    0.002266
  80 H :    0.013041
  81 H :   -0.027206
  82 H :    0.003355
  83 H :    0.015245
  84 H :   -0.026813
  85 H :   -0.018697
  86 H :   -0.018176
  87 H :   -0.014605
  88 H :   -0.005556
  89 H :    0.003497
  90 H :    0.028710
  91 H :    0.026133
  92 H :    0.022625
  93 H :    0.029902
  94 H :    0.040230
  95 H :    0.031397
  96 H :   -0.031775
Sum of atomic charges:   -0.0000000

LOEWDIN ATOMIC CHARGES
----------------------
   0 C :    0.084478
   1 C :   -0.143224
   2 C :   -0.013843
   3 N :   -0.064719
   4 C :   -0.019573
   5 N :   -0.060130
   6 C :   -0.013399
   7 C :   -0.042929
   8 C :    0.016196
   9 C :   -0.038464
  10 C :   -0.153318
  11 C :   -0.009226
  12 S :    0.422171
  13 C :   -0.277592
  14 C :   -0.070528
  15 Br:    0.140642
  16 C :    0.079210
  17 O :   -0.151439
  18 C :   -0.097879
  19 C :    0.051272
  20 C :   -0.184185
  21 S :    0.443204
  22 C :   -0.173178
  23 C :   -0.058590
  24 C :   -0.043478
  25 C :   -0.017494
  26 C :   -0.016796
  27 C :   -0.020699
  28 C :   -0.028592
  29 C :   -0.024980
  30 C :   -0.188445
  31 C :   -0.039865
  32 C :   -0.046911
  33 N :   -0.010907
  34 C :   -0.075097
  35 C :    0.056135
  36 O :   -0.166199
  37 C :   -0.018675
  38 C :   -0.013230
  39 C :    0.055797
  40 O :   -0.112448
  41 C :   -0.036955
  42 N :   -0.000740
  43 C :   -0.149366
  44 S :    0.445917
  45 C :   -0.099754
  46 C :   -0.131506
  47 C :   -0.054797
  48 C :   -0.021789
  49 C :   -0.214022
  50 S :    0.484206
  51 C :   -0.149193
  52 C :   -0.046789
  53 C :   -0.006180
  54 C :   -0.149923
  55 S :    0.466514
  56 C :   -0.004646
  57 C :   -0.074902
  58 C :    0.067541
  59 O :   -0.089265
  60 C :    0.080341
  61 C :    0.033558
  62 O :   -0.101261
  63 C :    0.078105
  64 C :   -0.067607
  65 C :   -0.061588
  66 C :   -0.056772
  67 N :   -0.308711
  68 S :    0.697409
  69 N :   -0.304040
  70 H :    0.031728
  71 H :    0.037544
  72 H :    0.034231
  73 H :    0.043034
  74 H :    0.023886
  75 H :    0.031714
  76 H :    0.037201
  77 H :    0.038071
  78 H :    0.027410
  79 H :    0.032146
  80 H :    0.031860
  81 H :    0.025297
  82 H :    0.027834
  83 H :    0.044886
  84 H :    0.031767
  85 H :    0.029621
  86 H :    0.029000
  87 H :    0.030284
  88 H :    0.034979
  89 H :    0.037858
  90 H :    0.023123
  91 H :    0.016399
  92 H :    0.016372
  93 H :    0.019143
  94 H :    0.030319
  95 H :    0.018993
  96 H :    0.038439

  Mayer bond orders larger than 0.100000
B(  0-C ,  1-C ) :   1.6220 B(  0-C ,  6-C ) :   0.9914 B(  0-C , 18-C ) :   1.0835
B(  1-C ,  2-C ) :   1.1394 B(  1-C ,  4-C ) :   1.1475 B(  2-C ,  3-N ) :   2.9732
B(  4-C ,  5-N ) :   2.9587 B(  6-C ,  7-C ) :   1.2812 B(  6-C , 11-C ) :   1.4175
B(  7-C ,  8-C ) :   1.4149 B(  7-C , 16-C ) :   0.9361 B(  8-C ,  9-C ) :   1.2517
B(  8-C , 70-H ) :   1.0125 B(  9-C , 10-C ) :   1.3189 B(  9-C , 14-C ) :   1.1702
B( 10-C , 11-C ) :   1.3094 B( 10-C , 12-S ) :   1.0767 B( 11-C , 71-H ) :   0.9758
B( 12-S , 13-C ) :   1.0822 B( 13-C , 14-C ) :   1.6135 B( 13-C , 15-Br) :   1.0208
B( 14-C , 72-H ) :   0.9945 B( 16-C , 17-O ) :   2.1795 B( 16-C , 18-C ) :   0.9567
B( 18-C , 19-C ) :   1.5880 B( 19-C , 20-C ) :   1.1704 B( 19-C , 73-H ) :   0.9187
B( 20-C , 21-S ) :   1.1130 B( 20-C , 25-C ) :   1.4199 B( 21-S , 22-C ) :   1.1654
B( 22-C , 23-C ) :   1.5550 B( 22-C , 74-H ) :   0.9671 B( 23-C , 24-C ) :   1.0969
B( 23-C , 25-C ) :   1.2585 B( 24-C , 75-H ) :   0.9504 B( 24-C , 76-H ) :   0.9437
B( 24-C , 77-H ) :   0.9443 B( 25-C , 26-C ) :   1.1058 B( 26-C , 27-C ) :   1.7000
B( 26-C , 78-H ) :   0.9275 B( 27-C , 28-C ) :   1.1793 B( 27-C , 79-H ) :   0.9640
B( 28-C , 29-C ) :   1.5922 B( 28-C , 80-H ) :   0.9638 B( 29-C , 30-C ) :   1.2327
B( 29-C , 81-H ) :   0.9390 B( 30-C , 31-C ) :   1.3275 B( 30-C , 44-S ) :   1.0662
B( 31-C , 32-C ) :   1.1616 B( 31-C , 42-N ) :   1.4309 B( 32-C , 33-N ) :   1.5191
B( 32-C , 43-C ) :   1.1783 B( 33-N , 34-C ) :   1.5537 B( 34-C , 35-C ) :   0.9952
B( 34-C , 41-C ) :   1.1289 B( 35-C , 36-O ) :   2.0685 B( 35-C , 37-C ) :   1.0150
B( 37-C , 38-C ) :   1.6896 B( 37-C , 82-H ) :   0.9908 B( 38-C , 39-C ) :   1.0231
B( 38-C , 83-H ) :   0.9956 B( 39-C , 40-O ) :   2.2045 B( 39-C , 41-C ) :   0.8995
B( 41-C , 42-N ) :   1.6839 B( 43-C , 44-S ) :   1.1358 B( 43-C , 45-C ) :   1.3561
B( 45-C , 46-C ) :   1.4089 B( 45-C , 84-H ) :   0.9388 B( 46-C , 47-C ) :   1.2042
B( 46-C , 50-S ) :   1.1136 B( 47-C , 48-C ) :   1.5091 B( 47-C , 85-H ) :   1.0034
B( 48-C , 49-C ) :   1.2353 B( 48-C , 86-H ) :   0.9941 B( 49-C , 50-S ) :   1.0195
B( 49-C , 51-C ) :   1.4253 B( 51-C , 52-C ) :   1.1797 B( 51-C , 55-S ) :   1.1170
B( 52-C , 53-C ) :   1.5885 B( 52-C , 87-H ) :   0.9940 B( 53-C , 54-C ) :   1.1339
B( 53-C , 88-H ) :   0.9992 B( 54-C , 55-S ) :   1.0251 B( 54-C , 56-C ) :   1.5958
B( 56-C , 57-C ) :   1.1291 B( 56-C , 89-H ) :   0.9525 B( 57-C , 58-C ) :   1.4198
B( 57-C , 64-C ) :   0.1090 B( 57-C , 66-C ) :   1.1830 B( 58-C , 59-O ) :   1.2315
B( 58-C , 61-C ) :   1.1771 B( 59-O , 60-C ) :   0.9265 B( 60-C , 90-H ) :   0.9760
B( 60-C , 91-H ) :   0.9753 B( 60-C , 92-H ) :   0.9759 B( 61-C , 62-O ) :   1.1201
B( 61-C , 64-C ) :   1.3756 B( 62-O , 63-C ) :   0.9570 B( 63-C , 93-H ) :   0.9688
B( 63-C , 94-H ) :   0.9771 B( 63-C , 95-H ) :   0.9687 B( 64-C , 65-C ) :   1.1434
B( 64-C , 96-H ) :   1.0391 B( 65-C , 66-C ) :   1.1859 B( 65-C , 69-N ) :   1.5024
B( 66-C , 67-N ) :   1.4807 B( 67-N , 68-S ) :   1.2845 B( 67-N , 69-N ) :   0.1342
B( 68-S , 69-N ) :   1.2858

-----------------------------------------------------------------------------
         ABSORPTION SPECTRUM VIA TRANSITION ELECTRIC DIPOLE MOMENTS
-----------------------------------------------------------------------------
State   Energy  Wavelength   fosc         T2         TX        TY        TZ
        (cm-1)    (nm)                  (au**2)     (au)      (au)      (au)
-----------------------------------------------------------------------------
   0    7103.7   1407.7   0.531052480  24.61089   0.05985   0.62496   4.92105
   1    8902.2   1123.3   0.033831094   1.25111  -0.44328   0.64133   0.80207
   2   12033.8    831.0   0.033363799   0.91274   0.71347   0.55565   0.30817
   3   15713.2    636.4   0.159485661   3.34143   1.20906  -0.56432  -1.24946
   4   16762.3    596.6   0.260445860   5.11515   1.49780  -0.33420  -1.66134
   5   17540.8    570.1   0.071289248   1.33799   0.83762   0.54790   0.57982
   6   18685.4    535.2   0.130215679   2.29422   1.01775  -1.03064  -0.44294
   7   20187.5    495.4   0.116567288   1.90094  -0.63913   0.01848   1.22152
   8   20939.4    477.6   0.095800289   1.50619   0.33418   0.32132  -1.13634
   9   22007.8    454.4   0.113319858   1.69514   0.59584   0.12933  -1.15039
  10   22170.7    451.0   0.045787001   0.67989  -0.46679  -0.16162   0.66021
  11   22704.3    440.4   0.069597017   1.00916  -0.49848   0.75976  -0.42829
  12   23149.7    432.0   0.046959560   0.66781  -0.68260   0.42397  -0.14872
  13   23734.0    421.3   0.067756363   0.93984   0.69237  -0.52349  -0.43177
  14   24279.8    411.9   0.021670996   0.29384  -0.35904   0.27032   0.30308
  15   24955.7    400.7   0.010555571   0.13925   0.25809  -0.08070   0.25715
  16   25288.6    395.4   0.003969318   0.05167   0.16463   0.15126  -0.04112
  17   25696.5    389.2   0.044356531   0.56828   0.30646   0.32296   0.60832
  18   25949.7    385.4   0.154138383   1.95548   0.04299   0.82209  -1.13040
  19   26098.0    383.2   0.078242830   0.98699  -0.26347   0.28903  -0.91325
  20   26372.8    379.2   0.028174780   0.35171  -0.08004  -0.38554   0.44346
  21   26651.7    375.2   0.020623833   0.25475  -0.05168  -0.07886  -0.49585
  22   26865.5    372.2   0.108514079   1.32974   0.70832  -0.72922   0.54430
  23   27102.7    369.0   0.122847928   1.49221  -1.18470   0.27588  -0.11216
  24   27308.9    366.2   0.014769999   0.17805   0.01859  -0.20986   0.36560
  25   27850.1    359.1   0.071031317   0.83965   0.30295   0.23060  -0.83348
  26   28267.6    353.8   0.068647229   0.79949   0.35541  -0.46649   0.67495
  27   28612.2    349.5   0.389119500   4.47721   0.28744  -0.72035   1.96867
  28   28942.9    345.5   0.105629748   1.20149  -0.22905   0.04771  -1.07086
  29   29153.9    343.0   0.087015461   0.98260   0.89531  -0.26261  -0.33474
  30   29452.0    339.5   0.085734547   0.95833   0.08545  -0.20467  -0.95349
  31   29787.2    335.7   0.014658025   0.16200   0.29418  -0.02396  -0.27365
  32   30342.2    329.6   0.013321870   0.14454   0.02451  -0.22813  -0.30315
  33   31075.6    321.8   0.207899253   2.20247   0.73167  -0.11054   1.28643
  34   31225.8    320.2   0.107228421   1.13051   0.70680  -0.06036   0.79202
  35   31354.6    318.9   0.013109778   0.13765   0.10896  -0.24715   0.25435
  36   31644.5    316.0   0.115281741   1.19933   0.24709  -0.06773   1.06475
  37   31792.0    314.5   0.025426164   0.26329   0.47099  -0.20361  -0.00121
  38   32355.7    309.1   0.160678239   1.63487   0.71318   0.04728   1.06019
  39   32618.8    306.6   0.017057041   0.17215  -0.26039   0.27690   0.16635
  40   32665.6    306.1   0.053995029   0.54418  -0.41879   0.23226  -0.56111
  41   32943.2    303.6   0.088495978   0.88437   0.07291   0.27326   0.89687
  42   33012.4    302.9   0.097604739   0.97335  -0.17866  -0.21802   0.94546
  43   33126.1    301.9   0.015401082   0.15306  -0.26200  -0.05371  -0.28553
  44   33407.7    299.3   0.113118107   1.11471   0.06477   0.07100   1.05141
  45   33513.0    298.4   0.249489229   2.45083   1.17942  -0.72729  -0.72859
  46   33744.7    296.3   0.080749173   0.78778   0.69679   0.32423   0.44402
  47   33854.5    295.4   0.019547353   0.19008   0.19931  -0.38720  -0.02098
  48   34450.3    290.3   0.014435991   0.13795  -0.05569  -0.25543   0.26383
  49   34471.2    290.1   0.050240049   0.47981  -0.48960   0.01389   0.48981
  50   34744.4    287.8   0.019796503   0.18758  -0.42348  -0.06845   0.05963
  51   34868.8    286.8   0.050728244   0.47895   0.48737  -0.34665   0.34821
  52   35083.4    285.0   0.021790546   0.20448  -0.26872   0.09320   0.35154
  53   35164.0    284.4   0.102319427   0.95793  -0.49961   0.15662  -0.82692
  54   35495.5    281.7   0.094092828   0.87269  -0.78321   0.48625   0.15109
  55   35673.4    280.3   0.120544966   1.11245   0.47424  -0.15264   0.92965
  56   35837.5    279.0   0.079219796   0.72773   0.61495  -0.15408  -0.57082
  57   35994.7    277.8   0.090359308   0.82644  -0.05547  -0.22019  -0.88027
  58   36490.1    274.0   0.052077387   0.46984   0.64086   0.22221  -0.09880
  59   36568.2    273.5   0.024007015   0.21613   0.18611  -0.16240   0.39385
  60   36671.5    272.7   0.208350020   1.87042   0.77176  -0.13743  -1.12068
  61   36796.2    271.8   0.005308092   0.04749   0.20968   0.04017  -0.04373
  62   36883.4    271.1   0.011196349   0.09994   0.08947   0.00785   0.30310
  63   37043.2    270.0   0.007273197   0.06464  -0.03371   0.03068  -0.25012
  64   37243.6    268.5   0.001653164   0.01461  -0.07603  -0.08169   0.04646
  65   37370.4    267.6   0.003560571   0.03137  -0.14575  -0.03116   0.09567
  66   37415.5    267.3   0.004556092   0.04009   0.01213  -0.09340  -0.17669
  67   37623.8    265.8   0.039169460   0.34274  -0.57689   0.08521   0.05175
  68   37798.5    264.6   0.053753314   0.46817   0.56435   0.17657   0.34425
  69   37938.4    263.6   0.048970884   0.42495   0.14237  -0.13690   0.62124
  70   38305.9    261.1   0.031444003   0.27024  -0.16090   0.00621  -0.49428
  71   38360.9    260.7   0.048643490   0.41746  -0.22342   0.14934   0.58757
  72   38548.4    259.4   0.026866403   0.22945   0.47165  -0.05496   0.06299
  73   38710.9    258.3   0.026699594   0.22706   0.39730  -0.17631   0.19527
  74   38824.9    257.6   0.063951573   0.54227  -0.27123  -0.07520  -0.68048
  75   38889.7    257.1   0.019314808   0.16351  -0.03540  -0.01287  -0.40260
  76   39015.5    256.3   0.034195879   0.28854   0.06335  -0.44534  -0.29361
  77   39081.0    255.9   0.004939104   0.04161   0.06553   0.15384   0.11681
  78   39200.5    255.1   0.031455062   0.26416  -0.35917   0.36301  -0.05820
  79   39343.0    254.2   0.040053816   0.33516   0.01187   0.16492   0.55482
  80   39458.5    253.4   0.076969225   0.64217  -0.65335  -0.04832   0.46148
  81   39671.5    252.1   0.071189439   0.59076   0.23050  -0.06797  -0.73008
  82   39790.8    251.3   0.004203376   0.03478   0.02562  -0.06924  -0.17125
  83   39855.3    250.9   0.001441243   0.01190   0.00919   0.07739   0.07637
  84   39916.9    250.5   0.016835217   0.13885  -0.36590   0.01128   0.06954
  85   40191.6    248.8   0.007031318   0.05759   0.17453  -0.10344  -0.12819

FINAL SINGLE POINT ENERGY     -7661.213628209078

DIPOLE MOMENT
-------------
                                X             Y             Z
Electronic contribution:      3.78063     -65.73145       6.31775
Nuclear contribution   :     -0.90609      68.12805      -1.47836
                        -----------------------------------------
Total Dipole Moment    :      2.87454       2.39660       4.83940
                        -----------------------------------------
Magnitude (a.u.)       :      6.11772
Magnitude (Debye)      :     15.55001

Rotational constants in cm-1:     0.001823     0.000452     0.000415
Rotational constants in MHz :    54.645882    13.550688    12.442654

                             ****ORCA TERMINATED NORMALLY****
TOTAL RUN TIME: 0 days 0 hours 13 minutes 51 seconds 45 msec
