                         Program Version 4.2.0 -  RELEASE  -
|  1> # ORCA input file
|  2> # SCF done       -171.891119368420          0.000765671747
|  3> ! CAM-B3LYP def2-SVP def2/J RIJCOSX Grid4 TightSCF
|  4> %maxcore 5000
|  5> %tddft
|  6>     Mode sTDDFT
|  7>     Ethresh 5.0
|  8>     maxcore 5000
|  9> end
| 10>
| 11> %pal
| 12>   nprocs 6
| 13>   end
| 14> * xyz 0 1
| 15>    C       -4.98674        -2.43432        -1.79359
| 16>    C       -3.65506        -2.67556        -2.01911
| 17>    C       -3.13891        -3.91815        -2.43968
| 18>    N       -2.66028        -4.90297        -2.78623
| 19>    C       -2.61289        -1.74380        -1.83048
| 20>    N       -1.70190        -1.05821        -1.68856
| 21>    C       -6.05141        -3.42351        -1.88790
| 22>    C       -7.25238        -2.83705        -1.42318
| 23>    C       -8.44428        -3.51840        -1.38732
| 24>    C       -8.45169        -4.84376        -1.83494
| 25>    C       -7.24711        -5.42046        -2.30219
| 26>    C       -6.04121        -4.73178        -2.33593
| 27>    S       -7.48302        -7.06362        -2.81783
| 28>    C       -9.17312        -6.95436        -2.40278
| 29>    C       -9.54394        -5.75181        -1.90355
| 30>   Br      -10.28885        -8.43866        -2.66999
| 31>    C       -7.00094        -1.43569        -1.02217
| 32>    O       -7.83205        -0.66788        -0.58847
| 33>    C       -5.57238        -1.18479        -1.33723
| 34>    C       -4.94553         0.02434        -1.42096
| 35>    C       -5.35055         1.31419        -0.95203
| 36>    C       -4.82045         2.43913        -1.61802
| 37>    C       -5.17648         3.69751        -1.21574
| 38>    C       -6.02738         3.87905        -0.10735
| 39>    C       -6.51253         2.77876         0.59070
| 40>    C       -6.18036         1.51136         0.16390
| 41>    C       -6.24107         5.29212         0.07695
| 42>    C       -5.53524         5.99213        -0.92199
| 43>    C       -4.73748         5.03346        -1.77652
| 44>    C       -3.21852         5.15680        -1.50768
| 45>    C       -2.59501         6.50883        -1.82716
| 46>    C       -5.06440         5.16979        -3.27037
| 47>    C       -6.54122         4.93011        -3.56365
| 48>    C       -5.65779         7.35411        -1.02576
| 49>    C       -6.44003         8.06827        -0.09771
| 50>    C       -7.10147         7.35350         0.91602
| 51>    C       -7.01920         5.98187         1.00015
| 52>    C       -6.53576         9.49270        -0.23836
| 53>    C       -7.10878        10.36262         0.63456
| 54>    C       -7.17282        11.75454         0.42100
| 55>    C       -7.71455        12.62543         1.32774
| 56>    C       -7.81567        14.00673         1.14147
| 57>    C       -8.34330        14.87308         2.07444
| 58>    C       -8.50884        16.27030         1.95560
| 59>    C       -9.06337        16.86675         3.05210
| 60>    C       -9.35737        15.97307         4.09984
| 61>    S       -8.91789        14.34128         3.64532
| 62>    C       -9.90000        16.25019         5.34373
| 63>    C      -10.32451        17.49244         5.85878
| 64>    C      -10.80544        17.42348         7.13260
| 65>    C      -10.78396        16.12704         7.70299
| 66>    S      -10.13384        14.99084         6.53133
| 67>    C      -11.19110        15.80297         8.97300
| 68>    C      -11.16550        14.54326         9.60510
| 69>    C      -10.74068        13.30361         9.12110
| 70>    C      -10.89376        12.33969        10.14839
| 71>    C      -10.61667        10.99198        10.18249
| 72>    C      -10.87672        10.30085        11.37789
| 73>    C      -10.70669         8.97106        11.72694
| 74>    C      -11.12779         8.78622        13.08399
| 75>    C      -11.55915        10.00571        13.56865
| 76>    C      -11.42146        10.98834        12.53743
| 77>    C      -11.70094        12.32631        12.50821
| 78>    C      -11.43913        13.02582        11.30791
| 79>    C      -11.59959        14.35116        10.96564
| 80>    C      -11.11123         7.55282        13.83245
| 81>    C      -10.70274         6.37310        13.37259
| 82>    H       -9.34329        -3.04363        -1.02662
| 83>    H       -5.15148        -5.21253        -2.70666
| 84>    H      -10.54580        -5.51208        -1.59735
| 85>    H       -4.00704         0.03667        -1.96503
| 86>    H       -4.16151         2.28985        -2.46161
| 87>    H       -7.14313         2.91264         1.45646
| 88>    H       -6.54179         0.65710         0.71024
| 89>    H       -2.71436         4.38406        -2.09213
| 90>    H       -3.04714         4.93402        -0.45113
| 91>    H       -2.74409         6.77913        -2.86925
| 92>    H       -1.52399         6.46189        -1.64209
| 93>    H       -3.01222         7.28775        -1.19479
| 94>    H       -4.46001         4.45342        -3.83083
| 95>    H       -4.79394         6.17171        -3.60597
| 96>    H       -6.83691         3.92703        -3.26411
| 97>    H       -6.73585         5.04284        -4.62782
| 98>    H       -7.15929         5.64374        -3.02295
| 99>    H       -5.16636         7.89857        -1.81877
|100>    H       -7.71013         7.88708         1.62913
|101>    H       -7.55876         5.44751         1.76795
|102>    H       -6.08379         9.90363        -1.13377
|103>    H       -7.53946         9.99902         1.55750
|104>    H       -6.77294        12.14399        -0.50670
|105>    H       -8.09719        12.22825         2.26069
|106>    H       -7.46565        14.43302         0.21031
|107>    H       -8.21576        16.79474         1.06300
|108>    H       -9.26038        17.92101         3.13177
|109>    H      -10.26677        18.39789         5.28166
|110>    H      -11.17341        18.26931         7.68695
|111>    H      -11.56934        16.62577         9.56825
|112>    H      -10.35790        13.09131         8.14197
|113>    H      -10.21061        10.47643         9.32386
|114>    H      -10.32012         8.19984        11.08639
|115>    H      -11.93666        10.19803        14.55647
|116>    H      -12.10614        12.84511        13.36598
|117>    H      -11.98195        15.13352        11.59741
|118>    H      -11.47156         7.63369        14.85077
|119>    H      -10.34172         6.24142        12.36708
|120>    H      -10.72237         5.49117        13.98910
|121> *
|122>
|123>                          ****END OF INPUT****

CARTESIAN COORDINATES (ANGSTROEM)
---------------------------------
  C     -4.986740   -2.434320   -1.793590
  C     -3.655060   -2.675560   -2.019110
  C     -3.138910   -3.918150   -2.439680
  N     -2.660280   -4.902970   -2.786230
  C     -2.612890   -1.743800   -1.830480
  N     -1.701900   -1.058210   -1.688560
  C     -6.051410   -3.423510   -1.887900
  C     -7.252380   -2.837050   -1.423180
  C     -8.444280   -3.518400   -1.387320
  C     -8.451690   -4.843760   -1.834940
  C     -7.247110   -5.420460   -2.302190
  C     -6.041210   -4.731780   -2.335930
  S     -7.483020   -7.063620   -2.817830
  C     -9.173120   -6.954360   -2.402780
  C     -9.543940   -5.751810   -1.903550
  Br   -10.288850   -8.438660   -2.669990
  C     -7.000940   -1.435690   -1.022170
  O     -7.832050   -0.667880   -0.588470
  C     -5.572380   -1.184790   -1.337230
  C     -4.945530    0.024340   -1.420960
  C     -5.350550    1.314190   -0.952030
  C     -4.820450    2.439130   -1.618020
  C     -5.176480    3.697510   -1.215740
  C     -6.027380    3.879050   -0.107350
  C     -6.512530    2.778760    0.590700
  C     -6.180360    1.511360    0.163900
  C     -6.241070    5.292120    0.076950
  C     -5.535240    5.992130   -0.921990
  C     -4.737480    5.033460   -1.776520
  C     -3.218520    5.156800   -1.507680
  C     -2.595010    6.508830   -1.827160
  C     -5.064400    5.169790   -3.270370
  C     -6.541220    4.930110   -3.563650
  C     -5.657790    7.354110   -1.025760
  C     -6.440030    8.068270   -0.097710
  C     -7.101470    7.353500    0.916020
  C     -7.019200    5.981870    1.000150
  C     -6.535760    9.492700   -0.238360
  C     -7.108780   10.362620    0.634560
  C     -7.172820   11.754540    0.421000
  C     -7.714550   12.625430    1.327740
  C     -7.815670   14.006730    1.141470
  C     -8.343300   14.873080    2.074440
  C     -8.508840   16.270300    1.955600
  C     -9.063370   16.866750    3.052100
  C     -9.357370   15.973070    4.099840
  S     -8.917890   14.341280    3.645320
  C     -9.900000   16.250190    5.343730
  C    -10.324510   17.492440    5.858780
  C    -10.805440   17.423480    7.132600
  C    -10.783960   16.127040    7.702990
  S    -10.133840   14.990840    6.531330
  C    -11.191100   15.802970    8.973000
  C    -11.165500   14.543260    9.605100
  C    -10.740680   13.303610    9.121100
  C    -10.893760   12.339690   10.148390
  C    -10.616670   10.991980   10.182490
  C    -10.876720   10.300850   11.377890
  C    -10.706690    8.971060   11.726940
  C    -11.127790    8.786220   13.083990
  C    -11.559150   10.005710   13.568650
  C    -11.421460   10.988340   12.537430
  C    -11.700940   12.326310   12.508210
  C    -11.439130   13.025820   11.307910
  C    -11.599590   14.351160   10.965640
  C    -11.111230    7.552820   13.832450
  C    -10.702740    6.373100   13.372590
  H     -9.343290   -3.043630   -1.026620
  H     -5.151480   -5.212530   -2.706660
  H    -10.545800   -5.512080   -1.597350
  H     -4.007040    0.036670   -1.965030
  H     -4.161510    2.289850   -2.461610
  H     -7.143130    2.912640    1.456460
  H     -6.541790    0.657100    0.710240
  H     -2.714360    4.384060   -2.092130
  H     -3.047140    4.934020   -0.451130
  H     -2.744090    6.779130   -2.869250
  H     -1.523990    6.461890   -1.642090
  H     -3.012220    7.287750   -1.194790
  H     -4.460010    4.453420   -3.830830
  H     -4.793940    6.171710   -3.605970
  H     -6.836910    3.927030   -3.264110
  H     -6.735850    5.042840   -4.627820
  H     -7.159290    5.643740   -3.022950
  H     -5.166360    7.898570   -1.818770
  H     -7.710130    7.887080    1.629130
  H     -7.558760    5.447510    1.767950
  H     -6.083790    9.903630   -1.133770
  H     -7.539460    9.999020    1.557500
  H     -6.772940   12.143990   -0.506700
  H     -8.097190   12.228250    2.260690
  H     -7.465650   14.433020    0.210310
  H     -8.215760   16.794740    1.063000
  H     -9.260380   17.921010    3.131770
  H    -10.266770   18.397890    5.281660
  H    -11.173410   18.269310    7.686950
  H    -11.569340   16.625770    9.568250
  H    -10.357900   13.091310    8.141970
  H    -10.210610   10.476430    9.323860
  H    -10.320120    8.199840   11.086390
  H    -11.936660   10.198030   14.556470
  H    -12.106140   12.845110   13.365980
  H    -11.981950   15.133520   11.597410
  H    -11.471560    7.633690   14.850770
  H    -10.341720    6.241420   12.367080
  H    -10.722370    5.491170   13.989100

 Total Charge           Charge          ....    0
 Multiplicity           Mult            ....    1
 Number of Electrons    NEL             ....  504
 Basis Dimension        Dim             .... 1163

ORBITAL ENERGIES
----------------

  NO   OCC          E(Eh)            E(eV)
   0   2.0000    -482.883931    -13139.9398
   1   2.0000     -88.973261     -2421.0855
   2   2.0000     -88.940380     -2420.1908
   3   2.0000     -88.938487     -2420.1393
   4   2.0000     -62.561639     -1702.3887
   5   2.0000     -56.395589     -1534.6020
   6   2.0000     -56.392873     -1534.5281
   7   2.0000     -56.392842     -1534.5272
   8   2.0000     -19.211960      -522.7840
   9   2.0000     -14.410983      -392.1428
  10   2.0000     -14.410413      -392.1273
  11   2.0000     -10.364595      -282.0350
  12   2.0000     -10.356940      -281.8267
  13   2.0000     -10.337252      -281.2909
  14   2.0000     -10.336507      -281.2707
  15   2.0000     -10.323077      -280.9052
  16   2.0000     -10.314064      -280.6599
  17   2.0000     -10.313633      -280.6482
  18   2.0000     -10.311980      -280.6032
  19   2.0000     -10.305177      -280.4181
  20   2.0000     -10.304931      -280.4114
  21   2.0000     -10.304557      -280.4013
  22   2.0000     -10.303836      -280.3816
  23   2.0000     -10.302736      -280.3517
  24   2.0000     -10.301582      -280.3203
  25   2.0000     -10.298024      -280.2235
  26   2.0000     -10.297931      -280.2210
  27   2.0000     -10.295250      -280.1480
  28   2.0000     -10.294621      -280.1309
  29   2.0000     -10.293588      -280.1028
  30   2.0000     -10.292648      -280.0772
  31   2.0000     -10.288904      -279.9753
  32   2.0000     -10.283869      -279.8383
  33   2.0000     -10.283436      -279.8265
  34   2.0000     -10.280629      -279.7501
  35   2.0000     -10.280331      -279.7420
  36   2.0000     -10.280126      -279.7365
  37   2.0000     -10.279924      -279.7310
  38   2.0000     -10.279684      -279.7244
  39   2.0000     -10.279291      -279.7137
  40   2.0000     -10.278994      -279.7056
  41   2.0000     -10.278768      -279.6995
  42   2.0000     -10.278392      -279.6893
  43   2.0000     -10.275587      -279.6129
  44   2.0000     -10.274876      -279.5936
  45   2.0000     -10.272830      -279.5379
  46   2.0000     -10.271837      -279.5109
  47   2.0000     -10.271648      -279.5057
  48   2.0000     -10.271132      -279.4917
  49   2.0000     -10.270456      -279.4733
  50   2.0000     -10.270175      -279.4657
  51   2.0000     -10.270083      -279.4632
  52   2.0000     -10.269935      -279.4591
  53   2.0000     -10.269001      -279.4337
  54   2.0000     -10.268923      -279.4316
  55   2.0000     -10.268620      -279.4234
  56   2.0000     -10.268588      -279.4225
  57   2.0000     -10.267919      -279.4043
  58   2.0000     -10.267038      -279.3803
  59   2.0000     -10.266391      -279.3627
  60   2.0000     -10.265139      -279.3286
  61   2.0000     -10.264964      -279.3239
  62   2.0000     -10.263341      -279.2797
  63   2.0000     -10.263089      -279.2728
  64   2.0000     -10.262404      -279.2542
  65   2.0000     -10.262049      -279.2445
  66   2.0000     -10.261465      -279.2287
  67   2.0000     -10.261246      -279.2227
  68   2.0000     -10.255326      -279.0616
  69   2.0000     -10.250356      -278.9264
  70   2.0000     -10.246623      -278.8248
  71   2.0000      -8.791062      -239.2170
  72   2.0000      -8.069243      -219.5753
  73   2.0000      -8.036227      -218.6769
  74   2.0000      -8.034749      -218.6366
  75   2.0000      -6.627358      -180.3396
  76   2.0000      -6.612808      -179.9437
  77   2.0000      -6.612590      -179.9377
  78   2.0000      -6.038948      -164.3281
  79   2.0000      -6.034655      -164.2113
  80   2.0000      -6.030454      -164.0970
  81   2.0000      -6.005943      -163.4300
  82   2.0000      -6.004470      -163.3899
  83   2.0000      -6.001876      -163.3194
  84   2.0000      -6.000475      -163.2812
  85   2.0000      -5.997280      -163.1943
  86   2.0000      -5.995698      -163.1512
  87   2.0000      -2.743221       -74.6468
  88   2.0000      -2.739124       -74.5354
  89   2.0000      -2.739025       -74.5326
  90   2.0000      -2.727423       -74.2169
  91   2.0000      -2.727408       -74.2165
  92   2.0000      -1.127467       -30.6799
  93   2.0000      -1.019796       -27.7500
  94   2.0000      -1.009623       -27.4732
  95   2.0000      -0.989962       -26.9382
  96   2.0000      -0.989761       -26.9328
  97   2.0000      -0.989114       -26.9151
  98   2.0000      -0.985696       -26.8222
  99   2.0000      -0.982542       -26.7363
 100   2.0000      -0.967803       -26.3353
 101   2.0000      -0.955699       -26.0059
 102   2.0000      -0.950448       -25.8630
 103   2.0000      -0.938678       -25.5427
 104   2.0000      -0.922907       -25.1136
 105   2.0000      -0.907653       -24.6985
 106   2.0000      -0.905212       -24.6321
 107   2.0000      -0.896546       -24.3963
 108   2.0000      -0.894947       -24.3528
 109   2.0000      -0.883983       -24.0544
 110   2.0000      -0.882772       -24.0215
 111   2.0000      -0.873413       -23.7668
 112   2.0000      -0.863177       -23.4882
 113   2.0000      -0.859315       -23.3832
 114   2.0000      -0.850476       -23.1426
 115   2.0000      -0.843478       -22.9522
 116   2.0000      -0.837361       -22.7857
 117   2.0000      -0.836143       -22.7526
 118   2.0000      -0.834362       -22.7041
 119   2.0000      -0.833402       -22.6780
 120   2.0000      -0.826542       -22.4914
 121   2.0000      -0.821448       -22.3527
 122   2.0000      -0.814930       -22.1754
 123   2.0000      -0.801437       -21.8082
 124   2.0000      -0.793498       -21.5922
 125   2.0000      -0.782220       -21.2853
 126   2.0000      -0.766393       -20.8546
 127   2.0000      -0.764237       -20.7959
 128   2.0000      -0.756150       -20.5759
 129   2.0000      -0.752136       -20.4667
 130   2.0000      -0.742786       -20.2122
 131   2.0000      -0.730868       -19.8879
 132   2.0000      -0.718890       -19.5620
 133   2.0000      -0.710879       -19.3440
 134   2.0000      -0.702702       -19.1215
 135   2.0000      -0.691769       -18.8240
 136   2.0000      -0.690165       -18.7803
 137   2.0000      -0.686452       -18.6793
 138   2.0000      -0.683532       -18.5998
 139   2.0000      -0.675125       -18.3711
 140   2.0000      -0.665113       -18.0986
 141   2.0000      -0.664721       -18.0880
 142   2.0000      -0.659977       -17.9589
 143   2.0000      -0.656093       -17.8532
 144   2.0000      -0.649962       -17.6864
 145   2.0000      -0.644479       -17.5372
 146   2.0000      -0.640284       -17.4230
 147   2.0000      -0.632432       -17.2094
 148   2.0000      -0.624769       -17.0008
 149   2.0000      -0.620238       -16.8775
 150   2.0000      -0.619698       -16.8629
 151   2.0000      -0.614675       -16.7262
 152   2.0000      -0.607170       -16.5219
 153   2.0000      -0.601675       -16.3724
 154   2.0000      -0.596663       -16.2360
 155   2.0000      -0.595361       -16.2006
 156   2.0000      -0.592044       -16.1103
 157   2.0000      -0.590841       -16.0776
 158   2.0000      -0.582148       -15.8410
 159   2.0000      -0.573803       -15.6140
 160   2.0000      -0.569720       -15.5029
 161   2.0000      -0.563132       -15.3236
 162   2.0000      -0.557912       -15.1816
 163   2.0000      -0.548316       -14.9204
 164   2.0000      -0.545836       -14.8529
 165   2.0000      -0.544228       -14.8092
 166   2.0000      -0.540908       -14.7189
 167   2.0000      -0.538068       -14.6416
 168   2.0000      -0.535773       -14.5791
 169   2.0000      -0.532057       -14.4780
 170   2.0000      -0.530547       -14.4369
 171   2.0000      -0.527491       -14.3537
 172   2.0000      -0.525875       -14.3098
 173   2.0000      -0.521525       -14.1914
 174   2.0000      -0.519713       -14.1421
 175   2.0000      -0.517372       -14.0784
 176   2.0000      -0.513386       -13.9699
 177   2.0000      -0.511273       -13.9125
 178   2.0000      -0.507165       -13.8007
 179   2.0000      -0.505193       -13.7470
 180   2.0000      -0.503892       -13.7116
 181   2.0000      -0.500685       -13.6243
 182   2.0000      -0.498762       -13.5720
 183   2.0000      -0.494590       -13.4585
 184   2.0000      -0.493467       -13.4279
 185   2.0000      -0.491028       -13.3616
 186   2.0000      -0.489506       -13.3201
 187   2.0000      -0.488529       -13.2936
 188   2.0000      -0.485915       -13.2224
 189   2.0000      -0.485043       -13.1987
 190   2.0000      -0.479222       -13.0403
 191   2.0000      -0.478290       -13.0149
 192   2.0000      -0.471176       -12.8214
 193   2.0000      -0.468847       -12.7580
 194   2.0000      -0.467765       -12.7285
 195   2.0000      -0.465031       -12.6541
 196   2.0000      -0.463591       -12.6149
 197   2.0000      -0.462847       -12.5947
 198   2.0000      -0.456304       -12.4167
 199   2.0000      -0.454946       -12.3797
 200   2.0000      -0.453223       -12.3328
 201   2.0000      -0.452469       -12.3123
 202   2.0000      -0.450491       -12.2585
 203   2.0000      -0.447171       -12.1681
 204   2.0000      -0.445780       -12.1303
 205   2.0000      -0.444912       -12.1067
 206   2.0000      -0.444252       -12.0887
 207   2.0000      -0.444217       -12.0878
 208   2.0000      -0.440386       -11.9835
 209   2.0000      -0.439581       -11.9616
 210   2.0000      -0.436265       -11.8714
 211   2.0000      -0.435065       -11.8387
 212   2.0000      -0.433269       -11.7898
 213   2.0000      -0.430333       -11.7100
 214   2.0000      -0.426084       -11.5943
 215   2.0000      -0.423799       -11.5321
 216   2.0000      -0.422740       -11.5033
 217   2.0000      -0.420552       -11.4438
 218   2.0000      -0.419138       -11.4053
 219   2.0000      -0.417875       -11.3710
 220   2.0000      -0.417150       -11.3512
 221   2.0000      -0.414083       -11.2678
 222   2.0000      -0.413202       -11.2438
 223   2.0000      -0.409932       -11.1548
 224   2.0000      -0.403541       -10.9809
 225   2.0000      -0.401011       -10.9121
 226   2.0000      -0.398590       -10.8462
 227   2.0000      -0.392608       -10.6834
 228   2.0000      -0.388402       -10.5690
 229   2.0000      -0.388008       -10.5582
 230   2.0000      -0.385475       -10.4893
 231   2.0000      -0.381751       -10.3880
 232   2.0000      -0.379705       -10.3323
 233   2.0000      -0.373372       -10.1600
 234   2.0000      -0.373129       -10.1533
 235   2.0000      -0.362749        -9.8709
 236   2.0000      -0.360524        -9.8104
 237   2.0000      -0.345752        -9.4084
 238   2.0000      -0.337391        -9.1809
 239   2.0000      -0.333319        -9.0701
 240   2.0000      -0.326064        -8.8727
 241   2.0000      -0.320774        -8.7287
 242   2.0000      -0.317713        -8.6454
 243   2.0000      -0.314490        -8.5577
 244   2.0000      -0.312841        -8.5128
 245   2.0000      -0.305626        -8.3165
 246   2.0000      -0.291582        -7.9343
 247   2.0000      -0.283729        -7.7207
 248   2.0000      -0.265884        -7.2351
 249   2.0000      -0.260511        -7.0889
 250   2.0000      -0.239163        -6.5080
 251   2.0000      -0.195612        -5.3229
 252   0.0000      -0.095364        -2.5950
 253   0.0000      -0.086029        -2.3410
 254   0.0000      -0.071171        -1.9367
 255   0.0000      -0.055023        -1.4973
 256   0.0000      -0.025490        -0.6936

MULLIKEN ATOMIC CHARGES
-----------------------
   0 C :    0.295338
   1 C :   -0.347705
   2 C :   -0.186081
   3 N :    0.149041
   4 C :   -0.206200
   5 N :    0.159244
   6 C :    0.017938
   7 C :   -0.015987
   8 C :   -0.074285
   9 C :    0.120046
  10 C :   -0.089485
  11 C :   -0.021850
  12 S :    0.184979
  13 C :   -0.123913
  14 C :    0.038529
  15 Br:    0.022060
  16 C :    0.140805
  17 O :   -0.146669
  18 C :   -0.067819
  19 C :   -0.037523
  20 C :    0.078561
  21 C :   -0.094960
  22 C :    0.018933
  23 C :    0.117991
  24 C :   -0.062582
  25 C :    0.058780
  26 C :    0.094332
  27 C :    0.031329
  28 C :   -0.134937
  29 C :    0.079501
  30 C :    0.026139
  31 C :    0.052034
  32 C :    0.024829
  33 C :   -0.116590
  34 C :    0.135974
  35 C :   -0.011177
  36 C :   -0.039640
  37 C :   -0.019813
  38 C :    0.036232
  39 C :    0.012021
  40 C :    0.009167
  41 C :   -0.011542
  42 C :   -0.017263
  43 C :    0.031172
  44 C :    0.023037
  45 C :   -0.046885
  46 S :    0.065458
  47 C :   -0.029016
  48 C :    0.019166
  49 C :    0.038384
  50 C :   -0.022188
  51 S :    0.052681
  52 C :   -0.012607
  53 C :    0.057051
  54 C :   -0.044833
  55 C :    0.053543
  56 C :   -0.003804
  57 C :    0.051021
  58 C :   -0.024535
  59 C :    0.063392
  60 C :   -0.030082
  61 C :    0.061763
  62 C :   -0.006915
  63 C :    0.061259
  64 C :   -0.035368
  65 C :    0.012159
  66 C :   -0.026029
  67 H :   -0.011298
  68 H :   -0.006958
  69 H :   -0.003339
  70 H :    0.025431
  71 H :   -0.027840
  72 H :   -0.030095
  73 H :   -0.010950
  74 H :    0.000333
  75 H :    0.006552
  76 H :    0.003484
  77 H :    0.016081
  78 H :    0.021779
  79 H :   -0.001219
  80 H :    0.006398
  81 H :    0.020204
  82 H :    0.009826
  83 H :    0.021232
  84 H :   -0.037280
  85 H :   -0.031325
  86 H :   -0.034393
  87 H :   -0.028377
  88 H :   -0.013658
  89 H :   -0.018542
  90 H :   -0.005093
  91 H :   -0.020240
  92 H :   -0.015385
  93 H :   -0.014428
  94 H :   -0.017751
  95 H :   -0.016124
  96 H :   -0.027933
  97 H :   -0.013316
  98 H :   -0.026690
  99 H :   -0.025729
 100 H :   -0.030611
 101 H :   -0.028142
 102 H :   -0.026353
 103 H :   -0.020920
 104 H :    0.006915
 105 H :    0.020148
Sum of atomic charges:   -0.0000000

LOEWDIN ATOMIC CHARGES
----------------------
   0 C :    0.077142
   1 C :   -0.143610
   2 C :   -0.017989
   3 N :   -0.056403
   4 C :   -0.025948
   5 N :   -0.053167
   6 C :   -0.021820
   7 C :   -0.049667
   8 C :    0.020975
   9 C :   -0.032703
  10 C :   -0.143807
  11 C :   -0.010038
  12 S :    0.431152
  13 C :   -0.271546
  14 C :   -0.070714
  15 Br:    0.135530
  16 C :    0.082392
  17 O :   -0.138120
  18 C :   -0.100981
  19 C :    0.085458
  20 C :   -0.046772
  21 C :    0.002061
  22 C :   -0.001831
  23 C :    0.010107
  24 C :   -0.024590
  25 C :    0.026447
  26 C :   -0.026081
  27 C :    0.008235
  28 C :   -0.034688
  29 C :   -0.008795
  30 C :   -0.059573
  31 C :   -0.015533
  32 C :   -0.056588
  33 C :   -0.023711
  34 C :   -0.016493
  35 C :   -0.015348
  36 C :   -0.011373
  37 C :   -0.028175
  38 C :   -0.018334
  39 C :   -0.024403
  40 C :   -0.030165
  41 C :   -0.062424
  42 C :   -0.142293
  43 C :   -0.039588
  44 C :   -0.031446
  45 C :   -0.182777
  46 S :    0.366844
  47 C :   -0.176364
  48 C :   -0.045388
  49 C :   -0.028651
  50 C :   -0.152702
  51 S :    0.385304
  52 C :   -0.046997
  53 C :   -0.065931
  54 C :   -0.009910
  55 C :   -0.052410
  56 C :    0.064483
  57 C :   -0.059462
  58 C :    0.041631
  59 C :   -0.057331
  60 C :    0.008670
  61 C :   -0.056148
  62 C :    0.065701
  63 C :   -0.063820
  64 C :    0.039892
  65 C :   -0.020619
  66 C :   -0.055586
  67 H :    0.040427
  68 H :    0.040764
  69 H :    0.038726
  70 H :    0.045291
  71 H :    0.028262
  72 H :    0.029227
  73 H :    0.031497
  74 H :    0.021306
  75 H :    0.027293
  76 H :    0.019703
  77 H :    0.028970
  78 H :    0.024580
  79 H :    0.020460
  80 H :    0.019961
  81 H :    0.024823
  82 H :    0.024161
  83 H :    0.025853
  84 H :    0.023682
  85 H :    0.025574
  86 H :    0.027821
  87 H :    0.025223
  88 H :    0.025891
  89 H :    0.026137
  90 H :    0.021227
  91 H :    0.031170
  92 H :    0.032264
  93 H :    0.031413
  94 H :    0.030149
  95 H :    0.032037
  96 H :    0.032214
  97 H :    0.011167
  98 H :    0.034156
  99 H :    0.024310
 100 H :    0.022954
 101 H :    0.033610
 102 H :    0.024068
 103 H :    0.028888
 104 H :    0.017464
 105 H :    0.024065

  Mayer bond orders larger than 0.100000
B(  0-C ,  1-C ) :   1.6338 B(  0-C ,  6-C ) :   1.0062 B(  0-C , 18-C ) :   1.0610
B(  1-C ,  2-C ) :   1.1427 B(  1-C ,  4-C ) :   1.1428 B(  2-C ,  3-N ) :   2.9720
B(  4-C ,  5-N ) :   2.9952 B(  6-C ,  7-C ) :   1.2723 B(  6-C , 11-C ) :   1.4069
B(  7-C ,  8-C ) :   1.4248 B(  7-C , 16-C ) :   0.9422 B(  8-C ,  9-C ) :   1.2458
B(  8-C , 67-H ) :   1.0166 B(  9-C , 10-C ) :   1.3069 B(  9-C , 14-C ) :   1.1610
B( 10-C , 11-C ) :   1.3318 B( 10-C , 12-S ) :   1.0840 B( 11-C , 68-H ) :   0.9809
B( 12-S , 13-C ) :   1.0866 B( 13-C , 14-C ) :   1.6192 B( 13-C , 15-Br) :   1.0183
B( 14-C , 69-H ) :   1.0004 B( 16-C , 17-O ) :   2.2224 B( 16-C , 18-C ) :   0.9382
B( 18-C , 19-C ) :   1.5793 B( 19-C , 20-C ) :   1.1198 B( 19-C , 70-H ) :   0.9528
B( 20-C , 21-C ) :   1.2388 B( 20-C , 25-C ) :   1.3383 B( 21-C , 22-C ) :   1.4037
B( 21-C , 71-H ) :   1.0107 B( 22-C , 23-C ) :   1.3547 B( 22-C , 28-C ) :   0.9224
B( 23-C , 24-C ) :   1.3202 B( 23-C , 26-C ) :   1.0138 B( 24-C , 25-C ) :   1.4094
B( 24-C , 72-H ) :   0.9931 B( 25-C , 73-H ) :   0.9756 B( 26-C , 27-C ) :   1.3738
B( 26-C , 36-C ) :   1.3159 B( 27-C , 28-C ) :   0.9194 B( 27-C , 33-C ) :   1.3890
B( 28-C , 29-C ) :   1.0144 B( 28-C , 31-C ) :   1.0337 B( 29-C , 30-C ) :   1.1150
B( 29-C , 74-H ) :   0.9367 B( 29-C , 75-H ) :   0.9388 B( 30-C , 76-H ) :   0.9633
B( 30-C , 77-H ) :   0.9598 B( 30-C , 78-H ) :   0.9607 B( 31-C , 32-C ) :   1.1043
B( 31-C , 79-H ) :   0.9392 B( 31-C , 80-H ) :   0.9380 B( 32-C , 81-H ) :   0.9633
B( 32-C , 82-H ) :   0.9647 B( 32-C , 83-H ) :   0.9647 B( 33-C , 34-C ) :   1.2754
B( 33-C , 84-H ) :   1.0065 B( 34-C , 35-C ) :   1.3302 B( 34-C , 37-C ) :   1.0766
B( 35-C , 36-C ) :   1.4131 B( 35-C , 85-H ) :   0.9847 B( 36-C , 86-H ) :   0.9891
B( 37-C , 38-C ) :   1.6250 B( 37-C , 87-H ) :   0.9860 B( 38-C , 39-C ) :   1.1587
B( 38-C , 88-H ) :   0.9742 B( 39-C , 40-C ) :   1.5858 B( 39-C , 89-H ) :   0.9940
B( 40-C , 41-C ) :   1.1674 B( 40-C , 90-H ) :   0.9741 B( 41-C , 42-C ) :   1.5396
B( 41-C , 91-H ) :   0.9816 B( 42-C , 43-C ) :   1.1585 B( 42-C , 46-S ) :   1.0374
B( 43-C , 44-C ) :   1.5689 B( 43-C , 92-H ) :   0.9991 B( 44-C , 45-C ) :   1.2056
B( 44-C , 93-H ) :   0.9947 B( 45-C , 46-S ) :   1.0433 B( 45-C , 47-C ) :   1.4860
B( 47-C , 48-C ) :   1.1974 B( 47-C , 51-S ) :   1.0466 B( 48-C , 49-C ) :   1.5770
B( 48-C , 94-H ) :   0.9937 B( 49-C , 50-C ) :   1.1517 B( 49-C , 95-H ) :   0.9984
B( 50-C , 51-S ) :   1.0313 B( 50-C , 52-C ) :   1.5625 B( 52-C , 53-C ) :   1.1429
B( 52-C , 96-H ) :   0.9684 B( 53-C , 54-C ) :   1.4453 B( 53-C , 64-C ) :   1.1151
B( 54-C , 55-C ) :   1.1352 B( 54-C , 97-H ) :   0.9938 B( 55-C , 56-C ) :   1.4397
B( 55-C , 63-C ) :   1.1275 B( 56-C , 57-C ) :   1.1323 B( 56-C , 98-H ) :   1.0035
B( 57-C , 58-C ) :   1.4421 B( 57-C , 61-C ) :   1.1239 B( 58-C , 59-C ) :   1.1409
B( 58-C , 99-H ) :   1.0070 B( 59-C , 60-C ) :   1.5125 B( 59-C , 65-C ) :   1.0855
B( 60-C , 61-C ) :   1.0815 B( 60-C ,100-H ) :   1.0165 B( 61-C , 62-C ) :   1.4783
B( 62-C , 63-C ) :   1.1122 B( 62-C ,101-H ) :   1.0046 B( 63-C , 64-C ) :   1.4506
B( 64-C ,102-H ) :   1.0146 B( 65-C , 66-C ) :   1.9329 B( 65-C ,103-H ) :   0.9659
B( 66-C ,104-H ) :   0.9520 B( 66-C ,105-H ) :   0.9498

-----------------------------------------------------------------------------
         ABSORPTION SPECTRUM VIA TRANSITION ELECTRIC DIPOLE MOMENTS
-----------------------------------------------------------------------------
State   Energy  Wavelength   fosc         T2         TX        TY        TZ
        (cm-1)    (nm)                  (au**2)     (au)      (au)      (au)
-----------------------------------------------------------------------------
   0    6710.3   1490.2   0.069688917   3.41898  -0.58666  -0.06692   1.75224
   1   12840.9    778.8   1.405035327  36.02202   2.08211  -2.83152  -4.86511
   2   14486.4    690.3   0.027743375   0.63049  -0.19543   0.72071   0.26996
   3   17077.7    585.6   0.409542428   7.89488  -0.38556  -2.29714   1.57143
   4   21514.0    464.8   0.626603807   9.58844   0.50471  -3.00571  -0.54721
   5   22407.2    446.3   0.116278552   1.70839  -0.08191   1.28340   0.23362
   6   22744.7    439.7   0.978647064  14.16516  -0.05646   3.66644  -0.84805
   7   23842.5    419.4   0.085493151   1.18047  -0.23137   1.03808   0.22210
   8   24507.2    408.0   0.040141411   0.53923  -0.01775   0.52974  -0.50823
   9   25735.1    388.6   1.148732112  14.69497  -0.36496   3.64634  -1.12516
  10   27261.6    366.8   0.105439058   1.27329   0.17090  -1.06140   0.34278
  11   27661.0    361.5   0.005029224   0.05986  -0.03634   0.22492  -0.08914
  12   28101.1    355.9   0.088338195   1.03490  -0.60999  -0.74372   0.33120
  13   28447.0    351.5   0.067180185   0.77747   0.04068  -0.80818  -0.35023
  14   29023.4    344.5   0.259702851   2.94580   1.48927   0.82387   0.22160
  15   29824.2    335.3   0.187954804   2.07472   0.28643   1.40059   0.17612
  16   30614.6    326.6   0.003704476   0.03984  -0.08185  -0.02955   0.17962
  17   30770.2    325.0   0.042078276   0.45020   0.59380  -0.07304   0.30376
  18   31159.7    320.9   0.060924323   0.64368   0.24173   0.75006  -0.15056
  19   31417.9    318.3   0.106865241   1.11979   0.24395  -1.01839  -0.15217
  20   32101.2    311.5   0.014376937   0.14744   0.00014  -0.24780   0.29332
  21   32529.7    307.4   0.053430193   0.54073  -0.40480   0.58991  -0.16993
  22   32989.9    303.1   0.055714387   0.55598   0.09889   0.72824  -0.12600
  23   33080.8    302.3   0.000716752   0.00713  -0.02107   0.08177  -0.00170
  24   33404.0    299.4   0.011960810   0.11788  -0.03563  -0.19367  -0.28125
  25   33644.6    297.2   0.007663920   0.07499  -0.17069   0.21053   0.03920
  26   33829.6    295.6   0.127111011   1.23698  -0.63902  -0.88928  -0.19445
  27   33891.1    295.1   0.083804571   0.81406   0.57337   0.66267   0.21487
  28   34054.0    293.7   0.536114190   5.18280   2.10175   0.82172  -0.30036
  29   34404.2    290.7   0.181553962   1.73728   0.10907   1.27497  -0.31595
  30   35244.7    283.7   0.018464806   0.17248  -0.35403  -0.01691   0.21646
  31   35320.3    283.1   0.022223322   0.20714  -0.34224   0.29871  -0.02797
  32   35735.9    279.8   0.095377467   0.87865  -0.08667   0.91459   0.18618
  33   36306.0    275.4   0.035493268   0.32184   0.15745  -0.12899   0.52954
  34   36556.0    273.6   0.031030018   0.27945   0.13606  -0.34635  -0.37547
  35   37060.3    269.8   0.032982671   0.29299  -0.07372   0.46623  -0.26493
  36   37550.9    266.3   0.002145949   0.01881   0.08164   0.03098  -0.10577
  37   37770.6    264.8   0.006713281   0.05851  -0.14626  -0.17976   0.06934
  38   38244.3    261.5   0.050777811   0.43710  -0.05507   0.65443  -0.07610
  39   38695.2    258.4   0.029327985   0.24952   0.24866  -0.21956   0.37347
  40   38826.8    257.6   0.059708401   0.50627  -0.40444   0.57389   0.11553
  41   39191.9    255.2   0.226789038   1.90503   0.77473  -1.11228  -0.26011
  42   39282.7    254.6   0.077009349   0.64538  -0.39591   0.69899   0.00777
  43   39605.1    252.5   0.360586161   2.99732  -0.21543   1.71518   0.09522
  44   39715.3    251.8   0.052541426   0.43553  -0.17301  -0.48894   0.40809
  45   39957.0    250.3   0.024915430   0.20528  -0.00649  -0.45246   0.02287
  46   40233.3    248.6   0.089282501   0.73056  -0.15645  -0.83604   0.08438

FINAL SINGLE POINT ENERGY     -6259.399176208660

DIPOLE MOMENT
-------------
                                X             Y             Z
Electronic contribution:    -36.86025    -223.33084     -64.68814
Nuclear contribution   :     34.66465     225.82594      65.33015
                        -----------------------------------------
Total Dipole Moment    :     -2.19561       2.49510       0.64201
                        -----------------------------------------
Magnitude (a.u.)       :      3.38502
Magnitude (Debye)      :      8.60405

Rotational constants in cm-1:     0.000972     0.000193     0.000170
Rotational constants in MHz :    29.126250     5.794407     5.099534

                             ****ORCA TERMINATED NORMALLY****
TOTAL RUN TIME: 0 days 0 hours 10 minutes 56 seconds 768 msec
