                         Program Version 4.2.0 -  RELEASE  -
|  1> # ORCA input file
|  2> # SCF done       -178.716289471209          0.000613524010
|  3> ! CAM-B3LYP def2-SVP def2/J RIJCOSX Grid4 TightSCF
|  4> %maxcore 5000
|  5> %tddft
|  6>     Mode sTDDFT
|  7>     Ethresh 5.0
|  8>     maxcore 5000
|  9> end
| 10>
| 11> %pal
| 12>   nprocs 6
| 13>   end
| 14> * xyz 0 1
| 15>    C      -11.04175         8.53762        -7.31909
| 16>    C      -10.72982         8.08722        -8.57825
| 17>    C      -11.08938         8.75405        -9.76791
| 18>    N      -11.34798         9.24787       -10.77176
| 19>    C      -10.02416         6.90561        -8.88277
| 20>    N       -9.45878         5.96138        -9.21523
| 21>    C      -11.79321         9.75546        -7.02774
| 22>    C      -11.94682         9.86872        -5.62453
| 23>    C      -12.61215        10.91245        -5.03042
| 24>    C      -13.15297        11.89820        -5.86287
| 25>    C      -12.99389        11.77943        -7.26362
| 26>    C      -12.32161        10.72135        -7.86361
| 27>    S      -13.73519        13.10672        -8.10562
| 28>    C      -14.24217        13.79262        -6.58512
| 29>    C      -13.87627        13.06758        -5.50150
| 30>   Br      -15.20511        15.40212        -6.57083
| 31>    C      -11.28910         8.72119        -4.97151
| 32>    O      -11.24349         8.50869        -3.77365
| 33>    C      -10.71401         7.91293        -6.05253
| 34>    C       -9.96704         6.76992        -5.90596
| 35>    C       -9.56100         6.07747        -4.75912
| 36>    S       -9.94049         6.50578        -3.10956
| 37>    C       -9.00297         5.18258        -2.51162
| 38>    C       -8.41738         4.44540        -3.54260
| 39>    C       -8.74623         4.93132        -4.80511
| 40>    C       -8.26588         4.28600        -6.06560
| 41>    C       -7.76993         2.86901        -5.78906
| 42>    C       -6.79684         2.87476        -4.61757
| 43>    C       -7.53320         3.25510        -3.31909
| 44>    C       -6.45582         3.51220        -2.29020
| 45>    O       -5.97954         2.67502        -1.57975
| 46>    C       -8.87058         4.94074        -1.11428
| 47>    C       -9.47826         5.67060        -0.16009
| 48>    C       -9.27613         5.43214         1.25354
| 49>    N       -8.40263         4.48670         1.61526
| 50>    C       -8.18760         4.33453         2.90892
| 51>    C       -8.82821         5.10428         3.86594
| 52>    C       -9.76111         6.04378         3.39873
| 53>    N       -9.97017         6.19546         2.08819
| 54>    C      -10.50798         6.87113         4.31385
| 55>    C      -11.51784         7.67547         3.90192
| 56>    C      -12.30892         8.53467         4.70153
| 57>    C      -12.09700         8.93847         5.99329
| 58>    C      -12.95114         9.81119         6.72581
| 59>    C      -12.50905        10.12246         7.97168
| 60>    C      -11.27053         9.52001         8.30257
| 61>    S      -10.70475         8.52736         6.98134
| 62>    C      -10.53734         9.64562         9.46353
| 63>    C      -10.85126        10.37449        10.63366
| 64>    C       -9.89487        10.29812        11.59616
| 65>    C       -8.76656         9.50531        11.24248
| 66>    S       -8.98318         8.85130         9.63689
| 67>    C       -7.66160         9.34272        12.03619
| 68>    C       -6.47735         8.61002        11.81405
| 69>    O       -5.46803         8.85759        12.68762
| 70>    C       -4.39406         8.10673        12.36611
| 71>    C       -4.70052         7.33684        11.26306
| 72>    C       -6.04512         7.64385        10.89790
| 73>    C       -6.71865         6.97396         9.87026
| 74>    N       -7.20384         6.35324         9.03524
| 75>    C       -3.87355         6.34253        10.52876
| 76>    F       -2.60456         6.27662        10.96224
| 77>    F       -4.36675         5.09555        10.63333
| 78>    F       -3.80394         6.61467         9.21494
| 79>    C       -3.19523         8.21441        13.15561
| 80>    C       -3.08879         9.02950        14.20337
| 81>    H      -12.71134        10.96746        -3.95773
| 82>    H      -12.22809        10.67959        -8.93564
| 83>    H      -14.10552        13.34450        -4.48873
| 84>    H       -9.60449         6.32554        -6.82281
| 85>    H       -7.44959         4.88355        -6.48474
| 86>    H       -9.06024         4.25740        -6.81385
| 87>    H       -7.27913         2.47603        -6.67984
| 88>    H       -8.61752         2.22198        -5.55540
| 89>    H       -6.00229         3.59998        -4.81104
| 90>    H       -6.33640         1.89463        -4.49067
| 91>    H       -8.13362         2.39909        -2.98955
| 92>    H       -6.07866         4.55403        -2.29280
| 93>    H       -8.23497         4.12262        -0.80194
| 94>    H      -10.13702         6.49078        -0.40791
| 95>    H       -7.47207         3.56823         3.17940
| 96>    H       -8.63080         4.98653         4.91867
| 97>    H      -10.23520         6.78260         5.35445
| 98>    H      -11.76226         7.64096         2.84822
| 99>    H      -13.18654         8.95352         4.22437
|100>    H      -13.86686        10.17883         6.29691
|101>    H      -13.02548        10.77145         8.65580
|102>    H      -11.76708        10.92931        10.73091
|103>    H       -9.95317        10.78489        12.55347
|104>    H       -7.65276         9.89447        12.96758
|105>    H       -2.37121         7.59043        12.84805
|106>    H       -3.90737         9.65577        14.51468
|107>    H       -2.17991         9.08898        14.77427
|108> *
|109>
|110>                          ****END OF INPUT****

CARTESIAN COORDINATES (ANGSTROEM)
---------------------------------
  C    -11.041750    8.537620   -7.319090
  C    -10.729820    8.087220   -8.578250
  C    -11.089380    8.754050   -9.767910
  N    -11.347980    9.247870  -10.771760
  C    -10.024160    6.905610   -8.882770
  N     -9.458780    5.961380   -9.215230
  C    -11.793210    9.755460   -7.027740
  C    -11.946820    9.868720   -5.624530
  C    -12.612150   10.912450   -5.030420
  C    -13.152970   11.898200   -5.862870
  C    -12.993890   11.779430   -7.263620
  C    -12.321610   10.721350   -7.863610
  S    -13.735190   13.106720   -8.105620
  C    -14.242170   13.792620   -6.585120
  C    -13.876270   13.067580   -5.501500
  Br   -15.205110   15.402120   -6.570830
  C    -11.289100    8.721190   -4.971510
  O    -11.243490    8.508690   -3.773650
  C    -10.714010    7.912930   -6.052530
  C     -9.967040    6.769920   -5.905960
  C     -9.561000    6.077470   -4.759120
  S     -9.940490    6.505780   -3.109560
  C     -9.002970    5.182580   -2.511620
  C     -8.417380    4.445400   -3.542600
  C     -8.746230    4.931320   -4.805110
  C     -8.265880    4.286000   -6.065600
  C     -7.769930    2.869010   -5.789060
  C     -6.796840    2.874760   -4.617570
  C     -7.533200    3.255100   -3.319090
  C     -6.455820    3.512200   -2.290200
  O     -5.979540    2.675020   -1.579750
  C     -8.870580    4.940740   -1.114280
  C     -9.478260    5.670600   -0.160090
  C     -9.276130    5.432140    1.253540
  N     -8.402630    4.486700    1.615260
  C     -8.187600    4.334530    2.908920
  C     -8.828210    5.104280    3.865940
  C     -9.761110    6.043780    3.398730
  N     -9.970170    6.195460    2.088190
  C    -10.507980    6.871130    4.313850
  C    -11.517840    7.675470    3.901920
  C    -12.308920    8.534670    4.701530
  C    -12.097000    8.938470    5.993290
  C    -12.951140    9.811190    6.725810
  C    -12.509050   10.122460    7.971680
  C    -11.270530    9.520010    8.302570
  S    -10.704750    8.527360    6.981340
  C    -10.537340    9.645620    9.463530
  C    -10.851260   10.374490   10.633660
  C     -9.894870   10.298120   11.596160
  C     -8.766560    9.505310   11.242480
  S     -8.983180    8.851300    9.636890
  C     -7.661600    9.342720   12.036190
  C     -6.477350    8.610020   11.814050
  O     -5.468030    8.857590   12.687620
  C     -4.394060    8.106730   12.366110
  C     -4.700520    7.336840   11.263060
  C     -6.045120    7.643850   10.897900
  C     -6.718650    6.973960    9.870260
  N     -7.203840    6.353240    9.035240
  C     -3.873550    6.342530   10.528760
  F     -2.604560    6.276620   10.962240
  F     -4.366750    5.095550   10.633330
  F     -3.803940    6.614670    9.214940
  C     -3.195230    8.214410   13.155610
  C     -3.088790    9.029500   14.203370
  H    -12.711340   10.967460   -3.957730
  H    -12.228090   10.679590   -8.935640
  H    -14.105520   13.344500   -4.488730
  H     -9.604490    6.325540   -6.822810
  H     -7.449590    4.883550   -6.484740
  H     -9.060240    4.257400   -6.813850
  H     -7.279130    2.476030   -6.679840
  H     -8.617520    2.221980   -5.555400
  H     -6.002290    3.599980   -4.811040
  H     -6.336400    1.894630   -4.490670
  H     -8.133620    2.399090   -2.989550
  H     -6.078660    4.554030   -2.292800
  H     -8.234970    4.122620   -0.801940
  H    -10.137020    6.490780   -0.407910
  H     -7.472070    3.568230    3.179400
  H     -8.630800    4.986530    4.918670
  H    -10.235200    6.782600    5.354450
  H    -11.762260    7.640960    2.848220
  H    -13.186540    8.953520    4.224370
  H    -13.866860   10.178830    6.296910
  H    -13.025480   10.771450    8.655800
  H    -11.767080   10.929310   10.730910
  H     -9.953170   10.784890   12.553470
  H     -7.652760    9.894470   12.967580
  H     -2.371210    7.590430   12.848050
  H     -3.907370    9.655770   14.514680
  H     -2.179910    9.088980   14.774270

 Total Charge           Charge          ....    0
 Multiplicity           Mult            ....    1
 Number of Electrons    NEL             ....  512
 Basis Dimension        Dim             .... 1093

ORBITAL ENERGIES
----------------

  NO   OCC          E(Eh)            E(eV)
   0   2.0000    -482.884109    -13139.9446
   1   2.0000     -88.973367     -2421.0884
   2   2.0000     -88.956169     -2420.6204
   3   2.0000     -88.956115     -2420.6190
   4   2.0000     -88.954885     -2420.5855
   5   2.0000     -62.561829     -1702.3939
   6   2.0000     -56.395777     -1534.6071
   7   2.0000     -56.393067     -1534.5334
   8   2.0000     -56.393030     -1534.5324
   9   2.0000     -24.802809      -674.9187
  10   2.0000     -24.793508      -674.6656
  11   2.0000     -24.792441      -674.6366
  12   2.0000     -19.311564      -525.4944
  13   2.0000     -19.215481      -522.8798
  14   2.0000     -19.211463      -522.7705
  15   2.0000     -14.415352      -392.2617
  16   2.0000     -14.410004      -392.1161
  17   2.0000     -14.403985      -391.9524
  18   2.0000     -14.401269      -391.8784
  19   2.0000     -14.400298      -391.8520
  20   2.0000     -10.522369      -286.3282
  21   2.0000     -10.366896      -282.0976
  22   2.0000     -10.364249      -282.0255
  23   2.0000     -10.359154      -281.8869
  24   2.0000     -10.356895      -281.8254
  25   2.0000     -10.352728      -281.7121
  26   2.0000     -10.337977      -281.3107
  27   2.0000     -10.336190      -281.2620
  28   2.0000     -10.335687      -281.2484
  29   2.0000     -10.328035      -281.0401
  30   2.0000     -10.324292      -280.9383
  31   2.0000     -10.322656      -280.8938
  32   2.0000     -10.320303      -280.8297
  33   2.0000     -10.320045      -280.8227
  34   2.0000     -10.319424      -280.8058
  35   2.0000     -10.318947      -280.7928
  36   2.0000     -10.317394      -280.7506
  37   2.0000     -10.316859      -280.7360
  38   2.0000     -10.313761      -280.6517
  39   2.0000     -10.312514      -280.6178
  40   2.0000     -10.307861      -280.4912
  41   2.0000     -10.307640      -280.4852
  42   2.0000     -10.306861      -280.4639
  43   2.0000     -10.306704      -280.4597
  44   2.0000     -10.304915      -280.4110
  45   2.0000     -10.304543      -280.4009
  46   2.0000     -10.302410      -280.3428
  47   2.0000     -10.301575      -280.3201
  48   2.0000     -10.298245      -280.2295
  49   2.0000     -10.298039      -280.2239
  50   2.0000     -10.297147      -280.1996
  51   2.0000     -10.296062      -280.1701
  52   2.0000     -10.295352      -280.1508
  53   2.0000     -10.295293      -280.1492
  54   2.0000     -10.294872      -280.1377
  55   2.0000     -10.292105      -280.0624
  56   2.0000     -10.291024      -280.0330
  57   2.0000     -10.288811      -279.9728
  58   2.0000     -10.287656      -279.9414
  59   2.0000     -10.283588      -279.8307
  60   2.0000     -10.283565      -279.8300
  61   2.0000     -10.283383      -279.8251
  62   2.0000     -10.282066      -279.7892
  63   2.0000     -10.279761      -279.7265
  64   2.0000     -10.276611      -279.6408
  65   2.0000     -10.276534      -279.6387
  66   2.0000     -10.276329      -279.6331
  67   2.0000     -10.276238      -279.6307
  68   2.0000     -10.273949      -279.5684
  69   2.0000     -10.270659      -279.4788
  70   2.0000      -8.791259      -239.2223
  71   2.0000      -8.069325      -219.5775
  72   2.0000      -8.052023      -219.1067
  73   2.0000      -8.051018      -219.0793
  74   2.0000      -8.049740      -219.0446
  75   2.0000      -6.627560      -180.3451
  76   2.0000      -6.612981      -179.9484
  77   2.0000      -6.612806      -179.9436
  78   2.0000      -6.039001      -164.3296
  79   2.0000      -6.034753      -164.2140
  80   2.0000      -6.030561      -164.0999
  81   2.0000      -6.021760      -163.8604
  82   2.0000      -6.020786      -163.8339
  83   2.0000      -6.018961      -163.7843
  84   2.0000      -6.017606      -163.7474
  85   2.0000      -6.016535      -163.7182
  86   2.0000      -6.014667      -163.6674
  87   2.0000      -6.013028      -163.6228
  88   2.0000      -6.012059      -163.5964
  89   2.0000      -6.011878      -163.5915
  90   2.0000      -2.743409       -74.6520
  91   2.0000      -2.739356       -74.5417
  92   2.0000      -2.739203       -74.5375
  93   2.0000      -2.727631       -74.2226
  94   2.0000      -2.727609       -74.2220
  95   2.0000      -1.386999       -37.7421
  96   2.0000      -1.291098       -35.1326
  97   2.0000      -1.284801       -34.9612
  98   2.0000      -1.232471       -33.5372
  99   2.0000      -1.131012       -30.7764
 100   2.0000      -1.126896       -30.6644
 101   2.0000      -1.074445       -29.2371
 102   2.0000      -1.020170       -27.7602
 103   2.0000      -1.011257       -27.5177
 104   2.0000      -1.007306       -27.4102
 105   2.0000      -0.997954       -27.1557
 106   2.0000      -0.992163       -26.9981
 107   2.0000      -0.991815       -26.9887
 108   2.0000      -0.986030       -26.8312
 109   2.0000      -0.984370       -26.7861
 110   2.0000      -0.973501       -26.4903
 111   2.0000      -0.940771       -25.5997
 112   2.0000      -0.939501       -25.5651
 113   2.0000      -0.929943       -25.3050
 114   2.0000      -0.927186       -25.2300
 115   2.0000      -0.918282       -24.9877
 116   2.0000      -0.909900       -24.7596
 117   2.0000      -0.905787       -24.6477
 118   2.0000      -0.897085       -24.4109
 119   2.0000      -0.886228       -24.1155
 120   2.0000      -0.883123       -24.0310
 121   2.0000      -0.879373       -23.9290
 122   2.0000      -0.864466       -23.5233
 123   2.0000      -0.854686       -23.2572
 124   2.0000      -0.851719       -23.1765
 125   2.0000      -0.845140       -22.9974
 126   2.0000      -0.835127       -22.7250
 127   2.0000      -0.830605       -22.6019
 128   2.0000      -0.828162       -22.5354
 129   2.0000      -0.826564       -22.4920
 130   2.0000      -0.809217       -22.0199
 131   2.0000      -0.800320       -21.7778
 132   2.0000      -0.789173       -21.4745
 133   2.0000      -0.771144       -20.9839
 134   2.0000      -0.765027       -20.8175
 135   2.0000      -0.757844       -20.6220
 136   2.0000      -0.745337       -20.2817
 137   2.0000      -0.742618       -20.2077
 138   2.0000      -0.733451       -19.9582
 139   2.0000      -0.726834       -19.7782
 140   2.0000      -0.717610       -19.5272
 141   2.0000      -0.709679       -19.3113
 142   2.0000      -0.703303       -19.1379
 143   2.0000      -0.690899       -18.8003
 144   2.0000      -0.689680       -18.7671
 145   2.0000      -0.686256       -18.6740
 146   2.0000      -0.677870       -18.4458
 147   2.0000      -0.672653       -18.3038
 148   2.0000      -0.671653       -18.2766
 149   2.0000      -0.668181       -18.1821
 150   2.0000      -0.664955       -18.0944
 151   2.0000      -0.656351       -17.8602
 152   2.0000      -0.650310       -17.6958
 153   2.0000      -0.645066       -17.5531
 154   2.0000      -0.638033       -17.3618
 155   2.0000      -0.629978       -17.1426
 156   2.0000      -0.627784       -17.0829
 157   2.0000      -0.621028       -16.8990
 158   2.0000      -0.619877       -16.8677
 159   2.0000      -0.618313       -16.8252
 160   2.0000      -0.614578       -16.7235
 161   2.0000      -0.603933       -16.4339
 162   2.0000      -0.597951       -16.2711
 163   2.0000      -0.592522       -16.1234
 164   2.0000      -0.589151       -16.0316
 165   2.0000      -0.580621       -15.7995
 166   2.0000      -0.578363       -15.7381
 167   2.0000      -0.576656       -15.6916
 168   2.0000      -0.571379       -15.5480
 169   2.0000      -0.560698       -15.2574
 170   2.0000      -0.554261       -15.0822
 171   2.0000      -0.552512       -15.0346
 172   2.0000      -0.546878       -14.8813
 173   2.0000      -0.546385       -14.8679
 174   2.0000      -0.542772       -14.7696
 175   2.0000      -0.541961       -14.7475
 176   2.0000      -0.539196       -14.6723
 177   2.0000      -0.537851       -14.6357
 178   2.0000      -0.535339       -14.5673
 179   2.0000      -0.533828       -14.5262
 180   2.0000      -0.531338       -14.4584
 181   2.0000      -0.527504       -14.3541
 182   2.0000      -0.524620       -14.2756
 183   2.0000      -0.520124       -14.1533
 184   2.0000      -0.519448       -14.1349
 185   2.0000      -0.518043       -14.0967
 186   2.0000      -0.513437       -13.9713
 187   2.0000      -0.509513       -13.8646
 188   2.0000      -0.508045       -13.8246
 189   2.0000      -0.506507       -13.7828
 190   2.0000      -0.504906       -13.7392
 191   2.0000      -0.503578       -13.7031
 192   2.0000      -0.503181       -13.6922
 193   2.0000      -0.502507       -13.6739
 194   2.0000      -0.500999       -13.6329
 195   2.0000      -0.497296       -13.5321
 196   2.0000      -0.494507       -13.4562
 197   2.0000      -0.491910       -13.3856
 198   2.0000      -0.491291       -13.3687
 199   2.0000      -0.489605       -13.3228
 200   2.0000      -0.485169       -13.2021
 201   2.0000      -0.481283       -13.0964
 202   2.0000      -0.480277       -13.0690
 203   2.0000      -0.476699       -12.9716
 204   2.0000      -0.473760       -12.8917
 205   2.0000      -0.470603       -12.8057
 206   2.0000      -0.470277       -12.7969
 207   2.0000      -0.466056       -12.6820
 208   2.0000      -0.465200       -12.6587
 209   2.0000      -0.457189       -12.4408
 210   2.0000      -0.455879       -12.4051
 211   2.0000      -0.453500       -12.3404
 212   2.0000      -0.452739       -12.3196
 213   2.0000      -0.450056       -12.2467
 214   2.0000      -0.447552       -12.1785
 215   2.0000      -0.446179       -12.1412
 216   2.0000      -0.443058       -12.0562
 217   2.0000      -0.440466       -11.9857
 218   2.0000      -0.440014       -11.9734
 219   2.0000      -0.436672       -11.8824
 220   2.0000      -0.436209       -11.8698
 221   2.0000      -0.431895       -11.7525
 222   2.0000      -0.429986       -11.7005
 223   2.0000      -0.425391       -11.5755
 224   2.0000      -0.423613       -11.5271
 225   2.0000      -0.423141       -11.5143
 226   2.0000      -0.417565       -11.3625
 227   2.0000      -0.413939       -11.2639
 228   2.0000      -0.411058       -11.1855
 229   2.0000      -0.407203       -11.0806
 230   2.0000      -0.404544       -11.0082
 231   2.0000      -0.402343       -10.9483
 232   2.0000      -0.399378       -10.8676
 233   2.0000      -0.396247       -10.7824
 234   2.0000      -0.393369       -10.7041
 235   2.0000      -0.389008       -10.5855
 236   2.0000      -0.384991       -10.4762
 237   2.0000      -0.376630       -10.2486
 238   2.0000      -0.373567       -10.1653
 239   2.0000      -0.371557       -10.1106
 240   2.0000      -0.369338       -10.0502
 241   2.0000      -0.358219        -9.7476
 242   2.0000      -0.352421        -9.5899
 243   2.0000      -0.348243        -9.4762
 244   2.0000      -0.333095        -9.0640
 245   2.0000      -0.329172        -8.9572
 246   2.0000      -0.327642        -8.9156
 247   2.0000      -0.323208        -8.7949
 248   2.0000      -0.317492        -8.6394
 249   2.0000      -0.316004        -8.5989
 250   2.0000      -0.314111        -8.5474
 251   2.0000      -0.310529        -8.4499
 252   2.0000      -0.291678        -7.9370
 253   2.0000      -0.282679        -7.6921
 254   2.0000      -0.260699        -7.0940
 255   2.0000      -0.226873        -6.1735
 256   0.0000      -0.095439        -2.5970
 257   0.0000      -0.092463        -2.5160
 258   0.0000      -0.059764        -1.6263
 259   0.0000      -0.038256        -1.0410
 260   0.0000      -0.028602        -0.7783

MULLIKEN ATOMIC CHARGES
-----------------------
   0 C :    0.325267
   1 C :   -0.363358
   2 C :   -0.184805
   3 N :    0.145691
   4 C :   -0.179984
   5 N :    0.134886
   6 C :    0.011050
   7 C :   -0.010838
   8 C :   -0.076385
   9 C :    0.120681
  10 C :   -0.092824
  11 C :   -0.022681
  12 S :    0.185788
  13 C :   -0.122310
  14 C :    0.036354
  15 Br:    0.020774
  16 C :    0.151765
  17 O :   -0.172579
  18 C :   -0.085055
  19 C :   -0.053162
  20 C :   -0.082499
  21 S :    0.180710
  22 C :   -0.059278
  23 C :   -0.013034
  24 C :   -0.085418
  25 C :    0.108652
  26 C :    0.068735
  27 C :    0.025785
  28 C :    0.000675
  29 C :    0.123527
  30 O :   -0.168590
  31 C :   -0.016476
  32 C :    0.045084
  33 C :   -0.070375
  34 N :   -0.077204
  35 C :    0.084062
  36 C :   -0.048333
  37 C :    0.045429
  38 N :   -0.055558
  39 C :   -0.025302
  40 C :    0.039660
  41 C :    0.002887
  42 C :   -0.019857
  43 C :    0.048335
  44 C :    0.025134
  45 C :   -0.038575
  46 S :    0.089453
  47 C :   -0.046469
  48 C :    0.045829
  49 C :    0.026833
  50 C :    0.002288
  51 S :    0.108811
  52 C :   -0.109390
  53 C :    0.202965
  54 O :   -0.200272
  55 C :    0.098480
  56 C :   -0.089041
  57 C :   -0.074456
  58 C :   -0.262181
  59 N :    0.160109
  60 C :    0.517151
  61 F :   -0.154857
  62 F :   -0.156148
  63 F :   -0.155259
  64 C :   -0.038841
  65 C :    0.014447
  66 H :   -0.010955
  67 H :   -0.006940
  68 H :   -0.004554
  69 H :   -0.011148
  70 H :    0.027789
  71 H :    0.044439
  72 H :    0.012530
  73 H :    0.009389
  74 H :    0.005871
  75 H :    0.022118
  76 H :    0.026022
  77 H :    0.000348
  78 H :    0.026185
  79 H :    0.002872
  80 H :    0.011766
  81 H :    0.011005
  82 H :    0.003277
  83 H :    0.009350
  84 H :   -0.007937
  85 H :   -0.006469
  86 H :   -0.008830
  87 H :   -0.008058
  88 H :   -0.007496
  89 H :   -0.003114
  90 H :    0.014341
  91 H :    0.030981
  92 H :    0.031313
Sum of atomic charges:   -0.0000000

LOEWDIN ATOMIC CHARGES
----------------------
   0 C :    0.079710
   1 C :   -0.150945
   2 C :   -0.018446
   3 N :   -0.059371
   4 C :   -0.018700
   5 N :   -0.061841
   6 C :   -0.020761
   7 C :   -0.049200
   8 C :    0.020123
   9 C :   -0.033440
  10 C :   -0.144889
  11 C :   -0.009932
  12 S :    0.432046
  13 C :   -0.272527
  14 C :   -0.070700
  15 Br:    0.134714
  16 C :    0.081485
  17 O :   -0.164553
  18 C :   -0.114811
  19 C :    0.056719
  20 C :   -0.193758
  21 S :    0.512799
  22 C :   -0.148826
  23 C :   -0.068943
  24 C :   -0.009482
  25 C :   -0.028383
  26 C :   -0.022866
  27 C :   -0.013292
  28 C :   -0.063929
  29 C :    0.113566
  30 O :   -0.120817
  31 C :   -0.022228
  32 C :   -0.011524
  33 C :    0.023176
  34 N :   -0.091087
  35 C :    0.053527
  36 C :   -0.058655
  37 C :    0.034516
  38 N :   -0.089206
  39 C :   -0.043186
  40 C :    0.000446
  41 C :   -0.051267
  42 C :   -0.136722
  43 C :   -0.018700
  44 C :   -0.035947
  45 C :   -0.165565
  46 S :    0.405680
  47 C :   -0.181042
  48 C :   -0.020519
  49 C :   -0.034943
  50 C :   -0.125963
  51 S :    0.421834
  52 C :   -0.097148
  53 C :    0.071647
  54 O :    0.024997
  55 C :    0.055234
  56 C :   -0.104833
  57 C :   -0.109827
  58 C :   -0.060953
  59 N :   -0.051908
  60 C :    0.171910
  61 F :   -0.054977
  62 F :   -0.058385
  63 F :   -0.055233
  64 C :   -0.044701
  65 C :   -0.013882
  66 H :    0.040452
  67 H :    0.040946
  68 H :    0.038216
  69 H :    0.047157
  70 H :    0.040814
  71 H :    0.040247
  72 H :    0.030993
  73 H :    0.025823
  74 H :    0.023966
  75 H :    0.032409
  76 H :    0.043453
  77 H :   -0.005090
  78 H :    0.039159
  79 H :    0.030078
  80 H :    0.029022
  81 H :    0.038991
  82 H :    0.015262
  83 H :    0.036298
  84 H :    0.036508
  85 H :    0.036005
  86 H :    0.033266
  87 H :    0.034465
  88 H :    0.034812
  89 H :    0.044465
  90 H :    0.038894
  91 H :    0.027154
  92 H :    0.030920

  Mayer bond orders larger than 0.100000
B(  0-C ,  1-C ) :   1.6039 B(  0-C ,  6-C ) :   0.9953 B(  0-C , 18-C ) :   1.0957
B(  1-C ,  2-C ) :   1.1461 B(  1-C ,  4-C ) :   1.1534 B(  2-C ,  3-N ) :   2.9657
B(  4-C ,  5-N ) :   2.9515 B(  6-C ,  7-C ) :   1.2770 B(  6-C , 11-C ) :   1.4124
B(  7-C ,  8-C ) :   1.4254 B(  7-C , 16-C ) :   0.9534 B(  8-C ,  9-C ) :   1.2390
B(  8-C , 66-H ) :   1.0178 B(  9-C , 10-C ) :   1.3098 B(  9-C , 14-C ) :   1.1624
B( 10-C , 11-C ) :   1.3262 B( 10-C , 12-S ) :   1.0857 B( 11-C , 67-H ) :   0.9801
B( 12-S , 13-C ) :   1.0873 B( 13-C , 14-C ) :   1.6175 B( 13-C , 15-Br) :   1.0167
B( 14-C , 68-H ) :   1.0007 B( 16-C , 17-O ) :   2.1549 B( 16-C , 18-C ) :   0.9666
B( 18-C , 19-C ) :   1.4874 B( 19-C , 20-C ) :   1.2873 B( 19-C , 69-H ) :   0.9282
B( 20-C , 21-S ) :   1.0841 B( 20-C , 24-C ) :   1.3684 B( 21-S , 22-C ) :   1.1351
B( 22-C , 23-C ) :   1.4011 B( 22-C , 31-C ) :   1.1228 B( 23-C , 24-C ) :   1.4179
B( 23-C , 28-C ) :   0.9360 B( 24-C , 25-C ) :   1.0551 B( 25-C , 26-C ) :   1.0871
B( 25-C , 70-H ) :   0.9027 B( 25-C , 71-H ) :   0.9037 B( 26-C , 27-C ) :   1.0727
B( 26-C , 72-H ) :   0.9304 B( 26-C , 73-H ) :   0.9405 B( 27-C , 28-C ) :   1.0634
B( 27-C , 74-H ) :   0.9390 B( 27-C , 75-H ) :   0.9336 B( 28-C , 29-C ) :   0.9278
B( 28-C , 76-H ) :   0.8785 B( 29-C , 30-O ) :   2.1914 B( 29-C , 77-H ) :   0.9483
B( 31-C , 32-C ) :   1.6826 B( 31-C , 78-H ) :   0.9548 B( 32-C , 33-C ) :   1.0330
B( 32-C , 79-H ) :   0.9747 B( 33-C , 34-N ) :   1.5212 B( 33-C , 38-N ) :   1.5456
B( 34-N , 35-C ) :   1.5467 B( 35-C , 36-C ) :   1.3641 B( 35-C , 80-H ) :   0.9813
B( 36-C , 37-C ) :   1.3296 B( 36-C , 81-H ) :   0.9759 B( 37-C , 38-N ) :   1.4969
B( 37-C , 39-C ) :   1.1084 B( 39-C , 40-C ) :   1.6635 B( 39-C , 82-H ) :   0.9536
B( 40-C , 41-C ) :   1.1596 B( 40-C , 83-H ) :   0.9588 B( 41-C , 42-C ) :   1.5904
B( 41-C , 84-H ) :   0.9661 B( 42-C , 43-C ) :   1.1337 B( 42-C , 46-S ) :   1.0386
B( 43-C , 44-C ) :   1.6043 B( 43-C , 85-H ) :   0.9986 B( 44-C , 45-C ) :   1.1741
B( 44-C , 86-H ) :   0.9936 B( 45-C , 46-S ) :   1.0528 B( 45-C , 47-C ) :   1.5206
B( 47-C , 48-C ) :   1.1796 B( 47-C , 51-S ) :   1.0434 B( 48-C , 49-C ) :   1.5980
B( 48-C , 87-H ) :   0.9918 B( 49-C , 50-C ) :   1.1372 B( 49-C , 88-H ) :   1.0002
B( 50-C , 51-S ) :   1.0611 B( 50-C , 52-C ) :   1.5684 B( 52-C , 53-C ) :   1.1905
B( 52-C , 89-H ) :   0.9446 B( 53-C , 54-O ) :   1.1283 B( 53-C , 57-C ) :   1.3899
B( 54-O , 55-C ) :   1.1400 B( 55-C , 56-C ) :   1.4928 B( 55-C , 64-C ) :   1.1352
B( 56-C , 57-C ) :   1.2597 B( 56-C , 60-C ) :   0.9417 B( 57-C , 58-C ) :   1.1490
B( 58-C , 59-N ) :   2.9862 B( 60-C , 61-F ) :   1.1539 B( 60-C , 62-F ) :   1.1838
B( 60-C , 63-F ) :   1.1807 B( 64-C , 65-C ) :   1.9123 B( 64-C , 90-H ) :   0.9507
B( 65-C , 91-H ) :   0.9586 B( 65-C , 92-H ) :   0.9447

-----------------------------------------------------------------------------
         ABSORPTION SPECTRUM VIA TRANSITION ELECTRIC DIPOLE MOMENTS
-----------------------------------------------------------------------------
State   Energy  Wavelength   fosc         T2         TX        TY        TZ
        (cm-1)    (nm)                  (au**2)     (au)      (au)      (au)
-----------------------------------------------------------------------------
   0   14830.0    674.3   1.245896350  27.65768   2.52449   0.49689   4.58669
   1   20073.5    498.2   0.422037650   6.92155   0.63636  -1.14765   2.28024
   2   20814.6    480.4   0.547010456   8.65175  -0.39069   1.37971  -2.56817
   3   23771.1    420.7   0.001615083   0.02237   0.02225  -0.07669  -0.12645
   4   25667.0    389.6   0.104659459   1.34239  -0.93615   0.67324  -0.11298
   5   25933.0    385.6   0.035628303   0.45229   0.24425  -0.02207  -0.62621
   6   27661.0    361.5   0.633265626   7.53691  -2.14645   1.47801   0.86323
   7   28054.3    356.5   0.445812838   5.23153   1.32642  -1.84271  -0.27666
   8   28175.2    354.9   0.035752505   0.41775   0.43889  -0.47175  -0.05070
   9   28476.6    351.2   0.297989189   3.44499  -1.18873   1.35928   0.42929
  10   29597.9    337.9   0.004993050   0.05554  -0.12593   0.14140  -0.14029
  11   29899.8    334.5   0.005340305   0.05880   0.02164  -0.23239  -0.06578
  12   30833.1    324.3   0.008523108   0.09100  -0.12626   0.11858   0.24698
  13   31349.1    319.0   0.078024000   0.81937  -0.78447   0.42549   0.15143
  14   31453.0    317.9   0.017214724   0.18018   0.26131  -0.29685  -0.15421
  15   31464.5    317.8   0.020507287   0.21457  -0.41093   0.20774  -0.05048
  16   31894.9    313.5   0.000130365   0.00135  -0.01249  -0.03326   0.00912
  17   32022.6    312.3   0.064189287   0.65990  -0.36024   0.64576   0.33633
  18   32702.4    305.8   0.074693674   0.75193   0.65226  -0.42269   0.38448
  19   32797.5    304.9   0.140150856   1.40679  -0.24429   1.00280   0.58438
  20   33117.9    302.0   0.115551527   1.14865   0.46569  -0.74000  -0.61982
  21   33375.8    299.6   0.163509894   1.61283  -0.50892   0.93779   0.68875
  22   34117.7    293.1   0.231473610   2.23356  -0.56277   0.72566   1.17909
  23   34389.4    290.8   0.052461607   0.50222  -0.16102   0.30931   0.61694
  24   34975.4    285.9   0.047891185   0.45078   0.29650  -0.48458  -0.35785
  25   35606.9    280.8   0.131506447   1.21587  -0.27578   0.46305   0.96198
  26   35738.3    279.8   0.223663511   2.06033  -0.49110   0.67193   1.16947
  27   36915.0    270.9   0.126360257   1.12689   0.69518  -0.77220   0.21752
  28   36969.1    270.5   0.064267158   0.57230   0.19232  -0.54847   0.48424
  29   37608.3    265.9   0.105433791   0.92294   0.56148  -0.22732   0.74566
  30   37891.3    263.9   0.004917496   0.04272  -0.08517   0.14783  -0.11670
  31   38506.2    259.7   0.036267990   0.31008  -0.28520   0.36159   0.31304
  32   38842.4    257.5   0.081784633   0.69317  -0.14480   0.26828  -0.77475
  33   39457.9    253.4   0.007494298   0.06253  -0.07681  -0.17146   0.16501
  34   39840.0    251.0   0.070161269   0.57977   0.09309  -0.39794  -0.64245
  35   40132.0    249.2   0.013054804   0.10709   0.07856  -0.16462  -0.27170

FINAL SINGLE POINT ENERGY     -6883.305900665104

DIPOLE MOMENT
-------------
                                X             Y             Z
Electronic contribution:    -54.02729      95.27149     -60.28300
Nuclear contribution   :     52.46613     -92.74864      64.20878
                        -----------------------------------------
Total Dipole Moment    :     -1.56116       2.52285       3.92578
                        -----------------------------------------
Magnitude (a.u.)       :      4.92075
Magnitude (Debye)      :     12.50755

Rotational constants in cm-1:     0.001060     0.000253     0.000214
Rotational constants in MHz :    31.786784     7.591084     6.417166

                             ****ORCA TERMINATED NORMALLY****
TOTAL RUN TIME: 0 days 0 hours 8 minutes 4 seconds 339 msec
