                         Program Version 4.2.0 -  RELEASE  -
|  1> # ORCA input file
|  2> # SCF done       -183.585481635019          0.002590452582
|  3> ! CAM-B3LYP def2-SVP def2/J RIJCOSX Grid4 TightSCF
|  4> %maxcore 5000
|  5> %tddft
|  6>     Mode sTDDFT
|  7>     Ethresh 5.0
|  8>     maxcore 5000
|  9> end
| 10>
| 11> %pal
| 12>   nprocs 6
| 13>   end
| 14> * xyz 0 1
| 15>    C       -5.86923         4.07197        -7.72866
| 16>    C       -5.93049         4.91854        -8.81978
| 17>    C       -4.86257         5.17629        -9.69628
| 18>    N       -4.04617         5.45991       -10.45485
| 19>    C       -7.03808         5.68158        -9.18871
| 20>    N       -7.88074         6.37749        -9.55895
| 21>    C       -4.67062         3.40476        -7.25120
| 22>    C       -4.99676         2.64394        -6.09748
| 23>    C       -4.05689         1.94927        -5.37900
| 24>    C       -2.72801         2.01281        -5.81175
| 25>    C       -2.41273         2.77489        -6.96127
| 26>    C       -3.36249         3.46832        -7.69749
| 27>    S       -0.70764         2.73850        -7.30270
| 28>    C       -0.44820         1.70954        -5.91690
| 29>    C       -1.57773         1.41018        -5.23346
| 30>   Br        1.28869         1.12930        -5.50472
| 31>    C       -6.42818         2.80838        -5.81520
| 32>    O       -7.07762         2.26227        -4.92857
| 33>    C       -6.93152         3.75216        -6.82165
| 34>    C       -8.20437         4.27498        -6.74490
| 35>    N       -9.00390         3.92068        -5.74650
| 36>    C      -10.26953         4.37393        -5.44247
| 37>    C      -11.19922         4.84067        -6.32760
| 38>    S      -12.71587         5.13145        -5.58270
| 39>    C      -12.10226         4.66129        -4.04648
| 40>    C      -10.78574         4.29958        -4.09796
| 41>    N      -10.03069         3.90882        -3.01215
| 42>    C       -8.68706         4.13646        -2.90330
| 43>    C       -7.87860         3.56038        -1.98290
| 44>    C       -6.46846         3.67106        -1.95804
| 45>    C       -5.61276         4.31536        -2.81475
| 46>    C       -4.19877         4.19164        -2.78355
| 47>    C       -3.54036         4.84171        -3.78038
| 48>    C       -4.38475         5.55717        -4.65924
| 49>    S       -6.05379         5.36701        -4.15976
| 50>    C       -4.02567         6.27919        -5.77819
| 51>    C       -2.73546         6.38039        -6.35187
| 52>    C       -2.69098         7.09849        -7.50366
| 53>    C       -3.94451         7.61628        -7.91995
| 54>    S       -5.18562         7.18891        -6.72987
| 55>    C       -4.18693         8.26757        -9.09209
| 56>    N       -5.39894         8.68136        -9.52172
| 57>    C       -5.62259         9.32999       -10.71501
| 58>    C       -4.68801         9.91598       -11.52372
| 59>    S       -5.39300        10.70876       -12.87657
| 60>    C       -6.96963        10.26297       -12.37665
| 61>    C       -6.95231         9.52098       -11.23373
| 62>    N       -8.05782         8.98357       -10.59325
| 63>    C       -9.18396         9.63115       -10.29156
| 64>    C      -10.05320         9.11864        -9.36739
| 65>    C      -11.08275         9.84477        -8.77128
| 66>    C      -11.58807         9.58152        -7.51493
| 67>    C      -11.04816         8.79462        -6.44625
| 68>    C       -9.74892         8.34269        -6.27867
| 69>    C       -9.33510         7.55393        -5.19393
| 70>    N       -8.94449         6.85469        -4.36843
| 71>    C       -8.62997         8.59508        -7.08568
| 72>    N       -7.62553         8.73391        -7.63358
| 73>    C      -12.08140         8.69643        -5.41444
| 74>    C      -13.19030         9.48903        -5.79954
| 75>    C      -12.88900        10.13166        -7.09868
| 76>    O      -13.57869        10.92600        -7.70405
| 77>    C      -14.32561         9.59814        -5.03812
| 78>    C      -14.37662         8.88314        -3.83503
| 79>    C      -13.25842         8.11259        -3.44948
| 80>    C      -12.10270         8.01388        -4.21384
| 81>    S      -13.53104         7.30952        -1.93111
| 82>    C      -15.12648         8.00821        -1.84052
| 83>    C      -15.43571         8.80658        -2.88906
| 84>   Br      -16.22873         7.61371        -0.37274
| 85>    H       -4.33394         1.38782        -4.50056
| 86>    H       -3.07216         4.03979        -8.56308
| 87>    H       -1.60089         0.78967        -4.35614
| 88>    H       -8.56810         5.00683        -7.45426
| 89>    H       -8.56934         3.25971        -5.08318
| 90>    H      -11.09216         4.98258        -7.38391
| 91>    H      -12.74387         4.68569        -3.18944
| 92>    H      -10.52014         3.51315        -2.22186
| 93>    H       -8.29460         4.84358        -3.61357
| 94>    H       -8.31560         2.90262        -1.24226
| 95>    H       -5.97459         3.09967        -1.18151
| 96>    H       -3.71201         3.60075        -2.02714
| 97>    H       -2.47202         4.83208        -3.90433
| 98>    H       -1.88293         5.90239        -5.90409
| 99>    H       -1.80308         7.25989        -8.08842
|100>    H       -3.35712         8.42801        -9.76428
|101>    H       -6.19275         8.57329        -8.88539
|102>    H       -3.62640         9.95584       -11.40127
|103>    H       -7.81924        10.54220       -12.96613
|104>    H       -7.93708         8.06011       -10.15476
|105>    H       -9.31389        10.62359       -10.70306
|106>    H       -9.83611         8.13251        -8.98335
|107>    H      -11.53062        10.67609        -9.30266
|108>    H      -15.15245        10.21285        -5.35791
|109>    H      -11.27756         7.41562        -3.86624
|110>    H      -16.37526         9.31718        -2.99529
|111> *
|112>
|113>                          ****END OF INPUT****

CARTESIAN COORDINATES (ANGSTROEM)
---------------------------------
  C     -5.869230    4.071970   -7.728660
  C     -5.930490    4.918540   -8.819780
  C     -4.862570    5.176290   -9.696280
  N     -4.046170    5.459910  -10.454850
  C     -7.038080    5.681580   -9.188710
  N     -7.880740    6.377490   -9.558950
  C     -4.670620    3.404760   -7.251200
  C     -4.996760    2.643940   -6.097480
  C     -4.056890    1.949270   -5.379000
  C     -2.728010    2.012810   -5.811750
  C     -2.412730    2.774890   -6.961270
  C     -3.362490    3.468320   -7.697490
  S     -0.707640    2.738500   -7.302700
  C     -0.448200    1.709540   -5.916900
  C     -1.577730    1.410180   -5.233460
  Br     1.288690    1.129300   -5.504720
  C     -6.428180    2.808380   -5.815200
  O     -7.077620    2.262270   -4.928570
  C     -6.931520    3.752160   -6.821650
  C     -8.204370    4.274980   -6.744900
  N     -9.003900    3.920680   -5.746500
  C    -10.269530    4.373930   -5.442470
  C    -11.199220    4.840670   -6.327600
  S    -12.715870    5.131450   -5.582700
  C    -12.102260    4.661290   -4.046480
  C    -10.785740    4.299580   -4.097960
  N    -10.030690    3.908820   -3.012150
  C     -8.687060    4.136460   -2.903300
  C     -7.878600    3.560380   -1.982900
  C     -6.468460    3.671060   -1.958040
  C     -5.612760    4.315360   -2.814750
  C     -4.198770    4.191640   -2.783550
  C     -3.540360    4.841710   -3.780380
  C     -4.384750    5.557170   -4.659240
  S     -6.053790    5.367010   -4.159760
  C     -4.025670    6.279190   -5.778190
  C     -2.735460    6.380390   -6.351870
  C     -2.690980    7.098490   -7.503660
  C     -3.944510    7.616280   -7.919950
  S     -5.185620    7.188910   -6.729870
  C     -4.186930    8.267570   -9.092090
  N     -5.398940    8.681360   -9.521720
  C     -5.622590    9.329990  -10.715010
  C     -4.688010    9.915980  -11.523720
  S     -5.393000   10.708760  -12.876570
  C     -6.969630   10.262970  -12.376650
  C     -6.952310    9.520980  -11.233730
  N     -8.057820    8.983570  -10.593250
  C     -9.183960    9.631150  -10.291560
  C    -10.053200    9.118640   -9.367390
  C    -11.082750    9.844770   -8.771280
  C    -11.588070    9.581520   -7.514930
  C    -11.048160    8.794620   -6.446250
  C     -9.748920    8.342690   -6.278670
  C     -9.335100    7.553930   -5.193930
  N     -8.944490    6.854690   -4.368430
  C     -8.629970    8.595080   -7.085680
  N     -7.625530    8.733910   -7.633580
  C    -12.081400    8.696430   -5.414440
  C    -13.190300    9.489030   -5.799540
  C    -12.889000   10.131660   -7.098680
  O    -13.578690   10.926000   -7.704050
  C    -14.325610    9.598140   -5.038120
  C    -14.376620    8.883140   -3.835030
  C    -13.258420    8.112590   -3.449480
  C    -12.102700    8.013880   -4.213840
  S    -13.531040    7.309520   -1.931110
  C    -15.126480    8.008210   -1.840520
  C    -15.435710    8.806580   -2.889060
  Br   -16.228730    7.613710   -0.372740
  H     -4.333940    1.387820   -4.500560
  H     -3.072160    4.039790   -8.563080
  H     -1.600890    0.789670   -4.356140
  H     -8.568100    5.006830   -7.454260
  H     -8.569340    3.259710   -5.083180
  H    -11.092160    4.982580   -7.383910
  H    -12.743870    4.685690   -3.189440
  H    -10.520140    3.513150   -2.221860
  H     -8.294600    4.843580   -3.613570
  H     -8.315600    2.902620   -1.242260
  H     -5.974590    3.099670   -1.181510
  H     -3.712010    3.600750   -2.027140
  H     -2.472020    4.832080   -3.904330
  H     -1.882930    5.902390   -5.904090
  H     -1.803080    7.259890   -8.088420
  H     -3.357120    8.428010   -9.764280
  H     -6.192750    8.573290   -8.885390
  H     -3.626400    9.955840  -11.401270
  H     -7.819240   10.542200  -12.966130
  H     -7.937080    8.060110  -10.154760
  H     -9.313890   10.623590  -10.703060
  H     -9.836110    8.132510   -8.983350
  H    -11.530620   10.676090   -9.302660
  H    -15.152450   10.212850   -5.357910
  H    -11.277560    7.415620   -3.866240
  H    -16.375260    9.317180   -2.995290

 Total Charge           Charge          ....    0
 Multiplicity           Mult            ....    1
 Number of Electrons    NEL             ....  576
 Basis Dimension        Dim             .... 1170

ORBITAL ENERGIES
----------------

  NO   OCC          E(Eh)            E(eV)
   0   2.0000    -482.883197    -13139.9198
   1   2.0000    -482.879481    -13139.8187
   2   2.0000     -88.972348     -2421.0607
   3   2.0000     -88.967476     -2420.9281
   4   2.0000     -88.961170     -2420.7565
   5   2.0000     -88.954410     -2420.5726
   6   2.0000     -88.925297     -2419.7803
   7   2.0000     -88.924425     -2419.7566
   8   2.0000     -62.560904     -1702.3687
   9   2.0000     -62.557159     -1702.2668
  10   2.0000     -56.394855     -1534.5820
  11   2.0000     -56.392145     -1534.5083
  12   2.0000     -56.392106     -1534.5072
  13   2.0000     -56.391098     -1534.4798
  14   2.0000     -56.388408     -1534.4066
  15   2.0000     -56.388369     -1534.4055
  16   2.0000     -19.208819      -522.6985
  17   2.0000     -19.198248      -522.4109
  18   2.0000     -14.469561      -393.7368
  19   2.0000     -14.461589      -393.5198
  20   2.0000     -14.444497      -393.0547
  21   2.0000     -14.438147      -392.8820
  22   2.0000     -14.424943      -392.5226
  23   2.0000     -14.415100      -392.2548
  24   2.0000     -14.408719      -392.0812
  25   2.0000     -14.401465      -391.8838
  26   2.0000     -10.358106      -281.8584
  27   2.0000     -10.354419      -281.7581
  28   2.0000     -10.352799      -281.7140
  29   2.0000     -10.350412      -281.6490
  30   2.0000     -10.349113      -281.6137
  31   2.0000     -10.347643      -281.5737
  32   2.0000     -10.336871      -281.2805
  33   2.0000     -10.334081      -281.2046
  34   2.0000     -10.330820      -281.1159
  35   2.0000     -10.326576      -281.0004
  36   2.0000     -10.325987      -280.9844
  37   2.0000     -10.325590      -280.9736
  38   2.0000     -10.323540      -280.9178
  39   2.0000     -10.321967      -280.8750
  40   2.0000     -10.318874      -280.7908
  41   2.0000     -10.317487      -280.7531
  42   2.0000     -10.316940      -280.7382
  43   2.0000     -10.315889      -280.7096
  44   2.0000     -10.313824      -280.6534
  45   2.0000     -10.309580      -280.5379
  46   2.0000     -10.308835      -280.5177
  47   2.0000     -10.307366      -280.4777
  48   2.0000     -10.299903      -280.2746
  49   2.0000     -10.299353      -280.2596
  50   2.0000     -10.297145      -280.1995
  51   2.0000     -10.296011      -280.1687
  52   2.0000     -10.295743      -280.1614
  53   2.0000     -10.295165      -280.1457
  54   2.0000     -10.294172      -280.1186
  55   2.0000     -10.293039      -280.0878
  56   2.0000     -10.292767      -280.0804
  57   2.0000     -10.291961      -280.0585
  58   2.0000     -10.291215      -280.0382
  59   2.0000     -10.289949      -280.0038
  60   2.0000     -10.289005      -279.9781
  61   2.0000     -10.288658      -279.9686
  62   2.0000     -10.288114      -279.9538
  63   2.0000     -10.283531      -279.8291
  64   2.0000     -10.281237      -279.7667
  65   2.0000     -10.280959      -279.7591
  66   2.0000     -10.279309      -279.7142
  67   2.0000     -10.278266      -279.6858
  68   2.0000     -10.277238      -279.6579
  69   2.0000     -10.275951      -279.6228
  70   2.0000     -10.271611      -279.5047
  71   2.0000     -10.271553      -279.5032
  72   2.0000     -10.269045      -279.4349
  73   2.0000     -10.260996      -279.2159
  74   2.0000     -10.259985      -279.1884
  75   2.0000     -10.259041      -279.1627
  76   2.0000     -10.257477      -279.1201
  77   2.0000     -10.246906      -278.8325
  78   2.0000      -8.790313      -239.1966
  79   2.0000      -8.786562      -239.0945
  80   2.0000      -8.068005      -219.5416
  81   2.0000      -8.063277      -219.4129
  82   2.0000      -8.055986      -219.2145
  83   2.0000      -8.050227      -219.0578
  84   2.0000      -8.019912      -218.2329
  85   2.0000      -8.018453      -218.1932
  86   2.0000      -6.626590      -180.3187
  87   2.0000      -6.622778      -180.2150
  88   2.0000      -6.612045      -179.9229
  89   2.0000      -6.611875      -179.9183
  90   2.0000      -6.608320      -179.8215
  91   2.0000      -6.608163      -179.8173
  92   2.0000      -6.037704      -164.2943
  93   2.0000      -6.033425      -164.1778
  94   2.0000      -6.032951      -164.1649
  95   2.0000      -6.029313      -164.0660
  96   2.0000      -6.028721      -164.0498
  97   2.0000      -6.025474      -163.9615
  98   2.0000      -6.024545      -163.9362
  99   2.0000      -6.021132      -163.8433
 100   2.0000      -6.019686      -163.8040
 101   2.0000      -6.018100      -163.7608
 102   2.0000      -6.015340      -163.6857
 103   2.0000      -6.012262      -163.6020
 104   2.0000      -5.989863      -162.9924
 105   2.0000      -5.988281      -162.9494
 106   2.0000      -5.985830      -162.8827
 107   2.0000      -5.984179      -162.8378
 108   2.0000      -5.980650      -162.7418
 109   2.0000      -5.979638      -162.7142
 110   2.0000      -2.742440       -74.6256
 111   2.0000      -2.738689       -74.5235
 112   2.0000      -2.738344       -74.5141
 113   2.0000      -2.738298       -74.5129
 114   2.0000      -2.734576       -74.4116
 115   2.0000      -2.734482       -74.4090
 116   2.0000      -2.726701       -74.1973
 117   2.0000      -2.726681       -74.1968
 118   2.0000      -2.722970       -74.0958
 119   2.0000      -2.722964       -74.0956
 120   2.0000      -1.123628       -30.5755
 121   2.0000      -1.112134       -30.2627
 122   2.0000      -1.079406       -29.3721
 123   2.0000      -1.075290       -29.2601
 124   2.0000      -1.041673       -28.3454
 125   2.0000      -1.041562       -28.3423
 126   2.0000      -1.019746       -27.7487
 127   2.0000      -1.016825       -27.6692
 128   2.0000      -1.010545       -27.4983
 129   2.0000      -1.008915       -27.4540
 130   2.0000      -0.992868       -27.0173
 131   2.0000      -0.990435       -26.9511
 132   2.0000      -0.980941       -26.6928
 133   2.0000      -0.979373       -26.6501
 134   2.0000      -0.973093       -26.4792
 135   2.0000      -0.972569       -26.4650
 136   2.0000      -0.965810       -26.2810
 137   2.0000      -0.945587       -25.7307
 138   2.0000      -0.936259       -25.4769
 139   2.0000      -0.930940       -25.3322
 140   2.0000      -0.906852       -24.6767
 141   2.0000      -0.901378       -24.5277
 142   2.0000      -0.900006       -24.4904
 143   2.0000      -0.884397       -24.0657
 144   2.0000      -0.879151       -23.9229
 145   2.0000      -0.878625       -23.9086
 146   2.0000      -0.875458       -23.8224
 147   2.0000      -0.872866       -23.7519
 148   2.0000      -0.857741       -23.3403
 149   2.0000      -0.851486       -23.1701
 150   2.0000      -0.839781       -22.8516
 151   2.0000      -0.830619       -22.6023
 152   2.0000      -0.822560       -22.3830
 153   2.0000      -0.822372       -22.3779
 154   2.0000      -0.819970       -22.3125
 155   2.0000      -0.805577       -21.9209
 156   2.0000      -0.802676       -21.8419
 157   2.0000      -0.800524       -21.7834
 158   2.0000      -0.798302       -21.7229
 159   2.0000      -0.785956       -21.3870
 160   2.0000      -0.763742       -20.7825
 161   2.0000      -0.762102       -20.7379
 162   2.0000      -0.753396       -20.5009
 163   2.0000      -0.750369       -20.4186
 164   2.0000      -0.748464       -20.3667
 165   2.0000      -0.724437       -19.7129
 166   2.0000      -0.716492       -19.4967
 167   2.0000      -0.708152       -19.2698
 168   2.0000      -0.696615       -18.9559
 169   2.0000      -0.696221       -18.9451
 170   2.0000      -0.687413       -18.7054
 171   2.0000      -0.681195       -18.5363
 172   2.0000      -0.679009       -18.4768
 173   2.0000      -0.675163       -18.3721
 174   2.0000      -0.671236       -18.2653
 175   2.0000      -0.665748       -18.1159
 176   2.0000      -0.660217       -17.9654
 177   2.0000      -0.657111       -17.8809
 178   2.0000      -0.651219       -17.7206
 179   2.0000      -0.648586       -17.6489
 180   2.0000      -0.643095       -17.4995
 181   2.0000      -0.636828       -17.3290
 182   2.0000      -0.634760       -17.2727
 183   2.0000      -0.623628       -16.9698
 184   2.0000      -0.621677       -16.9167
 185   2.0000      -0.614127       -16.7112
 186   2.0000      -0.610672       -16.6172
 187   2.0000      -0.608275       -16.5520
 188   2.0000      -0.600822       -16.3492
 189   2.0000      -0.598597       -16.2886
 190   2.0000      -0.592641       -16.1266
 191   2.0000      -0.589015       -16.0279
 192   2.0000      -0.586692       -15.9647
 193   2.0000      -0.579292       -15.7633
 194   2.0000      -0.571576       -15.5534
 195   2.0000      -0.568568       -15.4715
 196   2.0000      -0.563783       -15.3413
 197   2.0000      -0.551894       -15.0178
 198   2.0000      -0.549876       -14.9629
 199   2.0000      -0.545976       -14.8568
 200   2.0000      -0.544190       -14.8082
 201   2.0000      -0.542397       -14.7594
 202   2.0000      -0.540686       -14.7128
 203   2.0000      -0.534271       -14.5382
 204   2.0000      -0.533124       -14.5070
 205   2.0000      -0.527172       -14.3451
 206   2.0000      -0.526687       -14.3319
 207   2.0000      -0.522469       -14.2171
 208   2.0000      -0.521454       -14.1895
 209   2.0000      -0.518325       -14.1043
 210   2.0000      -0.514954       -14.0126
 211   2.0000      -0.511030       -13.9058
 212   2.0000      -0.508362       -13.8332
 213   2.0000      -0.507357       -13.8059
 214   2.0000      -0.505127       -13.7452
 215   2.0000      -0.503138       -13.6911
 216   2.0000      -0.502155       -13.6643
 217   2.0000      -0.500866       -13.6293
 218   2.0000      -0.496259       -13.5039
 219   2.0000      -0.494973       -13.4689
 220   2.0000      -0.492911       -13.4128
 221   2.0000      -0.490667       -13.3517
 222   2.0000      -0.486801       -13.2465
 223   2.0000      -0.485895       -13.2219
 224   2.0000      -0.485692       -13.2164
 225   2.0000      -0.479853       -13.0575
 226   2.0000      -0.479189       -13.0394
 227   2.0000      -0.474943       -12.9239
 228   2.0000      -0.472502       -12.8574
 229   2.0000      -0.471374       -12.8267
 230   2.0000      -0.468364       -12.7448
 231   2.0000      -0.467944       -12.7334
 232   2.0000      -0.465263       -12.6604
 233   2.0000      -0.462824       -12.5941
 234   2.0000      -0.460438       -12.5291
 235   2.0000      -0.458224       -12.4689
 236   2.0000      -0.454258       -12.3610
 237   2.0000      -0.451549       -12.2873
 238   2.0000      -0.450525       -12.2594
 239   2.0000      -0.446086       -12.1386
 240   2.0000      -0.444790       -12.1033
 241   2.0000      -0.443348       -12.0641
 242   2.0000      -0.441403       -12.0112
 243   2.0000      -0.439173       -11.9505
 244   2.0000      -0.437057       -11.8929
 245   2.0000      -0.434929       -11.8350
 246   2.0000      -0.433404       -11.7935
 247   2.0000      -0.432824       -11.7777
 248   2.0000      -0.429541       -11.6884
 249   2.0000      -0.428016       -11.6469
 250   2.0000      -0.425527       -11.5792
 251   2.0000      -0.424797       -11.5593
 252   2.0000      -0.422963       -11.5094
 253   2.0000      -0.419605       -11.4180
 254   2.0000      -0.417927       -11.3724
 255   2.0000      -0.414736       -11.2855
 256   2.0000      -0.408505       -11.1160
 257   2.0000      -0.406257       -11.0548
 258   2.0000      -0.406105       -11.0507
 259   2.0000      -0.402309       -10.9474
 260   2.0000      -0.401549       -10.9267
 261   2.0000      -0.394268       -10.7286
 262   2.0000      -0.383998       -10.4491
 263   2.0000      -0.379347       -10.3225
 264   2.0000      -0.374816       -10.1993
 265   2.0000      -0.372818       -10.1449
 266   2.0000      -0.369597       -10.0572
 267   2.0000      -0.369014       -10.0414
 268   2.0000      -0.367532       -10.0011
 269   2.0000      -0.359204        -9.7744
 270   2.0000      -0.348794        -9.4912
 271   2.0000      -0.339043        -9.2258
 272   2.0000      -0.333554        -9.0765
 273   2.0000      -0.324230        -8.8227
 274   2.0000      -0.322737        -8.7821
 275   2.0000      -0.314312        -8.5529
 276   2.0000      -0.311283        -8.4704
 277   2.0000      -0.310259        -8.4426
 278   2.0000      -0.307554        -8.3690
 279   2.0000      -0.306945        -8.3524
 280   2.0000      -0.299690        -8.1550
 281   2.0000      -0.289475        -7.8770
 282   2.0000      -0.282998        -7.7008
 283   2.0000      -0.278552        -7.5798
 284   2.0000      -0.264181        -7.1887
 285   2.0000      -0.254093        -6.9142
 286   2.0000      -0.240000        -6.5307
 287   2.0000      -0.180211        -4.9038
 288   0.0000      -0.078731        -2.1424
 289   0.0000      -0.071674        -1.9504
 290   0.0000      -0.043667        -1.1882
 291   0.0000      -0.039888        -1.0854
 292   0.0000      -0.037064        -1.0086

MULLIKEN ATOMIC CHARGES
-----------------------
   0 C :    0.362004
   1 C :   -0.382708
   2 C :   -0.187596
   3 N :    0.131298
   4 C :   -0.115413
   5 N :    0.070227
   6 C :    0.009590
   7 C :    0.008235
   8 C :   -0.056606
   9 C :    0.118319
  10 C :   -0.101913
  11 C :   -0.000415
  12 S :    0.171571
  13 C :   -0.124176
  14 C :    0.029748
  15 Br:    0.013761
  16 C :    0.171928
  17 O :   -0.207187
  18 C :   -0.141065
  19 C :    0.033374
  20 N :   -0.008530
  21 C :    0.091489
  22 C :   -0.188746
  23 S :    0.130945
  24 C :   -0.233929
  25 C :    0.176405
  26 N :   -0.055030
  27 C :    0.001431
  28 C :    0.012759
  29 C :   -0.011139
  30 C :   -0.018211
  31 C :    0.023098
  32 C :    0.032816
  33 C :   -0.048898
  34 S :   -0.008538
  35 C :   -0.054139
  36 C :    0.029254
  37 C :    0.031256
  38 C :   -0.057759
  39 S :    0.043501
  40 C :    0.052960
  41 N :   -0.060800
  42 C :    0.157692
  43 C :   -0.216849
  44 S :    0.125124
  45 C :   -0.172497
  46 C :    0.101403
  47 N :   -0.039625
  48 C :    0.107061
  49 C :   -0.043508
  50 C :    0.040788
  51 C :   -0.159013
  52 C :    0.334923
  53 C :   -0.404153
  54 C :   -0.156115
  55 N :    0.120124
  56 C :   -0.148777
  57 N :    0.124253
  58 C :    0.002525
  59 C :    0.003678
  60 C :    0.132279
  61 O :   -0.159067
  62 C :   -0.085494
  63 C :    0.124899
  64 C :   -0.102620
  65 C :   -0.008261
  66 S :    0.165058
  67 C :   -0.125563
  68 C :    0.039916
  69 Br:    0.015621
  70 H :   -0.016681
  71 H :   -0.014638
  72 H :   -0.007951
  73 H :    0.018683
  74 H :    0.178765
  75 H :    0.022894
  76 H :    0.003472
  77 H :    0.123432
  78 H :    0.063903
  79 H :   -0.043470
  80 H :   -0.028274
  81 H :   -0.030552
  82 H :   -0.025394
  83 H :   -0.028268
  84 H :   -0.020903
  85 H :    0.003035
  86 H :    0.127767
  87 H :    0.019127
  88 H :    0.011953
  89 H :    0.146586
  90 H :    0.023880
  91 H :    0.028299
  92 H :    0.014310
  93 H :   -0.013858
  94 H :   -0.007817
  95 H :   -0.005273
Sum of atomic charges:   -0.0000000

LOEWDIN ATOMIC CHARGES
----------------------
   0 C :    0.089731
   1 C :   -0.186890
   2 C :   -0.014663
   3 N :   -0.078169
   4 C :    0.039073
   5 N :   -0.102675
   6 C :   -0.015022
   7 C :   -0.042966
   8 C :    0.028298
   9 C :   -0.037732
  10 C :   -0.146526
  11 C :   -0.008526
  12 S :    0.421714
  13 C :   -0.276935
  14 C :   -0.070142
  15 Br:    0.128431
  16 C :    0.086169
  17 O :   -0.168398
  18 C :   -0.160420
  19 C :    0.122513
  20 N :    0.100177
  21 C :   -0.035135
  22 C :   -0.215075
  23 S :    0.462244
  24 C :   -0.235637
  25 C :   -0.018412
  26 N :    0.027193
  27 C :    0.021212
  28 C :   -0.103575
  29 C :   -0.054224
  30 C :   -0.163319
  31 C :   -0.044173
  32 C :   -0.050745
  33 C :   -0.202475
  34 S :    0.397417
  35 C :   -0.181057
  36 C :   -0.061837
  37 C :   -0.023611
  38 C :   -0.210347
  39 S :    0.367817
  40 C :    0.026930
  41 N :    0.033315
  42 C :   -0.014305
  43 C :   -0.235320
  44 S :    0.447410
  45 C :   -0.207670
  46 C :   -0.041156
  47 N :    0.079979
  48 C :    0.115617
  49 C :   -0.109055
  50 C :    0.084969
  51 C :   -0.142390
  52 C :    0.086062
  53 C :   -0.182566
  54 C :   -0.000010
  55 N :   -0.077107
  56 C :    0.025942
  57 N :   -0.090082
  58 C :   -0.021700
  59 C :   -0.046274
  60 C :    0.077304
  61 O :   -0.161363
  62 C :    0.015916
  63 C :   -0.035016
  64 C :   -0.149931
  65 C :   -0.015490
  66 S :    0.422020
  67 C :   -0.276319
  68 C :   -0.067897
  69 Br:    0.129953
  70 H :    0.039293
  71 H :    0.038281
  72 H :    0.037314
  73 H :    0.035667
  74 H :    0.083166
  75 H :    0.024675
  76 H :    0.012449
  77 H :    0.088755
  78 H :    0.004657
  79 H :    0.019622
  80 H :    0.029961
  81 H :    0.025876
  82 H :    0.026554
  83 H :    0.024969
  84 H :    0.030439
  85 H :    0.033154
  86 H :    0.055396
  87 H :    0.021226
  88 H :    0.023757
  89 H :    0.064202
  90 H :    0.035414
  91 H :    0.032977
  92 H :    0.041960
  93 H :    0.039562
  94 H :    0.037171
  95 H :    0.038434

  Mayer bond orders larger than 0.100000
B(  0-C ,  1-C ) :   1.5203 B(  0-C ,  6-C ) :   1.0131 B(  0-C , 18-C ) :   1.1612
B(  1-C ,  2-C ) :   1.1660 B(  1-C ,  4-C ) :   1.2165 B(  2-C ,  3-N ) :   2.9093
B(  4-C ,  5-N ) :   2.7764 B(  5-N , 89-H ) :   0.1502 B(  6-C ,  7-C ) :   1.2721
B(  6-C , 11-C ) :   1.4266 B(  7-C ,  8-C ) :   1.4386 B(  7-C , 16-C ) :   0.9787
B(  8-C ,  9-C ) :   1.2240 B(  8-C , 70-H ) :   1.0155 B(  9-C , 10-C ) :   1.3230
B(  9-C , 14-C ) :   1.1587 B( 10-C , 11-C ) :   1.3188 B( 10-C , 12-S ) :   1.0779
B( 11-C , 71-H ) :   0.9733 B( 12-S , 13-C ) :   1.0816 B( 13-C , 14-C ) :   1.6178
B( 13-C , 15-Br) :   1.0130 B( 14-C , 72-H ) :   1.0022 B( 16-C , 17-O ) :   2.0485
B( 16-C , 18-C ) :   0.9785 B( 17-O , 74-H ) :   0.1434 B( 18-C , 19-C ) :   1.3771
B( 19-C , 20-N ) :   1.4146 B( 19-C , 73-H ) :   0.9438 B( 20-N , 21-C ) :   1.0749
B( 20-N , 74-H ) :   0.8332 B( 21-C , 22-C ) :   1.5176 B( 21-C , 25-C ) :   1.2407
B( 22-C , 23-S ) :   1.1728 B( 22-C , 75-H ) :   0.9746 B( 23-S , 24-C ) :   1.1491
B( 24-C , 25-C ) :   1.4871 B( 24-C , 76-H ) :   0.9769 B( 25-C , 26-N ) :   1.1239
B( 26-N , 27-C ) :   1.1321 B( 26-N , 77-H ) :   0.9225 B( 27-C , 28-C ) :   1.6432
B( 27-C , 78-H ) :   0.9275 B( 28-C , 29-C ) :   1.1974 B( 28-C , 79-H ) :   0.9620
B( 29-C , 30-C ) :   1.5978 B( 29-C , 80-H ) :   0.9566 B( 30-C , 31-C ) :   1.1413
B( 30-C , 34-S ) :   1.0126 B( 31-C , 32-C ) :   1.5821 B( 31-C , 81-H ) :   0.9988
B( 32-C , 33-C ) :   1.1835 B( 32-C , 82-H ) :   0.9906 B( 33-C , 34-S ) :   1.0364
B( 33-C , 35-C ) :   1.5124 B( 35-C , 36-C ) :   1.1784 B( 35-C , 39-S ) :   1.0450
B( 36-C , 37-C ) :   1.5989 B( 36-C , 83-H ) :   0.9918 B( 37-C , 38-C ) :   1.1461
B( 37-C , 84-H ) :   0.9967 B( 38-C , 39-S ) :   1.0003 B( 38-C , 40-C ) :   1.5823
B( 40-C , 41-N ) :   1.2071 B( 40-C , 85-H ) :   0.9603 B( 41-N , 42-C ) :   1.1494
B( 41-N , 86-H ) :   0.8561 B( 42-C , 43-C ) :   1.5053 B( 42-C , 46-C ) :   1.2463
B( 43-C , 44-S ) :   1.1384 B( 43-C , 87-H ) :   0.9719 B( 44-S , 45-C ) :   1.1749
B( 45-C , 46-C ) :   1.5340 B( 45-C , 88-H ) :   0.9798 B( 46-C , 47-N ) :   1.0528
B( 47-N , 48-C ) :   1.3542 B( 47-N , 89-H ) :   0.8527 B( 48-C , 49-C ) :   1.4388
B( 48-C , 90-H ) :   0.9761 B( 49-C , 50-C ) :   1.2924 B( 49-C , 91-H ) :   0.9489
B( 50-C , 51-C ) :   1.4388 B( 50-C , 92-H ) :   0.9617 B( 51-C , 52-C ) :   1.1484
B( 51-C , 60-C ) :   0.9742 B( 52-C , 53-C ) :   1.4995 B( 52-C , 58-C ) :   1.0102
B( 53-C , 54-C ) :   1.1618 B( 53-C , 56-C ) :   1.1921 B( 54-C , 55-N ) :   2.8611
B( 56-C , 57-N ) :   2.8612 B( 57-N , 86-H ) :   0.1509 B( 58-C , 59-C ) :   1.2844
B( 58-C , 65-C ) :   1.4113 B( 59-C , 60-C ) :   0.9108 B( 59-C , 62-C ) :   1.4353
B( 60-C , 61-O ) :   2.2643 B( 62-C , 63-C ) :   1.2305 B( 62-C , 93-H ) :   1.0155
B( 63-C , 64-C ) :   1.3268 B( 63-C , 68-C ) :   1.1570 B( 64-C , 65-C ) :   1.3218
B( 64-C , 66-S ) :   1.0789 B( 65-C , 94-H ) :   0.9776 B( 66-S , 67-C ) :   1.0814
B( 67-C , 68-C ) :   1.6237 B( 67-C , 69-Br) :   1.0133 B( 68-C , 95-H ) :   0.9997

-----------------------------------------------------------------------------
         ABSORPTION SPECTRUM VIA TRANSITION ELECTRIC DIPOLE MOMENTS
-----------------------------------------------------------------------------
State   Energy  Wavelength   fosc         T2         TX        TY        TZ
        (cm-1)    (nm)                  (au**2)     (au)      (au)      (au)
-----------------------------------------------------------------------------
   0    5469.5   1828.3   0.017931308   1.07930  -0.43355   0.76254   0.55664
   1    7899.3   1265.9   0.008511927   0.35474   0.53684  -0.20592   0.15537
   2   11270.3    887.3   0.000676443   0.01976   0.11144   0.06321   0.05785
   3   16499.0    606.1   0.358430920   7.15194  -0.92416  -1.78015   1.76888
   4   17199.3    581.4   0.108848957   2.08348   0.65837   0.80078  -1.00438
   5   18840.2    530.8   0.010012746   0.17496  -0.26155  -0.07136  -0.31853
   6   19848.5    503.8   0.604881890  10.03272  -1.27276  -1.08267   2.69084
   7   20530.1    487.1   0.025596548   0.41046   0.35515  -0.26567   0.46233
   8   23358.9    428.1   0.039194248   0.55239  -0.38278  -0.46831   0.43191
   9   23655.0    422.7   0.243897211   3.39438  -1.19322  -0.51085   1.30753
  10   24355.9    410.6   0.009696948   0.13107  -0.15322   0.09871   0.31281
  11   24841.6    402.6   0.030903195   0.40954  -0.40428   0.04960   0.49360
  12   25086.1    398.6   0.036225547   0.47540   0.51215   0.00986  -0.46152
  13   26218.0    381.4   0.010719334   0.13460   0.08919   0.13748  -0.32824
  14   26786.8    373.3   0.001880101   0.02311  -0.12716   0.04284   0.07143
  15   27010.6    370.2   0.008203879   0.09999  -0.21559  -0.04420   0.22706
  16   27089.9    369.1   0.076106011   0.92488   0.78892  -0.01788  -0.54969
  17   27284.8    366.5   0.187432548   2.26152   1.38762  -0.51087  -0.27392
  18   27571.6    362.7   0.009993870   0.11933  -0.30685   0.12115  -0.10244
  19   27928.9    358.1   0.027002153   0.31829  -0.55643   0.09273   0.00846
  20   28171.3    355.0   0.201472037   2.35442  -0.61275   0.45915  -1.32971
  21   28764.5    347.7   0.110480000   1.26445  -0.41521   0.41645  -0.95845
  22   29200.7    342.5   0.074575745   0.84078   0.25097   0.36384  -0.80337
  23   29341.9    340.8   0.719876554   8.07692   1.99114   0.22614  -2.01522
  24   29788.4    335.7   0.057444359   0.63486  -0.60777  -0.05234   0.51257
  25   30338.2    329.6   0.523465585   5.68034  -2.24414   0.64075  -0.48334
  26   30462.6    328.3   0.262927566   2.84148  -1.63609   0.35318   0.19987
  27   30798.9    324.7   0.370971574   3.96535  -1.89975   0.41554   0.42853
  28   30957.2    323.0   0.046937179   0.49915  -0.66349   0.23818  -0.04689
  29   31055.6    322.0   0.037721218   0.39987   0.54214  -0.32191   0.04820
  30   31301.6    319.5   0.074651839   0.78515   0.54928  -0.43788   0.54010
  31   31615.5    316.3   0.220264634   2.29361   1.40325  -0.26780  -0.50277
  32   32286.2    309.7   0.049050657   0.50015  -0.67187   0.13177   0.17715
  33   32395.5    308.7   0.017598051   0.17884   0.13005   0.04167   0.40023
  34   32557.5    307.1   0.053181756   0.53776   0.54750  -0.22483   0.43296
  35   32818.7    304.7   0.006152659   0.06172  -0.17099   0.01730  -0.17939
  36   32965.0    303.4   0.307845538   3.07436  -1.04171   1.04539  -0.94676
  37   33063.9    302.4   0.009839177   0.09797   0.18908   0.13799   0.20779
  38   33191.2    301.3   0.044776609   0.44412  -0.28232   0.28327  -0.53309
  39   33315.1    300.2   0.239891645   2.37055  -1.12323   0.76960  -0.71876
  40   33871.4    295.2   0.010257505   0.09970  -0.28339   0.12795  -0.05494
  41   34040.2    293.8   0.140340435   1.35727  -1.12966   0.20805   0.19454
  42   34287.9    291.6   0.211317308   2.02894  -1.22261  -0.15127   0.71504
  43   34464.7    290.2   0.090875586   0.86806   0.93071   0.01949   0.03808
  44   34757.6    287.7   0.186241567   1.76401   0.33951  -0.59748   1.13655
  45   34902.6    286.5   0.001620050   0.01528   0.11443   0.00164  -0.04672
  46   34996.0    285.7   0.124928928   1.17522  -0.48566   0.06817  -0.96680
  47   35037.1    285.4   0.003166420   0.02975  -0.13298   0.07948  -0.07583
  48   35248.6    283.7   0.058229907   0.54385  -0.33894  -0.18729   0.62761
  49   35352.3    282.9   0.197570849   1.83984  -1.23774   0.32375   0.45060
  50   35875.9    278.7   0.042647156   0.39135  -0.35002   0.43554  -0.28130
  51   35907.7    278.5   0.000831815   0.00763  -0.06054   0.01873   0.06009
  52   35971.9    278.0   0.069752088   0.63837   0.43399   0.07035  -0.66714
  53   36672.6    272.7   0.009645091   0.08658  -0.26714   0.12293  -0.01046
  54   37162.3    269.1   0.007002212   0.06203   0.20294  -0.10498   0.09913
  55   37266.3    268.3   0.002388076   0.02110   0.06900   0.05553   0.11512
  56   37389.3    267.5   0.009115800   0.08026  -0.01869  -0.04535   0.27903
  57   37524.1    266.5   0.021227851   0.18624   0.39744  -0.16796  -0.00828
  58   37625.1    265.8   0.001727241   0.01511   0.06888   0.02415   0.09892
  59   37814.3    264.5   0.024559136   0.21381  -0.41832   0.12317   0.15377
  60   38010.3    263.1   0.045602384   0.39497  -0.16654   0.48403  -0.36462
  61   38236.8    261.5   0.007179629   0.06182   0.12888   0.11276   0.18026
  62   38398.1    260.4   0.087890711   0.75354  -0.67300   0.22311  -0.50083
  63   38618.8    258.9   0.011611187   0.09898  -0.16384   0.26856  -0.00378
  64   38713.5    258.3   0.045956735   0.39081  -0.43463   0.43360  -0.11786
  65   38824.2    257.6   0.015108813   0.12812  -0.24656   0.19332  -0.17306
  66   38900.9    257.1   0.017495603   0.14806   0.16602  -0.29513  -0.18275
  67   39144.7    255.5   0.004662892   0.03922  -0.19067   0.05200   0.01243
  68   39713.1    251.8   0.044782859   0.37124   0.58255   0.00325  -0.17850
  69   39811.0    251.2   0.019263549   0.15930  -0.38052   0.02227   0.11833
  70   39899.8    250.6   0.018721124   0.15447   0.34311   0.02672  -0.18982
  71   39987.4    250.1   0.000976555   0.00804  -0.08580  -0.00702  -0.02509
  72   40076.9    249.5   0.007469901   0.06136  -0.19330   0.05672   0.14415
  73   40183.9    248.9   0.051842892   0.42473   0.44259  -0.17571   0.44494
  74   40194.4    248.8   0.051667058   0.42318  -0.60245  -0.09291   0.22715
  75   40232.7    248.6   0.034257650   0.28032   0.15280  -0.26619   0.43141

FINAL SINGLE POINT ENERGY    -10118.594156032996

DIPOLE MOMENT
-------------
                                X             Y             Z
Electronic contribution:     -0.53577     -36.24285      63.92413
Nuclear contribution   :     -0.17068      35.58134     -63.53176
                        -----------------------------------------
Total Dipole Moment    :     -0.70645      -0.66151       0.39237
                        -----------------------------------------
Magnitude (a.u.)       :      1.04433
Magnitude (Debye)      :      2.65447

Rotational constants in cm-1:     0.001188     0.000495     0.000375
Rotational constants in MHz :    35.600976    14.844818    11.242068

                             ****ORCA TERMINATED NORMALLY****
TOTAL RUN TIME: 0 days 0 hours 13 minutes 23 seconds 67 msec
