                         Program Version 4.2.0 -  RELEASE  -
|  1> # ORCA input file
|  2> # SCF done       -201.927491483339          0.000966263871
|  3> ! CAM-B3LYP def2-SVP def2/J RIJCOSX Grid4 TightSCF
|  4> %maxcore 5000
|  5> %tddft
|  6>     Mode sTDDFT
|  7>     Ethresh 5.0
|  8>     maxcore 5000
|  9> end
| 10>
| 11> %pal
| 12>   nprocs 6
| 13>   end
| 14> * xyz 0 1
| 15>    C       -2.14321         4.16546         0.18370
| 16>    C       -1.80249         4.37010        -1.12850
| 17>    C       -0.97745         5.42272        -1.57752
| 18>    N       -0.30804         6.25202        -2.00405
| 19>    C       -2.22848         3.57627        -2.21409
| 20>    N       -2.54110         2.98887        -3.15005
| 21>    C       -1.76318         5.01958         1.30272
| 22>    C       -2.35461         4.51400         2.48652
| 23>    C       -2.18829         5.11064         3.71228
| 24>    C       -1.40344         6.26709         3.77361
| 25>    C       -0.81169         6.76284         2.58697
| 26>    C       -0.97773         6.15703         1.34795
| 27>    S        0.12531         8.19434         2.88982
| 28>    C       -0.28586         8.10996         4.58212
| 29>    C       -1.08421         7.06474         4.90603
| 30>   Br        0.37720         9.40874         5.76083
| 31>    C       -3.11255         3.28854         2.17113
| 32>    O       -3.61804         2.52683         2.96686
| 33>    C       -2.99695         3.11387         0.70340
| 34>    C       -3.48486         2.04790         0.00420
| 35>    C       -4.46985         1.13170         0.44043
| 36>    S       -4.48060        -0.47103        -0.24021
| 37>    C       -5.88069        -0.90864         0.68022
| 38>    C       -6.50364        -2.24766         0.64036
| 39>    O       -7.46476        -2.51481         1.30800
| 40>    O       -5.94390        -3.14839        -0.17752
| 41>    C       -6.34045         0.13925         1.43358
| 42>    C       -5.55897         1.30606         1.30280
| 43>    O       -5.85743         2.51788         1.77990
| 44>    C       -6.63324         2.66210         2.91164
| 45>    C       -7.43168         3.80396         2.96886
| 46>    C       -8.19439         4.01532         4.09384
| 47>    C       -8.16360         3.09959         5.15881
| 48>    C       -7.34072         1.98493         5.10572
| 49>    C       -6.57015         1.77116         3.97807
| 50>    C       -9.08854         3.55051         6.17607
| 51>    C       -9.67860         4.75367         5.74698
| 52>    C       -9.10386         5.18155         4.41506
| 53>    C       -8.20068         6.43118         4.55006
| 54>    C       -8.87976         7.68615         5.08253
| 55>    C      -10.19242         5.38313         3.35097
| 56>    C      -11.02208         4.12448         3.12441
| 57>    C      -10.65647         5.34856         6.50445
| 58>    C      -11.05166         4.77154         7.72547
| 59>    C      -10.42985         3.58678         8.14810
| 60>    C       -9.46072         2.97355         7.38289
| 61>    C      -12.07345         5.44367         8.48365
| 62>    C      -12.68136         4.97356         9.59746
| 63>    C      -13.68003         5.63227        10.37635
| 64>    C      -14.16145         6.94878        10.19795
| 65>    C      -15.16718         7.53033        11.06791
| 66>    N      -15.56913         8.78087        10.86591
| 67>    C      -15.07062         9.49878         9.87674
| 68>    C      -14.09148         8.92200         9.01590
| 69>    N      -13.66833         7.69487         9.19555
| 70>    C      -13.54612         9.66592         7.93904
| 71>    N      -13.10565        10.26917         7.07037
| 72>    C      -15.49967        10.82891         9.68025
| 73>    N      -15.80645        11.91449         9.47078
| 74>    C      -15.75241         6.81134        12.14741
| 75>    C      -15.26769         5.48246        12.31187
| 76>    C      -14.25787         4.91955        11.45748
| 77>    N      -13.95582         3.66904        11.80794
| 78>    S      -14.85076         3.24766        13.07705
| 79>    N      -15.66494         4.62681        13.24868
| 80>    C      -16.72877         7.27336        13.03780
| 81>    C      -17.37048         8.48825        13.17962
| 82>    C      -18.33514         8.70805        14.19715
| 83>    C      -18.86243         9.96317        14.22339
| 84>    C      -18.33403        10.80089        13.21937
| 85>    S      -17.15726         9.94001        12.23808
| 86>    C      -18.63488        12.12524        12.96719
| 87>    C      -19.55505        12.95263        13.67135
| 88>    C      -19.63529        14.21652        13.19850
| 89>    C      -18.77715        14.47828        12.07855
| 90>    S      -17.87181        13.00996        11.67462
| 91>    C      -18.63641        15.62790        11.40279
| 92>    H       -2.65199         4.70018         4.59558
| 93>    H       -0.50264         6.57121         0.47454
| 94>    H       -1.43328         6.86233         5.90210
| 95>    H       -3.07523         1.84191        -0.97717
| 96>    H       -5.17937        -2.80813        -0.66258
| 97>    H       -7.22727         0.06258         2.03666
| 98>    H       -7.43681         4.48436         2.13136
| 99>    H       -7.29108         1.29325         5.93232
|100>    H       -5.89154         0.93368         3.93136
|101>    H       -7.77958         6.64218         3.56424
|102>    H       -7.37096         6.17354         5.21409
|103>    H       -9.72789         7.97320         4.46710
|104>    H       -8.16809         8.50909         5.07697
|105>    H       -9.21819         7.54135         6.10462
|106>    H       -9.71839         5.68130         2.41347
|107>    H      -10.85285         6.19175         3.66541
|108>    H      -10.39355         3.30273         2.78812
|109>    H      -11.78257         4.30799         2.36897
|110>    H      -11.51703         3.82172         4.04446
|111>    H      -11.15083         6.24930         6.17232
|112>    H      -10.71518         3.14417         9.08957
|113>    H       -9.00251         2.05377         7.71466
|114>    H      -12.37246         6.40927         8.10354
|115>    H      -12.43629         3.99030         9.97649
|116>    H      -17.02493         6.52254        13.76259
|117>    H      -18.60630         7.92327        14.88189
|118>    H      -19.60278        10.29307        14.93056
|119>    H      -20.12273        12.57704        14.50412
|120>    H      -20.27168        14.98610        13.59794
|121>    H      -19.20302        16.50129        11.67515
|122>    H      -17.95888        15.71160        10.57276
|123> *
|124>
|125>                          ****END OF INPUT****

CARTESIAN COORDINATES (ANGSTROEM)
---------------------------------
  C     -2.143210    4.165460    0.183700
  C     -1.802490    4.370100   -1.128500
  C     -0.977450    5.422720   -1.577520
  N     -0.308040    6.252020   -2.004050
  C     -2.228480    3.576270   -2.214090
  N     -2.541100    2.988870   -3.150050
  C     -1.763180    5.019580    1.302720
  C     -2.354610    4.514000    2.486520
  C     -2.188290    5.110640    3.712280
  C     -1.403440    6.267090    3.773610
  C     -0.811690    6.762840    2.586970
  C     -0.977730    6.157030    1.347950
  S      0.125310    8.194340    2.889820
  C     -0.285860    8.109960    4.582120
  C     -1.084210    7.064740    4.906030
  Br     0.377200    9.408740    5.760830
  C     -3.112550    3.288540    2.171130
  O     -3.618040    2.526830    2.966860
  C     -2.996950    3.113870    0.703400
  C     -3.484860    2.047900    0.004200
  C     -4.469850    1.131700    0.440430
  S     -4.480600   -0.471030   -0.240210
  C     -5.880690   -0.908640    0.680220
  C     -6.503640   -2.247660    0.640360
  O     -7.464760   -2.514810    1.308000
  O     -5.943900   -3.148390   -0.177520
  C     -6.340450    0.139250    1.433580
  C     -5.558970    1.306060    1.302800
  O     -5.857430    2.517880    1.779900
  C     -6.633240    2.662100    2.911640
  C     -7.431680    3.803960    2.968860
  C     -8.194390    4.015320    4.093840
  C     -8.163600    3.099590    5.158810
  C     -7.340720    1.984930    5.105720
  C     -6.570150    1.771160    3.978070
  C     -9.088540    3.550510    6.176070
  C     -9.678600    4.753670    5.746980
  C     -9.103860    5.181550    4.415060
  C     -8.200680    6.431180    4.550060
  C     -8.879760    7.686150    5.082530
  C    -10.192420    5.383130    3.350970
  C    -11.022080    4.124480    3.124410
  C    -10.656470    5.348560    6.504450
  C    -11.051660    4.771540    7.725470
  C    -10.429850    3.586780    8.148100
  C     -9.460720    2.973550    7.382890
  C    -12.073450    5.443670    8.483650
  C    -12.681360    4.973560    9.597460
  C    -13.680030    5.632270   10.376350
  C    -14.161450    6.948780   10.197950
  C    -15.167180    7.530330   11.067910
  N    -15.569130    8.780870   10.865910
  C    -15.070620    9.498780    9.876740
  C    -14.091480    8.922000    9.015900
  N    -13.668330    7.694870    9.195550
  C    -13.546120    9.665920    7.939040
  N    -13.105650   10.269170    7.070370
  C    -15.499670   10.828910    9.680250
  N    -15.806450   11.914490    9.470780
  C    -15.752410    6.811340   12.147410
  C    -15.267690    5.482460   12.311870
  C    -14.257870    4.919550   11.457480
  N    -13.955820    3.669040   11.807940
  S    -14.850760    3.247660   13.077050
  N    -15.664940    4.626810   13.248680
  C    -16.728770    7.273360   13.037800
  C    -17.370480    8.488250   13.179620
  C    -18.335140    8.708050   14.197150
  C    -18.862430    9.963170   14.223390
  C    -18.334030   10.800890   13.219370
  S    -17.157260    9.940010   12.238080
  C    -18.634880   12.125240   12.967190
  C    -19.555050   12.952630   13.671350
  C    -19.635290   14.216520   13.198500
  C    -18.777150   14.478280   12.078550
  S    -17.871810   13.009960   11.674620
  C    -18.636410   15.627900   11.402790
  H     -2.651990    4.700180    4.595580
  H     -0.502640    6.571210    0.474540
  H     -1.433280    6.862330    5.902100
  H     -3.075230    1.841910   -0.977170
  H     -5.179370   -2.808130   -0.662580
  H     -7.227270    0.062580    2.036660
  H     -7.436810    4.484360    2.131360
  H     -7.291080    1.293250    5.932320
  H     -5.891540    0.933680    3.931360
  H     -7.779580    6.642180    3.564240
  H     -7.370960    6.173540    5.214090
  H     -9.727890    7.973200    4.467100
  H     -8.168090    8.509090    5.076970
  H     -9.218190    7.541350    6.104620
  H     -9.718390    5.681300    2.413470
  H    -10.852850    6.191750    3.665410
  H    -10.393550    3.302730    2.788120
  H    -11.782570    4.307990    2.368970
  H    -11.517030    3.821720    4.044460
  H    -11.150830    6.249300    6.172320
  H    -10.715180    3.144170    9.089570
  H     -9.002510    2.053770    7.714660
  H    -12.372460    6.409270    8.103540
  H    -12.436290    3.990300    9.976490
  H    -17.024930    6.522540   13.762590
  H    -18.606300    7.923270   14.881890
  H    -19.602780   10.293070   14.930560
  H    -20.122730   12.577040   14.504120
  H    -20.271680   14.986100   13.597940
  H    -19.203020   16.501290   11.675150
  H    -17.958880   15.711600   10.572760

 Total Charge           Charge          ....    0
 Multiplicity           Mult            ....    1
 Number of Electrons    NEL             ....  588
 Basis Dimension        Dim             .... 1271

ORBITAL ENERGIES
----------------

  NO   OCC          E(Eh)            E(eV)
   0   2.0000    -482.885815    -13139.9910
   1   2.0000     -89.026772     -2422.5416
   2   2.0000     -88.984986     -2421.4046
   3   2.0000     -88.975861     -2421.1563
   4   2.0000     -88.957732     -2420.6630
   5   2.0000     -88.951807     -2420.5017
   6   2.0000     -62.563541     -1702.4405
   7   2.0000     -56.397494     -1534.6538
   8   2.0000     -56.394773     -1534.5798
   9   2.0000     -56.394741     -1534.5789
  10   2.0000     -19.281145      -524.6666
  11   2.0000     -19.270428      -524.3750
  12   2.0000     -19.216237      -522.9004
  13   2.0000     -19.206013      -522.6222
  14   2.0000     -14.455552      -393.3556
  15   2.0000     -14.442062      -392.9885
  16   2.0000     -14.442040      -392.9879
  17   2.0000     -14.436671      -392.8418
  18   2.0000     -14.420980      -392.4148
  19   2.0000     -14.418762      -392.3544
  20   2.0000     -14.418083      -392.3360
  21   2.0000     -14.416426      -392.2909
  22   2.0000     -10.416585      -283.4497
  23   2.0000     -10.369863      -282.1783
  24   2.0000     -10.369368      -282.1648
  25   2.0000     -10.366522      -282.0874
  26   2.0000     -10.361220      -281.9431
  27   2.0000     -10.359522      -281.8969
  28   2.0000     -10.344263      -281.4817
  29   2.0000     -10.343153      -281.4515
  30   2.0000     -10.338860      -281.3347
  31   2.0000     -10.338311      -281.3198
  32   2.0000     -10.331357      -281.1305
  33   2.0000     -10.330522      -281.1078
  34   2.0000     -10.329650      -281.0841
  35   2.0000     -10.327644      -281.0295
  36   2.0000     -10.327132      -281.0156
  37   2.0000     -10.326078      -280.9869
  38   2.0000     -10.325742      -280.9777
  39   2.0000     -10.325360      -280.9673
  40   2.0000     -10.322990      -280.9028
  41   2.0000     -10.320823      -280.8439
  42   2.0000     -10.319222      -280.8003
  43   2.0000     -10.318924      -280.7922
  44   2.0000     -10.314910      -280.6830
  45   2.0000     -10.314544      -280.6730
  46   2.0000     -10.308883      -280.5190
  47   2.0000     -10.308354      -280.5046
  48   2.0000     -10.307818      -280.4900
  49   2.0000     -10.306446      -280.4526
  50   2.0000     -10.304309      -280.3945
  51   2.0000     -10.302689      -280.3504
  52   2.0000     -10.301980      -280.3311
  53   2.0000     -10.301931      -280.3298
  54   2.0000     -10.301220      -280.3104
  55   2.0000     -10.301005      -280.3046
  56   2.0000     -10.297058      -280.1972
  57   2.0000     -10.296500      -280.1820
  58   2.0000     -10.292820      -280.0819
  59   2.0000     -10.289828      -280.0005
  60   2.0000     -10.288938      -279.9762
  61   2.0000     -10.288902      -279.9753
  62   2.0000     -10.287259      -279.9305
  63   2.0000     -10.275750      -279.6174
  64   2.0000     -10.274475      -279.5827
  65   2.0000     -10.272146      -279.5193
  66   2.0000     -10.271775      -279.5092
  67   2.0000     -10.270654      -279.4787
  68   2.0000     -10.268087      -279.4088
  69   2.0000     -10.267385      -279.3897
  70   2.0000     -10.265835      -279.3476
  71   2.0000     -10.264999      -279.3248
  72   2.0000     -10.262847      -279.2663
  73   2.0000     -10.262524      -279.2575
  74   2.0000     -10.262410      -279.2544
  75   2.0000     -10.261725      -279.2357
  76   2.0000     -10.260173      -279.1935
  77   2.0000     -10.259130      -279.1651
  78   2.0000     -10.258623      -279.1513
  79   2.0000     -10.245227      -278.7868
  80   2.0000     -10.242175      -278.7037
  81   2.0000      -8.792976      -239.2690
  82   2.0000      -8.118482      -220.9151
  83   2.0000      -8.080899      -219.8924
  84   2.0000      -8.071909      -219.6478
  85   2.0000      -8.050618      -219.0685
  86   2.0000      -8.048275      -219.0047
  87   2.0000      -6.629306      -180.3926
  88   2.0000      -6.614697      -179.9951
  89   2.0000      -6.614496      -179.9896
  90   2.0000      -6.089685      -165.7087
  91   2.0000      -6.081976      -165.4990
  92   2.0000      -6.080862      -165.4687
  93   2.0000      -6.050175      -164.6336
  94   2.0000      -6.046238      -164.5265
  95   2.0000      -6.042790      -164.4327
  96   2.0000      -6.041589      -164.4000
  97   2.0000      -6.037325      -164.2840
  98   2.0000      -6.033114      -164.1694
  99   2.0000      -6.020550      -163.8275
 100   2.0000      -6.017985      -163.7577
 101   2.0000      -6.015915      -163.7014
 102   2.0000      -6.013857      -163.6454
 103   2.0000      -6.012033      -163.5957
 104   2.0000      -6.009057      -163.5147
 105   2.0000      -2.745143       -74.6991
 106   2.0000      -2.741095       -74.5890
 107   2.0000      -2.740917       -74.5841
 108   2.0000      -2.729329       -74.2688
 109   2.0000      -2.729304       -74.2681
 110   2.0000      -1.193801       -32.4850
 111   2.0000      -1.192958       -32.4620
 112   2.0000      -1.130417       -30.7602
 113   2.0000      -1.126128       -30.6435
 114   2.0000      -1.107973       -30.1495
 115   2.0000      -1.106468       -30.1085
 116   2.0000      -1.035276       -28.1713
 117   2.0000      -1.024073       -27.8664
 118   2.0000      -1.014897       -27.6168
 119   2.0000      -1.008722       -27.4487
 120   2.0000      -1.003966       -27.3193
 121   2.0000      -1.003084       -27.2953
 122   2.0000      -0.995913       -27.1002
 123   2.0000      -0.994727       -27.0679
 124   2.0000      -0.990302       -26.9475
 125   2.0000      -0.983876       -26.7726
 126   2.0000      -0.983067       -26.7506
 127   2.0000      -0.979311       -26.6484
 128   2.0000      -0.962468       -26.1901
 129   2.0000      -0.944383       -25.6980
 130   2.0000      -0.940413       -25.5899
 131   2.0000      -0.914712       -24.8906
 132   2.0000      -0.909745       -24.7554
 133   2.0000      -0.908872       -24.7317
 134   2.0000      -0.903354       -24.5815
 135   2.0000      -0.895249       -24.3610
 136   2.0000      -0.887475       -24.1494
 137   2.0000      -0.886551       -24.1243
 138   2.0000      -0.878946       -23.9173
 139   2.0000      -0.873759       -23.7762
 140   2.0000      -0.863161       -23.4878
 141   2.0000      -0.857003       -23.3202
 142   2.0000      -0.851182       -23.1618
 143   2.0000      -0.837635       -22.7932
 144   2.0000      -0.835297       -22.7296
 145   2.0000      -0.831663       -22.6307
 146   2.0000      -0.830544       -22.6002
 147   2.0000      -0.829191       -22.5634
 148   2.0000      -0.827196       -22.5091
 149   2.0000      -0.823689       -22.4137
 150   2.0000      -0.817063       -22.2334
 151   2.0000      -0.798810       -21.7367
 152   2.0000      -0.796293       -21.6682
 153   2.0000      -0.777722       -21.1629
 154   2.0000      -0.773573       -21.0500
 155   2.0000      -0.762448       -20.7473
 156   2.0000      -0.760095       -20.6832
 157   2.0000      -0.751532       -20.4502
 158   2.0000      -0.735990       -20.0273
 159   2.0000      -0.722157       -19.6509
 160   2.0000      -0.721965       -19.6457
 161   2.0000      -0.716191       -19.4886
 162   2.0000      -0.710061       -19.3218
 163   2.0000      -0.704037       -19.1578
 164   2.0000      -0.695297       -18.9200
 165   2.0000      -0.694869       -18.9083
 166   2.0000      -0.688107       -18.7243
 167   2.0000      -0.687025       -18.6949
 168   2.0000      -0.685376       -18.6500
 169   2.0000      -0.681991       -18.5579
 170   2.0000      -0.680473       -18.5166
 171   2.0000      -0.673216       -18.3191
 172   2.0000      -0.660967       -17.9858
 173   2.0000      -0.659231       -17.9386
 174   2.0000      -0.652413       -17.7531
 175   2.0000      -0.644669       -17.5423
 176   2.0000      -0.639798       -17.4098
 177   2.0000      -0.636891       -17.3307
 178   2.0000      -0.633776       -17.2459
 179   2.0000      -0.625952       -17.0330
 180   2.0000      -0.622796       -16.9471
 181   2.0000      -0.620052       -16.8725
 182   2.0000      -0.611426       -16.6378
 183   2.0000      -0.610554       -16.6140
 184   2.0000      -0.604332       -16.4447
 185   2.0000      -0.602099       -16.3839
 186   2.0000      -0.597096       -16.2478
 187   2.0000      -0.591153       -16.0861
 188   2.0000      -0.587219       -15.9790
 189   2.0000      -0.581846       -15.8328
 190   2.0000      -0.576533       -15.6883
 191   2.0000      -0.570291       -15.5184
 192   2.0000      -0.566297       -15.4097
 193   2.0000      -0.565145       -15.3784
 194   2.0000      -0.556145       -15.1335
 195   2.0000      -0.552026       -15.0214
 196   2.0000      -0.549463       -14.9517
 197   2.0000      -0.547172       -14.8893
 198   2.0000      -0.543402       -14.7867
 199   2.0000      -0.540665       -14.7122
 200   2.0000      -0.539609       -14.6835
 201   2.0000      -0.539337       -14.6761
 202   2.0000      -0.535119       -14.5613
 203   2.0000      -0.531964       -14.4755
 204   2.0000      -0.530983       -14.4488
 205   2.0000      -0.529591       -14.4109
 206   2.0000      -0.526804       -14.3351
 207   2.0000      -0.525152       -14.2901
 208   2.0000      -0.518625       -14.1125
 209   2.0000      -0.517902       -14.0928
 210   2.0000      -0.516223       -14.0471
 211   2.0000      -0.512062       -13.9339
 212   2.0000      -0.511810       -13.9271
 213   2.0000      -0.510657       -13.8957
 214   2.0000      -0.507655       -13.8140
 215   2.0000      -0.506060       -13.7706
 216   2.0000      -0.505549       -13.7567
 217   2.0000      -0.503812       -13.7094
 218   2.0000      -0.500456       -13.6181
 219   2.0000      -0.495099       -13.4723
 220   2.0000      -0.491998       -13.3879
 221   2.0000      -0.490670       -13.3518
 222   2.0000      -0.490222       -13.3396
 223   2.0000      -0.487283       -13.2596
 224   2.0000      -0.481978       -13.1153
 225   2.0000      -0.481797       -13.1104
 226   2.0000      -0.476698       -12.9716
 227   2.0000      -0.474523       -12.9124
 228   2.0000      -0.472925       -12.8689
 229   2.0000      -0.470926       -12.8145
 230   2.0000      -0.470135       -12.7930
 231   2.0000      -0.468200       -12.7404
 232   2.0000      -0.466400       -12.6914
 233   2.0000      -0.464447       -12.6383
 234   2.0000      -0.459446       -12.5022
 235   2.0000      -0.456531       -12.4228
 236   2.0000      -0.454847       -12.3770
 237   2.0000      -0.453062       -12.3284
 238   2.0000      -0.452439       -12.3115
 239   2.0000      -0.450555       -12.2602
 240   2.0000      -0.449209       -12.2236
 241   2.0000      -0.448135       -12.1944
 242   2.0000      -0.446171       -12.1409
 243   2.0000      -0.445657       -12.1269
 244   2.0000      -0.445008       -12.1093
 245   2.0000      -0.443559       -12.0698
 246   2.0000      -0.440294       -11.9810
 247   2.0000      -0.439657       -11.9637
 248   2.0000      -0.438912       -11.9434
 249   2.0000      -0.434748       -11.8301
 250   2.0000      -0.433294       -11.7905
 251   2.0000      -0.429391       -11.6843
 252   2.0000      -0.428791       -11.6680
 253   2.0000      -0.427168       -11.6238
 254   2.0000      -0.423617       -11.5272
 255   2.0000      -0.421655       -11.4738
 256   2.0000      -0.420134       -11.4324
 257   2.0000      -0.417561       -11.3624
 258   2.0000      -0.416662       -11.3379
 259   2.0000      -0.413245       -11.2450
 260   2.0000      -0.410059       -11.1583
 261   2.0000      -0.408347       -11.1117
 262   2.0000      -0.407515       -11.0891
 263   2.0000      -0.403561       -10.9814
 264   2.0000      -0.403282       -10.9739
 265   2.0000      -0.402729       -10.9588
 266   2.0000      -0.392012       -10.6672
 267   2.0000      -0.390880       -10.6364
 268   2.0000      -0.389180       -10.5901
 269   2.0000      -0.382466       -10.4074
 270   2.0000      -0.381746       -10.3878
 271   2.0000      -0.376578       -10.2472
 272   2.0000      -0.375233       -10.2106
 273   2.0000      -0.373554       -10.1649
 274   2.0000      -0.369667       -10.0591
 275   2.0000      -0.367080        -9.9888
 276   2.0000      -0.361856        -9.8466
 277   2.0000      -0.353676        -9.6240
 278   2.0000      -0.349962        -9.5230
 279   2.0000      -0.346428        -9.4268
 280   2.0000      -0.340862        -9.2753
 281   2.0000      -0.337972        -9.1967
 282   2.0000      -0.336808        -9.1650
 283   2.0000      -0.330696        -8.9987
 284   2.0000      -0.329811        -8.9746
 285   2.0000      -0.321194        -8.7401
 286   2.0000      -0.317433        -8.6378
 287   2.0000      -0.315149        -8.5756
 288   2.0000      -0.310256        -8.4425
 289   2.0000      -0.297462        -8.0943
 290   2.0000      -0.292309        -7.9541
 291   2.0000      -0.281652        -7.6641
 292   2.0000      -0.257169        -6.9979
 293   2.0000      -0.213531        -5.8105
 294   0.0000      -0.115489        -3.1426
 295   0.0000      -0.096824        -2.6347
 296   0.0000      -0.061888        -1.6841
 297   0.0000      -0.061089        -1.6623
 298   0.0000      -0.041943        -1.1413

MULLIKEN ATOMIC CHARGES
-----------------------
   0 C :    0.308467
   1 C :   -0.343971
   2 C :   -0.185466
   3 N :    0.149564
   4 C :   -0.196157
   5 N :    0.155323
   6 C :    0.016264
   7 C :   -0.020168
   8 C :   -0.069577
   9 C :    0.121098
  10 C :   -0.091420
  11 C :   -0.021081
  12 S :    0.187488
  13 C :   -0.123530
  14 C :    0.038446
  15 Br:    0.025435
  16 C :    0.148272
  17 O :   -0.148936
  18 C :   -0.076691
  19 C :    0.017742
  20 C :   -0.154613
  21 S :    0.124490
  22 C :   -0.146416
  23 C :    0.189312
  24 O :   -0.158790
  25 O :   -0.150422
  26 C :   -0.063714
  27 C :    0.281287
  28 O :   -0.237265
  29 C :    0.217774
  30 C :   -0.073396
  31 C :   -0.002129
  32 C :    0.117241
  33 C :   -0.063460
  34 C :   -0.024458
  35 C :    0.099697
  36 C :    0.030826
  37 C :   -0.136533
  38 C :    0.079039
  39 C :    0.027237
  40 C :    0.050710
  41 C :    0.026121
  42 C :   -0.115889
  43 C :    0.127494
  44 C :   -0.008341
  45 C :   -0.047969
  46 C :    0.006080
  47 C :   -0.066177
  48 C :    0.082501
  49 C :   -0.045466
  50 C :    0.000864
  51 N :   -0.024396
  52 C :   -0.082337
  53 C :   -0.125310
  54 N :    0.035197
  55 C :   -0.237077
  56 N :    0.236840
  57 C :   -0.243546
  58 N :    0.214810
  59 C :    0.099071
  60 C :    0.005395
  61 C :   -0.003818
  62 N :   -0.287027
  63 S :    0.513206
  64 N :   -0.282712
  65 C :   -0.136908
  66 C :    0.039382
  67 C :    0.015650
  68 C :    0.041326
  69 C :   -0.033211
  70 S :    0.120152
  71 C :   -0.059853
  72 C :    0.024835
  73 C :    0.067464
  74 C :   -0.079339
  75 S :    0.145306
  76 C :   -0.005132
  77 H :   -0.009166
  78 H :   -0.007331
  79 H :   -0.002817
  80 H :    0.025403
  81 H :    0.184298
  82 H :    0.034116
  83 H :   -0.033460
  84 H :   -0.027912
  85 H :    0.002692
  86 H :   -0.005760
  87 H :    0.001372
  88 H :    0.009970
  89 H :    0.012736
  90 H :    0.024621
  91 H :   -0.003316
  92 H :    0.011556
  93 H :    0.015984
  94 H :    0.010873
  95 H :    0.022061
  96 H :   -0.030936
  97 H :   -0.027565
  98 H :   -0.039396
  99 H :   -0.008008
 100 H :   -0.014254
 101 H :   -0.002320
 102 H :   -0.007589
 103 H :   -0.014477
 104 H :   -0.006029
 105 H :   -0.002774
 106 H :    0.029643
 107 H :    0.043075
Sum of atomic charges:   -0.0000000

LOEWDIN ATOMIC CHARGES
----------------------
   0 C :    0.075733
   1 C :   -0.139049
   2 C :   -0.018243
   3 N :   -0.051670
   4 C :   -0.022629
   5 N :   -0.050697
   6 C :   -0.022433
   7 C :   -0.048535
   8 C :    0.022086
   9 C :   -0.031341
  10 C :   -0.144454
  11 C :   -0.008832
  12 S :    0.433197
  13 C :   -0.270859
  14 C :   -0.069995
  15 Br:    0.138280
  16 C :    0.081618
  17 O :   -0.138155
  18 C :   -0.085867
  19 C :    0.048790
  20 C :   -0.199148
  21 S :    0.440958
  22 C :   -0.212374
  23 C :    0.064056
  24 O :   -0.147234
  25 O :   -0.025008
  26 C :   -0.038032
  27 C :    0.054571
  28 O :   -0.020226
  29 C :    0.054536
  30 C :   -0.040045
  31 C :    0.013916
  32 C :   -0.025501
  33 C :   -0.010068
  34 C :   -0.045869
  35 C :   -0.015218
  36 C :   -0.000920
  37 C :   -0.034035
  38 C :   -0.009539
  39 C :   -0.058111
  40 C :   -0.015125
  41 C :   -0.056332
  42 C :   -0.015954
  43 C :   -0.026380
  44 C :   -0.009658
  45 C :   -0.020953
  46 C :    0.000649
  47 C :   -0.029311
  48 C :   -0.047919
  49 C :   -0.007717
  50 C :   -0.003804
  51 N :   -0.023410
  52 C :   -0.058077
  53 C :   -0.022629
  54 N :   -0.004554
  55 C :   -0.033824
  56 N :   -0.017086
  57 C :   -0.048075
  58 N :   -0.034083
  59 C :   -0.027949
  60 C :   -0.047958
  61 C :   -0.040383
  62 N :   -0.290072
  63 S :    0.645394
  64 N :   -0.283141
  65 C :   -0.050399
  66 C :   -0.122299
  67 C :   -0.039467
  68 C :   -0.019636
  69 C :   -0.209601
  70 S :    0.463744
  71 C :   -0.148191
  72 C :   -0.029871
  73 C :   -0.010943
  74 C :   -0.146087
  75 S :    0.414756
  76 C :   -0.038416
  77 H :    0.041601
  78 H :    0.040964
  79 H :    0.039156
  80 H :    0.044666
  81 H :    0.083303
  82 H :    0.049816
  83 H :    0.031261
  84 H :    0.029971
  85 H :    0.036419
  86 H :    0.018856
  87 H :    0.025026
  88 H :    0.022266
  89 H :    0.027770
  90 H :    0.025923
  91 H :    0.019564
  92 H :    0.022149
  93 H :    0.023313
  94 H :    0.024489
  95 H :    0.026376
  96 H :    0.026541
  97 H :    0.027168
  98 H :    0.025588
  99 H :    0.023893
 100 H :    0.028248
 101 H :    0.041928
 102 H :    0.034502
 103 H :    0.030450
 104 H :    0.034430
 105 H :    0.036955
 106 H :    0.033120
 107 H :    0.035396

  Mayer bond orders larger than 0.100000
B(  0-C ,  1-C ) :   1.6323 B(  0-C ,  6-C ) :   1.0072 B(  0-C , 18-C ) :   1.0721
B(  1-C ,  2-C ) :   1.1418 B(  1-C ,  4-C ) :   1.1425 B(  2-C ,  3-N ) :   2.9684
B(  4-C ,  5-N ) :   2.9759 B(  6-C ,  7-C ) :   1.2726 B(  6-C , 11-C ) :   1.4033
B(  7-C ,  8-C ) :   1.4265 B(  7-C , 16-C ) :   0.9367 B(  8-C ,  9-C ) :   1.2427
B(  8-C , 77-H ) :   1.0175 B(  9-C , 10-C ) :   1.3036 B(  9-C , 14-C ) :   1.1629
B( 10-C , 11-C ) :   1.3341 B( 10-C , 12-S ) :   1.0858 B( 11-C , 78-H ) :   0.9808
B( 12-S , 13-C ) :   1.0870 B( 13-C , 14-C ) :   1.6175 B( 13-C , 15-Br) :   1.0194
B( 14-C , 79-H ) :   1.0008 B( 16-C , 17-O ) :   2.2102 B( 16-C , 18-C ) :   0.9503
B( 18-C , 19-C ) :   1.6297 B( 19-C , 20-C ) :   1.1641 B( 19-C , 80-H ) :   0.9240
B( 20-C , 21-S ) :   1.1092 B( 20-C , 27-C ) :   1.4273 B( 21-S , 22-C ) :   1.1184
B( 21-S , 26-C ) :   0.1015 B( 22-C , 23-C ) :   0.9184 B( 22-C , 26-C ) :   1.5175
B( 23-C , 24-O ) :   2.2079 B( 23-C , 25-O ) :   1.2477 B( 25-O , 81-H ) :   0.9482
B( 26-C , 27-C ) :   1.2008 B( 26-C , 82-H ) :   1.0081 B( 27-C , 28-O ) :   1.1667
B( 28-O , 29-C ) :   0.9632 B( 29-C , 30-C ) :   1.3537 B( 29-C , 34-C ) :   1.3628
B( 30-C , 31-C ) :   1.3578 B( 30-C , 83-H ) :   1.0123 B( 31-C , 32-C ) :   1.3784
B( 31-C , 37-C ) :   0.9287 B( 32-C , 33-C ) :   1.3403 B( 32-C , 35-C ) :   1.0013
B( 33-C , 34-C ) :   1.3607 B( 33-C , 84-H ) :   0.9919 B( 34-C , 85-H ) :   0.9805
B( 35-C , 36-C ) :   1.3847 B( 35-C , 45-C ) :   1.3275 B( 36-C , 37-C ) :   0.9219
B( 36-C , 42-C ) :   1.3761 B( 37-C , 38-C ) :   1.0144 B( 37-C , 40-C ) :   1.0336
B( 38-C , 39-C ) :   1.1155 B( 38-C , 86-H ) :   0.9361 B( 38-C , 87-H ) :   0.9381
B( 39-C , 88-H ) :   0.9639 B( 39-C , 89-H ) :   0.9593 B( 39-C , 90-H ) :   0.9610
B( 40-C , 41-C ) :   1.1047 B( 40-C , 91-H ) :   0.9390 B( 40-C , 92-H ) :   0.9385
B( 41-C , 93-H ) :   0.9630 B( 41-C , 94-H ) :   0.9649 B( 41-C , 95-H ) :   0.9648
B( 42-C , 43-C ) :   1.2746 B( 42-C , 96-H ) :   1.0119 B( 43-C , 44-C ) :   1.3403
B( 43-C , 46-C ) :   1.0595 B( 44-C , 45-C ) :   1.3996 B( 44-C , 97-H ) :   0.9865
B( 45-C , 98-H ) :   0.9896 B( 46-C , 47-C ) :   1.6004 B( 46-C , 99-H ) :   0.9704
B( 47-C , 48-C ) :   1.1944 B( 47-C ,100-H ) :   0.9594 B( 48-C , 49-C ) :   1.2578
B( 48-C , 59-C ) :   0.1112 B( 48-C , 61-C ) :   1.1593 B( 49-C , 50-C ) :   1.0916
B( 49-C , 54-N ) :   1.4146 B( 50-C , 51-N ) :   1.4662 B( 50-C , 59-C ) :   1.1616
B( 51-N , 52-C ) :   1.5711 B( 51-N , 70-S ) :   0.1025 B( 52-C , 53-C ) :   1.2463
B( 52-C , 57-C ) :   1.1758 B( 53-C , 54-N ) :   1.7291 B( 53-C , 55-C ) :   1.1621
B( 55-C , 56-N ) :   3.0536 B( 57-C , 58-N ) :   2.9687 B( 59-C , 60-C ) :   1.1414
B( 59-C , 65-C ) :   1.3258 B( 60-C , 61-C ) :   1.1178 B( 60-C , 64-N ) :   1.5582
B( 61-C , 62-N ) :   1.5398 B( 62-N , 63-S ) :   1.2568 B( 62-N , 64-N ) :   0.1459
B( 63-S , 64-N ) :   1.2610 B( 65-C , 66-C ) :   1.4041 B( 65-C ,101-H ) :   0.9553
B( 66-C , 67-C ) :   1.1799 B( 66-C , 70-S ) :   1.0912 B( 67-C , 68-C ) :   1.5482
B( 67-C ,102-H ) :   1.0027 B( 68-C , 69-C ) :   1.2047 B( 68-C ,103-H ) :   0.9934
B( 69-C , 70-S ) :   0.9936 B( 69-C , 71-C ) :   1.4871 B( 71-C , 72-C ) :   1.1558
B( 71-C , 75-S ) :   1.0914 B( 72-C , 73-C ) :   1.6510 B( 72-C ,104-H ) :   0.9943
B( 73-C , 74-C ) :   1.0775 B( 73-C ,105-H ) :   0.9935 B( 74-C , 75-S ) :   1.0073
B( 74-C , 76-C ) :   1.8571 B( 76-C ,106-H ) :   0.9518 B( 76-C ,107-H ) :   0.9403

-----------------------------------------------------------------------------
         ABSORPTION SPECTRUM VIA TRANSITION ELECTRIC DIPOLE MOMENTS
-----------------------------------------------------------------------------
State   Energy  Wavelength   fosc         T2         TX        TY        TZ
        (cm-1)    (nm)                  (au**2)     (au)      (au)      (au)
-----------------------------------------------------------------------------
   0    6957.2   1437.4   0.422891864  20.01098   2.80868  -2.96376  -1.82715
   1   17210.1    581.1   0.160363699   3.06759  -1.33594  -0.27945   1.09762
   2   17360.9    576.0   0.018104529   0.34331  -0.06644   0.41975  -0.40337
   3   17691.5    565.2   0.242394441   4.51060   0.81633  -1.95722  -0.11609
   4   21250.5    470.6   0.553628708   8.57679  -1.69656   2.29294   0.66401
   5   22110.7    452.3   0.284136588   4.23059  -1.56988  -1.19770   0.57583
   6   22904.5    436.6   0.020216459   0.29058   0.16533  -0.47212  -0.20086
   7   24034.8    416.1   0.185462273   2.54033   0.67341  -1.43077  -0.19936
   8   24364.0    410.4   0.005646270   0.07629  -0.10246  -0.21869  -0.13405
   9   24529.0    407.7   0.061566725   0.82631   0.47583   0.76456  -0.12388
  10   25758.2    388.2   0.236661285   3.02473   0.95036   1.42114  -0.31923
  11   26755.3    373.8   0.242942565   2.98930  -0.55278  -1.08894  -1.22390
  12   28148.8    355.3   0.225490079   2.63720   1.06492  -0.44747  -1.14145
  13   28335.5    352.9   0.022181731   0.25772   0.01428  -0.03472   0.50627
  14   28662.9    348.9   0.209105154   2.40171  -1.09569   0.01439   1.09589
  15   29307.2    341.2   0.116030274   1.30339   0.51214   0.65401   0.78318
  16   29373.6    340.4   0.128404646   1.43913  -0.58403  -0.26344   1.01422
  17   29580.2    338.1   0.132731098   1.47722  -0.68526  -1.00323  -0.03422
  18   29669.5    337.0   0.006334846   0.07029  -0.17276  -0.11529  -0.16478
  19   30197.5    331.2   0.115064111   1.25442   0.27194  -1.02568   0.35841
  20   31407.6    318.4   0.557781192   5.84661  -0.53081  -1.77170   1.55754
  21   31521.6    317.2   0.211623983   2.21020   1.09582  -0.53114  -0.85280
  22   31703.7    315.4   0.025276930   0.26248  -0.04505   0.43271   0.27057
  23   31926.0    313.2   0.131008824   1.35093  -0.44613  -0.76464  -0.75314
  24   32311.5    309.5   0.098894506   1.00760  -0.54676  -0.09548   0.83639
  25   32503.7    307.7   0.007413598   0.07509  -0.05488  -0.22814   0.14153
  26   32578.1    307.0   0.308501517   3.11751  -0.59456  -1.48950  -0.73852
  27   32843.6    304.5   0.025909909   0.25971   0.13557   0.31729  -0.37505
  28   32946.2    303.5   0.182991024   1.82852  -0.37090  -1.02425   0.80117
  29   33041.4    302.7   0.466786707   4.65089   0.13762   0.55006   2.08072
  30   33114.9    302.0   0.046159838   0.45890   0.30234  -0.59343  -0.12380
  31   33136.6    301.8   0.046450140   0.46148  -0.37347   0.50225   0.26410
  32   34208.9    292.3   0.080130710   0.77114   0.55906  -0.18986  -0.65003
  33   34522.6    289.7   0.019001525   0.18120   0.14622  -0.30001  -0.26422
  34   34910.8    286.4   0.014816674   0.13972  -0.05263  -0.32670  -0.17385
  35   34952.4    286.1   0.130474362   1.22892  -0.34168  -0.93489  -0.48802
  36   35273.9    283.5   0.011473075   0.10708  -0.01242   0.31925   0.07072
  37   35875.2    278.7   0.267061006   2.45071  -0.02173  -1.38104   0.73685
  38   36010.2    277.7   0.003053810   0.02792   0.08245   0.02613  -0.14296
  39   36152.6    276.6   0.214194667   1.95050   0.33390   1.05179  -0.85600
  40   37238.3    268.5   0.009916821   0.08767  -0.11043  -0.12722   0.24350
  41   37301.9    268.1   0.005186605   0.04577   0.02414  -0.06502   0.20240
  42   37545.2    266.3   0.005818101   0.05102   0.03029  -0.11026   0.19478
  43   37866.1    264.1   0.352875723   3.06794  -0.84211  -0.52645   1.44279
  44   37915.5    263.7   0.001722082   0.01495   0.06944  -0.00214  -0.10063
  45   38459.1    260.0   0.005988060   0.05126  -0.14389  -0.04276  -0.16949
  46   38548.1    259.4   0.114407530   0.97707   0.56706   0.66845  -0.45683
  47   38620.1    258.9   0.001094311   0.00933  -0.04583  -0.08481  -0.00593
  48   38823.3    257.6   0.035336971   0.29965  -0.31260  -0.24166   0.37885
  49   39263.7    254.7   0.027085147   0.22710  -0.16927  -0.37903  -0.23406
  50   39400.6    253.8   0.003959715   0.03309   0.05812  -0.11423   0.12907
  51   39826.3    251.1   0.013606612   0.11247   0.30489  -0.02276  -0.13785
  52   39882.4    250.7   0.038291295   0.31608  -0.26794   0.40898   0.27753
  53   39930.2    250.4   0.033438552   0.27569  -0.24725  -0.34747   0.30631
  54   40142.5    249.1   0.231423657   1.89792   0.60371  -1.21941  -0.21565

FINAL SINGLE POINT ENERGY     -7566.256453561979

DIPOLE MOMENT
-------------
                                X             Y             Z
Electronic contribution:    127.50474      29.75000      -3.63088
Nuclear contribution   :   -129.68343     -28.54842       8.09875
                        -----------------------------------------
Total Dipole Moment    :     -2.17869       1.20159       4.46787
                        -----------------------------------------
Magnitude (a.u.)       :      5.11394
Magnitude (Debye)      :     12.99859

Rotational constants in cm-1:     0.000941     0.000212     0.000188
Rotational constants in MHz :    28.217524     6.362720     5.627758

                             ****ORCA TERMINATED NORMALLY****
TOTAL RUN TIME: 0 days 0 hours 12 minutes 5 seconds 230 msec
