                         Program Version 4.2.0 -  RELEASE  -
|  1> # ORCA input file
|  2> # SCF done       -163.607468601158          0.000969236436
|  3> ! CAM-B3LYP def2-SVP def2/J RIJCOSX Grid4 TightSCF
|  4> %maxcore 5000
|  5> %tddft
|  6>     Mode sTDDFT
|  7>     Ethresh 5.0
|  8>     maxcore 5000
|  9> end
| 10>
| 11> %pal
| 12>   nprocs 6
| 13>   end
| 14> * xyz 0 1
| 15>    C       -2.53267        -0.80800        -0.68802
| 16>    C       -2.92471        -1.95764        -1.33730
| 17>    C       -2.03616        -2.94498        -1.80806
| 18>    N       -1.37354        -3.79278        -2.21002
| 19>    C       -4.24660        -2.32684        -1.63756
| 20>    N       -5.28730        -2.71147        -1.94287
| 21>    C       -1.14866        -0.43368        -0.40781
| 22>    C       -1.14268         0.82187         0.24764
| 23>    C        0.01413         1.44646         0.64173
| 24>    C        1.22741         0.79972         0.37904
| 25>    C        1.21184        -0.45490        -0.27357
| 26>    C        0.03975        -1.08590        -0.67436
| 27>    S        2.81790        -1.07958        -0.49700
| 28>    C        3.47928         0.33493         0.27844
| 29>    C        2.54750         1.22985         0.68453
| 30>   Br        5.33718         0.49659         0.47975
| 31>    C       -2.53506         1.28925         0.41597
| 32>    O       -2.88655         2.32906         0.93789
| 33>    C       -3.38235         0.23316        -0.17366
| 34>    C       -4.76233         0.25226        -0.19117
| 35>    C       -5.55580         1.26622         0.33535
| 36>    C       -6.93629         1.22161         0.32301
| 37>    C       -7.81480         2.19042         0.86096
| 38>    C       -9.13579         1.87703         0.73403
| 39>    C       -9.36829         0.64583         0.08295
| 40>    S       -7.85130        -0.10013        -0.36772
| 41>    C      -10.57884         0.03631        -0.19059
| 42>    C      -11.87141         0.50269         0.15122
| 43>    C      -12.86997        -0.33384        -0.23893
| 44>    C      -12.41639        -1.49660        -0.91377
| 45>    S      -10.67227        -1.49479        -1.03656
| 46>    C      -13.16927        -2.51856        -1.42735
| 47>    C      -12.54867        -3.59296        -2.08983
| 48>    S      -13.42823        -4.94951        -2.79807
| 49>    C      -11.93855        -5.59601        -3.31385
| 50>    C      -10.89157        -4.77813        -2.93405
| 51>    N      -11.25795        -3.67427        -2.25302
| 52>    C       -9.51446        -5.04004        -3.23905
| 53>    N       -8.47951        -4.23244        -2.84330
| 54>    C       -7.29825        -4.71435        -3.29161
| 55>    C       -7.56119        -5.87164        -4.00408
| 56>    C       -8.96403        -6.06972        -3.96188
| 57>    S       -9.34056        -7.54404        -4.86917
| 58>    O       -9.85077        -8.57597        -4.00491
| 59>    O      -10.12119        -7.25067        -6.04254
| 60>    C       -7.59451        -7.82801        -5.28520
| 61>    C       -6.82789        -6.85679        -4.74228
| 62>    C       -7.28725        -8.96222        -6.07548
| 63>    C       -6.06761        -9.27726        -6.57025
| 64>    C       -5.81697       -10.43130        -7.36166
| 65>    O       -6.80239       -11.32630        -7.64208
| 66>    C       -4.65346       -10.86958        -7.96129
| 67>    C       -3.23771       -10.56490        -8.17439
| 68>    O       -2.55538        -9.64716        -7.79951
| 69>    N       -2.79068       -11.62710        -8.96166
| 70>    C       -3.75187       -12.58370        -9.28294
| 71>    O       -3.55532       -13.56613        -9.94900
| 72>    C       -4.96533       -12.08325        -8.62871
| 73>    C       -6.30100       -12.33062        -8.40620
| 74>    C       -7.13192       -13.41752        -8.84227
| 75>    C       -8.42447       -13.52935        -8.54213
| 76>    H       -0.01385         2.40369         1.13832
| 77>    H        0.08218        -2.04219        -1.16806
| 78>    H        2.77977         2.15516         1.17931
| 79>    H       -5.28184        -0.58805        -0.63552
| 80>    H       -5.07879         2.12443         0.78621
| 81>    H       -7.44067         3.08391         1.32803
| 82>    H       -9.94055         2.49572         1.08808
| 83>    H      -12.02835         1.42889         0.67422
| 84>    H      -13.91769        -0.15988        -0.06891
| 85>    H      -14.24346        -2.50603        -1.33607
| 86>    H      -11.87390        -6.51543        -3.86030
| 87>    H       -8.60292        -3.39567        -2.29260
| 88>    H       -6.37517        -4.21442        -3.07146
| 89>    H       -5.75471        -6.80605        -4.83707
| 90>    H       -8.13002        -9.60497        -6.29367
| 91>    H       -5.20533        -8.65278        -6.39146
| 92>    H       -1.83392       -11.69755        -9.27780
| 93>    H       -6.61713       -14.15314        -9.44350
| 94>    H       -8.92608       -12.78914        -7.94199
| 95>    H       -9.01158       -14.36104        -8.88848
| 96> *
| 97>
| 98>                          ****END OF INPUT****

CARTESIAN COORDINATES (ANGSTROEM)
---------------------------------
  C     -2.532670   -0.808000   -0.688020
  C     -2.924710   -1.957640   -1.337300
  C     -2.036160   -2.944980   -1.808060
  N     -1.373540   -3.792780   -2.210020
  C     -4.246600   -2.326840   -1.637560
  N     -5.287300   -2.711470   -1.942870
  C     -1.148660   -0.433680   -0.407810
  C     -1.142680    0.821870    0.247640
  C      0.014130    1.446460    0.641730
  C      1.227410    0.799720    0.379040
  C      1.211840   -0.454900   -0.273570
  C      0.039750   -1.085900   -0.674360
  S      2.817900   -1.079580   -0.497000
  C      3.479280    0.334930    0.278440
  C      2.547500    1.229850    0.684530
  Br     5.337180    0.496590    0.479750
  C     -2.535060    1.289250    0.415970
  O     -2.886550    2.329060    0.937890
  C     -3.382350    0.233160   -0.173660
  C     -4.762330    0.252260   -0.191170
  C     -5.555800    1.266220    0.335350
  C     -6.936290    1.221610    0.323010
  C     -7.814800    2.190420    0.860960
  C     -9.135790    1.877030    0.734030
  C     -9.368290    0.645830    0.082950
  S     -7.851300   -0.100130   -0.367720
  C    -10.578840    0.036310   -0.190590
  C    -11.871410    0.502690    0.151220
  C    -12.869970   -0.333840   -0.238930
  C    -12.416390   -1.496600   -0.913770
  S    -10.672270   -1.494790   -1.036560
  C    -13.169270   -2.518560   -1.427350
  C    -12.548670   -3.592960   -2.089830
  S    -13.428230   -4.949510   -2.798070
  C    -11.938550   -5.596010   -3.313850
  C    -10.891570   -4.778130   -2.934050
  N    -11.257950   -3.674270   -2.253020
  C     -9.514460   -5.040040   -3.239050
  N     -8.479510   -4.232440   -2.843300
  C     -7.298250   -4.714350   -3.291610
  C     -7.561190   -5.871640   -4.004080
  C     -8.964030   -6.069720   -3.961880
  S     -9.340560   -7.544040   -4.869170
  O     -9.850770   -8.575970   -4.004910
  O    -10.121190   -7.250670   -6.042540
  C     -7.594510   -7.828010   -5.285200
  C     -6.827890   -6.856790   -4.742280
  C     -7.287250   -8.962220   -6.075480
  C     -6.067610   -9.277260   -6.570250
  C     -5.816970  -10.431300   -7.361660
  O     -6.802390  -11.326300   -7.642080
  C     -4.653460  -10.869580   -7.961290
  C     -3.237710  -10.564900   -8.174390
  O     -2.555380   -9.647160   -7.799510
  N     -2.790680  -11.627100   -8.961660
  C     -3.751870  -12.583700   -9.282940
  O     -3.555320  -13.566130   -9.949000
  C     -4.965330  -12.083250   -8.628710
  C     -6.301000  -12.330620   -8.406200
  C     -7.131920  -13.417520   -8.842270
  C     -8.424470  -13.529350   -8.542130
  H     -0.013850    2.403690    1.138320
  H      0.082180   -2.042190   -1.168060
  H      2.779770    2.155160    1.179310
  H     -5.281840   -0.588050   -0.635520
  H     -5.078790    2.124430    0.786210
  H     -7.440670    3.083910    1.328030
  H     -9.940550    2.495720    1.088080
  H    -12.028350    1.428890    0.674220
  H    -13.917690   -0.159880   -0.068910
  H    -14.243460   -2.506030   -1.336070
  H    -11.873900   -6.515430   -3.860300
  H     -8.602920   -3.395670   -2.292600
  H     -6.375170   -4.214420   -3.071460
  H     -5.754710   -6.806050   -4.837070
  H     -8.130020   -9.604970   -6.293670
  H     -5.205330   -8.652780   -6.391460
  H     -1.833920  -11.697550   -9.277800
  H     -6.617130  -14.153140   -9.443500
  H     -8.926080  -12.789140   -7.941990
  H     -9.011580  -14.361040   -8.888480

 Total Charge           Charge          ....    0
 Multiplicity           Mult            ....    1
 Number of Electrons    NEL             ....  482
 Basis Dimension        Dim             ....  992

ORBITAL ENERGIES
----------------

  NO   OCC          E(Eh)            E(eV)
   0   2.0000    -482.883308    -13139.9228
   1   2.0000     -89.132587     -2425.4210
   2   2.0000     -88.979946     -2421.2674
   3   2.0000     -88.972446     -2421.0634
   4   2.0000     -88.969878     -2420.9934
   5   2.0000     -88.968126     -2420.9458
   6   2.0000     -62.560996     -1702.3713
   7   2.0000     -56.394946     -1534.5845
   8   2.0000     -56.392234     -1534.5107
   9   2.0000     -56.392202     -1534.5098
  10   2.0000     -19.300377      -525.1900
  11   2.0000     -19.211235      -522.7643
  12   2.0000     -19.198623      -522.4211
  13   2.0000     -19.198337      -522.4133
  14   2.0000     -19.182871      -521.9924
  15   2.0000     -19.182194      -521.9740
  16   2.0000     -14.473069      -393.8322
  17   2.0000     -14.442496      -393.0003
  18   2.0000     -14.426514      -392.5654
  19   2.0000     -14.422764      -392.4634
  20   2.0000     -14.409762      -392.1095
  21   2.0000     -10.388362      -282.6817
  22   2.0000     -10.387939      -282.6702
  23   2.0000     -10.361500      -281.9508
  24   2.0000     -10.356071      -281.8030
  25   2.0000     -10.351277      -281.6726
  26   2.0000     -10.350910      -281.6626
  27   2.0000     -10.349856      -281.6339
  28   2.0000     -10.338378      -281.3216
  29   2.0000     -10.337776      -281.3052
  30   2.0000     -10.334726      -281.2222
  31   2.0000     -10.334683      -281.2210
  32   2.0000     -10.333280      -281.1829
  33   2.0000     -10.332759      -281.1687
  34   2.0000     -10.329692      -281.0852
  35   2.0000     -10.325959      -280.9836
  36   2.0000     -10.321952      -280.8746
  37   2.0000     -10.321632      -280.8659
  38   2.0000     -10.315708      -280.7047
  39   2.0000     -10.314086      -280.6606
  40   2.0000     -10.312976      -280.6303
  41   2.0000     -10.311040      -280.5777
  42   2.0000     -10.311020      -280.5771
  43   2.0000     -10.310470      -280.5621
  44   2.0000     -10.309548      -280.5371
  45   2.0000     -10.303959      -280.3850
  46   2.0000     -10.303832      -280.3815
  47   2.0000     -10.303748      -280.3793
  48   2.0000     -10.303478      -280.3719
  49   2.0000     -10.301654      -280.3222
  50   2.0000     -10.300250      -280.2841
  51   2.0000     -10.296876      -280.1923
  52   2.0000     -10.294579      -280.1297
  53   2.0000     -10.293902      -280.1113
  54   2.0000     -10.291164      -280.0368
  55   2.0000     -10.289128      -279.9814
  56   2.0000     -10.287641      -279.9409
  57   2.0000     -10.286965      -279.9226
  58   2.0000     -10.285710      -279.8884
  59   2.0000     -10.283151      -279.8188
  60   2.0000     -10.277879      -279.6753
  61   2.0000     -10.277557      -279.6665
  62   2.0000     -10.273822      -279.5649
  63   2.0000     -10.273747      -279.5629
  64   2.0000     -10.272984      -279.5421
  65   2.0000      -8.790405      -239.1991
  66   2.0000      -8.197128      -223.0552
  67   2.0000      -8.075928      -219.7572
  68   2.0000      -8.068446      -219.5536
  69   2.0000      -8.065912      -219.4846
  70   2.0000      -8.062439      -219.3901
  71   2.0000      -6.626691      -180.3214
  72   2.0000      -6.612154      -179.9259
  73   2.0000      -6.611941      -179.9201
  74   2.0000      -6.166246      -167.7921
  75   2.0000      -6.165876      -167.7820
  76   2.0000      -6.165264      -167.7654
  77   2.0000      -6.044924      -164.4908
  78   2.0000      -6.040847      -164.3798
  79   2.0000      -6.038471      -164.3151
  80   2.0000      -6.038129      -164.3058
  81   2.0000      -6.035502      -164.2344
  82   2.0000      -6.033872      -164.1900
  83   2.0000      -6.032472      -164.1519
  84   2.0000      -6.031527      -164.1262
  85   2.0000      -6.029663      -164.0755
  86   2.0000      -6.027847      -164.0261
  87   2.0000      -6.027073      -164.0050
  88   2.0000      -6.023467      -163.9069
  89   2.0000      -2.742563       -74.6289
  90   2.0000      -2.738466       -74.5174
  91   2.0000      -2.738354       -74.5144
  92   2.0000      -2.726777       -74.1994
  93   2.0000      -2.726759       -74.1989
  94   2.0000      -1.216708       -33.1083
  95   2.0000      -1.187569       -32.3154
  96   2.0000      -1.143145       -31.1065
  97   2.0000      -1.124741       -30.6058
  98   2.0000      -1.122674       -30.5495
  99   2.0000      -1.094794       -29.7909
 100   2.0000      -1.077202       -29.3121
 101   2.0000      -1.063834       -28.9484
 102   2.0000      -1.030201       -28.0332
 103   2.0000      -1.021057       -27.7844
 104   2.0000      -1.018992       -27.7282
 105   2.0000      -1.013718       -27.5847
 106   2.0000      -0.997628       -27.1468
 107   2.0000      -0.995050       -27.0767
 108   2.0000      -0.985527       -26.8175
 109   2.0000      -0.955644       -26.0044
 110   2.0000      -0.940939       -25.6042
 111   2.0000      -0.926820       -25.2201
 112   2.0000      -0.919613       -25.0239
 113   2.0000      -0.912375       -24.8270
 114   2.0000      -0.911236       -24.7960
 115   2.0000      -0.909621       -24.7520
 116   2.0000      -0.905447       -24.6385
 117   2.0000      -0.888681       -24.1823
 118   2.0000      -0.885390       -24.0927
 119   2.0000      -0.882483       -24.0136
 120   2.0000      -0.872677       -23.7467
 121   2.0000      -0.866268       -23.5724
 122   2.0000      -0.851537       -23.1715
 123   2.0000      -0.847192       -23.0533
 124   2.0000      -0.841848       -22.9079
 125   2.0000      -0.826228       -22.4828
 126   2.0000      -0.818830       -22.2815
 127   2.0000      -0.808266       -21.9940
 128   2.0000      -0.796553       -21.6753
 129   2.0000      -0.776007       -21.1162
 130   2.0000      -0.765916       -20.8416
 131   2.0000      -0.762631       -20.7522
 132   2.0000      -0.755819       -20.5669
 133   2.0000      -0.753869       -20.5138
 134   2.0000      -0.738844       -20.1050
 135   2.0000      -0.736793       -20.0491
 136   2.0000      -0.714868       -19.4525
 137   2.0000      -0.701468       -19.0879
 138   2.0000      -0.692777       -18.8514
 139   2.0000      -0.691580       -18.8188
 140   2.0000      -0.689309       -18.7570
 141   2.0000      -0.686767       -18.6879
 142   2.0000      -0.681537       -18.5456
 143   2.0000      -0.668377       -18.1875
 144   2.0000      -0.661645       -18.0043
 145   2.0000      -0.656447       -17.8628
 146   2.0000      -0.652779       -17.7630
 147   2.0000      -0.644923       -17.5492
 148   2.0000      -0.643570       -17.5124
 149   2.0000      -0.634114       -17.2551
 150   2.0000      -0.628808       -17.1107
 151   2.0000      -0.620237       -16.8775
 152   2.0000      -0.612566       -16.6688
 153   2.0000      -0.603205       -16.4140
 154   2.0000      -0.597457       -16.2576
 155   2.0000      -0.594915       -16.1885
 156   2.0000      -0.591362       -16.0918
 157   2.0000      -0.588465       -16.0129
 158   2.0000      -0.582022       -15.8376
 159   2.0000      -0.579648       -15.7730
 160   2.0000      -0.573348       -15.6016
 161   2.0000      -0.570892       -15.5347
 162   2.0000      -0.565737       -15.3945
 163   2.0000      -0.557683       -15.1753
 164   2.0000      -0.551674       -15.0118
 165   2.0000      -0.548532       -14.9263
 166   2.0000      -0.545761       -14.8509
 167   2.0000      -0.543541       -14.7905
 168   2.0000      -0.540937       -14.7196
 169   2.0000      -0.536322       -14.5941
 170   2.0000      -0.536081       -14.5875
 171   2.0000      -0.532019       -14.4770
 172   2.0000      -0.531783       -14.4705
 173   2.0000      -0.529426       -14.4064
 174   2.0000      -0.526788       -14.3346
 175   2.0000      -0.524326       -14.2676
 176   2.0000      -0.523449       -14.2438
 177   2.0000      -0.518307       -14.1039
 178   2.0000      -0.515712       -14.0332
 179   2.0000      -0.514931       -14.0120
 180   2.0000      -0.511421       -13.9165
 181   2.0000      -0.506483       -13.7821
 182   2.0000      -0.506242       -13.7755
 183   2.0000      -0.506172       -13.7736
 184   2.0000      -0.501856       -13.6562
 185   2.0000      -0.500765       -13.6265
 186   2.0000      -0.493310       -13.4236
 187   2.0000      -0.492258       -13.3950
 188   2.0000      -0.491060       -13.3624
 189   2.0000      -0.489820       -13.3287
 190   2.0000      -0.489356       -13.3160
 191   2.0000      -0.483287       -13.1509
 192   2.0000      -0.482180       -13.1208
 193   2.0000      -0.473971       -12.8974
 194   2.0000      -0.470837       -12.8121
 195   2.0000      -0.468084       -12.7372
 196   2.0000      -0.462042       -12.5728
 197   2.0000      -0.460092       -12.5197
 198   2.0000      -0.455617       -12.3980
 199   2.0000      -0.455078       -12.3833
 200   2.0000      -0.453721       -12.3464
 201   2.0000      -0.450164       -12.2496
 202   2.0000      -0.447713       -12.1829
 203   2.0000      -0.445307       -12.1174
 204   2.0000      -0.444745       -12.1021
 205   2.0000      -0.443358       -12.0644
 206   2.0000      -0.441371       -12.0103
 207   2.0000      -0.436798       -11.8859
 208   2.0000      -0.430356       -11.7106
 209   2.0000      -0.428756       -11.6671
 210   2.0000      -0.428533       -11.6610
 211   2.0000      -0.424941       -11.5632
 212   2.0000      -0.411384       -11.1943
 213   2.0000      -0.407269       -11.0823
 214   2.0000      -0.403067       -10.9680
 215   2.0000      -0.393203       -10.6996
 216   2.0000      -0.390001       -10.6125
 217   2.0000      -0.388944       -10.5837
 218   2.0000      -0.382735       -10.4148
 219   2.0000      -0.378296       -10.2940
 220   2.0000      -0.373985       -10.1766
 221   2.0000      -0.372733       -10.1426
 222   2.0000      -0.366996        -9.9865
 223   2.0000      -0.358479        -9.7547
 224   2.0000      -0.357858        -9.7378
 225   2.0000      -0.357485        -9.7276
 226   2.0000      -0.356641        -9.7047
 227   2.0000      -0.352072        -9.5804
 228   2.0000      -0.350216        -9.5299
 229   2.0000      -0.347421        -9.4538
 230   2.0000      -0.343838        -9.3563
 231   2.0000      -0.340277        -9.2594
 232   2.0000      -0.333472        -9.0742
 233   2.0000      -0.331318        -9.0156
 234   2.0000      -0.313256        -8.5241
 235   2.0000      -0.312243        -8.4966
 236   2.0000      -0.304651        -8.2900
 237   2.0000      -0.291304        -7.9268
 238   2.0000      -0.278214        -7.5706
 239   2.0000      -0.249492        -6.7890
 240   2.0000      -0.237787        -6.4705
 241   0.0000      -0.119856        -3.2615
 242   0.0000      -0.070353        -1.9144
 243   0.0000      -0.058082        -1.5805
 244   0.0000      -0.049596        -1.3496
 245   0.0000      -0.026495        -0.7210

MULLIKEN ATOMIC CHARGES
-----------------------
   0 C :    0.337624
   1 C :   -0.372252
   2 C :   -0.196235
   3 N :    0.146422
   4 C :   -0.148215
   5 N :    0.112121
   6 C :    0.008042
   7 C :   -0.009823
   8 C :   -0.071052
   9 C :    0.115938
  10 C :   -0.093891
  11 C :   -0.017871
  12 S :    0.185950
  13 C :   -0.123757
  14 C :    0.039237
  15 Br:    0.020860
  16 C :    0.140058
  17 O :   -0.161577
  18 C :   -0.086837
  19 C :   -0.039477
  20 C :   -0.021936
  21 C :    0.007889
  22 C :    0.026944
  23 C :    0.049349
  24 C :   -0.055560
  25 S :    0.096198
  26 C :   -0.015799
  27 C :    0.027467
  28 C :    0.053942
  29 C :   -0.017608
  30 S :    0.117815
  31 C :    0.032782
  32 C :   -0.069383
  33 S :    0.150897
  34 C :   -0.088665
  35 C :    0.006695
  36 N :   -0.126390
  37 C :    0.037348
  38 N :   -0.016067
  39 C :    0.022692
  40 C :    0.052484
  41 C :   -0.078959
  42 S :    0.797887
  43 O :   -0.464483
  44 O :   -0.463772
  45 C :   -0.083801
  46 C :    0.048584
  47 C :    0.088021
  48 C :   -0.025936
  49 C :    0.083930
  50 O :   -0.210220
  51 C :   -0.033093
  52 C :    0.163670
  53 O :   -0.145698
  54 N :   -0.170158
  55 C :    0.167030
  56 O :   -0.146526
  57 C :   -0.041294
  58 C :    0.065907
  59 C :   -0.023505
  60 C :    0.016160
  61 H :   -0.013903
  62 H :   -0.008454
  63 H :   -0.004943
  64 H :    0.009102
  65 H :    0.019748
  66 H :    0.003099
  67 H :   -0.002076
  68 H :   -0.006984
  69 H :    0.000012
  70 H :   -0.002911
  71 H :    0.027974
  72 H :    0.140922
  73 H :   -0.010903
  74 H :    0.003340
  75 H :    0.011793
  76 H :    0.013263
  77 H :    0.136035
  78 H :    0.015644
  79 H :    0.037817
  80 H :    0.031319
Sum of atomic charges:    0.0000000

LOEWDIN ATOMIC CHARGES
----------------------
   0 C :    0.079644
   1 C :   -0.162587
   2 C :   -0.021613
   3 N :   -0.062601
   4 C :    0.007668
   5 N :   -0.081768
   6 C :   -0.020729
   7 C :   -0.048393
   8 C :    0.019373
   9 C :   -0.033404
  10 C :   -0.145605
  11 C :   -0.010282
  12 S :    0.432100
  13 C :   -0.272367
  14 C :   -0.070760
  15 Br:    0.134833
  16 C :    0.083308
  17 O :   -0.153936
  18 C :   -0.106316
  19 C :    0.050085
  20 C :   -0.070093
  21 C :   -0.101099
  22 C :   -0.037434
  23 C :   -0.004437
  24 C :   -0.184507
  25 S :    0.401245
  26 C :   -0.157506
  27 C :   -0.031033
  28 C :   -0.012329
  29 C :   -0.129767
  30 S :    0.426286
  31 C :   -0.066871
  32 C :   -0.136688
  33 S :    0.454243
  34 C :   -0.175498
  35 C :   -0.044315
  36 N :   -0.125167
  37 C :   -0.011020
  38 N :    0.122542
  39 C :    0.029544
  40 C :   -0.096453
  41 C :   -0.219634
  42 S :    1.174864
  43 O :   -0.508261
  44 O :   -0.508188
  45 C :   -0.176470
  46 C :    0.023424
  47 C :   -0.010273
  48 C :   -0.031172
  49 C :    0.070846
  50 O :    0.017980
  51 C :   -0.101935
  52 C :    0.083899
  53 O :   -0.163462
  54 N :   -0.008091
  55 C :    0.084463
  56 O :   -0.163056
  57 C :   -0.100619
  58 C :    0.070207
  59 C :   -0.039830
  60 C :   -0.010045
  61 H :    0.039788
  62 H :    0.040745
  63 H :    0.038243
  64 H :    0.029806
  65 H :    0.040031
  66 H :    0.040367
  67 H :    0.036905
  68 H :    0.033431
  69 H :    0.038830
  70 H :    0.039265
  71 H :    0.030272
  72 H :    0.096118
  73 H :    0.021689
  74 H :    0.040858
  75 H :    0.037351
  76 H :    0.044303
  77 H :    0.093150
  78 H :    0.046447
  79 H :    0.030431
  80 H :    0.031029

  Mayer bond orders larger than 0.100000
B(  0-C ,  1-C ) :   1.5644 B(  0-C ,  6-C ) :   0.9943 B(  0-C , 18-C ) :   1.1171
B(  1-C ,  2-C ) :   1.1455 B(  1-C ,  4-C ) :   1.1709 B(  2-C ,  3-N ) :   2.9675
B(  4-C ,  5-N ) :   2.8712 B(  5-N , 73-H ) :   0.1006 B(  6-C ,  7-C ) :   1.2738
B(  6-C , 11-C ) :   1.4187 B(  7-C ,  8-C ) :   1.4329 B(  7-C , 16-C ) :   0.9361
B(  8-C ,  9-C ) :   1.2395 B(  8-C , 61-H ) :   1.0153 B(  9-C , 10-C ) :   1.3128
B(  9-C , 14-C ) :   1.1620 B( 10-C , 11-C ) :   1.3239 B( 10-C , 12-S ) :   1.0853
B( 11-C , 62-H ) :   0.9781 B( 12-S , 13-C ) :   1.0879 B( 13-C , 14-C ) :   1.6186
B( 13-C , 15-Br) :   1.0166 B( 14-C , 63-H ) :   0.9997 B( 16-C , 17-O ) :   2.1904
B( 16-C , 18-C ) :   0.9601 B( 18-C , 19-C ) :   1.4812 B( 19-C , 20-C ) :   1.2603
B( 19-C , 64-H ) :   0.9426 B( 20-C , 21-C ) :   1.4200 B( 20-C , 65-H ) :   0.9776
B( 21-C , 22-C ) :   1.1754 B( 21-C , 25-S ) :   1.0856 B( 22-C , 23-C ) :   1.5482
B( 22-C , 66-H ) :   1.0016 B( 23-C , 24-C ) :   1.2061 B( 23-C , 67-H ) :   0.9945
B( 24-C , 25-S ) :   1.0412 B( 24-C , 26-C ) :   1.4936 B( 26-C , 27-C ) :   1.1802
B( 26-C , 30-S ) :   1.0237 B( 27-C , 28-C ) :   1.6017 B( 27-C , 68-H ) :   0.9948
B( 28-C , 29-C ) :   1.1349 B( 28-C , 69-H ) :   0.9989 B( 29-C , 30-S ) :   1.0618
B( 29-C , 31-C ) :   1.6000 B( 31-C , 32-C ) :   1.1373 B( 31-C , 70-H ) :   0.9664
B( 32-C , 33-S ) :   1.1155 B( 32-C , 36-N ) :   1.5807 B( 33-S , 34-C ) :   1.1665
B( 34-C , 35-C ) :   1.5558 B( 34-C , 71-H ) :   0.9349 B( 35-C , 36-N ) :   1.3797
B( 35-C , 37-C ) :   1.0477 B( 37-C , 38-N ) :   1.2852 B( 37-C , 41-C ) :   1.5330
B( 38-N , 39-C ) :   1.2509 B( 38-N , 72-H ) :   0.9218 B( 39-C , 40-C ) :   1.3899
B( 39-C , 73-H ) :   0.9711 B( 40-C , 41-C ) :   1.3253 B( 40-C , 46-C ) :   1.0637
B( 41-C , 42-S ) :   0.8079 B( 42-S , 43-O ) :   1.7043 B( 42-S , 44-O ) :   1.7098
B( 42-S , 45-C ) :   0.8255 B( 45-C , 46-C ) :   1.6737 B( 45-C , 47-C ) :   1.1038
B( 46-C , 74-H ) :   0.9905 B( 47-C , 48-C ) :   1.6590 B( 47-C , 75-H ) :   0.9634
B( 48-C , 49-C ) :   1.1863 B( 48-C , 76-H ) :   0.9562 B( 49-C , 50-O ) :   1.1535
B( 49-C , 51-C ) :   1.4100 B( 50-O , 58-C ) :   1.1495 B( 51-C , 52-C ) :   0.8837
B( 51-C , 57-C ) :   1.2574 B( 52-C , 53-O ) :   2.2671 B( 52-C , 54-N ) :   1.0729
B( 54-N , 55-C ) :   1.0782 B( 54-N , 77-H ) :   0.9146 B( 55-C , 56-O ) :   2.2655
B( 55-C , 57-C ) :   0.8776 B( 57-C , 58-C ) :   1.4428 B( 58-C , 59-C ) :   1.1473
B( 59-C , 60-C ) :   1.8973 B( 59-C , 78-H ) :   0.9515 B( 60-C , 79-H ) :   0.9597
B( 60-C , 80-H ) :   0.9451

-----------------------------------------------------------------------------
         ABSORPTION SPECTRUM VIA TRANSITION ELECTRIC DIPOLE MOMENTS
-----------------------------------------------------------------------------
State   Energy  Wavelength   fosc         T2         TX        TY        TZ
        (cm-1)    (nm)                  (au**2)     (au)      (au)      (au)
-----------------------------------------------------------------------------
   0   11707.7    854.1   0.892838976  25.10602   4.60939   1.71142   0.96469
   1   16655.4    600.4   0.207242961   4.09638  -1.98797   0.31221   0.21653
   2   21441.2    466.4   0.179078617   2.74961   1.33902  -0.82132  -0.53110
   3   21932.1    456.0   0.387861033   5.82200   0.54763  -2.05038  -1.14806
   4   24362.0    410.5   0.657623312   8.88670  -0.42395  -2.45194  -1.64164
   5   24857.1    402.3   0.681894310   9.03114   1.83988  -1.85757  -1.48170
   6   25033.7    399.5   0.060417290   0.79453  -0.89134  -0.00492  -0.00536
   7   26574.3    376.3   0.000643994   0.00798   0.05771  -0.05790  -0.03598
   8   27377.0    365.3   0.147458743   1.77321   0.80501  -0.94869  -0.47451
   9   27636.8    361.8   0.202965386   2.41774   0.56843  -1.27998  -0.67549
  10   27851.4    359.0   0.032395917   0.38293  -0.53311   0.28046   0.14167
  11   28041.0    356.6   0.045831639   0.53808   0.19691  -0.51932  -0.47918
  12   29476.9    339.2   0.109451021   1.22240  -0.70030   0.77012   0.37268
  13   29976.1    333.6   0.019859869   0.21811  -0.23679   0.36496   0.16983
  14   31190.4    320.6   0.186134353   1.96463  -1.40022  -0.01321  -0.06191
  15   31408.0    318.4   0.008488458   0.08897  -0.28676  -0.07795  -0.02579
  16   31488.9    317.6   0.010215637   0.10680   0.29970   0.10388   0.07871
  17   31704.5    315.4   0.456763228   4.74292   1.97254   0.77718   0.49799
  18   32038.1    312.1   0.120432701   1.23752   1.01464   0.45166  -0.06350
  19   32363.0    309.0   0.081880477   0.83293  -0.80721  -0.38395  -0.18418
  20   32772.5    305.1   0.062608996   0.62893   0.70045   0.34511   0.13854
  21   32839.1    304.5   0.003023338   0.03031  -0.09058   0.14692  -0.02277
  22   33654.5    297.1   0.063328854   0.61949  -0.69628  -0.31836  -0.18257
  23   35403.8    282.5   0.216128451   2.00973  -0.31147  -1.19842  -0.69029
  24   35772.0    279.5   0.000530529   0.00488  -0.05989  -0.03509   0.00805
  25   35995.0    277.8   0.040621878   0.37153   0.59114   0.08849  -0.11941
  26   36408.4    274.7   0.005260868   0.04757  -0.17745   0.11074   0.06180
  27   36877.0    271.2   0.001973640   0.01762  -0.06057   0.05040  -0.10682
  28   36954.7    270.6   0.054686013   0.48717   0.69504   0.06352  -0.00734
  29   37358.1    267.7   0.016180389   0.14259  -0.36152  -0.09036  -0.06106
  30   37471.5    266.9   0.000613202   0.00539  -0.07268  -0.00525  -0.00879
  31   37954.5    263.5   0.131829931   1.14348  -0.21277   0.92266   0.49689
  32   37964.6    263.4   0.001672727   0.01451  -0.00704   0.10747   0.05391
  33   38317.9    261.0   0.014800550   0.12716   0.30250  -0.15937  -0.10126
  34   38547.1    259.4   0.017928559   0.15312  -0.27092  -0.27477  -0.06496
  35   38657.0    258.7   0.055393383   0.47174  -0.46707   0.45462   0.21659
  36   39199.2    255.1   0.000000267   0.00000  -0.00071  -0.00131   0.00017
  37   39525.5    253.0   0.132772288   1.10587  -0.83091  -0.57635  -0.28859

FINAL SINGLE POINT ENERGY     -6974.996203575747

DIPOLE MOMENT
-------------
                                X             Y             Z
Electronic contribution:    126.21272      51.59290      37.94486
Nuclear contribution   :   -128.47037     -47.60120     -35.22726
                        -----------------------------------------
Total Dipole Moment    :     -2.25765       3.99171       2.71761
                        -----------------------------------------
Magnitude (a.u.)       :      5.33068
Magnitude (Debye)      :     13.54951

Rotational constants in cm-1:     0.000797     0.000450     0.000289
Rotational constants in MHz :    23.901310    13.478502     8.660906

                             ****ORCA TERMINATED NORMALLY****
TOTAL RUN TIME: 0 days 0 hours 6 minutes 47 seconds 971 msec
