                         Program Version 4.2.0 -  RELEASE  -
|  1> # ORCA input file
|  2> # SCF done       -204.049545647111          0.000615166445
|  3> ! CAM-B3LYP def2-SVP def2/J RIJCOSX Grid4 TightSCF
|  4> %maxcore 5000
|  5> %tddft
|  6>     Mode sTDDFT
|  7>     Ethresh 5.0
|  8>     maxcore 5000
|  9> end
| 10>
| 11> %pal
| 12>   nprocs 6
| 13>   end
| 14> * xyz 0 1
| 15>    C       -5.64894         1.14294        -1.29757
| 16>    C       -5.47955        -0.12411        -0.80144
| 17>    C       -4.29147        -0.86781        -0.93275
| 18>    N       -3.35127        -1.51994        -1.03349
| 19>    C       -6.48603        -0.84122        -0.12124
| 20>    N       -7.28170        -1.44171         0.44682
| 21>    C       -4.62909         1.92498        -1.99471
| 22>    C       -5.21054         3.13663        -2.44668
| 23>    C       -4.51202         4.07566        -3.16509
| 24>    C       -3.17211         3.80466        -3.45671
| 25>    C       -2.58713         2.61105        -2.97150
| 26>    C       -3.29453         1.66451        -2.23872
| 27>    S       -0.92439         2.47153        -3.45306
| 28>    C       -1.04884         3.97694        -4.32431
| 29>    C       -2.26274         4.57069        -4.23435
| 30>   Br        0.41467         4.60082        -5.31113
| 31>    C       -6.61219         3.17669        -2.02160
| 32>    O       -7.42421         4.07322        -2.23789
| 33>    C       -6.85926         1.93346        -1.28568
| 34>    C       -8.08941         1.65933        -0.72980
| 35>    N       -9.09111         2.52700        -0.89611
| 36>    C      -10.36972         2.46854        -0.43820
| 37>    S      -10.85990         1.39636         0.83232
| 38>    C      -12.42744         2.13728         0.82043
| 39>    N      -13.38284         1.64545         1.72788
| 40>    O      -14.48077         2.16204         1.72434
| 41>    O      -13.02333         0.73576         2.45111
| 42>    C      -12.55928         3.14449        -0.09688
| 43>    C      -11.38925         3.33734        -0.85483
| 44>    C      -11.23886         4.30956        -1.91185
| 45>    C      -10.43158         4.09058        -2.97134
| 46>    C       -9.99602         5.01877        -3.95349
| 47>    S       -8.64289         4.54272        -4.92345
| 48>    C       -8.51267         6.10484        -5.67316
| 49>    C       -9.53458         6.93713        -5.19926
| 50>    C      -10.34378         6.33809        -4.22988
| 51>    O      -11.38430         6.92562        -3.57717
| 52>    C      -11.82092         8.17775        -3.77640
| 53>    O      -12.74949         8.57808        -3.13440
| 54>    C      -11.16809         9.11415        -4.78977
| 55>    O      -11.58646        10.22346        -4.95546
| 56>    S       -9.75873         8.59004        -5.73769
| 57>    C       -7.48199         6.45290        -6.55689
| 58>    C       -6.39284         5.67289        -6.86443
| 59>    C       -5.28247         6.03595        -7.66953
| 60>    C       -4.29023         5.10213        -7.71341
| 61>    C       -4.56935         3.94416        -6.95473
| 62>    S       -6.14661         4.06674        -6.20986
| 63>    C       -3.78166         2.83693        -6.69824
| 64>    C       -2.45989         2.56072        -7.11021
| 65>    C       -1.93842         1.42579        -6.56205
| 66>    C       -2.82250         0.74950        -5.68639
| 67>    S       -4.36667         1.56960        -5.64296
| 68>    C       -2.61776        -0.35229        -4.88386
| 69>    C       -1.40269        -1.02199        -4.74230
| 70>    C       -1.15118        -2.10497        -3.93501
| 71>    C        0.25473        -2.41049        -3.56541
| 72>    O        1.25133        -1.94925        -4.07683
| 73>    C        0.16345        -3.33281        -2.41717
| 74>    C        1.16491        -3.83819        -1.63970
| 75>    C        0.83196        -4.67580        -0.55141
| 76>    C       -0.53840        -4.95980        -0.28219
| 77>    C       -0.86417        -5.78301         0.81409
| 78>    C        0.12348        -6.30501         1.60156
| 79>    C        1.47817        -6.02748         1.33120
| 80>    C        1.82659        -5.22920         0.27801
| 81>    F        2.42657        -6.55361         2.11945
| 82>    F       -0.18792        -7.08942         2.64245
| 83>    C       -1.55357        -4.42784        -1.11064
| 84>    C       -1.20604        -3.63682        -2.17124
| 85>    C       -2.01931        -2.98959        -3.20023
| 86>    C       -3.31025        -3.33909        -3.50998
| 87>    C       -4.00761        -2.92004        -4.66032
| 88>    N       -4.61934        -2.64692        -5.59339
| 89>    C       -4.08010        -4.24588        -2.75259
| 90>    N       -4.76824        -4.96066        -2.17514
| 91>    H       -4.98617         4.98471        -3.49908
| 92>    H       -2.80102         0.77150        -1.89330
| 93>    H       -2.51229         5.50252        -4.70798
| 94>    H       -8.29176         0.75579        -0.16886
| 95>    H       -8.82398         3.37104        -1.44044
| 96>    H      -13.47064         3.69922        -0.22891
| 97>    H      -11.79344         5.23074        -1.81580
| 98>    H       -9.99352         3.11004        -3.10627
| 99>    H       -7.53210         7.44419        -6.98761
|100>    H       -5.24710         6.98437        -8.17538
|101>    H       -3.37034         5.21936        -8.25739
|102>    H       -1.92470         3.21031        -7.77968
|103>    H       -0.94214         1.06984        -6.75248
|104>    H       -3.45577        -0.66901        -4.28038
|105>    H       -0.52601        -0.60844        -5.22736
|106>    H        2.19699        -3.60151        -1.84958
|107>    H       -1.89640        -6.00751         1.03290
|108>    H        2.86829        -5.02554         0.08511
|109>    H       -2.58244        -4.64680        -0.87634
|110> *
|111>
|112>                          ****END OF INPUT****

CARTESIAN COORDINATES (ANGSTROEM)
---------------------------------
  C     -5.648940    1.142940   -1.297570
  C     -5.479550   -0.124110   -0.801440
  C     -4.291470   -0.867810   -0.932750
  N     -3.351270   -1.519940   -1.033490
  C     -6.486030   -0.841220   -0.121240
  N     -7.281700   -1.441710    0.446820
  C     -4.629090    1.924980   -1.994710
  C     -5.210540    3.136630   -2.446680
  C     -4.512020    4.075660   -3.165090
  C     -3.172110    3.804660   -3.456710
  C     -2.587130    2.611050   -2.971500
  C     -3.294530    1.664510   -2.238720
  S     -0.924390    2.471530   -3.453060
  C     -1.048840    3.976940   -4.324310
  C     -2.262740    4.570690   -4.234350
  Br     0.414670    4.600820   -5.311130
  C     -6.612190    3.176690   -2.021600
  O     -7.424210    4.073220   -2.237890
  C     -6.859260    1.933460   -1.285680
  C     -8.089410    1.659330   -0.729800
  N     -9.091110    2.527000   -0.896110
  C    -10.369720    2.468540   -0.438200
  S    -10.859900    1.396360    0.832320
  C    -12.427440    2.137280    0.820430
  N    -13.382840    1.645450    1.727880
  O    -14.480770    2.162040    1.724340
  O    -13.023330    0.735760    2.451110
  C    -12.559280    3.144490   -0.096880
  C    -11.389250    3.337340   -0.854830
  C    -11.238860    4.309560   -1.911850
  C    -10.431580    4.090580   -2.971340
  C     -9.996020    5.018770   -3.953490
  S     -8.642890    4.542720   -4.923450
  C     -8.512670    6.104840   -5.673160
  C     -9.534580    6.937130   -5.199260
  C    -10.343780    6.338090   -4.229880
  O    -11.384300    6.925620   -3.577170
  C    -11.820920    8.177750   -3.776400
  O    -12.749490    8.578080   -3.134400
  C    -11.168090    9.114150   -4.789770
  O    -11.586460   10.223460   -4.955460
  S     -9.758730    8.590040   -5.737690
  C     -7.481990    6.452900   -6.556890
  C     -6.392840    5.672890   -6.864430
  C     -5.282470    6.035950   -7.669530
  C     -4.290230    5.102130   -7.713410
  C     -4.569350    3.944160   -6.954730
  S     -6.146610    4.066740   -6.209860
  C     -3.781660    2.836930   -6.698240
  C     -2.459890    2.560720   -7.110210
  C     -1.938420    1.425790   -6.562050
  C     -2.822500    0.749500   -5.686390
  S     -4.366670    1.569600   -5.642960
  C     -2.617760   -0.352290   -4.883860
  C     -1.402690   -1.021990   -4.742300
  C     -1.151180   -2.104970   -3.935010
  C      0.254730   -2.410490   -3.565410
  O      1.251330   -1.949250   -4.076830
  C      0.163450   -3.332810   -2.417170
  C      1.164910   -3.838190   -1.639700
  C      0.831960   -4.675800   -0.551410
  C     -0.538400   -4.959800   -0.282190
  C     -0.864170   -5.783010    0.814090
  C      0.123480   -6.305010    1.601560
  C      1.478170   -6.027480    1.331200
  C      1.826590   -5.229200    0.278010
  F      2.426570   -6.553610    2.119450
  F     -0.187920   -7.089420    2.642450
  C     -1.553570   -4.427840   -1.110640
  C     -1.206040   -3.636820   -2.171240
  C     -2.019310   -2.989590   -3.200230
  C     -3.310250   -3.339090   -3.509980
  C     -4.007610   -2.920040   -4.660320
  N     -4.619340   -2.646920   -5.593390
  C     -4.080100   -4.245880   -2.752590
  N     -4.768240   -4.960660   -2.175140
  H     -4.986170    4.984710   -3.499080
  H     -2.801020    0.771500   -1.893300
  H     -2.512290    5.502520   -4.707980
  H     -8.291760    0.755790   -0.168860
  H     -8.823980    3.371040   -1.440440
  H    -13.470640    3.699220   -0.228910
  H    -11.793440    5.230740   -1.815800
  H     -9.993520    3.110040   -3.106270
  H     -7.532100    7.444190   -6.987610
  H     -5.247100    6.984370   -8.175380
  H     -3.370340    5.219360   -8.257390
  H     -1.924700    3.210310   -7.779680
  H     -0.942140    1.069840   -6.752480
  H     -3.455770   -0.669010   -4.280380
  H     -0.526010   -0.608440   -5.227360
  H      2.196990   -3.601510   -1.849580
  H     -1.896400   -6.007510    1.032900
  H      2.868290   -5.025540    0.085110
  H     -2.582440   -4.646800   -0.876340

 Total Charge           Charge          ....    0
 Multiplicity           Mult            ....    1
 Number of Electrons    NEL             ....  590
 Basis Dimension        Dim             .... 1201

ORBITAL ENERGIES
----------------

  NO   OCC          E(Eh)            E(eV)
   0   2.0000    -482.901240    -13140.4108
   1   2.0000     -89.000042     -2421.8143
   2   2.0000     -88.991247     -2421.5749
   3   2.0000     -88.990037     -2421.5420
   4   2.0000     -88.988481     -2421.4997
   5   2.0000     -88.980514     -2421.2829
   6   2.0000     -88.973303     -2421.0867
   7   2.0000     -62.578863     -1702.8574
   8   2.0000     -56.412783     -1535.0699
   9   2.0000     -56.410139     -1534.9979
  10   2.0000     -56.410064     -1534.9959
  11   2.0000     -24.790424      -674.5817
  12   2.0000     -24.789139      -674.5468
  13   2.0000     -19.324224      -525.8389
  14   2.0000     -19.258325      -524.0457
  15   2.0000     -19.246436      -523.7222
  16   2.0000     -19.246117      -523.7135
  17   2.0000     -19.245275      -523.6906
  18   2.0000     -19.244554      -523.6709
  19   2.0000     -19.207778      -522.6702
  20   2.0000     -14.658279      -398.8721
  21   2.0000     -14.505123      -394.7045
  22   2.0000     -14.431094      -392.6900
  23   2.0000     -14.427952      -392.6045
  24   2.0000     -14.406541      -392.0219
  25   2.0000     -14.405130      -391.9835
  26   2.0000     -10.448506      -284.3183
  27   2.0000     -10.425498      -283.6922
  28   2.0000     -10.390428      -282.7379
  29   2.0000     -10.381781      -282.5026
  30   2.0000     -10.381634      -282.4986
  31   2.0000     -10.381530      -282.4958
  32   2.0000     -10.372314      -282.2450
  33   2.0000     -10.372137      -282.2402
  34   2.0000     -10.371585      -282.2252
  35   2.0000     -10.358470      -281.8683
  36   2.0000     -10.358403      -281.8665
  37   2.0000     -10.356541      -281.8158
  38   2.0000     -10.353657      -281.7373
  39   2.0000     -10.345518      -281.5159
  40   2.0000     -10.345136      -281.5055
  41   2.0000     -10.343854      -281.4706
  42   2.0000     -10.341716      -281.4124
  43   2.0000     -10.340696      -281.3846
  44   2.0000     -10.339682      -281.3570
  45   2.0000     -10.338908      -281.3360
  46   2.0000     -10.335555      -281.2448
  47   2.0000     -10.335280      -281.2373
  48   2.0000     -10.331639      -281.1382
  49   2.0000     -10.331007      -281.1210
  50   2.0000     -10.329969      -281.0928
  51   2.0000     -10.323903      -280.9277
  52   2.0000     -10.323472      -280.9160
  53   2.0000     -10.320560      -280.8367
  54   2.0000     -10.320239      -280.8280
  55   2.0000     -10.319570      -280.8098
  56   2.0000     -10.319500      -280.8079
  57   2.0000     -10.319140      -280.7981
  58   2.0000     -10.318208      -280.7727
  59   2.0000     -10.318035      -280.7680
  60   2.0000     -10.315739      -280.7055
  61   2.0000     -10.314531      -280.6726
  62   2.0000     -10.311475      -280.5895
  63   2.0000     -10.310663      -280.5674
  64   2.0000     -10.310585      -280.5653
  65   2.0000     -10.310281      -280.5570
  66   2.0000     -10.309772      -280.5432
  67   2.0000     -10.309576      -280.5378
  68   2.0000     -10.307913      -280.4926
  69   2.0000     -10.307870      -280.4914
  70   2.0000     -10.300401      -280.2882
  71   2.0000     -10.299959      -280.2761
  72   2.0000     -10.298023      -280.2235
  73   2.0000     -10.295333      -280.1503
  74   2.0000     -10.292769      -280.0805
  75   2.0000     -10.292498      -280.0731
  76   2.0000     -10.290886      -280.0292
  77   2.0000     -10.290286      -280.0129
  78   2.0000     -10.289224      -279.9840
  79   2.0000     -10.283680      -279.8331
  80   2.0000      -8.808277      -239.6854
  81   2.0000      -8.095351      -220.2857
  82   2.0000      -8.086280      -220.0389
  83   2.0000      -8.085220      -220.0100
  84   2.0000      -8.084974      -220.0033
  85   2.0000      -8.076319      -219.7678
  86   2.0000      -8.068965      -219.5677
  87   2.0000      -6.644481      -180.8055
  88   2.0000      -6.630097      -180.4141
  89   2.0000      -6.629824      -180.4067
  90   2.0000      -6.064905      -165.0345
  91   2.0000      -6.060545      -164.9158
  92   2.0000      -6.056963      -164.8183
  93   2.0000      -6.055558      -164.7801
  94   2.0000      -6.054935      -164.7631
  95   2.0000      -6.054674      -164.7561
  96   2.0000      -6.051510      -164.6700
  97   2.0000      -6.050664      -164.6469
  98   2.0000      -6.050435      -164.6407
  99   2.0000      -6.048174      -164.5792
 100   2.0000      -6.046506      -164.5338
 101   2.0000      -6.046082      -164.5223
 102   2.0000      -6.045855      -164.5161
 103   2.0000      -6.041858      -164.4073
 104   2.0000      -6.038720      -164.3219
 105   2.0000      -6.037317      -164.2838
 106   2.0000      -6.034592      -164.2096
 107   2.0000      -6.029994      -164.0845
 108   2.0000      -2.760354       -75.1131
 109   2.0000      -2.756353       -75.0042
 110   2.0000      -2.756176       -74.9994
 111   2.0000      -2.744720       -74.6876
 112   2.0000      -2.744712       -74.6874
 113   2.0000      -1.329221       -36.1700
 114   2.0000      -1.312491       -35.7147
 115   2.0000      -1.297651       -35.3109
 116   2.0000      -1.252049       -34.0700
 117   2.0000      -1.183193       -32.1963
 118   2.0000      -1.159861       -31.5614
 119   2.0000      -1.148866       -31.2622
 120   2.0000      -1.148100       -31.2414
 121   2.0000      -1.122557       -30.5463
 122   2.0000      -1.113247       -30.2930
 123   2.0000      -1.038044       -28.2466
 124   2.0000      -1.033708       -28.1286
 125   2.0000      -1.027869       -27.9697
 126   2.0000      -1.023575       -27.8529
 127   2.0000      -1.020408       -27.7667
 128   2.0000      -1.010685       -27.5021
 129   2.0000      -1.008081       -27.4313
 130   2.0000      -1.004472       -27.3331
 131   2.0000      -1.002717       -27.2853
 132   2.0000      -0.994353       -27.0577
 133   2.0000      -0.984512       -26.7899
 134   2.0000      -0.971892       -26.4465
 135   2.0000      -0.957113       -26.0444
 136   2.0000      -0.953828       -25.9550
 137   2.0000      -0.935563       -25.4580
 138   2.0000      -0.931696       -25.3527
 139   2.0000      -0.924068       -25.1452
 140   2.0000      -0.923597       -25.1324
 141   2.0000      -0.912746       -24.8371
 142   2.0000      -0.908302       -24.7161
 143   2.0000      -0.900019       -24.4908
 144   2.0000      -0.893188       -24.3049
 145   2.0000      -0.889231       -24.1972
 146   2.0000      -0.883365       -24.0376
 147   2.0000      -0.879683       -23.9374
 148   2.0000      -0.873193       -23.7608
 149   2.0000      -0.869842       -23.6696
 150   2.0000      -0.862242       -23.4628
 151   2.0000      -0.858614       -23.3641
 152   2.0000      -0.853201       -23.2168
 153   2.0000      -0.843597       -22.9554
 154   2.0000      -0.832893       -22.6642
 155   2.0000      -0.830407       -22.5965
 156   2.0000      -0.813617       -22.1396
 157   2.0000      -0.803936       -21.8762
 158   2.0000      -0.790043       -21.4982
 159   2.0000      -0.780568       -21.2403
 160   2.0000      -0.776706       -21.1352
 161   2.0000      -0.772298       -21.0153
 162   2.0000      -0.760732       -20.7006
 163   2.0000      -0.755344       -20.5540
 164   2.0000      -0.749922       -20.4064
 165   2.0000      -0.738610       -20.0986
 166   2.0000      -0.729618       -19.8539
 167   2.0000      -0.724091       -19.7035
 168   2.0000      -0.713985       -19.4285
 169   2.0000      -0.709010       -19.2931
 170   2.0000      -0.706916       -19.2362
 171   2.0000      -0.703951       -19.1555
 172   2.0000      -0.696230       -18.9454
 173   2.0000      -0.689062       -18.7503
 174   2.0000      -0.686378       -18.6773
 175   2.0000      -0.673333       -18.3223
 176   2.0000      -0.673169       -18.3179
 177   2.0000      -0.665739       -18.1157
 178   2.0000      -0.661042       -17.9879
 179   2.0000      -0.654920       -17.8213
 180   2.0000      -0.650866       -17.7110
 181   2.0000      -0.648576       -17.6486
 182   2.0000      -0.644759       -17.5448
 183   2.0000      -0.640340       -17.4245
 184   2.0000      -0.639882       -17.4121
 185   2.0000      -0.633428       -17.2365
 186   2.0000      -0.632784       -17.2189
 187   2.0000      -0.631956       -17.1964
 188   2.0000      -0.626395       -17.0451
 189   2.0000      -0.617062       -16.7911
 190   2.0000      -0.614809       -16.7298
 191   2.0000      -0.610389       -16.6095
 192   2.0000      -0.606633       -16.5073
 193   2.0000      -0.605684       -16.4815
 194   2.0000      -0.602499       -16.3948
 195   2.0000      -0.595296       -16.1988
 196   2.0000      -0.591141       -16.0858
 197   2.0000      -0.589503       -16.0412
 198   2.0000      -0.581926       -15.8350
 199   2.0000      -0.577067       -15.7028
 200   2.0000      -0.575958       -15.6726
 201   2.0000      -0.572146       -15.5689
 202   2.0000      -0.566510       -15.4155
 203   2.0000      -0.566179       -15.4065
 204   2.0000      -0.564828       -15.3698
 205   2.0000      -0.563806       -15.3419
 206   2.0000      -0.561039       -15.2666
 207   2.0000      -0.552512       -15.0346
 208   2.0000      -0.550446       -14.9784
 209   2.0000      -0.549501       -14.9527
 210   2.0000      -0.545343       -14.8395
 211   2.0000      -0.544778       -14.8242
 212   2.0000      -0.542053       -14.7500
 213   2.0000      -0.538967       -14.6660
 214   2.0000      -0.538883       -14.6637
 215   2.0000      -0.536862       -14.6087
 216   2.0000      -0.534074       -14.5329
 217   2.0000      -0.532786       -14.4978
 218   2.0000      -0.531359       -14.4590
 219   2.0000      -0.530063       -14.4237
 220   2.0000      -0.526122       -14.3165
 221   2.0000      -0.523732       -14.2515
 222   2.0000      -0.522493       -14.2178
 223   2.0000      -0.521386       -14.1876
 224   2.0000      -0.519059       -14.1243
 225   2.0000      -0.514316       -13.9953
 226   2.0000      -0.512115       -13.9354
 227   2.0000      -0.511224       -13.9111
 228   2.0000      -0.509887       -13.8747
 229   2.0000      -0.508501       -13.8370
 230   2.0000      -0.506159       -13.7733
 231   2.0000      -0.501786       -13.6543
 232   2.0000      -0.497423       -13.5356
 233   2.0000      -0.495964       -13.4959
 234   2.0000      -0.493789       -13.4367
 235   2.0000      -0.492626       -13.4050
 236   2.0000      -0.490095       -13.3362
 237   2.0000      -0.487813       -13.2741
 238   2.0000      -0.479243       -13.0409
 239   2.0000      -0.477802       -13.0016
 240   2.0000      -0.475407       -12.9365
 241   2.0000      -0.473673       -12.8893
 242   2.0000      -0.472063       -12.8455
 243   2.0000      -0.467727       -12.7275
 244   2.0000      -0.464234       -12.6324
 245   2.0000      -0.463183       -12.6038
 246   2.0000      -0.459432       -12.5018
 247   2.0000      -0.458801       -12.4846
 248   2.0000      -0.456681       -12.4269
 249   2.0000      -0.454913       -12.3788
 250   2.0000      -0.453619       -12.3436
 251   2.0000      -0.452814       -12.3217
 252   2.0000      -0.450200       -12.2506
 253   2.0000      -0.443726       -12.0744
 254   2.0000      -0.442041       -12.0285
 255   2.0000      -0.441299       -12.0083
 256   2.0000      -0.439700       -11.9648
 257   2.0000      -0.438520       -11.9327
 258   2.0000      -0.437749       -11.9118
 259   2.0000      -0.433080       -11.7847
 260   2.0000      -0.431922       -11.7532
 261   2.0000      -0.426274       -11.5995
 262   2.0000      -0.425442       -11.5769
 263   2.0000      -0.419043       -11.4027
 264   2.0000      -0.416892       -11.3442
 265   2.0000      -0.414185       -11.2705
 266   2.0000      -0.413653       -11.2561
 267   2.0000      -0.407626       -11.0921
 268   2.0000      -0.404114       -10.9965
 269   2.0000      -0.401068       -10.9136
 270   2.0000      -0.396245       -10.7824
 271   2.0000      -0.393365       -10.7040
 272   2.0000      -0.392515       -10.6809
 273   2.0000      -0.390242       -10.6190
 274   2.0000      -0.385770       -10.4973
 275   2.0000      -0.385268       -10.4837
 276   2.0000      -0.377591       -10.2748
 277   2.0000      -0.375625       -10.2213
 278   2.0000      -0.369585       -10.0569
 279   2.0000      -0.366767        -9.9802
 280   2.0000      -0.366360        -9.9692
 281   2.0000      -0.364671        -9.9232
 282   2.0000      -0.356330        -9.6962
 283   2.0000      -0.354060        -9.6345
 284   2.0000      -0.345366        -9.3979
 285   2.0000      -0.335626        -9.1329
 286   2.0000      -0.329659        -8.9705
 287   2.0000      -0.326191        -8.8761
 288   2.0000      -0.320503        -8.7213
 289   2.0000      -0.308446        -8.3932
 290   2.0000      -0.306795        -8.3483
 291   2.0000      -0.299256        -8.1432
 292   2.0000      -0.289413        -7.8753
 293   2.0000      -0.280429        -7.6309
 294   2.0000      -0.238114        -6.4794
 295   0.0000      -0.123809        -3.3690
 296   0.0000      -0.099428        -2.7056
 297   0.0000      -0.081848        -2.2272
 298   0.0000      -0.072697        -1.9782
 299   0.0000      -0.062180        -1.6920

MULLIKEN ATOMIC CHARGES
-----------------------
   0 C :    0.324967
   1 C :   -0.351607
   2 C :   -0.157801
   3 N :    0.136964
   4 C :   -0.191741
   5 N :    0.154241
   6 C :    0.021411
   7 C :    0.010044
   8 C :   -0.073431
   9 C :    0.128675
  10 C :   -0.089778
  11 C :   -0.043370
  12 S :    0.190777
  13 C :   -0.129676
  14 C :    0.052680
  15 Br:    0.021513
  16 C :    0.162988
  17 O :   -0.224923
  18 C :   -0.131860
  19 C :    0.037701
  20 N :   -0.025572
  21 C :   -0.114522
  22 S :    0.197543
  23 C :    0.002541
  24 N :    0.273544
  25 O :   -0.239055
  26 O :   -0.253656
  27 C :    0.017814
  28 C :    0.096175
  29 C :   -0.012790
  30 C :    0.023805
  31 C :   -0.113965
  32 S :    0.157371
  33 C :   -0.130593
  34 C :   -0.047789
  35 C :    0.191882
  36 O :   -0.202761
  37 C :    0.210668
  38 O :   -0.110854
  39 C :    0.003419
  40 O :   -0.112683
  41 S :    0.111873
  42 C :    0.005514
  43 C :   -0.044922
  44 C :    0.039748
  45 C :    0.035264
  46 C :   -0.028370
  47 S :    0.056108
  48 C :   -0.047947
  49 C :    0.042355
  50 C :    0.037134
  51 C :   -0.059694
  52 S :    0.119396
  53 C :    0.044829
  54 C :    0.018260
  55 C :   -0.133220
  56 C :    0.134227
  57 O :   -0.151210
  58 C :    0.006375
  59 C :   -0.090494
  60 C :    0.116378
  61 C :    0.110352
  62 C :   -0.109016
  63 C :    0.241614
  64 C :    0.235710
  65 C :   -0.108009
  66 F :   -0.175264
  67 F :   -0.173937
  68 C :   -0.072989
  69 C :    0.054614
  70 C :    0.332305
  71 C :   -0.355322
  72 C :   -0.224229
  73 N :    0.162851
  74 C :   -0.175292
  75 N :    0.148822
  76 H :   -0.015174
  77 H :   -0.005873
  78 H :   -0.008910
  79 H :    0.043745
  80 H :    0.188013
  81 H :    0.019110
  82 H :    0.027507
  83 H :   -0.000987
  84 H :    0.002797
  85 H :    0.000334
  86 H :   -0.003305
  87 H :   -0.003277
  88 H :    0.006370
  89 H :    0.003797
  90 H :    0.001077
  91 H :   -0.014548
  92 H :    0.006054
  93 H :   -0.004332
  94 H :   -0.004507
Sum of atomic charges:   -0.0000000

LOEWDIN ATOMIC CHARGES
----------------------
   0 C :    0.080717
   1 C :   -0.149407
   2 C :   -0.005138
   3 N :   -0.058272
   4 C :   -0.020996
   5 N :   -0.045329
   6 C :   -0.018750
   7 C :   -0.052459
   8 C :    0.020782
   9 C :   -0.037417
  10 C :   -0.144611
  11 C :   -0.012027
  12 S :    0.449254
  13 C :   -0.274107
  14 C :   -0.069547
  15 Br:    0.137893
  16 C :    0.095121
  17 O :   -0.178815
  18 C :   -0.148987
  19 C :    0.114342
  20 N :    0.079662
  21 C :   -0.116651
  22 S :    0.481145
  23 C :   -0.198389
  24 N :    0.272277
  25 O :   -0.205197
  26 O :   -0.219848
  27 C :    0.002997
  28 C :   -0.083264
  29 C :   -0.012382
  30 C :   -0.043763
  31 C :   -0.181659
  32 S :    0.491673
  33 C :   -0.193136
  34 C :   -0.223993
  35 C :   -0.002310
  36 O :   -0.016295
  37 C :    0.048688
  38 O :   -0.089217
  39 C :   -0.103403
  40 O :   -0.089958
  41 S :    0.383473
  42 C :   -0.063645
  43 C :   -0.154246
  44 C :   -0.018931
  45 C :   -0.036517
  46 C :   -0.164730
  47 S :    0.391046
  48 C :   -0.178479
  49 C :   -0.009714
  50 C :   -0.034317
  51 C :   -0.112902
  52 S :    0.419710
  53 C :   -0.061076
  54 C :    0.047860
  55 C :   -0.089764
  56 C :    0.078987
  57 O :   -0.154487
  58 C :   -0.052970
  59 C :    0.024517
  60 C :   -0.010728
  61 C :   -0.005507
  62 C :   -0.029671
  63 C :    0.064566
  64 C :    0.064267
  65 C :   -0.035228
  66 F :   -0.052747
  67 F :   -0.051348
  68 C :    0.021002
  69 C :   -0.010916
  70 C :    0.075595
  71 C :   -0.142533
  72 C :   -0.026118
  73 N :   -0.060746
  74 C :   -0.017694
  75 N :   -0.056234
  76 H :    0.035359
  77 H :    0.039800
  78 H :    0.036731
  79 H :    0.039189
  80 H :    0.085084
  81 H :    0.050807
  82 H :    0.039024
  83 H :    0.028069
  84 H :    0.038988
  85 H :    0.039108
  86 H :    0.036829
  87 H :    0.036087
  88 H :    0.038548
  89 H :    0.031596
  90 H :    0.037478
  91 H :    0.038109
  92 H :    0.047285
  93 H :    0.043048
  94 H :    0.039868

  Mayer bond orders larger than 0.100000
B(  0-C ,  1-C ) :   1.6265 B(  0-C ,  6-C ) :   0.9949 B(  0-C , 18-C ) :   1.1018
B(  1-C ,  2-C ) :   1.1572 B(  1-C ,  4-C ) :   1.1421 B(  2-C ,  3-N ) :   2.9086
B(  4-C ,  5-N ) :   2.9604 B(  6-C ,  7-C ) :   1.2774 B(  6-C , 11-C ) :   1.4133
B(  7-C ,  8-C ) :   1.4127 B(  7-C , 16-C ) :   0.9839 B(  8-C ,  9-C ) :   1.2353
B(  8-C , 76-H ) :   1.0151 B(  9-C , 10-C ) :   1.3135 B(  9-C , 14-C ) :   1.1603
B( 10-C , 11-C ) :   1.3151 B( 10-C , 12-S ) :   1.0934 B( 11-C , 77-H ) :   0.9815
B( 12-S , 13-C ) :   1.0879 B( 13-C , 14-C ) :   1.6038 B( 13-C , 15-Br) :   1.0168
B( 14-C , 78-H ) :   1.0030 B( 16-C , 17-O ) :   1.9987 B( 16-C , 18-C ) :   1.0112
B( 17-O , 80-H ) :   0.1466 B( 18-C , 19-C ) :   1.4319 B( 19-C , 20-N ) :   1.3526
B( 19-C , 79-H ) :   0.9338 B( 20-N , 21-C ) :   1.1619 B( 20-N , 80-H ) :   0.8182
B( 21-C , 22-S ) :   1.1454 B( 21-C , 28-C ) :   1.3987 B( 22-S , 23-C ) :   1.0929
B( 23-C , 24-N ) :   0.9550 B( 23-C , 27-C ) :   1.4968 B( 24-N , 25-O ) :   1.5464
B( 24-N , 26-O ) :   1.5205 B( 25-O , 26-O ) :   0.2653 B( 27-C , 28-C ) :   1.2214
B( 27-C , 81-H ) :   1.0084 B( 28-C , 29-C ) :   1.0648 B( 29-C , 30-C ) :   1.7220
B( 29-C , 82-H ) :   0.9650 B( 30-C , 31-C ) :   1.1429 B( 30-C , 83-H ) :   0.9391
B( 31-C , 32-S ) :   1.1428 B( 31-C , 33-C ) :   0.1041 B( 31-C , 35-C ) :   1.4615
B( 32-S , 33-C ) :   1.1249 B( 33-C , 34-C ) :   1.4677 B( 33-C , 42-C ) :   1.2052
B( 34-C , 35-C ) :   1.3142 B( 34-C , 41-S ) :   0.9641 B( 35-C , 36-O ) :   1.0687
B( 36-O , 37-C ) :   1.0813 B( 37-C , 38-O ) :   2.2400 B( 37-C , 39-C ) :   0.8014
B( 39-C , 40-O ) :   2.1736 B( 39-C , 41-S ) :   1.0404 B( 40-O , 41-S ) :   0.1391
B( 42-C , 43-C ) :   1.5623 B( 42-C , 84-H ) :   0.9631 B( 43-C , 44-C ) :   1.1493
B( 43-C , 47-S ) :   1.0395 B( 44-C , 45-C ) :   1.5799 B( 44-C , 85-H ) :   0.9994
B( 45-C , 46-C ) :   1.1917 B( 45-C , 86-H ) :   0.9941 B( 46-C , 47-S ) :   1.0535
B( 46-C , 48-C ) :   1.4827 B( 48-C , 49-C ) :   1.1911 B( 48-C , 52-S ) :   1.0561
B( 49-C , 50-C ) :   1.5709 B( 49-C , 87-H ) :   0.9982 B( 50-C , 51-C ) :   1.1627
B( 50-C , 88-H ) :   0.9960 B( 51-C , 52-S ) :   1.0847 B( 51-C , 53-C ) :   1.5076
B( 53-C , 54-C ) :   1.2229 B( 53-C , 89-H ) :   0.9351 B( 54-C , 55-C ) :   1.5737
B( 54-C , 90-H ) :   0.9446 B( 55-C , 56-C ) :   0.9519 B( 55-C , 70-C ) :   1.0543
B( 56-C , 57-O ) :   2.2501 B( 56-C , 58-C ) :   0.9236 B( 58-C , 59-C ) :   1.4697
B( 58-C , 69-C ) :   1.2217 B( 59-C , 60-C ) :   1.1932 B( 59-C , 91-H ) :   1.0167
B( 60-C , 61-C ) :   1.2584 B( 60-C , 65-C ) :   1.1901 B( 61-C , 62-C ) :   1.1909
B( 61-C , 68-C ) :   1.2100 B( 62-C , 63-C ) :   1.4391 B( 62-C , 65-C ) :   0.1092
B( 62-C , 92-H ) :   1.0079 B( 63-C , 64-C ) :   1.1924 B( 63-C , 67-F ) :   1.1316
B( 64-C , 65-C ) :   1.4441 B( 64-C , 66-F ) :   1.1304 B( 65-C , 93-H ) :   1.0074
B( 68-C , 69-C ) :   1.4663 B( 68-C , 94-H ) :   0.9916 B( 69-C , 70-C ) :   0.9950
B( 70-C , 71-C ) :   1.6186 B( 71-C , 72-C ) :   1.1668 B( 71-C , 74-C ) :   1.1369
B( 72-C , 73-N ) :   3.0101 B( 74-C , 75-N ) :   2.9799

-----------------------------------------------------------------------------
         ABSORPTION SPECTRUM VIA TRANSITION ELECTRIC DIPOLE MOMENTS
-----------------------------------------------------------------------------
State   Energy  Wavelength   fosc         T2         TX        TY        TZ
        (cm-1)    (nm)                  (au**2)     (au)      (au)      (au)
-----------------------------------------------------------------------------
   0   11011.9    908.1   0.826362033  24.70491  -3.26603   3.73379  -0.31111
   1   14919.3    670.3   0.114738159   2.53184  -0.93891   1.20710  -0.43955
   2   17665.5    566.1   0.087275570   1.62645  -0.87509   0.80637  -0.45874
   3   19868.5    503.3   0.358162106   5.93459   0.82492  -1.90130   1.28030
   4   21340.8    468.6   0.212137301   3.27251   0.01900  -1.18175   1.36953
   5   22641.9    441.7   0.029210884   0.42472  -0.59598  -0.00992   0.26351
   6   23096.0    433.0   0.030399081   0.43331   0.63070   0.16340  -0.09392
   7   23219.3    430.7   0.557516933   7.90469   2.66975  -0.65106  -0.59437
   8   23983.2    417.0   0.007014977   0.09629   0.20647  -0.08570   0.21522
   9   24336.0    410.9   0.272249908   3.68294  -1.66272   0.03653   0.95759
  10   25569.2    391.1   0.232964813   2.99950  -1.65005  -0.09102   0.51822
  11   25824.6    387.2   0.002338757   0.02981   0.11691   0.04464  -0.11897
  12   26116.1    382.9   0.022692093   0.28605  -0.04548  -0.48463   0.22162
  13   26702.4    374.5   0.117705608   1.45118  -1.09507   0.37913   0.32903
  14   26926.4    371.4   0.130964614   1.60122  -0.19528  -0.49493   1.14810
  15   27230.6    367.2   0.086780504   1.04916   0.26739  -0.40134   0.90365
  16   27753.7    360.3   0.108017954   1.28130  -0.03907  -0.51239   1.00858
  17   28696.7    348.5   0.109785579   1.25948  -0.82603  -0.14206   0.74630
  18   28847.6    346.6   0.167158881   1.90764   1.15736   0.66178  -0.36083
  19   29014.0    344.7   0.403222769   4.57523   0.73266   1.38246  -1.45851
  20   29326.2    341.0   0.020300602   0.22789   0.40774  -0.24805  -0.01076
  21   29939.6    334.0   0.281250138   3.09259  -0.99498  -0.98838   1.06099
  22   30250.5    330.6   0.021700287   0.23616  -0.14105   0.35942  -0.29510
  23   30776.3    324.9   0.163050000   1.74414   0.92782   0.60645  -0.71798
  24   30888.2    323.7   0.060002599   0.63952   0.14420   0.49862  -0.60836
  25   31283.3    319.7   0.015871199   0.16702  -0.00567   0.35660  -0.19956
  26   31551.9    316.9   0.069605463   0.72626   0.07093   0.52465  -0.66781
  27   31953.6    313.0   0.015663680   0.16138   0.29415  -0.18973  -0.19713
  28   32401.3    308.6   0.253832177   2.57905  -0.58175   0.91612  -1.18378
  29   32679.2    306.0   0.156749945   1.57910   1.13190   0.47189   0.27427
  30   33000.0    303.0   0.052332222   0.52207  -0.24229   0.50319  -0.45844
  31   33041.4    302.7   0.372391837   3.71038   0.29101  -1.38858   1.30289
  32   33153.1    301.6   0.066541732   0.66076  -0.55136  -0.52323   0.28808
  33   33551.9    298.0   0.044770263   0.43929   0.23543   0.61952  -0.00763
  34   33714.9    296.6   0.056585404   0.55253  -0.65292   0.05906   0.35035
  35   33914.9    294.9   0.069999124   0.67948  -0.25142  -0.52485   0.58378
  36   34130.8    293.0   0.034415580   0.33196  -0.38744   0.33245   0.26706
  37   34524.4    289.6   0.010796443   0.10295   0.03862   0.15421  -0.27871
  38   34610.6    288.9   0.074056127   0.70441  -0.34390   0.57382  -0.50683
  39   34821.5    287.2   0.009091607   0.08595   0.16185  -0.12247   0.21157
  40   34904.4    286.5   0.106041885   1.00017  -0.36038  -0.73273   0.57741
  41   35216.5    284.0   0.031317523   0.29276  -0.32230   0.38214   0.20702
  42   35362.1    282.8   0.000440305   0.00410  -0.03244   0.05498  -0.00492
  43   35577.6    281.1   0.097313241   0.90047  -0.77402  -0.35372   0.41982
  44   35716.1    280.0   0.115460107   1.06425  -0.97980  -0.19363   0.25837
  45   35925.7    278.4   0.113212350   1.03744  -0.04829   0.69461  -0.74339
  46   36420.6    274.6   0.056758605   0.51305   0.63957  -0.09857  -0.30706
  47   36632.3    273.0   0.183149705   1.64595   1.08898  -0.66660   0.12538
  48   36906.0    271.0   0.011167268   0.09962   0.04475  -0.20971   0.23159
  49   37187.0    268.9   0.113932068   1.00863   0.99576  -0.07788   0.10502
  50   37309.2    268.0   0.117982129   1.04106  -0.65637   0.26114  -0.73623
  51   37701.6    265.2   0.031644675   0.27632   0.48647   0.09074  -0.17731
  52   37757.8    264.8   0.033687314   0.29372  -0.22545  -0.39163   0.29920
  53   37860.2    264.1   0.010937921   0.09511  -0.08693  -0.24868  -0.16034
  54   38068.4    262.7   0.109456367   0.94657  -0.36124   0.73479   0.52551
  55   38182.6    261.9   0.078870336   0.68002  -0.77051  -0.10498  -0.27443
  56   38301.0    261.1   0.057720654   0.49613  -0.69192  -0.11837  -0.05807
  57   38483.6    259.9   0.040900626   0.34989   0.57729  -0.12266  -0.03968
  58   38762.2    258.0   0.225851100   1.91818  -1.12859   0.72296  -0.34898
  59   38861.3    257.3   0.054899743   0.46508  -0.03849  -0.63122  -0.25527
  60   39001.8    256.4   0.051454257   0.43432  -0.06158  -0.60911   0.24395
  61   39226.1    254.9   0.039926874   0.33509   0.51912  -0.17360   0.18832
  62   39282.7    254.6   0.034737973   0.29112   0.17452   0.36465  -0.35735
  63   39551.2    252.8   0.157723904   1.31284  -0.19044   0.79446  -0.80338
  64   39651.2    252.2   0.003449446   0.02864   0.12208  -0.11653   0.01254
  65   39796.1    251.3   0.014040967   0.11615  -0.27467   0.20133  -0.01331
  66   40171.9    248.9   0.002886725   0.02366  -0.12283   0.06164  -0.06906
  67   40310.0    248.1   0.001882403   0.01537  -0.05675   0.07150  -0.08391

FINAL SINGLE POINT ENERGY     -8082.274069547077

DIPOLE MOMENT
-------------
                                X             Y             Z
Electronic contribution:     54.14235      16.78524      -6.03769
Nuclear contribution   :    -51.31187     -12.69849       3.25385
                        -----------------------------------------
Total Dipole Moment    :      2.83048       4.08675      -2.78384
                        -----------------------------------------
Magnitude (a.u.)       :      5.69762
Magnitude (Debye)      :     14.48221

Rotational constants in cm-1:     0.000964     0.000447     0.000331
Rotational constants in MHz :    28.913467    13.388850     9.917706

                             ****ORCA TERMINATED NORMALLY****
TOTAL RUN TIME: 0 days 0 hours 12 minutes 19 seconds 720 msec
