                         Program Version 4.2.0 -  RELEASE  -
|  1> # ORCA input file
|  2> # SCF done       -198.536830394781          0.000955102344
|  3> ! CAM-B3LYP def2-SVP def2/J RIJCOSX Grid4 TightSCF
|  4> %maxcore 5000
|  5> %tddft
|  6>     Mode sTDDFT
|  7>     Ethresh 5.0
|  8>     maxcore 5000
|  9> end
| 10>
| 11> %pal
| 12>   nprocs 6
| 13>   end
| 14> * xyz 0 1
| 15>    C       -2.47168        -1.42687        -1.39872
| 16>    C       -1.83698        -1.34224        -2.61004
| 17>    C       -1.30303        -2.45047        -3.30030
| 18>    N       -0.85652        -3.31548        -3.90865
| 19>    C       -1.59636        -0.14680        -3.32048
| 20>    N       -1.34538         0.77816        -3.95282
| 21>    C       -2.64267        -2.64103        -0.61332
| 22>    C       -3.20243        -2.29355         0.63946
| 23>    C       -3.48626        -3.22524         1.60827
| 24>    C       -3.20386        -4.56574         1.32689
| 25>    C       -2.64785        -4.90459         0.06996
| 26>    C       -2.36062        -3.96240        -0.90921
| 27>    S       -2.38586        -6.61673        -0.07222
| 28>    C       -3.01672        -6.85033         1.53647
| 29>    C       -3.40414        -5.70728         2.15051
| 30>   Br       -3.10668        -8.58156         2.25233
| 31>    C       -3.42210        -0.83307         0.70165
| 32>    O       -3.89566        -0.22807         1.63764
| 33>    C       -3.01856        -0.31687        -0.63276
| 34>    C       -3.31931         0.90508        -1.15103
| 35>    C       -3.80929         2.07469        -0.47933
| 36>    C       -4.65260         2.93787        -1.20551
| 37>    C       -5.16950         4.04940        -0.59498
| 38>    C       -4.82059         4.36316         0.73316
| 39>    C       -3.94036         3.55177         1.43664
| 40>    C       -3.44882         2.41264         0.83324
| 41>    C       -5.51511         5.57270         1.11494
| 42>    C       -6.30220         5.99784         0.03054
| 43>    C       -6.12761         5.07523        -1.15206
| 44>    C       -5.51594         5.81871        -2.35496
| 45>    C       -4.18615         6.48610        -2.02530
| 46>    C       -7.46178         4.42862        -1.56754
| 47>    C       -8.13283         3.67286        -0.42678
| 48>    C       -7.10185         7.10812         0.14269
| 49>    C       -7.12770         7.83251         1.34319
| 50>    C       -6.32290         7.40765         2.40736
| 51>    C       -5.52254         6.28769         2.30489
| 52>    C       -8.02097         8.96963         1.44039
| 53>    C       -8.01007         9.92689         2.37694
| 54>    C       -9.01090        10.98729         2.43918
| 55>    C       -8.73847        12.33003         2.73933
| 56>    N       -7.53551        12.98385         2.95226
| 57>    C       -6.25743        12.52309         2.45529
| 58>    C       -6.26914        12.36272         0.93550
| 59>    C       -7.80916        14.30930         3.23346
| 60>    C       -9.20561        14.52276         3.17955
| 61>    C       -9.79974        13.25560         2.87155
| 62>    C      -11.12165        12.87758         2.68384
| 63>    C      -11.38441        11.56442         2.35296
| 64>    C      -10.34848        10.64861         2.23536
| 65>    C       -9.75225        15.78313         3.37357
| 66>    C       -8.89486        16.83796         3.61228
| 67>    C       -7.52558        16.62790         3.69707
| 68>    C       -6.94558        15.36889         3.54439
| 69>    C       -5.51448        15.23106         3.79576
| 70>    C       -4.59984        16.08153         3.30374
| 71>    C       -3.19870        16.06005         3.60320
| 72>    S       -2.12320        17.06071         2.68310
| 73>    C       -0.75831        16.52125         3.61408
| 74>    C        0.55983        16.93113         3.22466
| 75>    O        0.81804        17.74785         2.36814
| 76>    C       -1.14093        15.62480         4.60931
| 77>    C       -2.52157        15.36010         4.57641
| 78>    C       -0.25312        15.06778         5.60622
| 79>    C        0.84444        15.74596         6.21171
| 80>    C        1.43335        14.89983         7.14573
| 81>    C        2.53025        15.08376         8.00674
| 82>    C        2.87067        14.04114         8.83266
| 83>    C        3.90473        13.89491         9.80677
| 84>    C        3.81429        12.63273        10.37293
| 85>    C        2.71794        11.95682         9.76358
| 86>    C        2.13073        12.79917         8.82175
| 87>    C        1.03480        12.61620         7.96464
| 88>    C        0.69307        13.65969         7.13501
| 89>    C       -0.35142        13.80831         6.17470
| 90>    C        4.69089        12.12037        11.39962
| 91>    C        4.61308        10.91451        11.95482
| 92>    H       -3.91346        -2.92847         2.55335
| 93>    H       -1.94316        -4.27050        -1.85319
| 94>    H       -3.81560        -5.66867         3.14258
| 95>    H       -3.23731         1.01414        -2.22712
| 96>    H       -4.91013         2.69176        -2.22588
| 97>    H       -3.64646         3.80253         2.44446
| 98>    H       -2.75218         1.78781         1.36640
| 99>    H       -6.22641         6.57518        -2.69494
|100>    H       -5.37101         5.10617        -3.16950
|101>    H       -4.30870         7.21564        -1.22759
|102>    H       -3.79799         6.99761        -2.90287
|103>    H       -3.45342         5.74817        -1.70630
|104>    H       -7.27523         3.74339        -2.39710
|105>    H       -8.13230         5.21174        -1.92756
|106>    H       -7.49162         2.87235        -0.06422
|107>    H       -9.06889         3.23617        -0.76723
|108>    H       -8.34706         4.34196         0.40371
|109>    H       -7.71772         7.43191        -0.68461
|110>    H       -6.34764         7.95202         3.33916
|111>    H       -4.92083         5.96746         3.14246
|112>    H       -8.75196         9.04152         0.64364
|113>    H       -7.25990         9.92200         3.15460
|114>    H       -5.98331        11.58010         2.93243
|115>    H       -5.50826        13.26962         2.71994
|116>    H       -6.98707        11.60699         0.62847
|117>    H       -5.28260        12.06446         0.59075
|118>    H       -6.53291        13.30740         0.46480
|119>    H      -11.91736        13.59764         2.79557
|120>    H      -12.40115        11.23611         2.19794
|121>    H      -10.58368         9.61762         2.01586
|122>    H      -10.82058        15.92862         3.33257
|123>    H       -9.28639        17.83356         3.75614
|124>    H       -6.87906        17.45917         3.93614
|125>    H       -5.21290        14.43950         4.47037
|126>    H       -4.91239        16.84194         2.60060
|127>    H        1.36607        16.39707         3.76729
|128>    H       -3.00542        14.70694         5.28023
|129>    H        1.12952        16.76325         6.01330
|130>    H        3.07969        16.01474         8.00664
|131>    H        4.63037        14.64832        10.05477
|132>    H        2.39673        10.95726         9.99339
|133>    H        0.48129        11.68729         7.96657
|134>    H       -1.07127        13.05205         5.92053
|135>    H        5.46565        12.80667        11.71877
|136>    H        3.86221        10.19745        11.67029
|137>    H        5.30594        10.59952        12.71558
|138> *
|139>
|140>                          ****END OF INPUT****

CARTESIAN COORDINATES (ANGSTROEM)
---------------------------------
  C     -2.471680   -1.426870   -1.398720
  C     -1.836980   -1.342240   -2.610040
  C     -1.303030   -2.450470   -3.300300
  N     -0.856520   -3.315480   -3.908650
  C     -1.596360   -0.146800   -3.320480
  N     -1.345380    0.778160   -3.952820
  C     -2.642670   -2.641030   -0.613320
  C     -3.202430   -2.293550    0.639460
  C     -3.486260   -3.225240    1.608270
  C     -3.203860   -4.565740    1.326890
  C     -2.647850   -4.904590    0.069960
  C     -2.360620   -3.962400   -0.909210
  S     -2.385860   -6.616730   -0.072220
  C     -3.016720   -6.850330    1.536470
  C     -3.404140   -5.707280    2.150510
  Br    -3.106680   -8.581560    2.252330
  C     -3.422100   -0.833070    0.701650
  O     -3.895660   -0.228070    1.637640
  C     -3.018560   -0.316870   -0.632760
  C     -3.319310    0.905080   -1.151030
  C     -3.809290    2.074690   -0.479330
  C     -4.652600    2.937870   -1.205510
  C     -5.169500    4.049400   -0.594980
  C     -4.820590    4.363160    0.733160
  C     -3.940360    3.551770    1.436640
  C     -3.448820    2.412640    0.833240
  C     -5.515110    5.572700    1.114940
  C     -6.302200    5.997840    0.030540
  C     -6.127610    5.075230   -1.152060
  C     -5.515940    5.818710   -2.354960
  C     -4.186150    6.486100   -2.025300
  C     -7.461780    4.428620   -1.567540
  C     -8.132830    3.672860   -0.426780
  C     -7.101850    7.108120    0.142690
  C     -7.127700    7.832510    1.343190
  C     -6.322900    7.407650    2.407360
  C     -5.522540    6.287690    2.304890
  C     -8.020970    8.969630    1.440390
  C     -8.010070    9.926890    2.376940
  C     -9.010900   10.987290    2.439180
  C     -8.738470   12.330030    2.739330
  N     -7.535510   12.983850    2.952260
  C     -6.257430   12.523090    2.455290
  C     -6.269140   12.362720    0.935500
  C     -7.809160   14.309300    3.233460
  C     -9.205610   14.522760    3.179550
  C     -9.799740   13.255600    2.871550
  C    -11.121650   12.877580    2.683840
  C    -11.384410   11.564420    2.352960
  C    -10.348480   10.648610    2.235360
  C     -9.752250   15.783130    3.373570
  C     -8.894860   16.837960    3.612280
  C     -7.525580   16.627900    3.697070
  C     -6.945580   15.368890    3.544390
  C     -5.514480   15.231060    3.795760
  C     -4.599840   16.081530    3.303740
  C     -3.198700   16.060050    3.603200
  S     -2.123200   17.060710    2.683100
  C     -0.758310   16.521250    3.614080
  C      0.559830   16.931130    3.224660
  O      0.818040   17.747850    2.368140
  C     -1.140930   15.624800    4.609310
  C     -2.521570   15.360100    4.576410
  C     -0.253120   15.067780    5.606220
  C      0.844440   15.745960    6.211710
  C      1.433350   14.899830    7.145730
  C      2.530250   15.083760    8.006740
  C      2.870670   14.041140    8.832660
  C      3.904730   13.894910    9.806770
  C      3.814290   12.632730   10.372930
  C      2.717940   11.956820    9.763580
  C      2.130730   12.799170    8.821750
  C      1.034800   12.616200    7.964640
  C      0.693070   13.659690    7.135010
  C     -0.351420   13.808310    6.174700
  C      4.690890   12.120370   11.399620
  C      4.613080   10.914510   11.954820
  H     -3.913460   -2.928470    2.553350
  H     -1.943160   -4.270500   -1.853190
  H     -3.815600   -5.668670    3.142580
  H     -3.237310    1.014140   -2.227120
  H     -4.910130    2.691760   -2.225880
  H     -3.646460    3.802530    2.444460
  H     -2.752180    1.787810    1.366400
  H     -6.226410    6.575180   -2.694940
  H     -5.371010    5.106170   -3.169500
  H     -4.308700    7.215640   -1.227590
  H     -3.797990    6.997610   -2.902870
  H     -3.453420    5.748170   -1.706300
  H     -7.275230    3.743390   -2.397100
  H     -8.132300    5.211740   -1.927560
  H     -7.491620    2.872350   -0.064220
  H     -9.068890    3.236170   -0.767230
  H     -8.347060    4.341960    0.403710
  H     -7.717720    7.431910   -0.684610
  H     -6.347640    7.952020    3.339160
  H     -4.920830    5.967460    3.142460
  H     -8.751960    9.041520    0.643640
  H     -7.259900    9.922000    3.154600
  H     -5.983310   11.580100    2.932430
  H     -5.508260   13.269620    2.719940
  H     -6.987070   11.606990    0.628470
  H     -5.282600   12.064460    0.590750
  H     -6.532910   13.307400    0.464800
  H    -11.917360   13.597640    2.795570
  H    -12.401150   11.236110    2.197940
  H    -10.583680    9.617620    2.015860
  H    -10.820580   15.928620    3.332570
  H     -9.286390   17.833560    3.756140
  H     -6.879060   17.459170    3.936140
  H     -5.212900   14.439500    4.470370
  H     -4.912390   16.841940    2.600600
  H      1.366070   16.397070    3.767290
  H     -3.005420   14.706940    5.280230
  H      1.129520   16.763250    6.013300
  H      3.079690   16.014740    8.006640
  H      4.630370   14.648320   10.054770
  H      2.396730   10.957260    9.993390
  H      0.481290   11.687290    7.966570
  H     -1.071270   13.052050    5.920530
  H      5.465650   12.806670   11.718770
  H      3.862210   10.197450   11.670290
  H      5.305940   10.599520   12.715580

 Total Charge           Charge          ....    0
 Multiplicity           Mult            ....    1
 Number of Electrons    NEL             ....  564
 Basis Dimension        Dim             .... 1334

ORBITAL ENERGIES
----------------

  NO   OCC          E(Eh)            E(eV)
   0   2.0000    -482.886456    -13140.0085
   1   2.0000     -88.976373     -2421.1702
   2   2.0000     -88.953852     -2420.5574
   3   2.0000     -62.564200     -1702.4584
   4   2.0000     -56.398152     -1534.6717
   5   2.0000     -56.395431     -1534.5977
   6   2.0000     -56.395398     -1534.5968
   7   2.0000     -19.216073      -522.8959
   8   2.0000     -19.192170      -522.2455
   9   2.0000     -14.448346      -393.1595
  10   2.0000     -14.414937      -392.2504
  11   2.0000     -14.414294      -392.2329
  12   2.0000     -10.368509      -282.1415
  13   2.0000     -10.359912      -281.9075
  14   2.0000     -10.343233      -281.4537
  15   2.0000     -10.341883      -281.4169
  16   2.0000     -10.340646      -281.3833
  17   2.0000     -10.326579      -281.0005
  18   2.0000     -10.317795      -280.7615
  19   2.0000     -10.317252      -280.7467
  20   2.0000     -10.315763      -280.7062
  21   2.0000     -10.308628      -280.5120
  22   2.0000     -10.308388      -280.5055
  23   2.0000     -10.308216      -280.5008
  24   2.0000     -10.307226      -280.4739
  25   2.0000     -10.306303      -280.4488
  26   2.0000     -10.305693      -280.4322
  27   2.0000     -10.303688      -280.3776
  28   2.0000     -10.302581      -280.3475
  29   2.0000     -10.302124      -280.3351
  30   2.0000     -10.301604      -280.3209
  31   2.0000     -10.297598      -280.2119
  32   2.0000     -10.297308      -280.2040
  33   2.0000     -10.292749      -280.0799
  34   2.0000     -10.292435      -280.0714
  35   2.0000     -10.288840      -279.9736
  36   2.0000     -10.287814      -279.9456
  37   2.0000     -10.287362      -279.9333
  38   2.0000     -10.286182      -279.9012
  39   2.0000     -10.285545      -279.8839
  40   2.0000     -10.283755      -279.8352
  41   2.0000     -10.283367      -279.8246
  42   2.0000     -10.283315      -279.8232
  43   2.0000     -10.282511      -279.8014
  44   2.0000     -10.281801      -279.7820
  45   2.0000     -10.279662      -279.7238
  46   2.0000     -10.279651      -279.7235
  47   2.0000     -10.278025      -279.6793
  48   2.0000     -10.277338      -279.6606
  49   2.0000     -10.277260      -279.6585
  50   2.0000     -10.277168      -279.6560
  51   2.0000     -10.276147      -279.6282
  52   2.0000     -10.275836      -279.6197
  53   2.0000     -10.275142      -279.6008
  54   2.0000     -10.275131      -279.6005
  55   2.0000     -10.274051      -279.5711
  56   2.0000     -10.274020      -279.5703
  57   2.0000     -10.273904      -279.5671
  58   2.0000     -10.273653      -279.5603
  59   2.0000     -10.273345      -279.5519
  60   2.0000     -10.272914      -279.5402
  61   2.0000     -10.269821      -279.4560
  62   2.0000     -10.268773      -279.4275
  63   2.0000     -10.267096      -279.3819
  64   2.0000     -10.266398      -279.3629
  65   2.0000     -10.266324      -279.3609
  66   2.0000     -10.266297      -279.3602
  67   2.0000     -10.266221      -279.3581
  68   2.0000     -10.265660      -279.3428
  69   2.0000     -10.265581      -279.3407
  70   2.0000     -10.265055      -279.3264
  71   2.0000     -10.264928      -279.3229
  72   2.0000     -10.264100      -279.3004
  73   2.0000     -10.262763      -279.2640
  74   2.0000     -10.262460      -279.2557
  75   2.0000     -10.258646      -279.1519
  76   2.0000     -10.258615      -279.1511
  77   2.0000     -10.258074      -279.1364
  78   2.0000     -10.257757      -279.1278
  79   2.0000     -10.248993      -278.8893
  80   2.0000     -10.247710      -278.8544
  81   2.0000      -8.793648      -239.2873
  82   2.0000      -8.072367      -219.6603
  83   2.0000      -8.049411      -219.0356
  84   2.0000      -6.629976      -180.4108
  85   2.0000      -6.615366      -180.0133
  86   2.0000      -6.615176      -180.0081
  87   2.0000      -6.042073      -164.4132
  88   2.0000      -6.037767      -164.2960
  89   2.0000      -6.033584      -164.1822
  90   2.0000      -6.018507      -163.7719
  91   2.0000      -6.014429      -163.6609
  92   2.0000      -6.011828      -163.5902
  93   2.0000      -2.745798       -74.7170
  94   2.0000      -2.741768       -74.6073
  95   2.0000      -2.741607       -74.6029
  96   2.0000      -2.730006       -74.2872
  97   2.0000      -2.729977       -74.2864
  98   2.0000      -1.131840       -30.7989
  99   2.0000      -1.105755       -30.0891
 100   2.0000      -1.077631       -29.3238
 101   2.0000      -1.023315       -27.8458
 102   2.0000      -1.013319       -27.5738
 103   2.0000      -0.994343       -27.0574
 104   2.0000      -0.993246       -27.0276
 105   2.0000      -0.992498       -27.0072
 106   2.0000      -0.989452       -26.9244
 107   2.0000      -0.983204       -26.7543
 108   2.0000      -0.961675       -26.1685
 109   2.0000      -0.955535       -26.0014
 110   2.0000      -0.946447       -25.7541
 111   2.0000      -0.944048       -25.6888
 112   2.0000      -0.941597       -25.6222
 113   2.0000      -0.925947       -25.1963
 114   2.0000      -0.908918       -24.7329
 115   2.0000      -0.908733       -24.7279
 116   2.0000      -0.899835       -24.4858
 117   2.0000      -0.898168       -24.4404
 118   2.0000      -0.889858       -24.2143
 119   2.0000      -0.886514       -24.1233
 120   2.0000      -0.878719       -23.9112
 121   2.0000      -0.868503       -23.6332
 122   2.0000      -0.865582       -23.5537
 123   2.0000      -0.858997       -23.3745
 124   2.0000      -0.852499       -23.1977
 125   2.0000      -0.847305       -23.0563
 126   2.0000      -0.839672       -22.8486
 127   2.0000      -0.839144       -22.8343
 128   2.0000      -0.836773       -22.7697
 129   2.0000      -0.833625       -22.6841
 130   2.0000      -0.830431       -22.5972
 131   2.0000      -0.827650       -22.5215
 132   2.0000      -0.818540       -22.2736
 133   2.0000      -0.807494       -21.9730
 134   2.0000      -0.799603       -21.7583
 135   2.0000      -0.793097       -21.5813
 136   2.0000      -0.788529       -21.4570
 137   2.0000      -0.770854       -20.9760
 138   2.0000      -0.766607       -20.8604
 139   2.0000      -0.763983       -20.7890
 140   2.0000      -0.757634       -20.6163
 141   2.0000      -0.749542       -20.3961
 142   2.0000      -0.743969       -20.2444
 143   2.0000      -0.730816       -19.8865
 144   2.0000      -0.723690       -19.6926
 145   2.0000      -0.720091       -19.5947
 146   2.0000      -0.714732       -19.4489
 147   2.0000      -0.707286       -19.2462
 148   2.0000      -0.700448       -19.0602
 149   2.0000      -0.691649       -18.8207
 150   2.0000      -0.690733       -18.7958
 151   2.0000      -0.689713       -18.7681
 152   2.0000      -0.683035       -18.5863
 153   2.0000      -0.676707       -18.4141
 154   2.0000      -0.670827       -18.2541
 155   2.0000      -0.670201       -18.2371
 156   2.0000      -0.668485       -18.1904
 157   2.0000      -0.660235       -17.9659
 158   2.0000      -0.657761       -17.8986
 159   2.0000      -0.654148       -17.8003
 160   2.0000      -0.645664       -17.5694
 161   2.0000      -0.639814       -17.4102
 162   2.0000      -0.636228       -17.3126
 163   2.0000      -0.625988       -17.0340
 164   2.0000      -0.625493       -17.0205
 165   2.0000      -0.622379       -16.9358
 166   2.0000      -0.614584       -16.7237
 167   2.0000      -0.605048       -16.4642
 168   2.0000      -0.601912       -16.3789
 169   2.0000      -0.600126       -16.3303
 170   2.0000      -0.598145       -16.2764
 171   2.0000      -0.594837       -16.1863
 172   2.0000      -0.590848       -16.0778
 173   2.0000      -0.586721       -15.9655
 174   2.0000      -0.585986       -15.9455
 175   2.0000      -0.580902       -15.8071
 176   2.0000      -0.575499       -15.6601
 177   2.0000      -0.564877       -15.3711
 178   2.0000      -0.563465       -15.3327
 179   2.0000      -0.560074       -15.2404
 180   2.0000      -0.553037       -15.0489
 181   2.0000      -0.548690       -14.9306
 182   2.0000      -0.547742       -14.9048
 183   2.0000      -0.546672       -14.8757
 184   2.0000      -0.543453       -14.7881
 185   2.0000      -0.541801       -14.7432
 186   2.0000      -0.538820       -14.6620
 187   2.0000      -0.536724       -14.6050
 188   2.0000      -0.534567       -14.5463
 189   2.0000      -0.533934       -14.5291
 190   2.0000      -0.532493       -14.4899
 191   2.0000      -0.527737       -14.3604
 192   2.0000      -0.522508       -14.2182
 193   2.0000      -0.521910       -14.2019
 194   2.0000      -0.520050       -14.1513
 195   2.0000      -0.519302       -14.1309
 196   2.0000      -0.516175       -14.0458
 197   2.0000      -0.514871       -14.0103
 198   2.0000      -0.513642       -13.9769
 199   2.0000      -0.509709       -13.8699
 200   2.0000      -0.507927       -13.8214
 201   2.0000      -0.507095       -13.7987
 202   2.0000      -0.502878       -13.6840
 203   2.0000      -0.501645       -13.6505
 204   2.0000      -0.500522       -13.6199
 205   2.0000      -0.495374       -13.4798
 206   2.0000      -0.494923       -13.4675
 207   2.0000      -0.492675       -13.4064
 208   2.0000      -0.492080       -13.3902
 209   2.0000      -0.490486       -13.3468
 210   2.0000      -0.489618       -13.3232
 211   2.0000      -0.485984       -13.2243
 212   2.0000      -0.485434       -13.2093
 213   2.0000      -0.482151       -13.1200
 214   2.0000      -0.474226       -12.9044
 215   2.0000      -0.473980       -12.8976
 216   2.0000      -0.472456       -12.8562
 217   2.0000      -0.470570       -12.8049
 218   2.0000      -0.470374       -12.7995
 219   2.0000      -0.469799       -12.7839
 220   2.0000      -0.462867       -12.5952
 221   2.0000      -0.462414       -12.5829
 222   2.0000      -0.460041       -12.5183
 223   2.0000      -0.459107       -12.4929
 224   2.0000      -0.455242       -12.3878
 225   2.0000      -0.453397       -12.3376
 226   2.0000      -0.451911       -12.2971
 227   2.0000      -0.450486       -12.2583
 228   2.0000      -0.449928       -12.2432
 229   2.0000      -0.448080       -12.1929
 230   2.0000      -0.445145       -12.1130
 231   2.0000      -0.444123       -12.0852
 232   2.0000      -0.442641       -12.0449
 233   2.0000      -0.441410       -12.0114
 234   2.0000      -0.440533       -11.9875
 235   2.0000      -0.439528       -11.9602
 236   2.0000      -0.438933       -11.9440
 237   2.0000      -0.435839       -11.8598
 238   2.0000      -0.431588       -11.7441
 239   2.0000      -0.429418       -11.6851
 240   2.0000      -0.427235       -11.6257
 241   2.0000      -0.426751       -11.6125
 242   2.0000      -0.425803       -11.5867
 243   2.0000      -0.424262       -11.5448
 244   2.0000      -0.422160       -11.4876
 245   2.0000      -0.421186       -11.4611
 246   2.0000      -0.416681       -11.3385
 247   2.0000      -0.416418       -11.3313
 248   2.0000      -0.410580       -11.1725
 249   2.0000      -0.409415       -11.1408
 250   2.0000      -0.408112       -11.1053
 251   2.0000      -0.407742       -11.0952
 252   2.0000      -0.406943       -11.0735
 253   2.0000      -0.401254       -10.9187
 254   2.0000      -0.393373       -10.7042
 255   2.0000      -0.390610       -10.6290
 256   2.0000      -0.389978       -10.6118
 257   2.0000      -0.389402       -10.5962
 258   2.0000      -0.387110       -10.5338
 259   2.0000      -0.386873       -10.5274
 260   2.0000      -0.376005       -10.2316
 261   2.0000      -0.375861       -10.2277
 262   2.0000      -0.372203       -10.1282
 263   2.0000      -0.367806       -10.0085
 264   2.0000      -0.356515        -9.7013
 265   2.0000      -0.344277        -9.3683
 266   2.0000      -0.341739        -9.2992
 267   2.0000      -0.337367        -9.1802
 268   2.0000      -0.325548        -8.8586
 269   2.0000      -0.324044        -8.8177
 270   2.0000      -0.318281        -8.6609
 271   2.0000      -0.317882        -8.6500
 272   2.0000      -0.316153        -8.6030
 273   2.0000      -0.306536        -8.3413
 274   2.0000      -0.303832        -8.2677
 275   2.0000      -0.294034        -8.0011
 276   2.0000      -0.284541        -7.7428
 277   2.0000      -0.275732        -7.5031
 278   2.0000      -0.268160        -7.2970
 279   2.0000      -0.263665        -7.1747
 280   2.0000      -0.249908        -6.8003
 281   2.0000      -0.242852        -6.6083
 282   0.0000      -0.099926        -2.7191
 283   0.0000      -0.088209        -2.4003
 284   0.0000      -0.059569        -1.6209
 285   0.0000      -0.046022        -1.2523
 286   0.0000      -0.027958        -0.7608

MULLIKEN ATOMIC CHARGES
-----------------------
   0 C :    0.294497
   1 C :   -0.341989
   2 C :   -0.184739
   3 N :    0.150513
   4 C :   -0.203995
   5 N :    0.158939
   6 C :    0.015223
   7 C :   -0.019686
   8 C :   -0.071401
   9 C :    0.116678
  10 C :   -0.090541
  11 C :   -0.018963
  12 S :    0.186516
  13 C :   -0.124779
  14 C :    0.043367
  15 Br:    0.024173
  16 C :    0.142225
  17 O :   -0.142560
  18 C :   -0.071349
  19 C :   -0.039693
  20 C :    0.074033
  21 C :   -0.091357
  22 C :    0.008684
  23 C :    0.125438
  24 C :   -0.061927
  25 C :    0.069187
  26 C :    0.105254
  27 C :    0.016932
  28 C :   -0.137108
  29 C :    0.068419
  30 C :    0.023949
  31 C :    0.063592
  32 C :    0.027122
  33 C :   -0.108858
  34 C :    0.117371
  35 C :   -0.014797
  36 C :   -0.039442
  37 C :    0.006251
  38 C :   -0.053731
  39 C :    0.019574
  40 C :    0.098324
  41 N :   -0.196911
  42 C :    0.106403
  43 C :    0.007597
  44 C :    0.093590
  45 C :    0.061602
  46 C :    0.071747
  47 C :   -0.050925
  48 C :    0.032449
  49 C :   -0.045122
  50 C :   -0.049004
  51 C :    0.035553
  52 C :   -0.043222
  53 C :    0.022759
  54 C :   -0.054033
  55 C :    0.055516
  56 C :   -0.069769
  57 S :    0.170472
  58 C :   -0.223373
  59 C :    0.139040
  60 O :   -0.206618
  61 C :    0.181833
  62 C :   -0.043233
  63 C :    0.012284
  64 C :   -0.033637
  65 C :    0.039667
  66 C :    0.005660
  67 C :    0.049670
  68 C :   -0.023801
  69 C :    0.058593
  70 C :   -0.013518
  71 C :    0.038253
  72 C :    0.003758
  73 C :    0.050646
  74 C :   -0.026914
  75 C :    0.012765
  76 C :   -0.026438
  77 H :   -0.011250
  78 H :   -0.005305
  79 H :   -0.004543
  80 H :    0.031045
  81 H :   -0.029542
  82 H :   -0.031294
  83 H :   -0.015240
  84 H :   -0.000663
  85 H :    0.001731
  86 H :    0.021536
  87 H :    0.012820
  88 H :    0.022271
  89 H :   -0.000513
  90 H :   -0.001240
  91 H :    0.023009
  92 H :    0.009369
  93 H :    0.020772
  94 H :   -0.040024
  95 H :   -0.031217
  96 H :   -0.035041
  97 H :   -0.011619
  98 H :    0.007936
  99 H :    0.010212
 100 H :    0.023701
 101 H :    0.032674
 102 H :    0.019542
 103 H :    0.020856
 104 H :   -0.033322
 105 H :   -0.024919
 106 H :   -0.026174
 107 H :   -0.032846
 108 H :   -0.023884
 109 H :   -0.023882
 110 H :    0.019193
 111 H :   -0.004220
 112 H :   -0.015932
 113 H :   -0.025296
 114 H :   -0.012380
 115 H :   -0.023070
 116 H :   -0.025489
 117 H :   -0.023490
 118 H :   -0.024882
 119 H :   -0.030071
 120 H :   -0.019198
 121 H :    0.006574
 122 H :    0.020620
Sum of atomic charges:   -0.0000000

LOEWDIN ATOMIC CHARGES
----------------------
   0 C :    0.076640
   1 C :   -0.140629
   2 C :   -0.018133
   3 N :   -0.053711
   4 C :   -0.025629
   5 N :   -0.050533
   6 C :   -0.022011
   7 C :   -0.050315
   8 C :    0.021617
   9 C :   -0.032301
  10 C :   -0.143628
  11 C :   -0.009514
  12 S :    0.432536
  13 C :   -0.271180
  14 C :   -0.070173
  15 Br:    0.137138
  16 C :    0.082252
  17 O :   -0.135171
  18 C :   -0.097656
  19 C :    0.084387
  20 C :   -0.044511
  21 C :    0.000264
  22 C :   -0.003252
  23 C :    0.007289
  24 C :   -0.022649
  25 C :    0.026625
  26 C :   -0.024702
  27 C :    0.008775
  28 C :   -0.035983
  29 C :   -0.010924
  30 C :   -0.057563
  31 C :   -0.012179
  32 C :   -0.057631
  33 C :   -0.022822
  34 C :   -0.017818
  35 C :   -0.018427
  36 C :   -0.011138
  37 C :   -0.021578
  38 C :   -0.014158
  39 C :   -0.055731
  40 C :    0.031862
  41 N :    0.011839
  42 C :    0.039302
  43 C :   -0.060934
  44 C :    0.033564
  45 C :   -0.042111
  46 C :   -0.039559
  47 C :   -0.012860
  48 C :   -0.043866
  49 C :   -0.015837
  50 C :   -0.010639
  51 C :   -0.044636
  52 C :   -0.014100
  53 C :   -0.059423
  54 C :   -0.005925
  55 C :   -0.047380
  56 C :   -0.151054
  57 S :    0.471586
  58 C :   -0.244379
  59 C :    0.068311
  60 O :   -0.163089
  61 C :   -0.017885
  62 C :   -0.062983
  63 C :   -0.063791
  64 C :    0.033007
  65 C :   -0.070190
  66 C :    0.077046
  67 C :   -0.065153
  68 C :    0.022711
  69 C :   -0.064755
  70 C :    0.054074
  71 C :   -0.070037
  72 C :    0.081291
  73 C :   -0.066162
  74 C :    0.017266
  75 C :   -0.020712
  76 C :   -0.056223
  77 H :    0.040612
  78 H :    0.041159
  79 H :    0.038734
  80 H :    0.045750
  81 H :    0.028420
  82 H :    0.029085
  83 H :    0.031211
  84 H :    0.020618
  85 H :    0.021241
  86 H :    0.025076
  87 H :    0.025865
  88 H :    0.025709
  89 H :    0.020372
  90 H :    0.020286
  91 H :    0.025892
  92 H :    0.024432
  93 H :    0.025393
  94 H :    0.024707
  95 H :    0.024949
  96 H :    0.027656
  97 H :    0.028473
  98 H :    0.023494
  99 H :    0.019502
 100 H :    0.032924
 101 H :    0.027849
 102 H :    0.030034
 103 H :    0.028930
 104 H :    0.027009
 105 H :    0.025971
 106 H :    0.026409
 107 H :    0.027298
 108 H :    0.026401
 109 H :    0.027404
 110 H :    0.028655
 111 H :    0.030845
 112 H :    0.000382
 113 H :    0.025607
 114 H :    0.026895
 115 H :    0.035911
 116 H :    0.024833
 117 H :    0.025164
 118 H :    0.034847
 119 H :    0.022942
 120 H :    0.029306
 121 H :    0.017215
 122 H :    0.024487

  Mayer bond orders larger than 0.100000
B(  0-C ,  1-C ) :   1.6446 B(  0-C ,  6-C ) :   1.0097 B(  0-C , 18-C ) :   1.0527
B(  1-C ,  2-C ) :   1.1375 B(  1-C ,  4-C ) :   1.1407 B(  2-C ,  3-N ) :   2.9740
B(  4-C ,  5-N ) :   2.9929 B(  6-C ,  7-C ) :   1.2712 B(  6-C , 11-C ) :   1.4051
B(  7-C ,  8-C ) :   1.4262 B(  7-C , 16-C ) :   0.9420 B(  8-C ,  9-C ) :   1.2457
B(  8-C , 77-H ) :   1.0162 B(  9-C , 10-C ) :   1.3034 B(  9-C , 14-C ) :   1.1648
B( 10-C , 11-C ) :   1.3349 B( 10-C , 12-S ) :   1.0848 B( 11-C , 78-H ) :   0.9796
B( 12-S , 13-C ) :   1.0869 B( 13-C , 14-C ) :   1.6184 B( 13-C , 15-Br) :   1.0188
B( 14-C , 79-H ) :   0.9996 B( 16-C , 17-O ) :   2.2288 B( 16-C , 18-C ) :   0.9348
B( 18-C , 19-C ) :   1.6123 B( 19-C , 20-C ) :   1.0953 B( 19-C , 80-H ) :   0.9535
B( 20-C , 21-C ) :   1.2502 B( 20-C , 25-C ) :   1.3497 B( 21-C , 22-C ) :   1.4027
B( 21-C , 81-H ) :   1.0122 B( 22-C , 23-C ) :   1.3488 B( 22-C , 28-C ) :   0.9153
B( 23-C , 24-C ) :   1.3304 B( 23-C , 26-C ) :   1.0017 B( 24-C , 25-C ) :   1.4020
B( 24-C , 82-H ) :   0.9931 B( 25-C , 83-H ) :   0.9759 B( 26-C , 27-C ) :   1.3690
B( 26-C , 36-C ) :   1.3296 B( 27-C , 28-C ) :   0.9157 B( 27-C , 33-C ) :   1.3738
B( 28-C , 29-C ) :   1.0349 B( 28-C , 31-C ) :   1.0398 B( 29-C , 30-C ) :   1.1011
B( 29-C , 84-H ) :   0.9397 B( 29-C , 85-H ) :   0.9398 B( 30-C , 86-H ) :   0.9646
B( 30-C , 87-H ) :   0.9637 B( 30-C , 88-H ) :   0.9643 B( 31-C , 32-C ) :   1.1021
B( 31-C , 89-H ) :   0.9393 B( 31-C , 90-H ) :   0.9386 B( 32-C , 91-H ) :   0.9642
B( 32-C , 92-H ) :   0.9637 B( 32-C , 93-H ) :   0.9640 B( 33-C , 34-C ) :   1.2965
B( 33-C , 94-H ) :   1.0135 B( 34-C , 35-C ) :   1.3548 B( 34-C , 37-C ) :   1.0516
B( 35-C , 36-C ) :   1.3946 B( 35-C , 95-H ) :   0.9835 B( 36-C , 96-H ) :   0.9903
B( 37-C , 38-C ) :   1.7702 B( 37-C , 97-H ) :   0.9789 B( 38-C , 39-C ) :   0.9947
B( 38-C , 98-H ) :   0.9607 B( 39-C , 40-C ) :   1.3029 B( 39-C , 49-C ) :   1.4092
B( 40-C , 41-N ) :   1.1274 B( 40-C , 46-C ) :   1.3025 B( 41-N , 42-C ) :   0.9615
B( 41-N , 44-C ) :   1.1336 B( 42-C , 43-C ) :   1.1102 B( 42-C , 99-H ) :   0.9434
B( 42-C ,100-H ) :   0.9332 B( 43-C ,101-H ) :   0.9617 B( 43-C ,102-H ) :   0.9642
B( 43-C ,103-H ) :   0.9633 B( 44-C , 45-C ) :   1.2921 B( 44-C , 53-C ) :   1.3037
B( 45-C , 46-C ) :   1.0705 B( 45-C , 50-C ) :   1.3365 B( 46-C , 47-C ) :   1.3333
B( 47-C , 48-C ) :   1.3829 B( 47-C ,104-H ) :   0.9999 B( 48-C , 49-C ) :   1.3355
B( 48-C ,105-H ) :   0.9868 B( 49-C ,106-H ) :   0.9908 B( 50-C , 51-C ) :   1.3846
B( 50-C ,107-H ) :   1.0001 B( 51-C , 52-C ) :   1.3391 B( 51-C ,108-H ) :   0.9856
B( 52-C , 53-C ) :   1.4113 B( 52-C ,109-H ) :   0.9908 B( 53-C , 54-C ) :   0.9964
B( 54-C , 55-C ) :   1.7870 B( 54-C ,110-H ) :   0.9503 B( 55-C , 56-C ) :   1.0764
B( 55-C ,111-H ) :   0.9631 B( 56-C , 57-S ) :   1.1624 B( 56-C , 62-C ) :   1.4828
B( 57-S , 58-C ) :   1.0837 B( 58-C , 59-C ) :   1.0437 B( 58-C , 61-C ) :   1.4271
B( 59-C , 60-O ) :   2.1490 B( 59-C ,112-H ) :   0.9558 B( 61-C , 62-C ) :   1.2935
B( 61-C , 63-C ) :   0.9689 B( 62-C ,113-H ) :   0.9970 B( 63-C , 64-C ) :   1.1984
B( 63-C , 74-C ) :   1.5022 B( 64-C , 65-C ) :   1.3893 B( 64-C ,114-H ) :   1.0098
B( 65-C , 66-C ) :   1.1422 B( 65-C , 73-C ) :   1.1553 B( 66-C , 67-C ) :   1.4395
B( 66-C ,115-H ) :   1.0052 B( 67-C , 68-C ) :   1.0993 B( 67-C , 71-C ) :   1.1438
B( 68-C , 69-C ) :   1.4764 B( 68-C ,116-H ) :   1.0162 B( 69-C , 70-C ) :   1.1793
B( 69-C , 75-C ) :   1.0814 B( 70-C , 71-C ) :   1.3911 B( 70-C ,117-H ) :   1.0070
B( 71-C , 72-C ) :   1.1593 B( 72-C , 73-C ) :   1.4097 B( 72-C ,118-H ) :   1.0036
B( 73-C , 74-C ) :   1.1099 B( 74-C ,119-H ) :   1.0142 B( 75-C , 76-C ) :   1.9374
B( 75-C ,120-H ) :   0.9666 B( 76-C ,121-H ) :   0.9524 B( 76-C ,122-H ) :   0.9496

-----------------------------------------------------------------------------
         ABSORPTION SPECTRUM VIA TRANSITION ELECTRIC DIPOLE MOMENTS
-----------------------------------------------------------------------------
State   Energy  Wavelength   fosc         T2         TX        TY        TZ
        (cm-1)    (nm)                  (au**2)     (au)      (au)      (au)
-----------------------------------------------------------------------------
   0    8687.8   1151.0   0.000582459   0.02207   0.09200  -0.02585   0.11375
   1   21252.9    470.5   0.009988495   0.15472   0.27854   0.27300   0.05109
   2   22369.0    447.0   0.396867355   5.84083  -0.60737  -1.18348  -2.01775
   3   22555.7    443.3   1.263401117  18.43998   2.05610  -3.75534  -0.33145
   4   24972.6    400.4   0.002676048   0.03528   0.08350   0.16644   0.02458
   5   26991.3    370.5   0.165098418   2.01370   0.65206  -0.39088   1.19822
   6   27307.1    366.2   0.004243118   0.05115  -0.11891  -0.15471   0.11438
   7   27573.4    362.7   0.009456345   0.11290  -0.09957  -0.08846   0.30849
   8   27971.5    357.5   0.116622387   1.37259  -0.66300   0.18771  -0.94752
   9   28067.6    356.3   0.427587941   5.01529  -0.94181   1.48709  -1.38450
  10   28776.1    347.5   0.724258473   8.28585   1.88988   2.04928  -0.71738
  11   28810.6    347.1   0.260184885   2.97307   1.39360  -0.59079   0.82578
  12   29181.2    342.7   0.005195792   0.05862  -0.23184   0.04870  -0.04997
  13   29592.8    337.9   0.001987773   0.02211   0.14445   0.02413   0.02580
  14   30017.9    333.1   0.259161420   2.84228   0.83772  -1.45127   0.18528
  15   30219.7    330.9   0.014400571   0.15688   0.23720  -0.28621   0.13676
  16   30544.0    327.4   0.015516084   0.16724  -0.22860  -0.01663   0.33868
  17   31298.4    319.5   0.001232173   0.01296   0.05531  -0.05664  -0.08181
  18   31723.7    315.2   0.306830681   3.18413   0.09025  -1.70497  -0.51872
  19   32130.9    311.2   0.028553360   0.29256  -0.19520  -0.24942   0.43845
  20   32623.4    306.5   0.040312881   0.40681  -0.43487  -0.36033  -0.29641
  21   32987.2    303.1   0.001077478   0.01075  -0.07152   0.01630  -0.07330
  22   33037.2    302.7   0.153547736   1.53008   0.76398  -0.67879   0.69689
  23   33526.4    298.3   0.349713798   3.43401  -1.75790   0.55093  -0.20074
  24   33746.6    296.3   0.086371523   0.84259  -0.67072   0.62657   0.01178
  25   33838.7    295.5   0.132961397   1.29356   0.64366  -0.64285   0.68264
  26   33876.1    295.2   0.067865255   0.65952  -0.15350   0.63970   0.47618
  27   33979.6    294.3   0.624427645   6.04978   0.77743   1.32962  -1.91767
  28   34853.2    286.9   0.043419025   0.41012  -0.39584   0.32164   0.38727
  29   35081.7    285.0   1.106108465  10.37989   1.98709  -1.11339   2.27853
  30   35683.1    280.2   0.242568768   2.23794  -0.82712   1.23329   0.18110
  31   35926.0    278.3   0.227676722   2.08634   0.51065   1.32713  -0.25361
  32   36039.8    277.5   0.037256460   0.34033   0.21455  -0.45051  -0.30222
  33   36136.1    276.7   0.058558505   0.53349  -0.29321  -0.61485   0.26359
  34   36397.5    274.7   0.179644258   1.62487  -1.21215   0.29309   0.26394
  35   36606.2    273.2   0.107875218   0.97016  -0.58926   0.57427  -0.54143
  36   36793.2    271.8   0.075944276   0.67952  -0.77370   0.20406   0.19817
  37   37303.2    268.1   0.003317473   0.02928  -0.13041  -0.09709   0.05334
  38   38041.0    262.9   0.047497860   0.41105   0.31922  -0.46811   0.30004
  39   38484.6    259.8   0.170508460   1.45859   0.63429  -0.97188  -0.33424
  40   38579.0    259.2   0.148861409   1.27030   0.83002   0.54905  -0.52908
  41   39066.7    256.0   0.016304541   0.13740  -0.19302   0.03670  -0.31431
  42   39295.3    254.5   0.001146585   0.00961   0.00255  -0.08127   0.05473
  43   39360.6    254.1   0.009750393   0.08155   0.14665   0.18465  -0.16110
  44   39544.6    252.9   0.134936771   1.12336  -0.82316   0.24062   0.62279
  45   39813.2    251.2   0.261265983   2.16038   0.07390  -1.38287  -0.49253
  46   40083.8    249.5   0.016906490   0.13885  -0.03316   0.22911  -0.29200
  47   40174.4    248.9   0.020537439   0.16830   0.06741  -0.19870   0.35252
  48   40242.6    248.5   0.007210532   0.05899  -0.22153  -0.00578  -0.09939

FINAL SINGLE POINT ENERGY     -6337.944592585071

DIPOLE MOMENT
-------------
                                X             Y             Z
Electronic contribution:     36.70072    -247.53070     -10.46917
Nuclear contribution   :    -38.47504     246.62216      13.21883
                        -----------------------------------------
Total Dipole Moment    :     -1.77432      -0.90854       2.74966
                        -----------------------------------------
Magnitude (a.u.)       :      3.39622
Magnitude (Debye)      :      8.63250

Rotational constants in cm-1:     0.000713     0.000197     0.000168
Rotational constants in MHz :    21.370575     5.913621     5.050451

                             ****ORCA TERMINATED NORMALLY****
TOTAL RUN TIME: 0 days 0 hours 12 minutes 58 seconds 258 msec
