                         Program Version 4.2.0 -  RELEASE  -
|  1> # ORCA input file
|  2> # SCF done       -183.270458235743          0.000984297601
|  3> ! CAM-B3LYP def2-SVP def2/J RIJCOSX Grid4 TightSCF
|  4> %maxcore 5000
|  5> %tddft
|  6>     Mode sTDDFT
|  7>     Ethresh 5.0
|  8>     maxcore 5000
|  9> end
| 10>
| 11> %pal
| 12>   nprocs 6
| 13>   end
| 14> * xyz 0 1
| 15>    C      -17.64482        -8.23315         5.00535
| 16>    C      -16.88749        -8.94366         4.10348
| 17>    C      -16.64104       -10.32785         4.19915
| 18>    N      -16.40940       -11.45277         4.21841
| 19>    C      -16.28037        -8.41693         2.94591
| 20>    N      -15.77001        -8.07316         1.97526
| 21>    C      -18.31727        -8.80121         6.17238
| 22>    C      -19.06457        -7.77931         6.80707
| 23>    C      -19.81085        -7.99899         7.93819
| 24>    C      -19.81890        -9.29154         8.47387
| 25>    C      -19.06743       -10.30546         7.83571
| 26>    C      -18.31376       -10.08272         6.68896
| 27>    S      -19.21176       -11.82576         8.66549
| 28>    C      -20.26674       -11.08741         9.84132
| 29>    C      -20.50025        -9.77137         9.62609
| 30>   Br      -20.95978       -12.12365        11.24305
| 31>    C      -18.88528        -6.51275         6.06756
| 32>    O      -19.40058        -5.44506         6.33653
| 33>    C      -17.95514        -6.82550         4.96371
| 34>    C      -17.44622        -5.89539         4.08274
| 35>    C      -17.77974        -4.54262         4.07048
| 36>    C      -17.21447        -3.63762         3.19636
| 37>    C      -17.49684        -2.25214         3.12006
| 38>    C      -16.77801        -1.58754         2.17313
| 39>    C      -15.88623        -2.41635         1.45477
| 40>    S      -16.00337        -4.07150         2.01171
| 41>    C      -15.00072        -2.05237         0.46009
| 42>    C      -14.75474        -0.76148        -0.06740
| 43>    C      -13.79156        -0.73209        -1.02318
| 44>    C      -13.20474        -2.00024        -1.30377
| 45>    S      -13.96917        -3.23371        -0.30913
| 46>    C      -12.25215        -2.21229        -2.25659
| 47>    N      -11.60307        -3.37408        -2.55935
| 48>    C      -11.32181        -4.43412        -1.75116
| 49>    S      -11.18526        -4.26830        -0.03088
| 50>    C      -10.59426        -5.89558         0.06884
| 51>    N      -10.31974        -6.38725         1.35091
| 52>    O       -9.90315        -7.52367         1.45036
| 53>    O      -10.51849        -5.61613         2.27549
| 54>    C      -10.48229        -6.51271        -1.14606
| 55>    C      -10.90676        -5.69427        -2.21087
| 56>    C      -10.89463        -6.14823        -3.57451
| 57>    C      -11.64857        -5.65917        -4.58174
| 58>    C      -11.61067        -6.08644        -5.94560
| 59>    O      -12.57929        -5.61239        -6.77671
| 60>    C      -12.37575        -6.09742        -7.99251
| 61>    C      -11.24619        -6.87987        -8.01274
| 62>    N      -10.65882        -7.42223        -9.18956
| 63>    O       -9.45281        -7.53468        -9.20787
| 64>    O      -11.40656        -7.68703       -10.10460
| 65>    C      -10.73933        -6.88886        -6.67602
| 66>    N       -9.63995        -7.55696        -6.18962
| 67>    C       -9.14751        -8.73490        -6.60374
| 68>    O       -9.71308        -9.48399        -7.53407
| 69>    C       -8.93739       -10.62144        -7.67331
| 70>    C       -7.89240       -10.58506        -6.79947
| 71>    C       -8.00425        -9.35890        -6.07401
| 72>    C       -7.27066        -8.78298        -5.00804
| 73>    O       -7.56003        -7.72579        -4.45565
| 74>    C       -6.05001        -9.59566        -4.52607
| 75>    F       -6.42108       -10.80377        -4.06650
| 76>    F       -5.17840        -9.81942        -5.52334
| 77>    F       -5.38585        -8.98595        -3.54797
| 78>    C       -9.30177       -11.60377        -8.65807
| 79>    C      -10.32270       -11.48108        -9.50211
| 80>    H      -20.37098        -7.19902         8.39659
| 81>    H      -17.75551       -10.88911         6.24384
| 82>    H      -21.12502        -9.16180        10.25313
| 83>    H      -16.72300        -6.22486         3.34662
| 84>    H      -18.50884        -4.17725         4.77925
| 85>    H      -18.21985        -1.79503         3.77181
| 86>    H      -16.86091        -0.53367         1.97733
| 87>    H      -15.28977         0.10345         0.27964
| 88>    H      -13.46493         0.15698        -1.53234
| 89>    H      -11.99171        -1.37936        -2.89601
| 90>    H      -11.17942        -3.42489        -3.47906
| 91>    H      -10.13030        -7.52219        -1.25674
| 92>    H      -10.24049        -6.98942        -3.74771
| 93>    H      -12.41282        -4.91840        -4.39006
| 94>    H      -13.04651        -5.82297        -8.78276
| 95>    H       -9.09944        -7.15990        -5.41388
| 96>    H       -7.13333       -11.32974        -6.68227
| 97>    H       -8.66004       -12.47276        -8.67418
| 98>    H      -10.96014       -10.61352        -9.50259
| 99>    H      -10.54560       -12.24442       -10.22574
|100> *
|101>
|102>                          ****END OF INPUT****

CARTESIAN COORDINATES (ANGSTROEM)
---------------------------------
  C    -17.644820   -8.233150    5.005350
  C    -16.887490   -8.943660    4.103480
  C    -16.641040  -10.327850    4.199150
  N    -16.409400  -11.452770    4.218410
  C    -16.280370   -8.416930    2.945910
  N    -15.770010   -8.073160    1.975260
  C    -18.317270   -8.801210    6.172380
  C    -19.064570   -7.779310    6.807070
  C    -19.810850   -7.998990    7.938190
  C    -19.818900   -9.291540    8.473870
  C    -19.067430  -10.305460    7.835710
  C    -18.313760  -10.082720    6.688960
  S    -19.211760  -11.825760    8.665490
  C    -20.266740  -11.087410    9.841320
  C    -20.500250   -9.771370    9.626090
  Br   -20.959780  -12.123650   11.243050
  C    -18.885280   -6.512750    6.067560
  O    -19.400580   -5.445060    6.336530
  C    -17.955140   -6.825500    4.963710
  C    -17.446220   -5.895390    4.082740
  C    -17.779740   -4.542620    4.070480
  C    -17.214470   -3.637620    3.196360
  C    -17.496840   -2.252140    3.120060
  C    -16.778010   -1.587540    2.173130
  C    -15.886230   -2.416350    1.454770
  S    -16.003370   -4.071500    2.011710
  C    -15.000720   -2.052370    0.460090
  C    -14.754740   -0.761480   -0.067400
  C    -13.791560   -0.732090   -1.023180
  C    -13.204740   -2.000240   -1.303770
  S    -13.969170   -3.233710   -0.309130
  C    -12.252150   -2.212290   -2.256590
  N    -11.603070   -3.374080   -2.559350
  C    -11.321810   -4.434120   -1.751160
  S    -11.185260   -4.268300   -0.030880
  C    -10.594260   -5.895580    0.068840
  N    -10.319740   -6.387250    1.350910
  O     -9.903150   -7.523670    1.450360
  O    -10.518490   -5.616130    2.275490
  C    -10.482290   -6.512710   -1.146060
  C    -10.906760   -5.694270   -2.210870
  C    -10.894630   -6.148230   -3.574510
  C    -11.648570   -5.659170   -4.581740
  C    -11.610670   -6.086440   -5.945600
  O    -12.579290   -5.612390   -6.776710
  C    -12.375750   -6.097420   -7.992510
  C    -11.246190   -6.879870   -8.012740
  N    -10.658820   -7.422230   -9.189560
  O     -9.452810   -7.534680   -9.207870
  O    -11.406560   -7.687030  -10.104600
  C    -10.739330   -6.888860   -6.676020
  N     -9.639950   -7.556960   -6.189620
  C     -9.147510   -8.734900   -6.603740
  O     -9.713080   -9.483990   -7.534070
  C     -8.937390  -10.621440   -7.673310
  C     -7.892400  -10.585060   -6.799470
  C     -8.004250   -9.358900   -6.074010
  C     -7.270660   -8.782980   -5.008040
  O     -7.560030   -7.725790   -4.455650
  C     -6.050010   -9.595660   -4.526070
  F     -6.421080  -10.803770   -4.066500
  F     -5.178400   -9.819420   -5.523340
  F     -5.385850   -8.985950   -3.547970
  C     -9.301770  -11.603770   -8.658070
  C    -10.322700  -11.481080   -9.502110
  H    -20.370980   -7.199020    8.396590
  H    -17.755510  -10.889110    6.243840
  H    -21.125020   -9.161800   10.253130
  H    -16.723000   -6.224860    3.346620
  H    -18.508840   -4.177250    4.779250
  H    -18.219850   -1.795030    3.771810
  H    -16.860910   -0.533670    1.977330
  H    -15.289770    0.103450    0.279640
  H    -13.464930    0.156980   -1.532340
  H    -11.991710   -1.379360   -2.896010
  H    -11.179420   -3.424890   -3.479060
  H    -10.130300   -7.522190   -1.256740
  H    -10.240490   -6.989420   -3.747710
  H    -12.412820   -4.918400   -4.390060
  H    -13.046510   -5.822970   -8.782760
  H     -9.099440   -7.159900   -5.413880
  H     -7.133330  -11.329740   -6.682270
  H     -8.660040  -12.472760   -8.674180
  H    -10.960140  -10.613520   -9.502590
  H    -10.545600  -12.244420  -10.225740

 Total Charge           Charge          ....    0
 Multiplicity           Mult            ....    1
 Number of Electrons    NEL             ....  510
 Basis Dimension        Dim             .... 1044

ORBITAL ENERGIES
----------------

  NO   OCC          E(Eh)            E(eV)
   0   2.0000    -482.876822    -13139.7463
   1   2.0000     -88.988819     -2421.5089
   2   2.0000     -88.969695     -2420.9885
   3   2.0000     -88.964539     -2420.8482
   4   2.0000     -88.958580     -2420.6860
   5   2.0000     -62.554547     -1702.1958
   6   2.0000     -56.388485     -1534.4087
   7   2.0000     -56.385792     -1534.3354
   8   2.0000     -56.385753     -1534.3343
   9   2.0000     -24.804761      -674.9719
  10   2.0000     -24.804056      -674.9527
  11   2.0000     -24.801326      -674.8784
  12   2.0000     -19.335742      -526.1523
  13   2.0000     -19.316676      -525.6335
  14   2.0000     -19.258353      -524.0464
  15   2.0000     -19.257288      -524.0174
  16   2.0000     -19.234559      -523.3990
  17   2.0000     -19.233880      -523.3805
  18   2.0000     -19.232128      -523.3328
  19   2.0000     -19.200911      -522.4834
  20   2.0000     -14.668165      -399.1411
  21   2.0000     -14.646110      -398.5409
  22   2.0000     -14.501013      -394.5926
  23   2.0000     -14.488236      -394.2449
  24   2.0000     -14.400930      -391.8692
  25   2.0000     -14.398449      -391.8017
  26   2.0000     -10.516620      -286.1718
  27   2.0000     -10.411529      -283.3121
  28   2.0000     -10.384929      -282.5883
  29   2.0000     -10.376002      -282.3454
  30   2.0000     -10.374115      -282.2940
  31   2.0000     -10.366392      -282.0839
  32   2.0000     -10.360685      -281.9286
  33   2.0000     -10.358565      -281.8709
  34   2.0000     -10.351123      -281.6684
  35   2.0000     -10.348512      -281.5973
  36   2.0000     -10.348299      -281.5915
  37   2.0000     -10.342425      -281.4317
  38   2.0000     -10.338654      -281.3291
  39   2.0000     -10.336777      -281.2780
  40   2.0000     -10.330209      -281.0993
  41   2.0000     -10.326737      -281.0048
  42   2.0000     -10.324308      -280.9387
  43   2.0000     -10.322873      -280.8997
  44   2.0000     -10.322756      -280.8965
  45   2.0000     -10.314857      -280.6815
  46   2.0000     -10.313800      -280.6528
  47   2.0000     -10.313119      -280.6342
  48   2.0000     -10.312902      -280.6283
  49   2.0000     -10.309713      -280.5416
  50   2.0000     -10.308157      -280.4992
  51   2.0000     -10.306434      -280.4523
  52   2.0000     -10.304712      -280.4055
  53   2.0000     -10.304671      -280.4043
  54   2.0000     -10.302500      -280.3453
  55   2.0000     -10.298404      -280.2338
  56   2.0000     -10.295216      -280.1471
  57   2.0000     -10.294210      -280.1197
  58   2.0000     -10.293732      -280.1067
  59   2.0000     -10.291946      -280.0581
  60   2.0000     -10.289035      -279.9789
  61   2.0000     -10.288089      -279.9531
  62   2.0000     -10.287454      -279.9358
  63   2.0000     -10.286591      -279.9124
  64   2.0000     -10.284303      -279.8501
  65   2.0000     -10.277992      -279.6784
  66   2.0000     -10.277563      -279.6667
  67   2.0000     -10.273780      -279.5638
  68   2.0000     -10.268273      -279.4139
  69   2.0000      -8.783979      -239.0242
  70   2.0000      -8.083965      -219.9759
  71   2.0000      -8.065579      -219.4756
  72   2.0000      -8.060583      -219.3396
  73   2.0000      -8.054677      -219.1789
  74   2.0000      -6.620243      -180.1460
  75   2.0000      -6.605713      -179.7506
  76   2.0000      -6.605558      -179.7464
  77   2.0000      -6.053519      -164.7246
  78   2.0000      -6.048970      -164.6008
  79   2.0000      -6.045678      -164.5113
  80   2.0000      -6.035376      -164.2309
  81   2.0000      -6.031102      -164.1146
  82   2.0000      -6.030255      -164.0916
  83   2.0000      -6.026479      -163.9888
  84   2.0000      -6.026020      -163.9763
  85   2.0000      -6.024304      -163.9296
  86   2.0000      -6.021793      -163.8613
  87   2.0000      -6.020268      -163.8198
  88   2.0000      -6.015767      -163.6973
  89   2.0000      -2.736088       -74.4527
  90   2.0000      -2.732066       -74.3433
  91   2.0000      -2.731923       -74.3394
  92   2.0000      -2.720381       -74.0253
  93   2.0000      -2.720363       -74.0248
  94   2.0000      -1.393203       -37.9110
  95   2.0000      -1.340640       -36.4807
  96   2.0000      -1.315844       -35.8059
  97   2.0000      -1.296178       -35.2708
  98   2.0000      -1.295069       -35.2406
  99   2.0000      -1.256818       -34.1998
 100   2.0000      -1.242954       -33.8225
 101   2.0000      -1.159721       -31.5576
 102   2.0000      -1.146061       -31.1859
 103   2.0000      -1.135417       -30.8963
 104   2.0000      -1.114540       -30.3282
 105   2.0000      -1.103329       -30.0231
 106   2.0000      -1.085908       -29.5491
 107   2.0000      -1.014828       -27.6149
 108   2.0000      -1.009500       -27.4699
 109   2.0000      -1.007828       -27.4244
 110   2.0000      -0.999085       -27.1865
 111   2.0000      -0.989673       -26.9304
 112   2.0000      -0.978841       -26.6356
 113   2.0000      -0.974657       -26.5218
 114   2.0000      -0.962427       -26.1890
 115   2.0000      -0.945049       -25.7161
 116   2.0000      -0.930942       -25.3322
 117   2.0000      -0.928209       -25.2578
 118   2.0000      -0.915374       -24.9086
 119   2.0000      -0.907813       -24.7028
 120   2.0000      -0.898054       -24.4373
 121   2.0000      -0.895185       -24.3592
 122   2.0000      -0.888745       -24.1840
 123   2.0000      -0.879654       -23.9366
 124   2.0000      -0.873178       -23.7604
 125   2.0000      -0.866617       -23.5819
 126   2.0000      -0.864606       -23.5271
 127   2.0000      -0.854020       -23.2391
 128   2.0000      -0.839767       -22.8512
 129   2.0000      -0.836982       -22.7754
 130   2.0000      -0.835220       -22.7275
 131   2.0000      -0.831142       -22.6165
 132   2.0000      -0.816914       -22.2293
 133   2.0000      -0.813364       -22.1328
 134   2.0000      -0.805563       -21.9205
 135   2.0000      -0.780758       -21.2455
 136   2.0000      -0.761431       -20.7196
 137   2.0000      -0.756630       -20.5889
 138   2.0000      -0.752185       -20.4680
 139   2.0000      -0.745351       -20.2820
 140   2.0000      -0.741457       -20.1761
 141   2.0000      -0.726871       -19.7792
 142   2.0000      -0.721732       -19.6393
 143   2.0000      -0.712926       -19.3997
 144   2.0000      -0.700851       -19.0711
 145   2.0000      -0.693636       -18.8748
 146   2.0000      -0.683766       -18.6062
 147   2.0000      -0.682245       -18.5648
 148   2.0000      -0.680560       -18.5190
 149   2.0000      -0.677233       -18.4284
 150   2.0000      -0.676307       -18.4032
 151   2.0000      -0.670045       -18.2328
 152   2.0000      -0.663355       -18.0508
 153   2.0000      -0.657658       -17.8958
 154   2.0000      -0.656080       -17.8529
 155   2.0000      -0.646737       -17.5986
 156   2.0000      -0.645428       -17.5630
 157   2.0000      -0.644291       -17.5321
 158   2.0000      -0.637496       -17.3471
 159   2.0000      -0.634461       -17.2646
 160   2.0000      -0.631590       -17.1864
 161   2.0000      -0.628438       -17.1007
 162   2.0000      -0.627299       -17.0697
 163   2.0000      -0.621565       -16.9137
 164   2.0000      -0.616684       -16.7808
 165   2.0000      -0.612663       -16.6714
 166   2.0000      -0.610100       -16.6017
 167   2.0000      -0.603742       -16.4287
 168   2.0000      -0.599479       -16.3127
 169   2.0000      -0.589452       -16.0398
 170   2.0000      -0.589059       -16.0291
 171   2.0000      -0.587093       -15.9756
 172   2.0000      -0.584835       -15.9142
 173   2.0000      -0.583378       -15.8745
 174   2.0000      -0.581383       -15.8202
 175   2.0000      -0.572162       -15.5693
 176   2.0000      -0.568300       -15.4642
 177   2.0000      -0.561254       -15.2725
 178   2.0000      -0.560435       -15.2502
 179   2.0000      -0.555418       -15.1137
 180   2.0000      -0.551434       -15.0053
 181   2.0000      -0.546120       -14.8607
 182   2.0000      -0.540919       -14.7192
 183   2.0000      -0.538578       -14.6555
 184   2.0000      -0.532795       -14.4981
 185   2.0000      -0.532153       -14.4806
 186   2.0000      -0.525645       -14.3035
 187   2.0000      -0.523362       -14.2414
 188   2.0000      -0.521560       -14.1924
 189   2.0000      -0.520669       -14.1681
 190   2.0000      -0.519756       -14.1433
 191   2.0000      -0.519039       -14.1238
 192   2.0000      -0.516831       -14.0637
 193   2.0000      -0.516774       -14.0621
 194   2.0000      -0.514481       -13.9997
 195   2.0000      -0.510288       -13.8856
 196   2.0000      -0.507514       -13.8101
 197   2.0000      -0.504437       -13.7264
 198   2.0000      -0.502434       -13.6719
 199   2.0000      -0.497041       -13.5252
 200   2.0000      -0.495892       -13.4939
 201   2.0000      -0.495291       -13.4776
 202   2.0000      -0.493607       -13.4317
 203   2.0000      -0.489214       -13.3122
 204   2.0000      -0.487689       -13.2707
 205   2.0000      -0.484413       -13.1816
 206   2.0000      -0.481494       -13.1021
 207   2.0000      -0.480860       -13.0849
 208   2.0000      -0.478549       -13.0220
 209   2.0000      -0.476726       -12.9724
 210   2.0000      -0.468640       -12.7524
 211   2.0000      -0.465144       -12.6572
 212   2.0000      -0.462449       -12.5839
 213   2.0000      -0.459224       -12.4961
 214   2.0000      -0.453500       -12.3404
 215   2.0000      -0.447700       -12.1825
 216   2.0000      -0.446034       -12.1372
 217   2.0000      -0.445622       -12.1260
 218   2.0000      -0.440914       -11.9979
 219   2.0000      -0.435402       -11.8479
 220   2.0000      -0.435372       -11.8471
 221   2.0000      -0.429331       -11.6827
 222   2.0000      -0.427473       -11.6321
 223   2.0000      -0.426646       -11.6096
 224   2.0000      -0.415086       -11.2951
 225   2.0000      -0.413695       -11.2572
 226   2.0000      -0.411475       -11.1968
 227   2.0000      -0.408875       -11.1261
 228   2.0000      -0.405756       -11.0412
 229   2.0000      -0.400575       -10.9002
 230   2.0000      -0.399703       -10.8765
 231   2.0000      -0.395792       -10.7701
 232   2.0000      -0.393008       -10.6943
 233   2.0000      -0.389560       -10.6005
 234   2.0000      -0.381963       -10.3937
 235   2.0000      -0.377814       -10.2808
 236   2.0000      -0.377490       -10.2720
 237   2.0000      -0.375019       -10.2048
 238   2.0000      -0.369392       -10.0517
 239   2.0000      -0.366441        -9.9714
 240   2.0000      -0.365026        -9.9329
 241   2.0000      -0.363368        -9.8877
 242   2.0000      -0.362982        -9.8772
 243   2.0000      -0.357242        -9.7211
 244   2.0000      -0.349196        -9.5021
 245   2.0000      -0.347578        -9.4581
 246   2.0000      -0.334612        -9.1052
 247   2.0000      -0.321253        -8.7417
 248   2.0000      -0.318563        -8.6685
 249   2.0000      -0.306274        -8.3341
 250   2.0000      -0.303374        -8.2552
 251   2.0000      -0.284501        -7.7417
 252   2.0000      -0.279670        -7.6102
 253   2.0000      -0.261056        -7.1037
 254   2.0000      -0.228587        -6.2202
 255   0.0000      -0.106098        -2.8871
 256   0.0000      -0.061292        -1.6678
 257   0.0000      -0.053090        -1.4447
 258   0.0000      -0.049734        -1.3533
 259   0.0000      -0.048019        -1.3067

MULLIKEN ATOMIC CHARGES
-----------------------
   0 C :    0.328251
   1 C :   -0.359122
   2 C :   -0.187710
   3 N :    0.136616
   4 C :   -0.190911
   5 N :    0.135316
   6 C :    0.011461
   7 C :   -0.008749
   8 C :   -0.077349
   9 C :    0.118085
  10 C :   -0.089866
  11 C :   -0.024603
  12 S :    0.180524
  13 C :   -0.123824
  14 C :    0.035661
  15 Br:    0.015293
  16 C :    0.137240
  17 O :   -0.164106
  18 C :   -0.085108
  19 C :   -0.042579
  20 C :   -0.029929
  21 C :    0.008324
  22 C :    0.028929
  23 C :    0.041992
  24 C :   -0.051913
  25 S :    0.109328
  26 C :   -0.042227
  27 C :    0.026347
  28 C :    0.048409
  29 C :   -0.072582
  30 S :    0.120847
  31 C :    0.022640
  32 N :   -0.038487
  33 C :   -0.119877
  34 S :    0.208027
  35 C :   -0.014600
  36 N :    0.279129
  37 O :   -0.241405
  38 O :   -0.264850
  39 C :    0.026279
  40 C :    0.098233
  41 C :   -0.022938
  42 C :   -0.052819
  43 C :    0.091188
  44 O :   -0.163707
  45 C :    0.084401
  46 C :    0.114968
  47 N :    0.267547
  48 O :   -0.225113
  49 O :   -0.238780
  50 C :    0.040255
  51 N :    0.009196
  52 C :    0.135064
  53 O :   -0.212237
  54 C :    0.163369
  55 C :   -0.022042
  56 C :   -0.058033
  57 C :    0.011987
  58 O :   -0.241711
  59 C :    0.491577
  60 F :   -0.167550
  61 F :   -0.165830
  62 F :   -0.135460
  63 C :   -0.016508
  64 C :   -0.003865
  65 H :   -0.015555
  66 H :   -0.009575
  67 H :   -0.005715
  68 H :    0.018747
  69 H :    0.017170
  70 H :    0.000496
  71 H :   -0.005548
  72 H :   -0.007382
  73 H :   -0.003921
  74 H :    0.020139
  75 H :    0.152011
  76 H :    0.015604
  77 H :   -0.008592
  78 H :    0.006223
  79 H :    0.031088
  80 H :    0.171752
  81 H :    0.002922
  82 H :    0.000658
  83 H :    0.021525
  84 H :    0.027862
Sum of atomic charges:   -0.0000000

LOEWDIN ATOMIC CHARGES
----------------------
   0 C :    0.073389
   1 C :   -0.153116
   2 C :   -0.018502
   3 N :   -0.066072
   4 C :   -0.020157
   5 N :   -0.065738
   6 C :   -0.018081
   7 C :   -0.049078
   8 C :    0.017724
   9 C :   -0.035666
  10 C :   -0.145444
  11 C :   -0.012613
  12 S :    0.428284
  13 C :   -0.274586
  14 C :   -0.071135
  15 Br:    0.130370
  16 C :    0.082508
  17 O :   -0.157342
  18 C :   -0.105442
  19 C :    0.051068
  20 C :   -0.072767
  21 C :   -0.103499
  22 C :   -0.039340
  23 C :   -0.008726
  24 C :   -0.192981
  25 S :    0.409026
  26 C :   -0.151679
  27 C :   -0.045059
  28 C :   -0.010589
  29 C :   -0.203580
  30 S :    0.396589
  31 C :   -0.001899
  32 N :    0.042913
  33 C :   -0.124990
  34 S :    0.488369
  35 C :   -0.206973
  36 N :    0.274126
  37 O :   -0.206857
  38 O :   -0.230829
  39 C :    0.003261
  40 C :   -0.096933
  41 C :   -0.007735
  42 C :   -0.062277
  43 C :    0.009836
  44 O :    0.043533
  45 C :    0.079242
  46 C :   -0.087238
  47 N :    0.284789
  48 O :   -0.192164
  49 O :   -0.200924
  50 C :   -0.013336
  51 N :    0.049849
  52 C :    0.132973
  53 O :    0.012000
  54 C :    0.032055
  55 C :   -0.032938
  56 C :   -0.166797
  57 C :    0.031960
  58 O :   -0.180379
  59 C :    0.146459
  60 F :   -0.061221
  61 F :   -0.059734
  62 F :   -0.036421
  63 C :   -0.039162
  64 C :   -0.032777
  65 H :    0.038829
  66 H :    0.040214
  67 H :    0.037590
  68 H :    0.032274
  69 H :    0.038664
  70 H :    0.039049
  71 H :    0.034941
  72 H :    0.034751
  73 H :    0.036152
  74 H :    0.038143
  75 H :    0.097913
  76 H :    0.049110
  77 H :    0.031813
  78 H :    0.035620
  79 H :    0.040074
  80 H :    0.088118
  81 H :    0.037074
  82 H :    0.040378
  83 H :    0.022764
  84 H :    0.028978

  Mayer bond orders larger than 0.100000
B(  0-C ,  1-C ) :   1.5928 B(  0-C ,  6-C ) :   0.9905 B(  0-C , 18-C ) :   1.1041
B(  1-C ,  2-C ) :   1.1474 B(  1-C ,  4-C ) :   1.1523 B(  2-C ,  3-N ) :   2.9637
B(  4-C ,  5-N ) :   2.9630 B(  6-C ,  7-C ) :   1.2783 B(  6-C , 11-C ) :   1.4193
B(  7-C ,  8-C ) :   1.4259 B(  7-C , 16-C ) :   0.9381 B(  8-C ,  9-C ) :   1.2411
B(  8-C , 65-H ) :   1.0170 B(  9-C , 10-C ) :   1.3142 B(  9-C , 14-C ) :   1.1601
B( 10-C , 11-C ) :   1.3206 B( 10-C , 12-S ) :   1.0835 B( 11-C , 66-H ) :   0.9802
B( 12-S , 13-C ) :   1.0860 B( 13-C , 14-C ) :   1.6196 B( 13-C , 15-Br) :   1.0139
B( 14-C , 67-H ) :   1.0007 B( 16-C , 17-O ) :   2.1859 B( 16-C , 18-C ) :   0.9648
B( 18-C , 19-C ) :   1.4923 B( 19-C , 20-C ) :   1.2440 B( 19-C , 68-H ) :   0.9449
B( 20-C , 21-C ) :   1.4319 B( 20-C , 69-H ) :   0.9785 B( 21-C , 22-C ) :   1.1674
B( 21-C , 25-S ) :   1.0841 B( 22-C , 23-C ) :   1.5564 B( 22-C , 70-H ) :   1.0025
B( 23-C , 24-C ) :   1.2032 B( 23-C , 71-H ) :   0.9941 B( 24-C , 25-S ) :   1.0425
B( 24-C , 26-C ) :   1.4955 B( 26-C , 27-C ) :   1.1786 B( 26-C , 30-S ) :   1.0678
B( 27-C , 28-C ) :   1.6177 B( 27-C , 72-H ) :   0.9931 B( 28-C , 29-C ) :   1.1368
B( 28-C , 73-H ) :   0.9973 B( 29-C , 30-S ) :   1.0210 B( 29-C , 31-C ) :   1.6078
B( 31-C , 32-N ) :   1.1636 B( 31-C , 74-H ) :   0.9585 B( 32-N , 33-C ) :   1.1660
B( 32-N , 75-H ) :   0.9077 B( 33-C , 34-S ) :   1.1429 B( 33-C , 40-C ) :   1.3694
B( 34-S , 35-C ) :   1.0929 B( 35-C , 36-N ) :   0.9653 B( 35-C , 39-C ) :   1.4848
B( 36-N , 37-O ) :   1.5420 B( 36-N , 38-O ) :   1.5113 B( 37-O , 38-O ) :   0.2612
B( 39-C , 40-C ) :   1.2329 B( 39-C , 76-H ) :   1.0041 B( 40-C , 41-C ) :   1.1225
B( 41-C , 42-C ) :   1.6524 B( 41-C , 77-H ) :   0.9572 B( 42-C , 43-C ) :   1.1477
B( 42-C , 78-H ) :   0.9478 B( 43-C , 44-O ) :   1.1128 B( 43-C , 50-C ) :   1.4441
B( 44-O , 45-C ) :   1.2007 B( 45-C , 46-C ) :   1.4675 B( 45-C , 79-H ) :   1.0156
B( 46-C , 47-N ) :   0.9073 B( 46-C , 50-C ) :   1.2695 B( 47-N , 48-O ) :   1.5437
B( 47-N , 49-O ) :   1.5221 B( 48-O , 49-O ) :   0.2709 B( 50-C , 51-N ) :   1.0983
B( 51-N , 52-C ) :   1.3043 B( 51-N , 80-H ) :   0.8220 B( 52-C , 53-O ) :   1.2223
B( 52-C , 56-C ) :   1.3056 B( 53-O , 54-C ) :   1.0180 B( 54-C , 55-C ) :   1.5613
B( 54-C , 63-C ) :   1.1233 B( 55-C , 56-C ) :   1.1358 B( 55-C , 81-H ) :   1.0060
B( 56-C , 57-C ) :   1.0632 B( 57-C , 58-O ) :   1.9838 B( 57-C , 59-C ) :   0.9035
B( 58-O , 80-H ) :   0.1230 B( 59-C , 60-F ) :   1.1424 B( 59-C , 61-F ) :   1.1432
B( 59-C , 62-F ) :   1.1936 B( 63-C , 64-C ) :   1.9178 B( 63-C , 82-H ) :   0.9553
B( 64-C , 83-H ) :   0.9589 B( 64-C , 84-H ) :   0.9463

-----------------------------------------------------------------------------
         ABSORPTION SPECTRUM VIA TRANSITION ELECTRIC DIPOLE MOMENTS
-----------------------------------------------------------------------------
State   Energy  Wavelength   fosc         T2         TX        TY        TZ
        (cm-1)    (nm)                  (au**2)     (au)      (au)      (au)
-----------------------------------------------------------------------------
   0   12197.7    819.8   1.059627470  28.59910  -3.21857  -1.98757   3.78014
   1   21485.7    465.4   0.214841672   3.29189  -0.90814   1.55246   0.23884
   2   22111.8    452.2   0.583842072   8.69254   0.87059  -2.78271  -0.43718
   3   23796.7    420.2   0.069137141   0.95647   0.18080  -0.91547   0.29273
   4   24015.2    416.4   0.043090319   0.59070  -0.24734  -0.44557   0.57532
   5   24784.1    403.5   0.267020892   3.54689   0.22009  -0.16701  -1.86294
   6   24975.1    400.4   0.082713291   1.09029  -0.93181   0.25686   0.39502
   7   26098.0    383.2   0.358491149   4.52217  -0.36208  -1.60917   1.34225
   8   27184.1    367.9   0.000013787   0.00017   0.00943   0.00169   0.00867
   9   27790.3    359.8   0.009475334   0.11225  -0.13714   0.29033  -0.09566
  10   28536.2    350.4   0.027292011   0.31486  -0.41226   0.37420   0.06980
  11   28821.8    347.0   0.000678666   0.00775   0.00556  -0.06448  -0.05969
  12   29074.7    343.9   0.080990083   0.91705   0.75108  -0.47157  -0.36132
  13   29798.4    335.6   0.062728092   0.69302  -0.35351   0.21262   0.72308
  14   31012.0    322.5   0.027606643   0.29306   0.42150  -0.22572  -0.25387
  15   31193.2    320.6   0.157397357   1.66117  -0.23708  -0.75314   1.01870
  16   31840.8    314.1   0.098837981   1.02192  -0.09133   0.91349   0.42321
  17   32335.7    309.3   0.174100457   1.77253   1.22866   0.44355  -0.25726
  18   32521.3    307.5   0.513298482   5.19610   0.51756   0.59224  -2.13951
  19   33525.6    298.3   0.015549458   0.15269  -0.11514  -0.01168  -0.37323
  20   33759.8    296.2   0.169872428   1.65653   0.03852   0.25572   1.26081
  21   34269.8    291.8   0.100825221   0.96858   0.68997   0.13460   0.68876
  22   34547.8    289.5   0.004635928   0.04418   0.13451  -0.03710   0.15719
  23   34993.5    285.8   0.033027975   0.31072   0.51111   0.13537  -0.17653
  24   35104.7    284.9   0.298406416   2.79846   0.29593   0.12765   1.64152
  25   35345.2    282.9   0.070121582   0.65312  -0.24494   0.18992  -0.74637
  26   35716.8    280.0   0.032457742   0.29917   0.28277   0.43564   0.17155
  27   36389.3    274.8   0.109629348   0.99181   0.61480  -0.76259  -0.17965
  28   37111.1    269.5   0.171402078   1.52050   0.20311   0.29433  -1.18009
  29   38138.4    262.2   0.049687045   0.42890  -0.44208   0.44128   0.19681
  30   38603.1    259.0   0.108472977   0.92507   0.50801  -0.71597  -0.39292
  31   39356.5    254.1   0.081408254   0.68097   0.07782   0.19204   0.79877
  32   39448.5    253.5   0.020869748   0.17417   0.36872  -0.16737  -0.10098
  33   39855.9    250.9   0.277077619   2.28868   0.07155  -0.69408  -1.34232

FINAL SINGLE POINT ENERGY     -7042.912115978193

DIPOLE MOMENT
-------------
                                X             Y             Z
Electronic contribution:    -47.80070     -68.83511     119.36919
Nuclear contribution   :     46.70849      73.18072    -121.83559
                        -----------------------------------------
Total Dipole Moment    :     -1.09222       4.34561      -2.46640
                        -----------------------------------------
Magnitude (a.u.)       :      5.11472
Magnitude (Debye)      :     13.00060

Rotational constants in cm-1:     0.001273     0.000281     0.000252
Rotational constants in MHz :    38.172132     8.417242     7.568413

                             ****ORCA TERMINATED NORMALLY****
TOTAL RUN TIME: 0 days 0 hours 8 minutes 2 seconds 190 msec
