                         Program Version 4.2.0 -  RELEASE  -
|  1> # ORCA input file
|  2> # SCF done       -167.734223865921          0.000213052689
|  3> ! CAM-B3LYP def2-SVP def2/J RIJCOSX Grid4 TightSCF
|  4> %maxcore 5000
|  5> %tddft
|  6>     Mode sTDDFT
|  7>     Ethresh 5.0
|  8>     maxcore 5000
|  9> end
| 10>
| 11> %pal
| 12>   nprocs 6
| 13>   end
| 14> * xyz 0 1
| 15>    C       -5.04760         1.76504         3.30684
| 16>    C       -5.22577         0.52917         3.86988
| 17>    C       -4.34065        -0.05561         4.79723
| 18>    N       -3.65692        -0.58932         5.54901
| 19>    C       -6.31415        -0.31339         3.57071
| 20>    N       -7.17854        -1.03379         3.33956
| 21>    C       -3.93103         2.67242         3.53770
| 22>    C       -4.05500         3.78928         2.66853
| 23>    C       -3.15450         4.82891         2.66863
| 24>    C       -2.10515         4.77862         3.59013
| 25>    C       -2.00066         3.66890         4.46201
| 26>    C       -2.89382         2.60475         4.44544
| 27>    S       -0.64063         3.82414         5.53224
| 28>    C       -0.23891         5.35676         4.80559
| 29>    C       -1.07629         5.73500         3.81119
| 30>   Br        1.24753         6.31760         5.42727
| 31>    C       -5.27838         3.64336         1.88186
| 32>    O       -5.71138         4.38968         1.00238
| 33>    C       -5.91902         2.40817         2.34884
| 34>    C       -7.18590         2.06881         1.96039
| 35>    N       -7.84641         2.83335         1.07277
| 36>    C       -9.15553         2.72608         0.74630
| 37>    S      -10.19731         1.61827         1.57881
| 38>    C      -11.53451         2.20955         0.64801
| 39>    N      -12.79492         1.67713         0.92303
| 40>    O      -13.73819         2.06725         0.25744
| 41>    O      -12.85779         0.85996         1.82876
| 42>    C      -11.18924         3.17712        -0.25814
| 43>    C       -9.81732         3.48911        -0.22784
| 44>    C       -9.14240         4.39870        -1.11390
| 45>    C       -9.73879         5.08158        -2.10939
| 46>    C       -8.99873         5.85469        -3.06084
| 47>    C       -9.52488         6.51382        -4.10504
| 48>    C      -10.99626         6.62793        -4.36618
| 49>    C       -8.61677         7.21824        -5.08374
| 50>    N       -8.55478         8.64230        -4.83683
| 51>    C       -7.88729         9.16101        -3.78901
| 52>    C       -7.76808        10.49201        -3.54020
| 53>    C       -7.00172        11.05844        -2.50069
| 54>    C       -6.49289        10.47457        -1.37026
| 55>    C       -5.61136        11.11575        -0.46432
| 56>    C       -5.25926        10.36929         0.61489
| 57>    C       -5.87722         9.09652         0.66431
| 58>    S       -6.86631         8.85775        -0.76047
| 59>    C       -5.76742         8.18086         1.68983
| 60>    C       -4.87746         8.26414         2.78804
| 61>    C       -5.02362         7.26800         3.69441
| 62>    C       -6.07655         6.34518         3.40908
| 63>    S       -6.78351         6.75985         1.85180
| 64>    C       -6.35783         5.31386         4.25245
| 65>    C       -7.35904         4.29218         4.35526
| 66>    C       -8.63732         4.31086         3.86841
| 67>    O       -9.50750         3.29198         4.03633
| 68>    C       -9.16174         2.19549         4.75263
| 69>    C      -10.09507         1.16451         4.86928
| 70>    C       -9.77397         0.04364         5.60236
| 71>    C       -8.53853        -0.06311         6.23766
| 72>    C       -7.61884         0.95224         6.12433
| 73>    C       -7.91294         2.09315         5.37014
| 74>    C       -6.93096         3.16397         5.21069
| 75>    O       -5.82681         3.12237         5.73865
| 76>    C       -9.28963         5.45160         3.16028
| 77>    H       -3.26442         5.66225         1.99277
| 78>    H       -2.78232         1.78533         5.13510
| 79>    H       -0.97754         6.65076         3.25727
| 80>    H       -7.70817         1.20771         2.35782
| 81>    H       -7.28333         3.63080         0.72078
| 82>    H      -11.91504         3.63145        -0.90626
| 83>    H       -8.07219         4.49628        -0.98981
| 84>    H      -10.80612         5.01462        -2.24939
| 85>    H       -7.92396         5.84563        -2.93327
| 86>    H      -11.39636         5.67405        -4.71114
| 87>    H      -11.19627         7.37219        -5.13304
| 88>    H      -11.53477         6.91071        -3.46410
| 89>    H       -8.97351         7.06423        -6.10502
| 90>    H       -7.60356         6.81252        -5.00525
| 91>    H       -9.15523         9.25337        -5.36766
| 92>    H       -7.37190         8.43715        -3.17657
| 93>    H       -8.23100        11.18591        -4.23009
| 94>    H       -6.77380        12.11229        -2.60765
| 95>    H       -5.25994        12.11615        -0.64820
| 96>    H       -4.60838        10.71418         1.39765
| 97>    H       -4.14798         9.05004         2.86827
| 98>    H       -4.43539         7.16766         4.58951
| 99>    H       -5.62990         5.20734         5.05321
|100>    H      -11.05223         1.25931         4.38159
|101>    H      -10.49111        -0.75781         5.68456
|102>    H       -8.30271        -0.94541         6.81144
|103>    H       -6.65325         0.90053         6.60562
|104>    H       -9.01612         5.48265         2.10637
|105>    H       -8.99356         6.39401         3.61273
|106>    H      -10.36865         5.33508         3.23162
|107> *
|108>
|109>                          ****END OF INPUT****

CARTESIAN COORDINATES (ANGSTROEM)
---------------------------------
  C     -5.047600    1.765040    3.306840
  C     -5.225770    0.529170    3.869880
  C     -4.340650   -0.055610    4.797230
  N     -3.656920   -0.589320    5.549010
  C     -6.314150   -0.313390    3.570710
  N     -7.178540   -1.033790    3.339560
  C     -3.931030    2.672420    3.537700
  C     -4.055000    3.789280    2.668530
  C     -3.154500    4.828910    2.668630
  C     -2.105150    4.778620    3.590130
  C     -2.000660    3.668900    4.462010
  C     -2.893820    2.604750    4.445440
  S     -0.640630    3.824140    5.532240
  C     -0.238910    5.356760    4.805590
  C     -1.076290    5.735000    3.811190
  Br     1.247530    6.317600    5.427270
  C     -5.278380    3.643360    1.881860
  O     -5.711380    4.389680    1.002380
  C     -5.919020    2.408170    2.348840
  C     -7.185900    2.068810    1.960390
  N     -7.846410    2.833350    1.072770
  C     -9.155530    2.726080    0.746300
  S    -10.197310    1.618270    1.578810
  C    -11.534510    2.209550    0.648010
  N    -12.794920    1.677130    0.923030
  O    -13.738190    2.067250    0.257440
  O    -12.857790    0.859960    1.828760
  C    -11.189240    3.177120   -0.258140
  C     -9.817320    3.489110   -0.227840
  C     -9.142400    4.398700   -1.113900
  C     -9.738790    5.081580   -2.109390
  C     -8.998730    5.854690   -3.060840
  C     -9.524880    6.513820   -4.105040
  C    -10.996260    6.627930   -4.366180
  C     -8.616770    7.218240   -5.083740
  N     -8.554780    8.642300   -4.836830
  C     -7.887290    9.161010   -3.789010
  C     -7.768080   10.492010   -3.540200
  C     -7.001720   11.058440   -2.500690
  C     -6.492890   10.474570   -1.370260
  C     -5.611360   11.115750   -0.464320
  C     -5.259260   10.369290    0.614890
  C     -5.877220    9.096520    0.664310
  S     -6.866310    8.857750   -0.760470
  C     -5.767420    8.180860    1.689830
  C     -4.877460    8.264140    2.788040
  C     -5.023620    7.268000    3.694410
  C     -6.076550    6.345180    3.409080
  S     -6.783510    6.759850    1.851800
  C     -6.357830    5.313860    4.252450
  C     -7.359040    4.292180    4.355260
  C     -8.637320    4.310860    3.868410
  O     -9.507500    3.291980    4.036330
  C     -9.161740    2.195490    4.752630
  C    -10.095070    1.164510    4.869280
  C     -9.773970    0.043640    5.602360
  C     -8.538530   -0.063110    6.237660
  C     -7.618840    0.952240    6.124330
  C     -7.912940    2.093150    5.370140
  C     -6.930960    3.163970    5.210690
  O     -5.826810    3.122370    5.738650
  C     -9.289630    5.451600    3.160280
  H     -3.264420    5.662250    1.992770
  H     -2.782320    1.785330    5.135100
  H     -0.977540    6.650760    3.257270
  H     -7.708170    1.207710    2.357820
  H     -7.283330    3.630800    0.720780
  H    -11.915040    3.631450   -0.906260
  H     -8.072190    4.496280   -0.989810
  H    -10.806120    5.014620   -2.249390
  H     -7.923960    5.845630   -2.933270
  H    -11.396360    5.674050   -4.711140
  H    -11.196270    7.372190   -5.133040
  H    -11.534770    6.910710   -3.464100
  H     -8.973510    7.064230   -6.105020
  H     -7.603560    6.812520   -5.005250
  H     -9.155230    9.253370   -5.367660
  H     -7.371900    8.437150   -3.176570
  H     -8.231000   11.185910   -4.230090
  H     -6.773800   12.112290   -2.607650
  H     -5.259940   12.116150   -0.648200
  H     -4.608380   10.714180    1.397650
  H     -4.147980    9.050040    2.868270
  H     -4.435390    7.167660    4.589510
  H     -5.629900    5.207340    5.053210
  H    -11.052230    1.259310    4.381590
  H    -10.491110   -0.757810    5.684560
  H     -8.302710   -0.945410    6.811440
  H     -6.653250    0.900530    6.605620
  H     -9.016120    5.482650    2.106370
  H     -8.993560    6.394010    3.612730
  H    -10.368650    5.335080    3.231620

 Total Charge           Charge          ....    0
 Multiplicity           Mult            ....    1
 Number of Electrons    NEL             ....  486
 Basis Dimension        Dim             .... 1052

ORBITAL ENERGIES
----------------

  NO   OCC          E(Eh)            E(eV)
   0   2.0000    -482.879416    -13139.8169
   1   2.0000     -88.985091     -2421.4074
   2   2.0000     -88.966783     -2420.9092
   3   2.0000     -88.940533     -2420.1949
   4   2.0000     -88.936346     -2420.0810
   5   2.0000     -62.557145     -1702.2665
   6   2.0000     -56.391081     -1534.4793
   7   2.0000     -56.388395     -1534.4062
   8   2.0000     -56.388351     -1534.4050
   9   2.0000     -19.294804      -525.0383
  10   2.0000     -19.239307      -523.5282
  11   2.0000     -19.238462      -523.5052
  12   2.0000     -19.222799      -523.0789
  13   2.0000     -19.187476      -522.1178
  14   2.0000     -14.650036      -398.6477
  15   2.0000     -14.487450      -394.2235
  16   2.0000     -14.445083      -393.0707
  17   2.0000     -14.408460      -392.0741
  18   2.0000     -14.404243      -391.9594
  19   2.0000     -10.368340      -282.1369
  20   2.0000     -10.366219      -282.0792
  21   2.0000     -10.358529      -281.8699
  22   2.0000     -10.357602      -281.8447
  23   2.0000     -10.350767      -281.6587
  24   2.0000     -10.347885      -281.5803
  25   2.0000     -10.346987      -281.5558
  26   2.0000     -10.343970      -281.4737
  27   2.0000     -10.333640      -281.1926
  28   2.0000     -10.328996      -281.0663
  29   2.0000     -10.320998      -280.8486
  30   2.0000     -10.320398      -280.8323
  31   2.0000     -10.314853      -280.6814
  32   2.0000     -10.311759      -280.5972
  33   2.0000     -10.309831      -280.5448
  34   2.0000     -10.307650      -280.4854
  35   2.0000     -10.306086      -280.4428
  36   2.0000     -10.302944      -280.3574
  37   2.0000     -10.300524      -280.2915
  38   2.0000     -10.297069      -280.1975
  39   2.0000     -10.296088      -280.1708
  40   2.0000     -10.295542      -280.1559
  41   2.0000     -10.292722      -280.0792
  42   2.0000     -10.291480      -280.0454
  43   2.0000     -10.291312      -280.0408
  44   2.0000     -10.289990      -280.0049
  45   2.0000     -10.289920      -280.0030
  46   2.0000     -10.289125      -279.9813
  47   2.0000     -10.287072      -279.9255
  48   2.0000     -10.284632      -279.8591
  49   2.0000     -10.284233      -279.8482
  50   2.0000     -10.281969      -279.7866
  51   2.0000     -10.279098      -279.7085
  52   2.0000     -10.278587      -279.6946
  53   2.0000     -10.278567      -279.6940
  54   2.0000     -10.278298      -279.6867
  55   2.0000     -10.277401      -279.6623
  56   2.0000     -10.277191      -279.6566
  57   2.0000     -10.275413      -279.6082
  58   2.0000     -10.275252      -279.6038
  59   2.0000     -10.273906      -279.5672
  60   2.0000     -10.273594      -279.5587
  61   2.0000     -10.273357      -279.5523
  62   2.0000     -10.270949      -279.4867
  63   2.0000     -10.268111      -279.4095
  64   2.0000     -10.265583      -279.3407
  65   2.0000     -10.259981      -279.1883
  66   2.0000      -8.786577      -239.0949
  67   2.0000      -8.079900      -219.8653
  68   2.0000      -8.062679      -219.3967
  69   2.0000      -8.036206      -218.6763
  70   2.0000      -8.031446      -218.5468
  71   2.0000      -6.622829      -180.2163
  72   2.0000      -6.608319      -179.8215
  73   2.0000      -6.608162      -179.8172
  74   2.0000      -6.049538      -164.6163
  75   2.0000      -6.045193      -164.4981
  76   2.0000      -6.041385      -164.3944
  77   2.0000      -6.032369      -164.1491
  78   2.0000      -6.028097      -164.0329
  79   2.0000      -6.023933      -163.9195
  80   2.0000      -6.005943      -163.4300
  81   2.0000      -6.001979      -163.3221
  82   2.0000      -6.001242      -163.3021
  83   2.0000      -5.997270      -163.1940
  84   2.0000      -5.997202      -163.1922
  85   2.0000      -5.992322      -163.0594
  86   2.0000      -2.738689       -74.5235
  87   2.0000      -2.734645       -74.4135
  88   2.0000      -2.734521       -74.4101
  89   2.0000      -2.722986       -74.0962
  90   2.0000      -2.722976       -74.0959
  91   2.0000      -1.318619       -35.8815
  92   2.0000      -1.206710       -32.8362
  93   2.0000      -1.137661       -30.9573
  94   2.0000      -1.136181       -30.9170
  95   2.0000      -1.105823       -30.0910
  96   2.0000      -1.096001       -29.8237
  97   2.0000      -1.045099       -28.4386
  98   2.0000      -1.014004       -27.5925
  99   2.0000      -1.007237       -27.4083
 100   2.0000      -1.003865       -27.3166
 101   2.0000      -0.985784       -26.8246
 102   2.0000      -0.984208       -26.7817
 103   2.0000      -0.981066       -26.6962
 104   2.0000      -0.962865       -26.2009
 105   2.0000      -0.957127       -26.0448
 106   2.0000      -0.934552       -25.4305
 107   2.0000      -0.931241       -25.3404
 108   2.0000      -0.916169       -24.9302
 109   2.0000      -0.913113       -24.8471
 110   2.0000      -0.900848       -24.5133
 111   2.0000      -0.895881       -24.3782
 112   2.0000      -0.888324       -24.1725
 113   2.0000      -0.876275       -23.8447
 114   2.0000      -0.875503       -23.8237
 115   2.0000      -0.869012       -23.6470
 116   2.0000      -0.861394       -23.4397
 117   2.0000      -0.851346       -23.1663
 118   2.0000      -0.844165       -22.9709
 119   2.0000      -0.841777       -22.9059
 120   2.0000      -0.830404       -22.5964
 121   2.0000      -0.822413       -22.3790
 122   2.0000      -0.820142       -22.3172
 123   2.0000      -0.816885       -22.2286
 124   2.0000      -0.806903       -21.9569
 125   2.0000      -0.794804       -21.6277
 126   2.0000      -0.788494       -21.4560
 127   2.0000      -0.780347       -21.2343
 128   2.0000      -0.761329       -20.7168
 129   2.0000      -0.753993       -20.5172
 130   2.0000      -0.745158       -20.2768
 131   2.0000      -0.738604       -20.0984
 132   2.0000      -0.725163       -19.7327
 133   2.0000      -0.718248       -19.5445
 134   2.0000      -0.708348       -19.2751
 135   2.0000      -0.702556       -19.1175
 136   2.0000      -0.686264       -18.6742
 137   2.0000      -0.681272       -18.5383
 138   2.0000      -0.679876       -18.5004
 139   2.0000      -0.676588       -18.4109
 140   2.0000      -0.666466       -18.1355
 141   2.0000      -0.661726       -18.0065
 142   2.0000      -0.653344       -17.7784
 143   2.0000      -0.651898       -17.7390
 144   2.0000      -0.648081       -17.6352
 145   2.0000      -0.634640       -17.2694
 146   2.0000      -0.633420       -17.2362
 147   2.0000      -0.631024       -17.1710
 148   2.0000      -0.626981       -17.0610
 149   2.0000      -0.620081       -16.8733
 150   2.0000      -0.614821       -16.7301
 151   2.0000      -0.613405       -16.6916
 152   2.0000      -0.610213       -16.6047
 153   2.0000      -0.605504       -16.4766
 154   2.0000      -0.598300       -16.2806
 155   2.0000      -0.589451       -16.0398
 156   2.0000      -0.586871       -15.9696
 157   2.0000      -0.585156       -15.9229
 158   2.0000      -0.581480       -15.8229
 159   2.0000      -0.581160       -15.8142
 160   2.0000      -0.576359       -15.6835
 161   2.0000      -0.571377       -15.5480
 162   2.0000      -0.564907       -15.3719
 163   2.0000      -0.564511       -15.3611
 164   2.0000      -0.551815       -15.0156
 165   2.0000      -0.547278       -14.8922
 166   2.0000      -0.544042       -14.8041
 167   2.0000      -0.540957       -14.7202
 168   2.0000      -0.536312       -14.5938
 169   2.0000      -0.532360       -14.4862
 170   2.0000      -0.529322       -14.4036
 171   2.0000      -0.527146       -14.3444
 172   2.0000      -0.525544       -14.3008
 173   2.0000      -0.518977       -14.1221
 174   2.0000      -0.515618       -14.0307
 175   2.0000      -0.514952       -14.0126
 176   2.0000      -0.513354       -13.9691
 177   2.0000      -0.511306       -13.9133
 178   2.0000      -0.508391       -13.8340
 179   2.0000      -0.505342       -13.7510
 180   2.0000      -0.503294       -13.6953
 181   2.0000      -0.501907       -13.6576
 182   2.0000      -0.498597       -13.5675
 183   2.0000      -0.495981       -13.4963
 184   2.0000      -0.493278       -13.4228
 185   2.0000      -0.491249       -13.3676
 186   2.0000      -0.487352       -13.2615
 187   2.0000      -0.484875       -13.1941
 188   2.0000      -0.480590       -13.0775
 189   2.0000      -0.479292       -13.0422
 190   2.0000      -0.477754       -13.0003
 191   2.0000      -0.473704       -12.8901
 192   2.0000      -0.472215       -12.8496
 193   2.0000      -0.469761       -12.7828
 194   2.0000      -0.467867       -12.7313
 195   2.0000      -0.465398       -12.6641
 196   2.0000      -0.462555       -12.5868
 197   2.0000      -0.461067       -12.5463
 198   2.0000      -0.455206       -12.3868
 199   2.0000      -0.451713       -12.2917
 200   2.0000      -0.450783       -12.2664
 201   2.0000      -0.448160       -12.1951
 202   2.0000      -0.447886       -12.1876
 203   2.0000      -0.441939       -12.0258
 204   2.0000      -0.441482       -12.0133
 205   2.0000      -0.439938       -11.9713
 206   2.0000      -0.437498       -11.9049
 207   2.0000      -0.435301       -11.8451
 208   2.0000      -0.433117       -11.7857
 209   2.0000      -0.430051       -11.7023
 210   2.0000      -0.422768       -11.5041
 211   2.0000      -0.419494       -11.4150
 212   2.0000      -0.418716       -11.3938
 213   2.0000      -0.417807       -11.3691
 214   2.0000      -0.415118       -11.2959
 215   2.0000      -0.413058       -11.2399
 216   2.0000      -0.408277       -11.1098
 217   2.0000      -0.402200       -10.9444
 218   2.0000      -0.399564       -10.8727
 219   2.0000      -0.393506       -10.7078
 220   2.0000      -0.386451       -10.5159
 221   2.0000      -0.382964       -10.4210
 222   2.0000      -0.379083       -10.3154
 223   2.0000      -0.376828       -10.2540
 224   2.0000      -0.369134       -10.0447
 225   2.0000      -0.367367        -9.9966
 226   2.0000      -0.366098        -9.9620
 227   2.0000      -0.358707        -9.7609
 228   2.0000      -0.354073        -9.6348
 229   2.0000      -0.347515        -9.4564
 230   2.0000      -0.335549        -9.1308
 231   2.0000      -0.329094        -8.9551
 232   2.0000      -0.325326        -8.8526
 233   2.0000      -0.323322        -8.7980
 234   2.0000      -0.319278        -8.6880
 235   2.0000      -0.316509        -8.6126
 236   2.0000      -0.303883        -8.2691
 237   2.0000      -0.303443        -8.2571
 238   2.0000      -0.294896        -8.0245
 239   2.0000      -0.283156        -7.7051
 240   2.0000      -0.264079        -7.1860
 241   2.0000      -0.258834        -7.0432
 242   2.0000      -0.199672        -5.4333
 243   0.0000      -0.080294        -2.1849
 244   0.0000      -0.065171        -1.7734
 245   0.0000      -0.053431        -1.4539
 246   0.0000      -0.041901        -1.1402
 247   0.0000      -0.020552        -0.5593

MULLIKEN ATOMIC CHARGES
-----------------------
   0 C :    0.347732
   1 C :   -0.368188
   2 C :   -0.194956
   3 N :    0.158953
   4 C :   -0.201699
   5 N :    0.142749
   6 C :    0.028599
   7 C :    0.006354
   8 C :   -0.060643
   9 C :    0.103234
  10 C :   -0.089397
  11 C :   -0.007823
  12 S :    0.182293
  13 C :   -0.123466
  14 C :    0.036498
  15 Br:    0.014103
  16 C :    0.165930
  17 O :   -0.221820
  18 C :   -0.102780
  19 C :   -0.012623
  20 N :   -0.016081
  21 C :   -0.118827
  22 S :    0.171755
  23 C :    0.004090
  24 N :    0.279925
  25 O :   -0.250531
  26 O :   -0.265031
  27 C :   -0.006054
  28 C :    0.140253
  29 C :   -0.031803
  30 C :    0.003638
  31 C :    0.012115
  32 C :   -0.192329
  33 C :    0.090207
  34 C :    0.197342
  35 N :   -0.156657
  36 C :    0.073315
  37 C :   -0.037515
  38 C :    0.006133
  39 C :   -0.054806
  40 C :    0.047246
  41 C :    0.007885
  42 C :   -0.043625
  43 S :    0.053985
  44 C :   -0.063024
  45 C :    0.016824
  46 C :    0.025077
  47 C :   -0.018351
  48 S :    0.078545
  49 C :   -0.088763
  50 C :   -0.032219
  51 C :   -0.069664
  52 O :   -0.212811
  53 C :    0.146529
  54 C :   -0.030834
  55 C :    0.050572
  56 C :    0.048945
  57 C :   -0.003602
  58 C :   -0.046118
  59 C :    0.151167
  60 O :   -0.212738
  61 C :    0.099998
  62 H :   -0.014876
  63 H :   -0.007605
  64 H :   -0.009849
  65 H :    0.057956
  66 H :    0.185459
  67 H :    0.006079
  68 H :   -0.007894
  69 H :   -0.017520
  70 H :   -0.017810
  71 H :    0.039030
  72 H :   -0.001674
  73 H :    0.038181
  74 H :    0.014478
  75 H :    0.014448
  76 H :    0.119460
  77 H :    0.015073
  78 H :   -0.030841
  79 H :   -0.010990
  80 H :   -0.017780
  81 H :   -0.020675
  82 H :   -0.020009
  83 H :   -0.012865
  84 H :    0.014002
  85 H :   -0.008792
  86 H :    0.002669
  87 H :   -0.005819
  88 H :    0.004627
  89 H :    0.053326
  90 H :    0.053303
  91 H :    0.029697
Sum of atomic charges:   -0.0000000

LOEWDIN ATOMIC CHARGES
----------------------
   0 C :    0.084175
   1 C :   -0.148741
   2 C :   -0.016908
   3 N :   -0.060085
   4 C :   -0.018555
   5 N :   -0.064657
   6 C :   -0.009036
   7 C :   -0.046406
   8 C :    0.021132
   9 C :   -0.036487
  10 C :   -0.143466
  11 C :    0.001577
  12 S :    0.430917
  13 C :   -0.274793
  14 C :   -0.072785
  15 Br:    0.129706
  16 C :    0.091469
  17 O :   -0.179569
  18 C :   -0.130094
  19 C :    0.098820
  20 N :    0.072648
  21 C :   -0.109728
  22 S :    0.495911
  23 C :   -0.206264
  24 N :    0.275468
  25 O :   -0.216721
  26 O :   -0.234377
  27 C :    0.001654
  28 C :   -0.091983
  29 C :   -0.026885
  30 C :   -0.017266
  31 C :   -0.045447
  32 C :   -0.039568
  33 C :   -0.053078
  34 C :    0.043897
  35 N :    0.005073
  36 C :    0.054980
  37 C :   -0.132642
  38 C :   -0.027349
  39 C :   -0.180434
  40 C :   -0.020786
  41 C :   -0.060249
  42 C :   -0.165374
  43 S :    0.359128
  44 C :   -0.203830
  45 C :   -0.039843
  46 C :   -0.042634
  47 C :   -0.146761
  48 S :    0.399448
  49 C :   -0.073421
  50 C :   -0.125597
  51 C :    0.068800
  52 O :   -0.005174
  53 C :    0.048699
  54 C :   -0.044519
  55 C :    0.012653
  56 C :   -0.020056
  57 C :    0.018853
  58 C :   -0.095469
  59 C :    0.074759
  60 O :   -0.189709
  61 C :   -0.062105
  62 H :    0.039508
  63 H :    0.041895
  64 H :    0.036402
  65 H :    0.033923
  66 H :    0.081849
  67 H :    0.042873
  68 H :    0.031019
  69 H :    0.024167
  70 H :    0.025629
  71 H :    0.041708
  72 H :    0.024350
  73 H :    0.037841
  74 H :    0.030449
  75 H :    0.028912
  76 H :    0.077915
  77 H :    0.015807
  78 H :    0.021735
  79 H :    0.035077
  80 H :    0.031711
  81 H :    0.028202
  82 H :    0.029141
  83 H :    0.031996
  84 H :    0.040176
  85 H :    0.032245
  86 H :    0.036850
  87 H :    0.033653
  88 H :    0.038626
  89 H :    0.029518
  90 H :    0.044537
  91 H :    0.041368

  Mayer bond orders larger than 0.100000
B(  0-C ,  1-C ) :   1.6369 B(  0-C ,  6-C ) :   1.0118 B(  0-C , 18-C ) :   1.0882
B(  1-C ,  2-C ) :   1.1457 B(  1-C ,  4-C ) :   1.1566 B(  2-C ,  3-N ) :   2.9750
B(  4-C ,  5-N ) :   2.9267 B(  6-C ,  7-C ) :   1.2761 B(  6-C , 11-C ) :   1.4222
B(  7-C ,  8-C ) :   1.4181 B(  7-C , 16-C ) :   0.9851 B(  8-C ,  9-C ) :   1.2543
B(  8-C , 62-H ) :   1.0063 B(  9-C , 10-C ) :   1.3118 B(  9-C , 14-C ) :   1.1596
B( 10-C , 11-C ) :   1.3228 B( 10-C , 12-S ) :   1.0804 B( 11-C , 63-H ) :   0.9769
B( 12-S , 13-C ) :   1.0878 B( 13-C , 14-C ) :   1.6153 B( 13-C , 15-Br) :   1.0126
B( 14-C , 64-H ) :   1.0011 B( 16-C , 17-O ) :   1.9927 B( 16-C , 18-C ) :   0.9894
B( 17-O , 66-H ) :   0.1479 B( 18-C , 19-C ) :   1.4891 B( 19-C , 20-N ) :   1.2977
B( 19-C , 65-H ) :   0.9245 B( 20-N , 21-C ) :   1.1971 B( 20-N , 66-H ) :   0.8192
B( 21-C , 22-S ) :   1.1468 B( 21-C , 28-C ) :   1.3692 B( 22-S , 23-C ) :   1.0892
B( 23-C , 24-N ) :   0.9749 B( 23-C , 27-C ) :   1.4889 B( 24-N , 25-O ) :   1.5290
B( 24-N , 26-O ) :   1.4986 B( 25-O , 26-O ) :   0.2557 B( 27-C , 28-C ) :   1.2248
B( 27-C , 67-H ) :   0.9998 B( 28-C , 29-C ) :   1.0462 B( 29-C , 30-C ) :   1.7333
B( 29-C , 68-H ) :   0.9842 B( 30-C , 31-C ) :   1.1018 B( 30-C , 69-H ) :   0.9691
B( 31-C , 32-C ) :   1.7728 B( 31-C , 70-H ) :   0.9763 B( 32-C , 33-C ) :   1.0686
B( 32-C , 34-C ) :   1.0411 B( 33-C , 71-H ) :   0.9463 B( 33-C , 72-H ) :   0.9521
B( 33-C , 73-H ) :   0.9518 B( 34-C , 35-N ) :   1.0098 B( 34-C , 74-H ) :   0.9375
B( 34-C , 75-H ) :   0.9414 B( 35-N , 36-C ) :   1.2439 B( 35-N , 76-H ) :   0.9420
B( 36-C , 37-C ) :   1.5781 B( 36-C , 77-H ) :   0.9498 B( 37-C , 38-C ) :   1.2151
B( 37-C , 78-H ) :   0.9599 B( 38-C , 39-C ) :   1.5917 B( 38-C , 79-H ) :   0.9592
B( 39-C , 40-C ) :   1.1539 B( 39-C , 43-S ) :   1.0012 B( 40-C , 41-C ) :   1.5866
B( 40-C , 80-H ) :   0.9963 B( 41-C , 42-C ) :   1.1818 B( 41-C , 81-H ) :   0.9931
B( 42-C , 43-S ) :   1.0507 B( 42-C , 44-C ) :   1.5158 B( 44-C , 45-C ) :   1.1657
B( 44-C , 48-S ) :   1.0396 B( 45-C , 46-C ) :   1.5963 B( 45-C , 82-H ) :   0.9963
B( 46-C , 47-C ) :   1.1140 B( 46-C , 83-H ) :   1.0018 B( 47-C , 48-S ) :   1.0470
B( 47-C , 49-C ) :   1.5972 B( 49-C , 50-C ) :   1.1155 B( 49-C , 84-H ) :   0.9286
B( 50-C , 51-C ) :   1.5091 B( 50-C , 59-C ) :   0.9987 B( 51-C , 52-O ) :   1.1240
B( 51-C , 61-C ) :   1.1228 B( 52-O , 53-C ) :   1.0780 B( 53-C , 54-C ) :   1.3351
B( 53-C , 58-C ) :   1.3267 B( 54-C , 55-C ) :   1.4166 B( 54-C , 85-H ) :   0.9905
B( 55-C , 56-C ) :   1.3170 B( 55-C , 86-H ) :   0.9907 B( 56-C , 57-C ) :   1.4003
B( 56-C , 87-H ) :   0.9954 B( 57-C , 58-C ) :   1.3314 B( 57-C , 88-H ) :   0.9966
B( 58-C , 59-C ) :   1.0039 B( 59-C , 60-O ) :   2.0927 B( 61-C , 89-H ) :   0.9258
B( 61-C , 90-H ) :   0.9451 B( 61-C , 91-H ) :   0.9304

-----------------------------------------------------------------------------
         ABSORPTION SPECTRUM VIA TRANSITION ELECTRIC DIPOLE MOMENTS
-----------------------------------------------------------------------------
State   Energy  Wavelength   fosc         T2         TX        TY        TZ
        (cm-1)    (nm)                  (au**2)     (au)      (au)      (au)
-----------------------------------------------------------------------------
   0   11244.9    889.3   0.016892547   0.49455  -0.02981   0.63424  -0.30234
   1   13846.1    722.2   0.361859177   8.60376   0.46375  -2.18708   1.89878
   2   17676.0    565.7   0.562281277  10.47235   0.02913   1.43868  -2.89857
   3   19892.8    502.7   0.010695596   0.17700   0.21164  -0.34254  -0.12199
   4   22236.0    449.7   0.893061141  13.22207   2.95179  -0.72710   1.99508
   5   23320.6    428.8   0.073627920   1.03939  -0.84195  -0.22035   0.53099
   6   24581.5    406.8   0.067699500   0.90668  -0.42604   0.37618  -0.76397
   7   25019.8    399.7   0.022242683   0.29267  -0.05107  -0.34597   0.41275
   8   25776.5    387.9   0.038849418   0.49618   0.18737   0.57193  -0.36600
   9   26189.1    381.8   0.006037225   0.07589   0.01110  -0.26013   0.08999
  10   28116.2    355.7   0.201869879   2.36369   0.69117   1.36261   0.17105
  11   28239.4    354.1   0.098397538   1.14711  -0.87968  -0.59582   0.13514
  12   28724.7    348.1   0.147937979   1.69551  -0.34878  -0.92686   0.84545
  13   29113.0    343.5   0.064095812   0.72480   0.72856   0.22309   0.37977
  14   29632.2    337.5   0.134190206   1.49084  -0.02328  -1.01904   0.67221
  15   30474.9    328.1   0.036230101   0.39138   0.35161   0.50170  -0.12667
  16   30622.7    326.6   0.363712851   3.91013  -1.33348  -0.75354  -1.25065
  17   31109.9    321.4   0.179248235   1.89684  -1.02315  -0.70900  -0.58934
  18   31417.9    318.3   0.060164768   0.63044   0.22671  -0.18787   0.73739
  19   31959.0    312.9   0.300963009   3.10024  -1.23057  -1.18464   0.42727
  20   32352.2    309.1   0.277909935   2.82798  -1.41741  -0.89375  -0.14193
  21   32907.4    303.9   0.126706261   1.26759  -0.27535  -1.04254   0.32385
  22   33153.4    301.6   0.066708306   0.66241  -0.32258  -0.74390  -0.07044
  23   33521.5    298.3   0.016053926   0.15766  -0.20366  -0.29638   0.16836
  24   33962.8    294.4   0.059240695   0.57424   0.25772   0.66828  -0.24743
  25   34354.0    291.1   0.037679435   0.36108  -0.41831   0.25589  -0.34730
  26   34477.0    290.0   0.041539546   0.39665  -0.57702  -0.03673   0.24969
  27   34658.2    288.5   0.035159715   0.33398  -0.02568   0.57696  -0.02068
  28   34853.2    286.9   0.015315370   0.14466   0.29504   0.18477  -0.15321
  29   35214.4    284.0   0.048485073   0.45328  -0.52225  -0.15873   0.39413
  30   35420.6    282.3   0.110000393   1.02238  -0.90217  -0.12850  -0.43812
  31   35562.2    281.2   0.007747636   0.07172  -0.21752  -0.14368   0.06132
  32   35837.5    279.0   0.119896049   1.10139   0.14015   0.97187  -0.37043
  33   36044.3    277.4   0.076117847   0.69523  -0.57028  -0.52757  -0.30278
  34   36217.7    276.1   0.096452846   0.87674   0.78685   0.03314   0.50646
  35   36588.6    273.3   0.023568629   0.21206   0.35358   0.20031   0.21661
  36   36755.7    272.1   0.026432658   0.23675  -0.15685  -0.40492   0.21953
  37   36794.2    271.8   0.052708064   0.47160  -0.63665  -0.24514  -0.07865
  38   36904.3    271.0   0.083339290   0.74344  -0.07024   0.62401  -0.59086
  39   37094.4    269.6   0.018296301   0.16238  -0.26948  -0.29522   0.05103
  40   37299.6    268.1   0.155926033   1.37623  -0.35317  -0.81218   0.76932
  41   37528.4    266.5   0.107707823   0.94485  -0.07904  -0.84287   0.47767
  42   37921.8    263.7   0.167750033   1.45630   0.32083   1.07755  -0.43846
  43   38408.5    260.4   0.267133387   2.28969   0.25030  -1.05982   1.05063
  44   38652.2    258.7   0.001147822   0.00978  -0.03093  -0.06296   0.06969
  45   38753.5    258.0   0.024393346   0.20722  -0.38331  -0.07436  -0.23402
  46   38980.8    256.5   0.008632340   0.07290   0.03096  -0.12177   0.23900
  47   39051.4    256.1   0.065329426   0.55074   0.43456   0.46728  -0.37888
  48   39582.2    252.6   0.017284456   0.14376   0.00097   0.35208  -0.14071
  49   39849.7    250.9   0.032925799   0.27201   0.38323   0.35285   0.02535
  50   40227.1    248.6   0.043989342   0.36000   0.10337   0.00347   0.59102
  51   40304.5    248.1   0.045063235   0.36808   0.48242   0.35394  -0.10041

FINAL SINGLE POINT ENERGY     -6621.902334899746

DIPOLE MOMENT
-------------
                                X             Y             Z
Electronic contribution:    109.81342     -14.21317      76.29516
Nuclear contribution   :   -109.79424      17.89315     -79.50796
                        -----------------------------------------
Total Dipole Moment    :      0.01919       3.67999      -3.21280
                        -----------------------------------------
Magnitude (a.u.)       :      4.88516
Magnitude (Debye)      :     12.41709

Rotational constants in cm-1:     0.001212     0.000913     0.000577
Rotational constants in MHz :    36.329682    27.356194    17.293454

                             ****ORCA TERMINATED NORMALLY****
TOTAL RUN TIME: 0 days 0 hours 10 minutes 44 seconds 338 msec
