                         Program Version 4.2.0 -  RELEASE  -
|  1> # ORCA input file
|  2> # SCF done       -175.202680544943          0.000430501001
|  3> ! CAM-B3LYP def2-SVP def2/J RIJCOSX Grid4 TightSCF
|  4> %maxcore 5000
|  5> %tddft
|  6>     Mode sTDDFT
|  7>     Ethresh 5.0
|  8>     maxcore 5000
|  9> end
| 10>
| 11> %pal
| 12>   nprocs 6
| 13>   end
| 14> * xyz 0 1
| 15>    C       -1.63655         0.92266         3.35114
| 16>    C       -1.08766         1.64797         4.37754
| 17>    C        0.09823         1.28969         5.04873
| 18>    N        1.05696         1.03585         5.62731
| 19>    C       -1.69231         2.79124         4.94025
| 20>    N       -2.16183         3.69619         5.46850
| 21>    C       -1.15110        -0.35506         2.84653
| 22>    C       -2.12973        -0.89328         1.97545
| 23>    C       -1.96642        -2.09922         1.33950
| 24>    C       -0.78053        -2.80522         1.57238
| 25>    C        0.19295        -2.25528         2.43948
| 26>    C        0.02696        -1.03597         3.08564
| 27>    S        1.58482        -3.28689         2.57492
| 28>    C        0.84877        -4.42953         1.48269
| 29>    C       -0.37545        -4.05898         1.03779
| 30>   Br        1.76488        -6.00417         1.03506
| 31>    C       -3.27211         0.04115         1.87650
| 32>    O       -4.27969        -0.12221         1.22100
| 33>    C       -2.87935         1.22152         2.67480
| 34>    C       -3.46648         2.45591         2.60054
| 35>    C       -4.71132         2.77570         2.01613
| 36>    S       -4.82984         4.30425         1.17235
| 37>    C       -6.40545         3.91528         0.62897
| 38>    C       -6.86056         2.71804         1.09292
| 39>    C       -8.21314         2.16964         0.78636
| 40>    C       -5.90778         2.06239         1.92553
| 41>    C       -6.23354         0.88517         2.68178
| 42>    C       -5.73134         0.59319         3.89932
| 43>    C       -6.08478        -0.56710         4.64515
| 44>    C       -5.52796        -0.87425         5.83721
| 45>    C       -5.87766        -2.03879         6.59245
| 46>    C       -5.30812        -2.41827         7.74877
| 47>    C       -4.21638        -1.64711         8.42794
| 48>    C       -5.72826        -3.66673         8.48305
| 49>    N       -6.48091        -4.58859         7.67376
| 50>    C       -7.49954        -5.35613         8.09070
| 51>    C       -7.99694        -5.44340         9.35350
| 52>    C       -9.10525        -6.24854         9.68936
| 53>    S       -9.99026        -7.23737         8.55527
| 54>    C      -11.13638        -7.84035         9.75339
| 55>    C      -10.79204        -7.29278        10.99551
| 56>    C       -9.69040        -6.41019        10.93734
| 57>    O       -9.41675        -5.89308        12.15276
| 58>    C      -10.34248        -6.43843        12.99548
| 59>    C      -10.31686        -6.09628        14.35784
| 60>    N      -10.31209        -5.83496        15.47419
| 61>    C      -11.20381        -7.29396        12.35010
| 62>    C      -12.12775        -8.78548         9.50062
| 63>    C      -12.59587        -9.27067         8.30312
| 64>    C      -12.51532        -8.75700         6.96284
| 65>    C      -12.48858        -7.42935         6.60329
| 66>    C      -12.44240        -6.97240         5.27493
| 67>    N      -12.36506        -6.54873         4.20950
| 68>    C      -12.60469        -6.38413         7.53972
| 69>    N      -12.75745        -5.51276         8.27267
| 70>    C      -12.77493        -9.86903         6.05225
| 71>    C      -13.23281       -10.97320         6.81373
| 72>    C      -13.21091       -10.61442         8.25047
| 73>    O      -13.57061       -11.29465         9.18696
| 74>    C      -13.60414       -12.16119         6.23506
| 75>    C      -13.50563       -12.26813         4.84259
| 76>    C      -13.03649       -11.16340         4.09488
| 77>    C      -12.67235        -9.95531         4.67866
| 78>    S      -12.98315       -11.51866         2.39432
| 79>    C      -13.58755       -13.12419         2.70703
| 80>    C      -13.81706       -13.38292         4.01567
| 81>   Br      -13.85380       -14.30713         1.27516
| 82>    H       -2.72766        -2.48638         0.68059
| 83>    H        0.79964        -0.65077         3.73023
| 84>    H       -0.96860        -4.64314         0.35820
| 85>    H       -2.88187         3.31023         2.92584
| 86>    H       -6.92211         4.60297        -0.01249
| 87>    H       -8.75025         2.83708         0.11789
| 88>    H       -8.79149         2.05039         1.70160
| 89>    H       -8.12342         1.19431         0.31015
| 90>    H       -6.98539         0.23830         2.25192
| 91>    H       -5.02319         1.26888         4.36236
| 92>    H       -6.82511        -1.22751         4.21184
| 93>    H       -4.77351        -0.21522         6.24319
| 94>    H       -6.67930        -2.63403         6.17395
| 95>    H       -4.43531        -0.58230         8.43722
| 96>    H       -3.26795        -1.78852         7.90881
| 97>    H       -4.09169        -1.98005         9.45521
| 98>    H       -6.34153        -3.37218         9.34039
| 99>    H       -4.82823        -4.16217         8.87751
|100>    H       -6.16162        -4.69658         6.72419
|101>    H       -7.95902        -5.95841         7.31702
|102>    H       -7.56902        -4.88998        10.17537
|103>    H      -12.01077        -7.83647        12.79805
|104>    H      -12.52284        -9.28457        10.38079
|105>    H      -13.96024       -12.98420         6.83456
|106>    H      -12.31833        -9.13825         4.07168
|107>    H      -14.18943       -14.32069         4.38576
|108> *
|109>
|110>                          ****END OF INPUT****

CARTESIAN COORDINATES (ANGSTROEM)
---------------------------------
  C     -1.636550    0.922660    3.351140
  C     -1.087660    1.647970    4.377540
  C      0.098230    1.289690    5.048730
  N      1.056960    1.035850    5.627310
  C     -1.692310    2.791240    4.940250
  N     -2.161830    3.696190    5.468500
  C     -1.151100   -0.355060    2.846530
  C     -2.129730   -0.893280    1.975450
  C     -1.966420   -2.099220    1.339500
  C     -0.780530   -2.805220    1.572380
  C      0.192950   -2.255280    2.439480
  C      0.026960   -1.035970    3.085640
  S      1.584820   -3.286890    2.574920
  C      0.848770   -4.429530    1.482690
  C     -0.375450   -4.058980    1.037790
  Br     1.764880   -6.004170    1.035060
  C     -3.272110    0.041150    1.876500
  O     -4.279690   -0.122210    1.221000
  C     -2.879350    1.221520    2.674800
  C     -3.466480    2.455910    2.600540
  C     -4.711320    2.775700    2.016130
  S     -4.829840    4.304250    1.172350
  C     -6.405450    3.915280    0.628970
  C     -6.860560    2.718040    1.092920
  C     -8.213140    2.169640    0.786360
  C     -5.907780    2.062390    1.925530
  C     -6.233540    0.885170    2.681780
  C     -5.731340    0.593190    3.899320
  C     -6.084780   -0.567100    4.645150
  C     -5.527960   -0.874250    5.837210
  C     -5.877660   -2.038790    6.592450
  C     -5.308120   -2.418270    7.748770
  C     -4.216380   -1.647110    8.427940
  C     -5.728260   -3.666730    8.483050
  N     -6.480910   -4.588590    7.673760
  C     -7.499540   -5.356130    8.090700
  C     -7.996940   -5.443400    9.353500
  C     -9.105250   -6.248540    9.689360
  S     -9.990260   -7.237370    8.555270
  C    -11.136380   -7.840350    9.753390
  C    -10.792040   -7.292780   10.995510
  C     -9.690400   -6.410190   10.937340
  O     -9.416750   -5.893080   12.152760
  C    -10.342480   -6.438430   12.995480
  C    -10.316860   -6.096280   14.357840
  N    -10.312090   -5.834960   15.474190
  C    -11.203810   -7.293960   12.350100
  C    -12.127750   -8.785480    9.500620
  C    -12.595870   -9.270670    8.303120
  C    -12.515320   -8.757000    6.962840
  C    -12.488580   -7.429350    6.603290
  C    -12.442400   -6.972400    5.274930
  N    -12.365060   -6.548730    4.209500
  C    -12.604690   -6.384130    7.539720
  N    -12.757450   -5.512760    8.272670
  C    -12.774930   -9.869030    6.052250
  C    -13.232810  -10.973200    6.813730
  C    -13.210910  -10.614420    8.250470
  O    -13.570610  -11.294650    9.186960
  C    -13.604140  -12.161190    6.235060
  C    -13.505630  -12.268130    4.842590
  C    -13.036490  -11.163400    4.094880
  C    -12.672350   -9.955310    4.678660
  S    -12.983150  -11.518660    2.394320
  C    -13.587550  -13.124190    2.707030
  C    -13.817060  -13.382920    4.015670
  Br   -13.853800  -14.307130    1.275160
  H     -2.727660   -2.486380    0.680590
  H      0.799640   -0.650770    3.730230
  H     -0.968600   -4.643140    0.358200
  H     -2.881870    3.310230    2.925840
  H     -6.922110    4.602970   -0.012490
  H     -8.750250    2.837080    0.117890
  H     -8.791490    2.050390    1.701600
  H     -8.123420    1.194310    0.310150
  H     -6.985390    0.238300    2.251920
  H     -5.023190    1.268880    4.362360
  H     -6.825110   -1.227510    4.211840
  H     -4.773510   -0.215220    6.243190
  H     -6.679300   -2.634030    6.173950
  H     -4.435310   -0.582300    8.437220
  H     -3.267950   -1.788520    7.908810
  H     -4.091690   -1.980050    9.455210
  H     -6.341530   -3.372180    9.340390
  H     -4.828230   -4.162170    8.877510
  H     -6.161620   -4.696580    6.724190
  H     -7.959020   -5.958410    7.317020
  H     -7.569020   -4.889980   10.175370
  H    -12.010770   -7.836470   12.798050
  H    -12.522840   -9.284570   10.380790
  H    -13.960240  -12.984200    6.834560
  H    -12.318330   -9.138250    4.071680
  H    -14.189430  -14.320690    4.385760

 Total Charge           Charge          ....    0
 Multiplicity           Mult            ....    1
 Number of Electrons    NEL             ....  538
 Basis Dimension        Dim             .... 1120

ORBITAL ENERGIES
----------------

  NO   OCC          E(Eh)            E(eV)
   0   2.0000    -482.889503    -13140.0914
   1   2.0000    -482.880492    -13139.8462
   2   2.0000     -88.979395     -2421.2524
   3   2.0000     -88.973897     -2421.1028
   4   2.0000     -88.968890     -2420.9666
   5   2.0000     -88.966282     -2420.8956
   6   2.0000     -62.567210     -1702.5404
   7   2.0000     -62.558216     -1702.2956
   8   2.0000     -56.401164     -1534.7537
   9   2.0000     -56.398443     -1534.6796
  10   2.0000     -56.398414     -1534.6789
  11   2.0000     -56.392155     -1534.5086
  12   2.0000     -56.389462     -1534.4353
  13   2.0000     -56.389421     -1534.4342
  14   2.0000     -19.314687      -525.5793
  15   2.0000     -19.217652      -522.9389
  16   2.0000     -19.200429      -522.4702
  17   2.0000     -14.469050      -393.7229
  18   2.0000     -14.427310      -392.5871
  19   2.0000     -14.417963      -392.3327
  20   2.0000     -14.416976      -392.3058
  21   2.0000     -14.405842      -392.0029
  22   2.0000     -14.400761      -391.8646
  23   2.0000     -10.384984      -282.5898
  24   2.0000     -10.367222      -282.1065
  25   2.0000     -10.362654      -281.9821
  26   2.0000     -10.352693      -281.7111
  27   2.0000     -10.351882      -281.6890
  28   2.0000     -10.350145      -281.6418
  29   2.0000     -10.346242      -281.5356
  30   2.0000     -10.343805      -281.4693
  31   2.0000     -10.342835      -281.4428
  32   2.0000     -10.340428      -281.3774
  33   2.0000     -10.333971      -281.2016
  34   2.0000     -10.329583      -281.0822
  35   2.0000     -10.328835      -281.0619
  36   2.0000     -10.327223      -281.0180
  37   2.0000     -10.326395      -280.9955
  38   2.0000     -10.324795      -280.9520
  39   2.0000     -10.320977      -280.8481
  40   2.0000     -10.320104      -280.8243
  41   2.0000     -10.317673      -280.7582
  42   2.0000     -10.314906      -280.6829
  43   2.0000     -10.312351      -280.6133
  44   2.0000     -10.312123      -280.6071
  45   2.0000     -10.311788      -280.5980
  46   2.0000     -10.310998      -280.5765
  47   2.0000     -10.310518      -280.5635
  48   2.0000     -10.309867      -280.5458
  49   2.0000     -10.309195      -280.5275
  50   2.0000     -10.308048      -280.4962
  51   2.0000     -10.307916      -280.4927
  52   2.0000     -10.304214      -280.3919
  53   2.0000     -10.303768      -280.3798
  54   2.0000     -10.300547      -280.2921
  55   2.0000     -10.299597      -280.2663
  56   2.0000     -10.299234      -280.2564
  57   2.0000     -10.298890      -280.2470
  58   2.0000     -10.298800      -280.2446
  59   2.0000     -10.297989      -280.2225
  60   2.0000     -10.296841      -280.1913
  61   2.0000     -10.295379      -280.1515
  62   2.0000     -10.292181      -280.0645
  63   2.0000     -10.290639      -280.0225
  64   2.0000     -10.290362      -280.0150
  65   2.0000     -10.285795      -279.8907
  66   2.0000     -10.283680      -279.8332
  67   2.0000     -10.283501      -279.8283
  68   2.0000     -10.282676      -279.8058
  69   2.0000     -10.282170      -279.7921
  70   2.0000     -10.280721      -279.7526
  71   2.0000     -10.280684      -279.7516
  72   2.0000     -10.279962      -279.7320
  73   2.0000     -10.278537      -279.6932
  74   2.0000     -10.276725      -279.6439
  75   2.0000      -8.796629      -239.3684
  76   2.0000      -8.787644      -239.1240
  77   2.0000      -8.075334      -219.7410
  78   2.0000      -8.068203      -219.5470
  79   2.0000      -8.064901      -219.4571
  80   2.0000      -8.062399      -219.3890
  81   2.0000      -6.632941      -180.4915
  82   2.0000      -6.623896      -180.2454
  83   2.0000      -6.618370      -180.0950
  84   2.0000      -6.618144      -180.0888
  85   2.0000      -6.609380      -179.8504
  86   2.0000      -6.609238      -179.8465
  87   2.0000      -6.045019      -164.4933
  88   2.0000      -6.040750      -164.3772
  89   2.0000      -6.037742      -164.2953
  90   2.0000      -6.036579      -164.2637
  91   2.0000      -6.034570      -164.2090
  92   2.0000      -6.033620      -164.1831
  93   2.0000      -6.031669      -164.1301
  94   2.0000      -6.030357      -164.0944
  95   2.0000      -6.029906      -164.0821
  96   2.0000      -6.027436      -164.0149
  97   2.0000      -6.026120      -163.9791
  98   2.0000      -6.024574      -163.9370
  99   2.0000      -2.748799       -74.7986
 100   2.0000      -2.744693       -74.6869
 101   2.0000      -2.744597       -74.6843
 102   2.0000      -2.739786       -74.5534
 103   2.0000      -2.735702       -74.4422
 104   2.0000      -2.735566       -74.4385
 105   2.0000      -2.732986       -74.3683
 106   2.0000      -2.732964       -74.3677
 107   2.0000      -2.724047       -74.1251
 108   2.0000      -2.724027       -74.1245
 109   2.0000      -1.232886       -33.5485
 110   2.0000      -1.131872       -30.7998
 111   2.0000      -1.115266       -30.3479
 112   2.0000      -1.066632       -29.0245
 113   2.0000      -1.026040       -27.9200
 114   2.0000      -1.016092       -27.6493
 115   2.0000      -1.014404       -27.6033
 116   2.0000      -1.008610       -27.4457
 117   2.0000      -1.005329       -27.3564
 118   2.0000      -0.999936       -27.2096
 119   2.0000      -0.998783       -27.1783
 120   2.0000      -0.996245       -27.1092
 121   2.0000      -0.991398       -26.9773
 122   2.0000      -0.982077       -26.7237
 123   2.0000      -0.978605       -26.6292
 124   2.0000      -0.946057       -25.7435
 125   2.0000      -0.938813       -25.5464
 126   2.0000      -0.934093       -25.4180
 127   2.0000      -0.929797       -25.3011
 128   2.0000      -0.913344       -24.8534
 129   2.0000      -0.911341       -24.7989
 130   2.0000      -0.907306       -24.6890
 131   2.0000      -0.900711       -24.5096
 132   2.0000      -0.897650       -24.4263
 133   2.0000      -0.889103       -24.1937
 134   2.0000      -0.884475       -24.0678
 135   2.0000      -0.878111       -23.8946
 136   2.0000      -0.877245       -23.8711
 137   2.0000      -0.872660       -23.7463
 138   2.0000      -0.867093       -23.5948
 139   2.0000      -0.850425       -23.1412
 140   2.0000      -0.845030       -22.9944
 141   2.0000      -0.832416       -22.6512
 142   2.0000      -0.823379       -22.4053
 143   2.0000      -0.820689       -22.3321
 144   2.0000      -0.812577       -22.1113
 145   2.0000      -0.794533       -21.6203
 146   2.0000      -0.791763       -21.5450
 147   2.0000      -0.773001       -21.0344
 148   2.0000      -0.768965       -20.9246
 149   2.0000      -0.762654       -20.7529
 150   2.0000      -0.754052       -20.5188
 151   2.0000      -0.753500       -20.5038
 152   2.0000      -0.744998       -20.2724
 153   2.0000      -0.717115       -19.5137
 154   2.0000      -0.716586       -19.4993
 155   2.0000      -0.704768       -19.1777
 156   2.0000      -0.702520       -19.1165
 157   2.0000      -0.694822       -18.9071
 158   2.0000      -0.691746       -18.8234
 159   2.0000      -0.681764       -18.5517
 160   2.0000      -0.678476       -18.4623
 161   2.0000      -0.669699       -18.2234
 162   2.0000      -0.661684       -18.0053
 163   2.0000      -0.660894       -17.9838
 164   2.0000      -0.658206       -17.9107
 165   2.0000      -0.652678       -17.7603
 166   2.0000      -0.646604       -17.5950
 167   2.0000      -0.644722       -17.5438
 168   2.0000      -0.631300       -17.1785
 169   2.0000      -0.626137       -17.0381
 170   2.0000      -0.621289       -16.9061
 171   2.0000      -0.614855       -16.7311
 172   2.0000      -0.613455       -16.6930
 173   2.0000      -0.601334       -16.3631
 174   2.0000      -0.600186       -16.3319
 175   2.0000      -0.595921       -16.2158
 176   2.0000      -0.590401       -16.0656
 177   2.0000      -0.587447       -15.9853
 178   2.0000      -0.584688       -15.9102
 179   2.0000      -0.583172       -15.8689
 180   2.0000      -0.575472       -15.6594
 181   2.0000      -0.567351       -15.4384
 182   2.0000      -0.563260       -15.3271
 183   2.0000      -0.556946       -15.1553
 184   2.0000      -0.553949       -15.0737
 185   2.0000      -0.546145       -14.8614
 186   2.0000      -0.544968       -14.8293
 187   2.0000      -0.542773       -14.7696
 188   2.0000      -0.539737       -14.6870
 189   2.0000      -0.536453       -14.5976
 190   2.0000      -0.535511       -14.5720
 191   2.0000      -0.528761       -14.3883
 192   2.0000      -0.527461       -14.3529
 193   2.0000      -0.525225       -14.2921
 194   2.0000      -0.519551       -14.1377
 195   2.0000      -0.517854       -14.0915
 196   2.0000      -0.517560       -14.0835
 197   2.0000      -0.514935       -14.0121
 198   2.0000      -0.514488       -13.9999
 199   2.0000      -0.512221       -13.9382
 200   2.0000      -0.510185       -13.8828
 201   2.0000      -0.506721       -13.7886
 202   2.0000      -0.503057       -13.6889
 203   2.0000      -0.500239       -13.6122
 204   2.0000      -0.497896       -13.5484
 205   2.0000      -0.496911       -13.5216
 206   2.0000      -0.496200       -13.5023
 207   2.0000      -0.494759       -13.4631
 208   2.0000      -0.490539       -13.3482
 209   2.0000      -0.487889       -13.2761
 210   2.0000      -0.484493       -13.1837
 211   2.0000      -0.478060       -13.0087
 212   2.0000      -0.477465       -12.9925
 213   2.0000      -0.473559       -12.8862
 214   2.0000      -0.467789       -12.7292
 215   2.0000      -0.466929       -12.7058
 216   2.0000      -0.465102       -12.6561
 217   2.0000      -0.463338       -12.6081
 218   2.0000      -0.461358       -12.5542
 219   2.0000      -0.458079       -12.4650
 220   2.0000      -0.456489       -12.4217
 221   2.0000      -0.453426       -12.3384
 222   2.0000      -0.452680       -12.3181
 223   2.0000      -0.451998       -12.2995
 224   2.0000      -0.450881       -12.2691
 225   2.0000      -0.449909       -12.2426
 226   2.0000      -0.447152       -12.1676
 227   2.0000      -0.446399       -12.1471
 228   2.0000      -0.445317       -12.1177
 229   2.0000      -0.441806       -12.0222
 230   2.0000      -0.439585       -11.9617
 231   2.0000      -0.438116       -11.9217
 232   2.0000      -0.434365       -11.8197
 233   2.0000      -0.433755       -11.8031
 234   2.0000      -0.431750       -11.7485
 235   2.0000      -0.430370       -11.7110
 236   2.0000      -0.430188       -11.7060
 237   2.0000      -0.428736       -11.6665
 238   2.0000      -0.427171       -11.6239
 239   2.0000      -0.425173       -11.5695
 240   2.0000      -0.424657       -11.5555
 241   2.0000      -0.416816       -11.3421
 242   2.0000      -0.415298       -11.3008
 243   2.0000      -0.412679       -11.2296
 244   2.0000      -0.411699       -11.2029
 245   2.0000      -0.405322       -11.0294
 246   2.0000      -0.399425       -10.8689
 247   2.0000      -0.396470       -10.7885
 248   2.0000      -0.392008       -10.6671
 249   2.0000      -0.380590       -10.3564
 250   2.0000      -0.379829       -10.3357
 251   2.0000      -0.378665       -10.3040
 252   2.0000      -0.376087       -10.2338
 253   2.0000      -0.370123       -10.0716
 254   2.0000      -0.368109       -10.0168
 255   2.0000      -0.349580        -9.5126
 256   2.0000      -0.345711        -9.4073
 257   2.0000      -0.341388        -9.2896
 258   2.0000      -0.326495        -8.8844
 259   2.0000      -0.322035        -8.7630
 260   2.0000      -0.319048        -8.6817
 261   2.0000      -0.317781        -8.6472
 262   2.0000      -0.309043        -8.4095
 263   2.0000      -0.306924        -8.3518
 264   2.0000      -0.299070        -8.1381
 265   2.0000      -0.290515        -7.9053
 266   2.0000      -0.286015        -7.7829
 267   2.0000      -0.261392        -7.1129
 268   2.0000      -0.245052        -6.6682
 269   0.0000      -0.094280        -2.5655
 270   0.0000      -0.094069        -2.5598
 271   0.0000      -0.066770        -1.8169
 272   0.0000      -0.052818        -1.4373
 273   0.0000      -0.029496        -0.8026

MULLIKEN ATOMIC CHARGES
-----------------------
   0 C :    0.289833
   1 C :   -0.345671
   2 C :   -0.186687
   3 N :    0.149008
   4 C :   -0.214387
   5 N :    0.166655
   6 C :    0.022112
   7 C :   -0.014055
   8 C :   -0.080346
   9 C :    0.121461
  10 C :   -0.091611
  11 C :   -0.028663
  12 S :    0.184508
  13 C :   -0.123223
  14 C :    0.034148
  15 Br:    0.023486
  16 C :    0.163536
  17 O :   -0.145852
  18 C :   -0.121820
  19 C :    0.016069
  20 C :   -0.193567
  21 S :    0.139946
  22 C :   -0.105689
  23 C :   -0.097435
  24 C :    0.116586
  25 C :    0.186214
  26 C :   -0.017179
  27 C :    0.026775
  28 C :    0.009346
  29 C :    0.008405
  30 C :    0.006405
  31 C :   -0.248238
  32 C :    0.082429
  33 C :    0.234292
  34 N :   -0.139243
  35 C :    0.086505
  36 C :   -0.075624
  37 C :   -0.113794
  38 S :    0.130917
  39 C :   -0.152682
  40 C :    0.176154
  41 C :    0.179195
  42 O :   -0.196424
  43 C :   -0.001663
  44 C :   -0.116259
  45 N :    0.166734
  46 C :   -0.024234
  47 C :    0.030094
  48 C :   -0.159725
  49 C :    0.258876
  50 C :   -0.341672
  51 C :   -0.174977
  52 N :    0.132698
  53 C :   -0.216894
  54 N :    0.161276
  55 C :    0.005276
  56 C :    0.000393
  57 C :    0.139085
  58 O :   -0.156293
  59 C :   -0.076413
  60 C :    0.110120
  61 C :   -0.087825
  62 C :   -0.026489
  63 S :    0.175422
  64 C :   -0.126204
  65 C :    0.041220
  66 Br:    0.015700
  67 H :   -0.012930
  68 H :   -0.005042
  69 H :   -0.002976
  70 H :    0.031920
  71 H :    0.027475
  72 H :    0.011957
  73 H :    0.035851
  74 H :    0.039511
  75 H :   -0.013039
  76 H :    0.007634
  77 H :   -0.013393
  78 H :   -0.011407
  79 H :   -0.032364
  80 H :    0.045612
  81 H :    0.042499
  82 H :    0.015179
  83 H :    0.052649
  84 H :    0.028543
  85 H :    0.138168
  86 H :    0.026673
  87 H :   -0.000604
  88 H :    0.011201
  89 H :    0.013383
  90 H :   -0.012432
  91 H :   -0.009160
  92 H :   -0.004952
Sum of atomic charges:   -0.0000000

LOEWDIN ATOMIC CHARGES
----------------------
   0 C :    0.075734
   1 C :   -0.147626
   2 C :   -0.020245
   3 N :   -0.056510
   4 C :   -0.029171
   5 N :   -0.053994
   6 C :   -0.022125
   7 C :   -0.046351
   8 C :    0.018122
   9 C :   -0.033464
  10 C :   -0.146236
  11 C :   -0.011287
  12 S :    0.431123
  13 C :   -0.272296
  14 C :   -0.071460
  15 Br:    0.136359
  16 C :    0.082014
  17 O :   -0.131916
  18 C :   -0.103117
  19 C :    0.052309
  20 C :   -0.185186
  21 S :    0.449967
  22 C :   -0.166046
  23 C :   -0.055747
  24 C :   -0.043246
  25 C :   -0.010169
  26 C :   -0.011972
  27 C :   -0.009407
  28 C :   -0.018654
  29 C :   -0.021440
  30 C :   -0.057792
  31 C :   -0.033987
  32 C :   -0.047733
  33 C :    0.044535
  34 N :    0.026969
  35 C :    0.070505
  36 C :   -0.147568
  37 C :   -0.125290
  38 S :    0.468348
  39 C :   -0.197697
  40 C :   -0.031427
  41 C :   -0.006476
  42 O :    0.005971
  43 C :    0.021645
  44 C :   -0.040061
  45 N :   -0.017696
  46 C :   -0.011093
  47 C :    0.048709
  48 C :   -0.126382
  49 C :    0.061752
  50 C :   -0.165722
  51 C :   -0.020905
  52 N :   -0.071071
  53 C :   -0.039321
  54 N :   -0.062776
  55 C :   -0.015939
  56 C :   -0.050260
  57 C :    0.079984
  58 O :   -0.158518
  59 C :    0.018990
  60 C :   -0.036950
  61 C :   -0.145510
  62 C :   -0.017865
  63 S :    0.424641
  64 C :   -0.275444
  65 C :   -0.069894
  66 Br:    0.130222
  67 H :    0.039844
  68 H :    0.040826
  69 H :    0.038635
  70 H :    0.045378
  71 H :    0.026839
  72 H :    0.034606
  73 H :    0.039405
  74 H :    0.039473
  75 H :    0.030712
  76 H :    0.030816
  77 H :    0.027777
  78 H :    0.027071
  79 H :    0.019796
  80 H :    0.040528
  81 H :    0.044002
  82 H :    0.031311
  83 H :    0.044190
  84 H :    0.030236
  85 H :    0.084950
  86 H :    0.030722
  87 H :    0.034380
  88 H :    0.045714
  89 H :    0.048954
  90 H :    0.040025
  91 H :    0.038936
  92 H :    0.038015

  Mayer bond orders larger than 0.100000
B(  0-C ,  1-C ) :   1.6395 B(  0-C ,  6-C ) :   1.0054 B(  0-C , 18-C ) :   1.0656
B(  1-C ,  2-C ) :   1.1374 B(  1-C ,  4-C ) :   1.1459 B(  2-C ,  3-N ) :   2.9793
B(  4-C ,  5-N ) :   3.0023 B(  6-C ,  7-C ) :   1.2732 B(  6-C , 11-C ) :   1.4116
B(  7-C ,  8-C ) :   1.4297 B(  7-C , 16-C ) :   0.9390 B(  8-C ,  9-C ) :   1.2400
B(  8-C , 67-H ) :   1.0180 B(  9-C , 10-C ) :   1.3101 B(  9-C , 14-C ) :   1.1624
B( 10-C , 11-C ) :   1.3240 B( 10-C , 12-S ) :   1.0839 B( 11-C , 68-H ) :   0.9828
B( 12-S , 13-C ) :   1.0867 B( 13-C , 14-C ) :   1.6175 B( 13-C , 15-Br) :   1.0185
B( 14-C , 69-H ) :   1.0008 B( 16-C , 17-O ) :   2.1986 B( 16-C , 18-C ) :   0.9594
B( 18-C , 19-C ) :   1.5852 B( 19-C , 20-C ) :   1.1891 B( 19-C , 70-H ) :   0.9384
B( 20-C , 21-S ) :   1.1063 B( 20-C , 25-C ) :   1.4064 B( 21-S , 22-C ) :   1.1743
B( 22-C , 23-C ) :   1.5583 B( 22-C , 71-H ) :   0.9658 B( 23-C , 24-C ) :   1.0964
B( 23-C , 25-C ) :   1.2630 B( 24-C , 72-H ) :   0.9496 B( 24-C , 73-H ) :   0.9421
B( 24-C , 74-H ) :   0.9439 B( 25-C , 26-C ) :   1.0793 B( 26-C , 27-C ) :   1.7029
B( 26-C , 75-H ) :   0.9548 B( 27-C , 28-C ) :   1.1211 B( 27-C , 76-H ) :   0.9732
B( 28-C , 29-C ) :   1.6755 B( 28-C , 77-H ) :   0.9932 B( 29-C , 30-C ) :   1.0917
B( 29-C , 78-H ) :   0.9767 B( 30-C , 31-C ) :   1.7783 B( 30-C , 79-H ) :   0.9663
B( 31-C , 32-C ) :   1.0769 B( 31-C , 33-C ) :   1.0154 B( 32-C , 80-H ) :   0.9499
B( 32-C , 81-H ) :   0.9460 B( 32-C , 82-H ) :   0.9550 B( 33-C , 34-N ) :   0.9922
B( 33-C , 83-H ) :   0.9142 B( 33-C , 84-H ) :   0.9327 B( 34-N , 35-C ) :   1.2998
B( 34-N , 85-H ) :   0.9269 B( 35-C , 36-C ) :   1.5298 B( 35-C , 86-H ) :   0.9636
B( 36-C , 37-C ) :   1.2332 B( 36-C , 87-H ) :   0.9668 B( 37-C , 38-S ) :   1.1403
B( 37-C , 41-C ) :   1.3805 B( 38-S , 39-C ) :   1.0531 B( 39-C , 40-C ) :   1.2628
B( 39-C , 47-C ) :   1.2958 B( 40-C , 41-C ) :   1.2615 B( 40-C , 46-C ) :   1.1531
B( 41-C , 42-O ) :   1.1149 B( 42-O , 43-C ) :   1.1479 B( 43-C , 44-C ) :   1.0704
B( 43-C , 46-C ) :   1.5901 B( 44-C , 45-N ) :   3.0440 B( 46-C , 88-H ) :   1.0101
B( 47-C , 48-C ) :   1.5083 B( 47-C , 89-H ) :   0.9425 B( 48-C , 49-C ) :   1.0891
B( 48-C , 57-C ) :   0.9678 B( 49-C , 50-C ) :   1.6011 B( 49-C , 55-C ) :   1.0107
B( 50-C , 51-C ) :   1.1392 B( 50-C , 53-C ) :   1.1571 B( 51-C , 52-N ) :   2.9807
B( 53-C , 54-N ) :   3.0263 B( 55-C , 56-C ) :   1.2803 B( 55-C , 62-C ) :   1.4256
B( 56-C , 57-C ) :   0.9157 B( 56-C , 59-C ) :   1.4334 B( 57-C , 58-O ) :   2.2552
B( 59-C , 60-C ) :   1.2450 B( 59-C , 90-H ) :   1.0157 B( 60-C , 61-C ) :   1.3203
B( 60-C , 65-C ) :   1.1620 B( 61-C , 62-C ) :   1.3150 B( 61-C , 63-S ) :   1.0803
B( 62-C , 91-H ) :   0.9836 B( 63-S , 64-C ) :   1.0854 B( 64-C , 65-C ) :   1.6220
B( 64-C , 66-Br) :   1.0142 B( 65-C , 92-H ) :   0.9995

-----------------------------------------------------------------------------
         ABSORPTION SPECTRUM VIA TRANSITION ELECTRIC DIPOLE MOMENTS
-----------------------------------------------------------------------------
State   Energy  Wavelength   fosc         T2         TX        TY        TZ
        (cm-1)    (nm)                  (au**2)     (au)      (au)      (au)
-----------------------------------------------------------------------------
   0   16123.2    620.2   0.651526318  13.30321  -2.77411  -1.91371  -1.39471
   1   18358.5    544.7   0.192449380   3.45108   1.56195   0.14519  -0.99515
   2   23662.3    422.6   0.025879776   0.36006   0.56534  -0.19980   0.02322
   3   23743.5    421.2   0.051275275   0.71095   0.56121   0.05306  -0.62704
   4   24206.6    413.1   0.089046938   1.21104  -0.48627  -0.75954   0.63061
   5   24472.2    408.6   0.308510859   4.15023  -1.17153   0.93429  -1.38017
   6   25533.2    391.6   0.006610444   0.08523  -0.07545  -0.17311   0.22265
   7   26696.4    374.6   0.365353820   4.50544   0.79091   1.94469   0.31318
   8   27724.6    360.7   0.211930900   2.51654  -1.13897   1.09272   0.15894
   9   28279.8    353.6   0.142551346   1.65947  -0.05919  -0.93137  -0.88799
  10   28936.9    345.6   0.078872522   0.89732  -0.22851   0.11087   0.91259
  11   29491.6    339.1   0.008392329   0.09368  -0.17229   0.24387  -0.06727
  12   29969.0    333.7   0.009888906   0.10863  -0.03131   0.31855   0.07858
  13   30034.0    333.0   0.070613057   0.77401   0.58722  -0.64267  -0.12709
  14   30298.5    330.0   0.339456008   3.68841  -0.19431   0.07306  -1.90927
  15   30329.2    329.7   0.242017313   2.62701   0.48312  -1.28773  -0.85753
  16   31022.0    322.4   0.009346274   0.09918  -0.30865   0.02515   0.05734
  17   31389.4    318.6   0.265496653   2.78453   0.40596   0.59080  -1.50687
  18   32338.0    309.2   0.165895211   1.68887   0.11492   0.93371   0.89657
  19   32976.7    303.2   0.350900744   3.50310  -0.24547   1.29882   1.32510
  20   33169.9    301.5   0.033848485   0.33595   0.08656   0.13907   0.55598
  21   33422.6    299.2   0.613281256   6.04081  -0.46350  -2.25143  -0.87008
  22   33857.8    295.4   0.209169552   2.03383  -0.05372   1.36668  -0.40391
  23   34256.7    291.9   0.003680756   0.03537   0.01584  -0.16118   0.09562
  24   34728.0    288.0   0.067777473   0.64251  -0.23337   0.62341  -0.44656
  25   35067.5    285.2   0.712125711   6.68539   0.77075  -2.03917   1.39036
  26   35551.1    281.3   0.100161038   0.92752   0.29924  -0.82240   0.40204
  27   36497.2    274.0   0.005233478   0.04721   0.04965  -0.14322  -0.15566
  28   36592.3    273.3   0.128060409   1.15213  -0.99953   0.01681  -0.39089
  29   36671.9    272.7   0.001045139   0.00938  -0.02581  -0.07909  -0.04961
  30   37115.5    269.4   0.146406215   1.29861   0.51201  -0.62366  -0.80468
  31   37156.6    269.1   0.075886770   0.67237   0.32040   0.41631  -0.62960
  32   37926.7    263.7   0.024409654   0.21188   0.06111   0.18124  -0.41869
  33   38209.6    261.7   0.013893515   0.11971   0.08466  -0.23988   0.23451
  34   38819.4    257.6   0.028571309   0.24230   0.11720  -0.03481   0.47682
  35   39277.0    254.6   0.122154832   1.02388   0.06248   0.04090   1.00911
  36   39352.1    254.1   0.158436061   1.32544   0.29463  -0.02916  -1.11256
  37   39693.4    251.9   0.178154740   1.47759   0.30730   1.16885  -0.13024
  38   39783.6    251.4   0.002750627   0.02276  -0.06507  -0.12953  -0.04184
  39   39984.0    250.1   0.521610838   4.29474  -0.74827   0.62167  -1.82985

FINAL SINGLE POINT ENERGY     -9288.169959287266

DIPOLE MOMENT
-------------
                                X             Y             Z
Electronic contribution:     15.74264    -145.89997     -84.36416
Nuclear contribution   :    -14.03260     145.11171      81.50585
                        -----------------------------------------
Total Dipole Moment    :      1.71004      -0.78826      -2.85831
                        -----------------------------------------
Magnitude (a.u.)       :      3.42280
Magnitude (Debye)      :      8.70006

Rotational constants in cm-1:     0.000745     0.000275     0.000247
Rotational constants in MHz :    22.338457     8.234069     7.398611

                             ****ORCA TERMINATED NORMALLY****
TOTAL RUN TIME: 0 days 0 hours 12 minutes 11 seconds 239 msec
