                         Program Version 4.2.0 -  RELEASE  -
|  1> # ORCA input file
|  2> # SCF done       -175.994160672869          0.000360512895
|  3> ! CAM-B3LYP def2-SVP def2/J RIJCOSX Grid4 TightSCF
|  4> %maxcore 5000
|  5> %tddft
|  6>     Mode sTDDFT
|  7>     Ethresh 5.0
|  8>     maxcore 5000
|  9> end
| 10>
| 11> %pal
| 12>   nprocs 6
| 13>   end
| 14> * xyz 0 1
| 15>    C       -4.63149         0.52105         0.72348
| 16>    C       -3.48194         0.44848         1.46829
| 17>    C       -3.13980         1.36554         2.48109
| 18>    N       -2.81970         2.08429         3.31744
| 19>    C       -2.55592        -0.61004         1.36707
| 20>    N       -1.79835        -1.47310         1.36379
| 21>    C       -5.71874         1.47282         0.90964
| 22>    C       -6.82609         1.04094         0.13944
| 23>    C       -8.01504         1.72687         0.11010
| 24>    C       -8.11399         2.89514         0.87462
| 25>    C       -6.99967         3.32045         1.63542
| 26>    C       -5.79671         2.62470         1.66794
| 27>    S       -7.33690         4.79249         2.49517
| 28>    C       -8.94940         4.81467         1.83235
| 29>    C       -9.22290         3.77501         1.00905
| 30>   Br      -10.11943         6.20743         2.29025
| 31>    C       -6.47072        -0.19787        -0.58649
| 32>    O       -7.19716        -0.83352        -1.32158
| 33>    C       -5.04434        -0.43282        -0.28008
| 34>    C       -4.21227        -1.25839        -0.98878
| 35>    C       -4.60303        -2.26764        -1.89584
| 36>    S       -3.64133        -2.50637        -3.33703
| 37>    C       -4.77407        -3.64260        -3.93678
| 38>    C       -5.80861        -3.88314        -3.08353
| 39>    C       -6.91021        -4.85064        -3.35561
| 40>    C       -5.70479        -3.12340        -1.88452
| 41>    C       -6.55869        -3.32263        -0.74484
| 42>    C       -6.12529        -3.24293         0.53016
| 43>    C       -6.95686        -3.38323         1.67689
| 44>    C       -6.48372        -3.27092         2.93809
| 45>    C       -7.30846        -3.33704         4.10460
| 46>    C       -6.88922        -3.19041         5.37347
| 47>    C       -5.45755        -2.97522         5.76156
| 48>    C       -7.86548        -3.27512         6.52197
| 49>    N       -7.58815        -4.37389         7.41983
| 50>    C       -8.03235        -5.63995         7.16462
| 51>    C       -7.57468        -6.74108         7.77856
| 52>    C       -8.12905        -8.07244         7.57628
| 53>    C       -8.16798        -9.01756         8.61346
| 54>    C       -7.65979        -8.63995         9.98080
| 55>    C       -6.18026        -9.00473        10.13816
| 56>    C       -8.69503       -10.30121         8.36766
| 57>    C       -9.18302       -10.61308         7.09126
| 58>    C       -9.14929        -9.67975         6.07942
| 59>    C       -8.62817        -8.42258         6.31913
| 60>    C       -8.70741       -11.30675         9.40110
| 61>    C       -9.44987       -12.44009         9.41633
| 62>    C       -9.46597       -13.37096        10.48638
| 63>    C       -8.56634       -13.60018        11.48734
| 64>    C       -7.18732       -13.22146        11.70549
| 65>    C       -6.23233       -12.98099        10.75014
| 66>    C       -4.88132       -12.70351        11.03786
| 67>    N       -3.77649       -12.44577        11.21526
| 68>    C       -6.47364       -13.04527         9.36361
| 69>    N       -6.60862       -13.10616         8.22549
| 70>    C       -6.90866       -13.39264        13.12966
| 71>    C       -7.99554       -14.07766        13.72674
| 72>    C       -9.03814       -14.31035        12.70637
| 73>    O      -10.08071       -14.91066        12.83910
| 74>    C       -8.01118       -14.41978        15.05683
| 75>    C       -6.90726       -14.05805        15.83649
| 76>    C       -5.83448       -13.35922        15.23402
| 77>    C       -5.81457       -13.02019        13.88652
| 78>    S       -4.58125       -12.99843        16.38256
| 79>    C       -5.50001       -13.78632        17.63796
| 80>    C       -6.68526       -14.29113        17.22185
| 81>   Br       -4.80852       -13.86313        19.38004
| 82>    H       -8.84386         1.37597        -0.48443
| 83>    H       -4.97063         2.98975         2.25567
| 84>    H      -10.16650         3.63371         0.51444
| 85>    H       -3.14550        -1.06597        -0.93897
| 86>    H       -4.61095        -4.08245        -4.90182
| 87>    H       -6.78350        -5.30718        -4.33355
| 88>    H       -7.87127        -4.33896        -3.32804
| 89>    H       -6.92060        -5.63459        -2.59951
| 90>    H       -7.58404        -3.59595        -0.95002
| 91>    H       -5.07584        -3.05052         0.71944
| 92>    H       -8.01238        -3.55519         1.50966
| 93>    H       -5.42388        -3.10818         3.07828
| 94>    H       -8.36425        -3.49782         3.92242
| 95>    H       -4.96707        -2.27362         5.09101
| 96>    H       -4.90476        -3.91482         5.72001
| 97>    H       -5.38825        -2.58199         6.77376
| 98>    H       -8.88464        -3.39395         6.14683
| 99>    H       -7.82034        -2.34685         7.10496
|100>    H       -6.71196        -4.31399         7.91887
|101>    H       -8.87325        -5.68564         6.48659
|102>    H       -6.75863        -6.63603         8.47833
|103>    H       -8.24688        -9.13305        10.75715
|104>    H       -7.78526        -7.56655        10.12894
|105>    H       -6.02057       -10.06834         9.97376
|106>    H       -5.82721        -8.75040        11.13551
|107>    H       -5.57542        -8.47012         9.40987
|108>    H       -9.55283       -11.60502         6.88988
|109>    H       -9.51430        -9.93443         5.09543
|110>    H       -8.57737        -7.70401         5.51498
|111>    H       -8.09880       -11.11171        10.27173
|112>    H      -10.16515       -12.62788         8.62857
|113>    H      -10.37772       -13.95433        10.58555
|114>    H       -8.84806       -14.94978        15.48372
|115>    H       -4.97781       -12.48190        13.47301
|116>    H       -7.37650       -14.80657        17.86330
|117> *
|118>
|119>                          ****END OF INPUT****

CARTESIAN COORDINATES (ANGSTROEM)
---------------------------------
  C     -4.631490    0.521050    0.723480
  C     -3.481940    0.448480    1.468290
  C     -3.139800    1.365540    2.481090
  N     -2.819700    2.084290    3.317440
  C     -2.555920   -0.610040    1.367070
  N     -1.798350   -1.473100    1.363790
  C     -5.718740    1.472820    0.909640
  C     -6.826090    1.040940    0.139440
  C     -8.015040    1.726870    0.110100
  C     -8.113990    2.895140    0.874620
  C     -6.999670    3.320450    1.635420
  C     -5.796710    2.624700    1.667940
  S     -7.336900    4.792490    2.495170
  C     -8.949400    4.814670    1.832350
  C     -9.222900    3.775010    1.009050
  Br   -10.119430    6.207430    2.290250
  C     -6.470720   -0.197870   -0.586490
  O     -7.197160   -0.833520   -1.321580
  C     -5.044340   -0.432820   -0.280080
  C     -4.212270   -1.258390   -0.988780
  C     -4.603030   -2.267640   -1.895840
  S     -3.641330   -2.506370   -3.337030
  C     -4.774070   -3.642600   -3.936780
  C     -5.808610   -3.883140   -3.083530
  C     -6.910210   -4.850640   -3.355610
  C     -5.704790   -3.123400   -1.884520
  C     -6.558690   -3.322630   -0.744840
  C     -6.125290   -3.242930    0.530160
  C     -6.956860   -3.383230    1.676890
  C     -6.483720   -3.270920    2.938090
  C     -7.308460   -3.337040    4.104600
  C     -6.889220   -3.190410    5.373470
  C     -5.457550   -2.975220    5.761560
  C     -7.865480   -3.275120    6.521970
  N     -7.588150   -4.373890    7.419830
  C     -8.032350   -5.639950    7.164620
  C     -7.574680   -6.741080    7.778560
  C     -8.129050   -8.072440    7.576280
  C     -8.167980   -9.017560    8.613460
  C     -7.659790   -8.639950    9.980800
  C     -6.180260   -9.004730   10.138160
  C     -8.695030  -10.301210    8.367660
  C     -9.183020  -10.613080    7.091260
  C     -9.149290   -9.679750    6.079420
  C     -8.628170   -8.422580    6.319130
  C     -8.707410  -11.306750    9.401100
  C     -9.449870  -12.440090    9.416330
  C     -9.465970  -13.370960   10.486380
  C     -8.566340  -13.600180   11.487340
  C     -7.187320  -13.221460   11.705490
  C     -6.232330  -12.980990   10.750140
  C     -4.881320  -12.703510   11.037860
  N     -3.776490  -12.445770   11.215260
  C     -6.473640  -13.045270    9.363610
  N     -6.608620  -13.106160    8.225490
  C     -6.908660  -13.392640   13.129660
  C     -7.995540  -14.077660   13.726740
  C     -9.038140  -14.310350   12.706370
  O    -10.080710  -14.910660   12.839100
  C     -8.011180  -14.419780   15.056830
  C     -6.907260  -14.058050   15.836490
  C     -5.834480  -13.359220   15.234020
  C     -5.814570  -13.020190   13.886520
  S     -4.581250  -12.998430   16.382560
  C     -5.500010  -13.786320   17.637960
  C     -6.685260  -14.291130   17.221850
  Br    -4.808520  -13.863130   19.380040
  H     -8.843860    1.375970   -0.484430
  H     -4.970630    2.989750    2.255670
  H    -10.166500    3.633710    0.514440
  H     -3.145500   -1.065970   -0.938970
  H     -4.610950   -4.082450   -4.901820
  H     -6.783500   -5.307180   -4.333550
  H     -7.871270   -4.338960   -3.328040
  H     -6.920600   -5.634590   -2.599510
  H     -7.584040   -3.595950   -0.950020
  H     -5.075840   -3.050520    0.719440
  H     -8.012380   -3.555190    1.509660
  H     -5.423880   -3.108180    3.078280
  H     -8.364250   -3.497820    3.922420
  H     -4.967070   -2.273620    5.091010
  H     -4.904760   -3.914820    5.720010
  H     -5.388250   -2.581990    6.773760
  H     -8.884640   -3.393950    6.146830
  H     -7.820340   -2.346850    7.104960
  H     -6.711960   -4.313990    7.918870
  H     -8.873250   -5.685640    6.486590
  H     -6.758630   -6.636030    8.478330
  H     -8.246880   -9.133050   10.757150
  H     -7.785260   -7.566550   10.128940
  H     -6.020570  -10.068340    9.973760
  H     -5.827210   -8.750400   11.135510
  H     -5.575420   -8.470120    9.409870
  H     -9.552830  -11.605020    6.889880
  H     -9.514300   -9.934430    5.095430
  H     -8.577370   -7.704010    5.514980
  H     -8.098800  -11.111710   10.271730
  H    -10.165150  -12.627880    8.628570
  H    -10.377720  -13.954330   10.585550
  H     -8.848060  -14.949780   15.483720
  H     -4.977810  -12.481900   13.473010
  H     -7.376500  -14.806570   17.863300

 Total Charge           Charge          ....    0
 Multiplicity           Mult            ....    1
 Number of Electrons    NEL             ....  534
 Basis Dimension        Dim             .... 1161

ORBITAL ENERGIES
----------------

  NO   OCC          E(Eh)            E(eV)
   0   2.0000    -482.886097    -13139.9987
   1   2.0000    -482.882513    -13139.9012
   2   2.0000     -88.975384     -2421.1433
   3   2.0000     -88.971960     -2421.0501
   4   2.0000     -88.962286     -2420.7869
   5   2.0000     -62.563820     -1702.4481
   6   2.0000     -62.560260     -1702.3512
   7   2.0000     -56.397769     -1534.6613
   8   2.0000     -56.395056     -1534.5875
   9   2.0000     -56.395022     -1534.5866
  10   2.0000     -56.394209     -1534.5644
  11   2.0000     -56.391497     -1534.4906
  12   2.0000     -56.391460     -1534.4896
  13   2.0000     -19.213428      -522.8240
  14   2.0000     -19.207114      -522.6521
  15   2.0000     -14.421964      -392.4416
  16   2.0000     -14.414094      -392.2274
  17   2.0000     -14.413038      -392.1987
  18   2.0000     -14.410348      -392.1255
  19   2.0000     -14.408679      -392.0801
  20   2.0000     -10.363103      -281.9944
  21   2.0000     -10.358814      -281.8776
  22   2.0000     -10.358154      -281.8597
  23   2.0000     -10.355135      -281.7775
  24   2.0000     -10.339241      -281.3451
  25   2.0000     -10.338401      -281.3222
  26   2.0000     -10.336504      -281.2706
  27   2.0000     -10.335478      -281.2427
  28   2.0000     -10.324807      -280.9523
  29   2.0000     -10.322595      -280.8921
  30   2.0000     -10.321734      -280.8687
  31   2.0000     -10.317216      -280.7457
  32   2.0000     -10.316387      -280.7232
  33   2.0000     -10.313396      -280.6418
  34   2.0000     -10.309376      -280.5324
  35   2.0000     -10.308589      -280.5110
  36   2.0000     -10.307125      -280.4711
  37   2.0000     -10.306967      -280.4668
  38   2.0000     -10.306703      -280.4597
  39   2.0000     -10.306342      -280.4498
  40   2.0000     -10.305206      -280.4189
  41   2.0000     -10.304516      -280.4001
  42   2.0000     -10.303761      -280.3796
  43   2.0000     -10.303228      -280.3651
  44   2.0000     -10.302102      -280.3344
  45   2.0000     -10.301300      -280.3126
  46   2.0000     -10.299718      -280.2696
  47   2.0000     -10.296817      -280.1906
  48   2.0000     -10.296785      -280.1898
  49   2.0000     -10.295043      -280.1424
  50   2.0000     -10.293545      -280.1016
  51   2.0000     -10.293179      -280.0916
  52   2.0000     -10.293132      -280.0904
  53   2.0000     -10.291308      -280.0407
  54   2.0000     -10.287401      -279.9344
  55   2.0000     -10.286803      -279.9181
  56   2.0000     -10.286713      -279.9157
  57   2.0000     -10.281404      -279.7712
  58   2.0000     -10.277219      -279.6574
  59   2.0000     -10.277215      -279.6572
  60   2.0000     -10.276660      -279.6421
  61   2.0000     -10.275553      -279.6120
  62   2.0000     -10.274280      -279.5774
  63   2.0000     -10.273971      -279.5690
  64   2.0000     -10.271499      -279.5017
  65   2.0000     -10.270791      -279.4824
  66   2.0000     -10.270256      -279.4679
  67   2.0000     -10.268540      -279.4212
  68   2.0000     -10.268433      -279.4183
  69   2.0000     -10.262328      -279.2522
  70   2.0000     -10.261236      -279.2224
  71   2.0000     -10.261080      -279.2182
  72   2.0000     -10.259770      -279.1825
  73   2.0000     -10.254626      -279.0426
  74   2.0000     -10.244163      -278.7579
  75   2.0000      -8.793253      -239.2766
  76   2.0000      -8.789707      -239.1801
  77   2.0000      -8.071417      -219.6344
  78   2.0000      -8.067946      -219.5400
  79   2.0000      -8.058376      -219.2796
  80   2.0000      -6.629559      -180.3995
  81   2.0000      -6.626015      -180.3030
  82   2.0000      -6.614984      -180.0029
  83   2.0000      -6.614787      -179.9975
  84   2.0000      -6.611431      -179.9062
  85   2.0000      -6.611252      -179.9013
  86   2.0000      -6.041113      -164.3870
  87   2.0000      -6.037643      -164.2926
  88   2.0000      -6.036833      -164.2706
  89   2.0000      -6.033375      -164.1765
  90   2.0000      -6.032622      -164.1560
  91   2.0000      -6.029155      -164.0617
  92   2.0000      -6.027663      -164.0211
  93   2.0000      -6.023439      -163.9061
  94   2.0000      -6.020506      -163.8263
  95   2.0000      -2.745390       -74.7059
  96   2.0000      -2.741838       -74.6092
  97   2.0000      -2.741338       -74.5956
  98   2.0000      -2.741223       -74.5925
  99   2.0000      -2.737814       -74.4997
 100   2.0000      -2.737669       -74.4957
 101   2.0000      -2.729618       -74.2767
 102   2.0000      -2.729600       -74.2762
 103   2.0000      -2.726082       -74.1804
 104   2.0000      -2.726054       -74.1797
 105   2.0000      -1.127674       -30.6856
 106   2.0000      -1.122270       -30.5385
 107   2.0000      -1.025224       -27.8978
 108   2.0000      -1.022030       -27.8109
 109   2.0000      -1.018186       -27.7063
 110   2.0000      -1.012155       -27.5421
 111   2.0000      -1.007961       -27.4280
 112   2.0000      -0.995942       -27.1010
 113   2.0000      -0.992354       -27.0033
 114   2.0000      -0.988116       -26.8880
 115   2.0000      -0.987346       -26.8670
 116   2.0000      -0.983758       -26.7694
 117   2.0000      -0.955355       -25.9965
 118   2.0000      -0.942154       -25.6373
 119   2.0000      -0.938477       -25.5372
 120   2.0000      -0.922607       -25.1054
 121   2.0000      -0.911560       -24.8048
 122   2.0000      -0.907608       -24.6973
 123   2.0000      -0.904733       -24.6190
 124   2.0000      -0.903619       -24.5887
 125   2.0000      -0.900554       -24.5053
 126   2.0000      -0.885137       -24.0858
 127   2.0000      -0.881885       -23.9973
 128   2.0000      -0.881505       -23.9870
 129   2.0000      -0.874808       -23.8047
 130   2.0000      -0.873252       -23.7624
 131   2.0000      -0.868320       -23.6282
 132   2.0000      -0.858880       -23.3713
 133   2.0000      -0.841555       -22.8999
 134   2.0000      -0.832262       -22.6470
 135   2.0000      -0.828356       -22.5407
 136   2.0000      -0.824665       -22.4403
 137   2.0000      -0.811276       -22.0759
 138   2.0000      -0.800072       -21.7711
 139   2.0000      -0.799751       -21.7623
 140   2.0000      -0.786950       -21.4140
 141   2.0000      -0.773152       -21.0385
 142   2.0000      -0.765452       -20.8290
 143   2.0000      -0.758537       -20.6408
 144   2.0000      -0.752704       -20.4821
 145   2.0000      -0.749916       -20.4063
 146   2.0000      -0.748156       -20.3584
 147   2.0000      -0.721146       -19.6234
 148   2.0000      -0.712189       -19.3796
 149   2.0000      -0.708323       -19.2745
 150   2.0000      -0.701759       -19.0958
 151   2.0000      -0.692961       -18.8564
 152   2.0000      -0.690296       -18.7839
 153   2.0000      -0.685714       -18.6592
 154   2.0000      -0.682143       -18.5620
 155   2.0000      -0.675578       -18.3834
 156   2.0000      -0.661516       -18.0008
 157   2.0000      -0.659443       -17.9444
 158   2.0000      -0.657431       -17.8896
 159   2.0000      -0.652054       -17.7433
 160   2.0000      -0.648733       -17.6529
 161   2.0000      -0.640217       -17.4212
 162   2.0000      -0.631703       -17.1895
 163   2.0000      -0.626937       -17.0598
 164   2.0000      -0.620988       -16.8979
 165   2.0000      -0.618220       -16.8226
 166   2.0000      -0.614660       -16.7257
 167   2.0000      -0.601046       -16.3553
 168   2.0000      -0.597125       -16.2486
 169   2.0000      -0.592226       -16.1153
 170   2.0000      -0.590149       -16.0588
 171   2.0000      -0.589156       -16.0318
 172   2.0000      -0.578794       -15.7498
 173   2.0000      -0.576694       -15.6926
 174   2.0000      -0.572746       -15.5852
 175   2.0000      -0.563661       -15.3380
 176   2.0000      -0.557132       -15.1603
 177   2.0000      -0.553437       -15.0598
 178   2.0000      -0.547043       -14.8858
 179   2.0000      -0.545478       -14.8432
 180   2.0000      -0.541899       -14.7458
 181   2.0000      -0.540423       -14.7057
 182   2.0000      -0.538928       -14.6650
 183   2.0000      -0.537541       -14.6272
 184   2.0000      -0.533653       -14.5214
 185   2.0000      -0.531359       -14.4590
 186   2.0000      -0.526444       -14.3253
 187   2.0000      -0.524900       -14.2833
 188   2.0000      -0.523761       -14.2523
 189   2.0000      -0.516888       -14.0652
 190   2.0000      -0.514484       -13.9998
 191   2.0000      -0.513466       -13.9721
 192   2.0000      -0.511092       -13.9075
 193   2.0000      -0.508362       -13.8332
 194   2.0000      -0.505770       -13.7627
 195   2.0000      -0.504904       -13.7391
 196   2.0000      -0.504240       -13.7211
 197   2.0000      -0.501697       -13.6519
 198   2.0000      -0.498298       -13.5594
 199   2.0000      -0.495250       -13.4765
 200   2.0000      -0.494103       -13.4452
 201   2.0000      -0.493792       -13.4368
 202   2.0000      -0.492201       -13.3935
 203   2.0000      -0.488243       -13.2858
 204   2.0000      -0.485936       -13.2230
 205   2.0000      -0.484398       -13.1811
 206   2.0000      -0.478760       -13.0277
 207   2.0000      -0.476211       -12.9584
 208   2.0000      -0.473142       -12.8749
 209   2.0000      -0.469143       -12.7660
 210   2.0000      -0.465372       -12.6634
 211   2.0000      -0.461814       -12.5666
 212   2.0000      -0.460159       -12.5216
 213   2.0000      -0.458774       -12.4839
 214   2.0000      -0.457390       -12.4462
 215   2.0000      -0.454200       -12.3594
 216   2.0000      -0.452760       -12.3202
 217   2.0000      -0.452433       -12.3113
 218   2.0000      -0.447955       -12.1895
 219   2.0000      -0.446415       -12.1476
 220   2.0000      -0.446071       -12.1382
 221   2.0000      -0.443526       -12.0690
 222   2.0000      -0.443159       -12.0590
 223   2.0000      -0.442452       -12.0397
 224   2.0000      -0.441728       -12.0200
 225   2.0000      -0.439668       -11.9640
 226   2.0000      -0.439084       -11.9481
 227   2.0000      -0.437339       -11.9006
 228   2.0000      -0.437151       -11.8955
 229   2.0000      -0.433389       -11.7931
 230   2.0000      -0.431027       -11.7288
 231   2.0000      -0.427107       -11.6222
 232   2.0000      -0.426446       -11.6042
 233   2.0000      -0.425417       -11.5762
 234   2.0000      -0.423048       -11.5117
 235   2.0000      -0.421503       -11.4697
 236   2.0000      -0.420424       -11.4403
 237   2.0000      -0.419155       -11.4058
 238   2.0000      -0.413789       -11.2598
 239   2.0000      -0.411797       -11.2056
 240   2.0000      -0.407912       -11.0999
 241   2.0000      -0.405496       -11.0341
 242   2.0000      -0.404291       -11.0013
 243   2.0000      -0.398238       -10.8366
 244   2.0000      -0.389431       -10.5969
 245   2.0000      -0.387984       -10.5576
 246   2.0000      -0.386355       -10.5133
 247   2.0000      -0.379883       -10.3371
 248   2.0000      -0.375778       -10.2255
 249   2.0000      -0.374455       -10.1894
 250   2.0000      -0.372092       -10.1251
 251   2.0000      -0.369085       -10.0433
 252   2.0000      -0.355834        -9.6827
 253   2.0000      -0.345291        -9.3958
 254   2.0000      -0.338910        -9.2222
 255   2.0000      -0.336814        -9.1652
 256   2.0000      -0.326032        -8.8718
 257   2.0000      -0.317901        -8.6505
 258   2.0000      -0.315980        -8.5983
 259   2.0000      -0.315085        -8.5739
 260   2.0000      -0.311038        -8.4638
 261   2.0000      -0.295034        -8.0283
 262   2.0000      -0.290358        -7.9010
 263   2.0000      -0.286045        -7.7837
 264   2.0000      -0.272081        -7.4037
 265   2.0000      -0.256256        -6.9731
 266   2.0000      -0.244666        -6.6577
 267   0.0000      -0.089247        -2.4285
 268   0.0000      -0.084188        -2.2909
 269   0.0000      -0.062277        -1.6947
 270   0.0000      -0.052114        -1.4181
 271   0.0000      -0.023141        -0.6297

MULLIKEN ATOMIC CHARGES
-----------------------
   0 C :    0.287115
   1 C :   -0.340481
   2 C :   -0.186134
   3 N :    0.144761
   4 C :   -0.215800
   5 N :    0.162449
   6 C :    0.019408
   7 C :   -0.011205
   8 C :   -0.077055
   9 C :    0.117329
  10 C :   -0.089920
  11 C :   -0.026370
  12 S :    0.183424
  13 C :   -0.125110
  14 C :    0.039309
  15 Br:    0.021258
  16 C :    0.163033
  17 O :   -0.149472
  18 C :   -0.107693
  19 C :    0.006319
  20 C :   -0.191981
  21 S :    0.136162
  22 C :   -0.104816
  23 C :   -0.092195
  24 C :    0.117562
  25 C :    0.179742
  26 C :   -0.022530
  27 C :    0.029486
  28 C :    0.005599
  29 C :    0.006367
  30 C :    0.005288
  31 C :   -0.173910
  32 C :    0.074537
  33 C :    0.196034
  34 N :   -0.173684
  35 C :    0.067320
  36 C :   -0.067537
  37 C :    0.072904
  38 C :   -0.082481
  39 C :    0.031006
  40 C :    0.032962
  41 C :    0.070581
  42 C :   -0.015950
  43 C :    0.043887
  44 C :   -0.036200
  45 C :    0.011156
  46 C :    0.012178
  47 C :    0.045962
  48 C :   -0.127862
  49 C :    0.278884
  50 C :   -0.353924
  51 C :   -0.177845
  52 N :    0.155788
  53 C :   -0.213457
  54 N :    0.182633
  55 C :   -0.003226
  56 C :    0.010469
  57 C :    0.131265
  58 O :   -0.148894
  59 C :   -0.078181
  60 C :    0.113350
  61 C :   -0.087987
  62 C :   -0.025967
  63 S :    0.182250
  64 C :   -0.126103
  65 C :    0.041484
  66 Br:    0.020503
  67 H :   -0.013707
  68 H :   -0.005946
  69 H :   -0.004739
  70 H :    0.032070
  71 H :    0.024266
  72 H :    0.009548
  73 H :    0.036982
  74 H :    0.034404
  75 H :   -0.012407
  76 H :    0.007510
  77 H :   -0.016320
  78 H :   -0.007067
  79 H :   -0.031987
  80 H :    0.039723
  81 H :    0.045469
  82 H :    0.006973
  83 H :    0.003181
  84 H :    0.017365
  85 H :    0.111782
  86 H :   -0.003601
  87 H :   -0.027246
  88 H :    0.003900
  89 H :    0.009879
  90 H :    0.013839
  91 H :    0.015777
  92 H :    0.013174
  93 H :   -0.023543
  94 H :   -0.023302
  95 H :   -0.028713
  96 H :    0.004582
  97 H :   -0.003626
  98 H :    0.024457
  99 H :   -0.010262
 100 H :   -0.004679
 101 H :   -0.003533
Sum of atomic charges:   -0.0000000

LOEWDIN ATOMIC CHARGES
----------------------
   0 C :    0.077027
   1 C :   -0.148985
   2 C :   -0.020276
   3 N :   -0.058257
   4 C :   -0.028776
   5 N :   -0.057072
   6 C :   -0.021180
   7 C :   -0.045530
   8 C :    0.018327
   9 C :   -0.033508
  10 C :   -0.146011
  11 C :   -0.010916
  12 S :    0.430219
  13 C :   -0.272804
  14 C :   -0.070734
  15 Br:    0.134910
  16 C :    0.083364
  17 O :   -0.133891
  18 C :   -0.102105
  19 C :    0.055040
  20 C :   -0.188198
  21 S :    0.445442
  22 C :   -0.165920
  23 C :   -0.056956
  24 C :   -0.042893
  25 C :   -0.006798
  26 C :   -0.019758
  27 C :   -0.008587
  28 C :   -0.026465
  29 C :   -0.015472
  30 C :   -0.054259
  31 C :   -0.031351
  32 C :   -0.054527
  33 C :    0.040198
  34 N :   -0.023989
  35 C :    0.041408
  36 C :   -0.121020
  37 C :   -0.015113
  38 C :   -0.002803
  39 C :   -0.034593
  40 C :   -0.049019
  41 C :   -0.038732
  42 C :   -0.005130
  43 C :   -0.026916
  44 C :   -0.012772
  45 C :    0.059504
  46 C :   -0.048915
  47 C :    0.073873
  48 C :   -0.103422
  49 C :    0.066211
  50 C :   -0.148039
  51 C :   -0.021342
  52 N :   -0.057467
  53 C :   -0.019237
  54 N :   -0.039367
  55 C :   -0.018080
  56 C :   -0.051933
  57 C :    0.083021
  58 O :   -0.147462
  59 C :    0.021430
  60 C :   -0.034611
  61 C :   -0.143853
  62 C :   -0.014355
  63 S :    0.429494
  64 C :   -0.273017
  65 C :   -0.070158
  66 Br:    0.134166
  67 H :    0.039570
  68 H :    0.040637
  69 H :    0.038310
  70 H :    0.045143
  71 H :    0.025911
  72 H :    0.033520
  73 H :    0.038884
  74 H :    0.038919
  75 H :    0.029674
  76 H :    0.031180
  77 H :    0.026546
  78 H :    0.028261
  79 H :    0.023172
  80 H :    0.039316
  81 H :    0.043667
  82 H :    0.025712
  83 H :    0.027016
  84 H :    0.027932
  85 H :    0.071223
  86 H :    0.023744
  87 H :    0.017531
  88 H :    0.024007
  89 H :    0.029157
  90 H :    0.022771
  91 H :    0.024855
  92 H :    0.025894
  93 H :    0.026924
  94 H :    0.027546
  95 H :    0.023643
  96 H :    0.029865
  97 H :    0.032276
  98 H :    0.046314
  99 H :    0.040926
 100 H :    0.040252
 101 H :    0.038644

  Mayer bond orders larger than 0.100000
B(  0-C ,  1-C ) :   1.6344 B(  0-C ,  6-C ) :   1.0061 B(  0-C , 18-C ) :   1.0690
B(  1-C ,  2-C ) :   1.1371 B(  1-C ,  4-C ) :   1.1486 B(  2-C ,  3-N ) :   2.9791
B(  4-C ,  5-N ) :   2.9978 B(  6-C ,  7-C ) :   1.2745 B(  6-C , 11-C ) :   1.4120
B(  7-C ,  8-C ) :   1.4314 B(  7-C , 16-C ) :   0.9392 B(  8-C ,  9-C ) :   1.2387
B(  8-C , 67-H ) :   1.0173 B(  9-C , 10-C ) :   1.3132 B(  9-C , 14-C ) :   1.1623
B( 10-C , 11-C ) :   1.3237 B( 10-C , 12-S ) :   1.0825 B( 11-C , 68-H ) :   0.9830
B( 12-S , 13-C ) :   1.0876 B( 13-C , 14-C ) :   1.6191 B( 13-C , 15-Br) :   1.0169
B( 14-C , 69-H ) :   0.9999 B( 16-C , 17-O ) :   2.1938 B( 16-C , 18-C ) :   0.9614
B( 18-C , 19-C ) :   1.5792 B( 19-C , 20-C ) :   1.1855 B( 19-C , 70-H ) :   0.9417
B( 20-C , 21-S ) :   1.1002 B( 20-C , 25-C ) :   1.4131 B( 21-S , 22-C ) :   1.1725
B( 22-C , 23-C ) :   1.5556 B( 22-C , 71-H ) :   0.9659 B( 23-C , 24-C ) :   1.0953
B( 23-C , 25-C ) :   1.2682 B( 24-C , 72-H ) :   0.9502 B( 24-C , 73-H ) :   0.9452
B( 24-C , 74-H ) :   0.9425 B( 25-C , 26-C ) :   1.0736 B( 26-C , 27-C ) :   1.7095
B( 26-C , 75-H ) :   0.9513 B( 27-C , 28-C ) :   1.1208 B( 27-C , 76-H ) :   0.9713
B( 28-C , 29-C ) :   1.6765 B( 28-C , 77-H ) :   0.9934 B( 29-C , 30-C ) :   1.0934
B( 29-C , 78-H ) :   0.9750 B( 30-C , 31-C ) :   1.7782 B( 30-C , 79-H ) :   0.9744
B( 31-C , 32-C ) :   1.0635 B( 31-C , 33-C ) :   1.0413 B( 32-C , 80-H ) :   0.9448
B( 32-C , 81-H ) :   0.9495 B( 32-C , 82-H ) :   0.9529 B( 33-C , 34-N ) :   1.0360
B( 33-C , 83-H ) :   0.9394 B( 33-C , 84-H ) :   0.9319 B( 34-N , 35-C ) :   1.1846
B( 34-N , 85-H ) :   0.9409 B( 35-C , 36-C ) :   1.7205 B( 35-C , 86-H ) :   0.9657
B( 36-C , 37-C ) :   1.0455 B( 36-C , 87-H ) :   0.9475 B( 37-C , 38-C ) :   1.3871
B( 37-C , 44-C ) :   1.3687 B( 38-C , 39-C ) :   1.0719 B( 38-C , 41-C ) :   1.3471
B( 39-C , 40-C ) :   1.0975 B( 39-C , 88-H ) :   0.9208 B( 39-C , 89-H ) :   0.9149
B( 40-C , 90-H ) :   0.9666 B( 40-C , 91-H ) :   0.9655 B( 40-C , 92-H ) :   0.9602
B( 41-C , 42-C ) :   1.3409 B( 41-C , 45-C ) :   1.1056 B( 42-C , 43-C ) :   1.3926
B( 42-C , 93-H ) :   0.9873 B( 43-C , 44-C ) :   1.3536 B( 43-C , 94-H ) :   0.9857
B( 44-C , 95-H ) :   0.9908 B( 45-C , 46-C ) :   1.6400 B( 45-C , 96-H ) :   0.9562
B( 46-C , 47-C ) :   1.1697 B( 46-C , 97-H ) :   0.9628 B( 47-C , 48-C ) :   1.6344
B( 47-C , 98-H ) :   0.9281 B( 48-C , 49-C ) :   1.0460 B( 48-C , 57-C ) :   0.9529
B( 49-C , 50-C ) :   1.6335 B( 49-C , 55-C ) :   1.0123 B( 50-C , 51-C ) :   1.1312
B( 50-C , 53-C ) :   1.1717 B( 51-C , 52-N ) :   2.9792 B( 53-C , 54-N ) :   3.0007
B( 55-C , 56-C ) :   1.2782 B( 55-C , 62-C ) :   1.4156 B( 56-C , 57-C ) :   0.9170
B( 56-C , 59-C ) :   1.4240 B( 57-C , 58-O ) :   2.2569 B( 59-C , 60-C ) :   1.2499
B( 59-C , 99-H ) :   1.0165 B( 60-C , 61-C ) :   1.3110 B( 60-C , 65-C ) :   1.1622
B( 61-C , 62-C ) :   1.3258 B( 61-C , 63-S ) :   1.0825 B( 62-C ,100-H ) :   0.9833
B( 63-S , 64-C ) :   1.0865 B( 64-C , 65-C ) :   1.6201 B( 64-C , 66-Br) :   1.0171
B( 65-C ,101-H ) :   1.0002

-----------------------------------------------------------------------------
         ABSORPTION SPECTRUM VIA TRANSITION ELECTRIC DIPOLE MOMENTS
-----------------------------------------------------------------------------
State   Energy  Wavelength   fosc         T2         TX        TY        TZ
        (cm-1)    (nm)                  (au**2)     (au)      (au)      (au)
-----------------------------------------------------------------------------
   0   17746.8    563.5   0.232296325   4.30921  -0.52311  -1.91000   0.62248
   1   20098.8    497.5   0.156166428   2.55795   0.68529  -0.74952   1.23554
   2   22275.1    448.9   0.361116839   5.33709   0.96268  -1.48712   1.48284
   3   23197.3    431.1   0.053749761   0.76281   0.02768  -0.83608  -0.25103
   4   23331.2    428.6   0.054469381   0.76858  -0.06371  -0.23664   0.84174
   5   24460.6    408.8   0.278314888   3.74581   0.05072   0.78786   1.76706
   6   27557.2    362.9   0.121279070   1.44886   0.06478  -0.91605  -0.77815
   7   27567.5    362.7   0.096791137   1.15588  -0.33266   1.01562   0.11721
   8   28317.6    353.1   0.183305942   2.13106  -1.21560   0.75189  -0.29670
   9   28903.5    346.0   0.084081313   0.95769  -0.17837   0.07210   0.95952
  10   28996.5    344.9   0.333422573   3.78552   0.17530  -0.68298   1.81337
  11   29179.5    342.7   0.008479894   0.09567  -0.00566   0.15407  -0.26815
  12   29792.6    335.7   0.042135049   0.46560   0.31347  -0.10112   0.59759
  13   30087.2    332.4   0.094884766   1.03822  -0.42671   0.87209   0.30919
  14   30323.8    329.8   0.151337244   1.64300  -0.84440   0.83332   0.48534
  15   30484.2    328.0   0.195768322   2.11418   0.21553   0.93391  -1.09341
  16   30905.4    323.6   0.231946763   2.47075  -0.19900  -0.80105   1.33771
  17   32237.3    310.2   0.000872556   0.00891  -0.05781   0.03960   0.06325
  18   32462.9    308.0   0.151687749   1.53829   0.37247   0.46436  -1.08808
  19   33016.6    302.9   0.369102223   3.68036  -1.41914   1.08746  -0.69558
  20   33230.8    300.9   0.043731807   0.43324  -0.47063   0.11812  -0.44474
  21   33607.7    297.6   0.256706445   2.51463  -1.34350   0.25205   0.80380
  22   34017.9    294.0   0.610891042   5.91196  -0.08540  -0.47897   2.38228
  23   34282.4    291.7   0.017890309   0.17180   0.17758   0.06271   0.36923
  24   34392.7    290.8   0.117672491   1.12638   0.66323  -0.07261  -0.82537
  25   35247.5    283.7   0.622096085   5.81038   1.12025  -0.89719  -1.93662
  26   36803.9    271.7   0.162989812   1.45795   0.44885   0.78741   0.79779
  27   37012.0    270.2   0.000265604   0.00236  -0.00115  -0.02714  -0.04031
  28   37246.6    268.5   0.001174527   0.01038   0.09881   0.02310   0.00923
  29   37627.1    265.8   0.015051435   0.13169  -0.24927  -0.26362   0.00764
  30   37948.9    263.5   0.071789486   0.62278  -0.00921   0.27582  -0.73934
  31   38057.3    262.8   0.003696297   0.03197  -0.07360   0.12344   0.10640
  32   38166.4    262.0   0.032370372   0.27922   0.01738  -0.03671  -0.52685
  33   38299.1    261.1   0.000027478   0.00024  -0.00094  -0.00423   0.01474
  34   39146.6    255.4   0.040706026   0.34233   0.09372   0.13824  -0.56074
  35   39507.6    253.1   0.198097280   1.65072   1.04475   0.74776  -0.00890
  36   40025.8    249.8   0.000419274   0.00345   0.05166   0.02672  -0.00810
  37   40315.9    248.0   0.460743531   3.76235   0.77191  -0.73319   1.62140

FINAL SINGLE POINT ENERGY     -8879.866105687974

DIPOLE MOMENT
-------------
                                X             Y             Z
Electronic contribution:      0.90499      51.83157     112.30714
Nuclear contribution   :     -3.44772     -50.10857    -113.25892
                        -----------------------------------------
Total Dipole Moment    :     -2.54273       1.72300      -0.95179
                        -----------------------------------------
Magnitude (a.u.)       :      3.21561
Magnitude (Debye)      :      8.17342

Rotational constants in cm-1:     0.001231     0.000179     0.000170
Rotational constants in MHz :    36.908154     5.369770     5.086265

                             ****ORCA TERMINATED NORMALLY****
TOTAL RUN TIME: 0 days 0 hours 8 minutes 53 seconds 623 msec
