                         Program Version 4.2.0 -  RELEASE  -
|  1> # ORCA input file
|  2> # SCF done       -173.333900568620          0.000866820448
|  3> ! CAM-B3LYP def2-SVP def2/J RIJCOSX Grid4 TightSCF
|  4> %maxcore 5000
|  5> %tddft
|  6>     Mode sTDDFT
|  7>     Ethresh 5.0
|  8>     maxcore 5000
|  9> end
| 10>
| 11> %pal
| 12>   nprocs 6
| 13>   end
| 14> * xyz 0 1
| 15>    C        0.05476        -3.81385         2.40203
| 16>    C       -0.60329        -4.66871         3.25292
| 17>    C       -0.66967        -6.06693         3.07794
| 18>    N       -0.78585        -7.20735         3.00494
| 19>    C       -1.33325        -4.32765         4.40733
| 20>    N       -1.96443        -4.18540         5.35881
| 21>    C        0.76778        -4.23402         1.19796
| 22>    C        1.27235        -3.08333         0.54639
| 23>    C        1.98757        -3.14205        -0.62367
| 24>    C        2.21889        -4.40390        -1.18195
| 25>    C        1.71509        -5.55027        -0.52369
| 26>    C        0.99120        -5.48801         0.66115
| 27>    S        2.11629        -7.00712        -1.38175
| 28>    C        2.94302        -6.06867        -2.59658
| 29>    C        2.92154        -4.73319        -2.37295
| 30>   Br        3.75552        -6.94016        -4.04501
| 31>    C        0.91054        -1.88768         1.33054
| 32>    O        1.20491        -0.73945         1.05464
| 33>    C        0.15051        -2.37222         2.48912
| 34>    C       -0.40919        -1.59443         3.47672
| 35>    C       -0.38849        -0.20703         3.66423
| 36>    S        0.66902         0.90773         2.82769
| 37>    C        0.22140         2.16615         3.89265
| 38>    C       -0.71359         1.81425         4.82369
| 39>    C       -1.28665         2.75341         5.83239
| 40>    C       -1.10114         0.45769         4.68915
| 41>    C       -2.12496        -0.12303         5.50390
| 42>    C       -2.97357        -1.10979         5.13712
| 43>    C       -3.91757        -1.70023         6.02246
| 44>    C       -4.62470        -2.80586         5.70402
| 45>    C       -5.51635        -3.45493         6.61484
| 46>    C       -6.04185        -4.67859         6.44080
| 47>    C       -5.71202        -5.56469         5.27808
| 48>    C       -6.99743        -5.24830         7.44804
| 49>    N       -6.38995        -6.36165         8.15245
| 50>    C       -7.01637        -7.05682         9.11183
| 51>    C       -8.31764        -6.88578         9.47757
| 52>    C       -8.91772        -7.64264        10.50174
| 53>    C       -8.38262        -8.64774        11.30636
| 54>    C       -9.31247        -9.17466        12.23428
| 55>    S       -8.56975       -10.40385        13.18404
| 56>    C       -7.06558       -10.11746        12.25241
| 57>    N       -7.14349        -9.21234        11.35655
| 58>    C       -5.86027       -10.91351        12.56220
| 59>    C      -10.57284        -8.59106        12.21295
| 60>    S      -10.57859        -7.36932        10.93768
| 61>    C      -11.69147        -8.96405        12.95823
| 62>    C      -12.90790        -8.33382        13.06054
| 63>    C      -13.29922        -6.97851        12.78284
| 64>    C      -12.50912        -5.86141        12.92583
| 65>    C      -12.95509        -4.54769        12.70081
| 66>    N      -13.26588        -3.45990        12.49947
| 67>    C      -11.19233        -5.91824        13.42210
| 68>    N      -10.13976        -5.92902        13.88242
| 69>    C      -14.75118        -6.96642        12.62583
| 70>    C      -15.25424        -8.22778        13.03022
| 71>    C      -14.11942        -9.10980        13.39321
| 72>    O      -14.17628       -10.24309        13.82072
| 73>    C      -16.59631        -8.51507        13.03547
| 74>    C      -17.47971        -7.51644        12.60789
| 75>    C      -16.96412        -6.26676        12.19482
| 76>    C      -15.60594        -5.96961        12.20166
| 77>    S      -18.23050        -5.18655        11.69303
| 78>    C      -19.41951        -6.41239        12.04502
| 79>    C      -18.89829        -7.57037        12.51258
| 80>   Br      -21.23765        -6.04671        11.75828
| 81>    H        2.35717        -2.24401        -1.09315
| 82>    H        0.63225        -6.39305         1.12139
| 83>    H        3.38145        -4.00878        -3.01996
| 84>    H       -0.94393        -2.12800         4.25380
| 85>    H        0.66101         3.13796         3.77030
| 86>    H       -0.86140         3.74541         5.70757
| 87>    H       -1.06898         2.40744         6.84251
| 88>    H       -2.36808         2.81867         5.72201
| 89>    H       -2.23957         0.31067         6.48933
| 90>    H       -2.96022        -1.48998         4.12452
| 91>    H       -4.00810        -1.27251         7.01254
| 92>    H       -4.49728        -3.24656         4.72628
| 93>    H       -5.76269        -2.90248         7.51288
| 94>    H       -6.18453        -5.19231         4.36897
| 95>    H       -6.06877        -6.57642         5.45234
| 96>    H       -4.63794        -5.59594         5.10612
| 97>    H       -7.89760        -5.61061         6.93450
| 98>    H       -7.30272        -4.47825         8.16737
| 99>    H       -5.39929        -6.48952         8.02273
|100>    H       -6.43047        -7.81400         9.61395
|101>    H       -8.94027        -6.14295         9.00424
|102>    H       -6.07444       -11.97672        12.46251
|103>    H       -5.54435       -10.73076        13.58872
|104>    H       -5.05736       -10.63875        11.88364
|105>    H      -11.62488        -9.93463        13.44182
|106>    H      -16.95743        -9.47917        13.35755
|107>    H      -15.25384        -5.00459        11.87597
|108>    H      -19.48670        -8.42935        12.77903
|109> *
|110>
|111>                          ****END OF INPUT****

CARTESIAN COORDINATES (ANGSTROEM)
---------------------------------
  C      0.054760   -3.813850    2.402030
  C     -0.603290   -4.668710    3.252920
  C     -0.669670   -6.066930    3.077940
  N     -0.785850   -7.207350    3.004940
  C     -1.333250   -4.327650    4.407330
  N     -1.964430   -4.185400    5.358810
  C      0.767780   -4.234020    1.197960
  C      1.272350   -3.083330    0.546390
  C      1.987570   -3.142050   -0.623670
  C      2.218890   -4.403900   -1.181950
  C      1.715090   -5.550270   -0.523690
  C      0.991200   -5.488010    0.661150
  S      2.116290   -7.007120   -1.381750
  C      2.943020   -6.068670   -2.596580
  C      2.921540   -4.733190   -2.372950
  Br     3.755520   -6.940160   -4.045010
  C      0.910540   -1.887680    1.330540
  O      1.204910   -0.739450    1.054640
  C      0.150510   -2.372220    2.489120
  C     -0.409190   -1.594430    3.476720
  C     -0.388490   -0.207030    3.664230
  S      0.669020    0.907730    2.827690
  C      0.221400    2.166150    3.892650
  C     -0.713590    1.814250    4.823690
  C     -1.286650    2.753410    5.832390
  C     -1.101140    0.457690    4.689150
  C     -2.124960   -0.123030    5.503900
  C     -2.973570   -1.109790    5.137120
  C     -3.917570   -1.700230    6.022460
  C     -4.624700   -2.805860    5.704020
  C     -5.516350   -3.454930    6.614840
  C     -6.041850   -4.678590    6.440800
  C     -5.712020   -5.564690    5.278080
  C     -6.997430   -5.248300    7.448040
  N     -6.389950   -6.361650    8.152450
  C     -7.016370   -7.056820    9.111830
  C     -8.317640   -6.885780    9.477570
  C     -8.917720   -7.642640   10.501740
  C     -8.382620   -8.647740   11.306360
  C     -9.312470   -9.174660   12.234280
  S     -8.569750  -10.403850   13.184040
  C     -7.065580  -10.117460   12.252410
  N     -7.143490   -9.212340   11.356550
  C     -5.860270  -10.913510   12.562200
  C    -10.572840   -8.591060   12.212950
  S    -10.578590   -7.369320   10.937680
  C    -11.691470   -8.964050   12.958230
  C    -12.907900   -8.333820   13.060540
  C    -13.299220   -6.978510   12.782840
  C    -12.509120   -5.861410   12.925830
  C    -12.955090   -4.547690   12.700810
  N    -13.265880   -3.459900   12.499470
  C    -11.192330   -5.918240   13.422100
  N    -10.139760   -5.929020   13.882420
  C    -14.751180   -6.966420   12.625830
  C    -15.254240   -8.227780   13.030220
  C    -14.119420   -9.109800   13.393210
  O    -14.176280  -10.243090   13.820720
  C    -16.596310   -8.515070   13.035470
  C    -17.479710   -7.516440   12.607890
  C    -16.964120   -6.266760   12.194820
  C    -15.605940   -5.969610   12.201660
  S    -18.230500   -5.186550   11.693030
  C    -19.419510   -6.412390   12.045020
  C    -18.898290   -7.570370   12.512580
  Br   -21.237650   -6.046710   11.758280
  H      2.357170   -2.244010   -1.093150
  H      0.632250   -6.393050    1.121390
  H      3.381450   -4.008780   -3.019960
  H     -0.943930   -2.128000    4.253800
  H      0.661010    3.137960    3.770300
  H     -0.861400    3.745410    5.707570
  H     -1.068980    2.407440    6.842510
  H     -2.368080    2.818670    5.722010
  H     -2.239570    0.310670    6.489330
  H     -2.960220   -1.489980    4.124520
  H     -4.008100   -1.272510    7.012540
  H     -4.497280   -3.246560    4.726280
  H     -5.762690   -2.902480    7.512880
  H     -6.184530   -5.192310    4.368970
  H     -6.068770   -6.576420    5.452340
  H     -4.637940   -5.595940    5.106120
  H     -7.897600   -5.610610    6.934500
  H     -7.302720   -4.478250    8.167370
  H     -5.399290   -6.489520    8.022730
  H     -6.430470   -7.814000    9.613950
  H     -8.940270   -6.142950    9.004240
  H     -6.074440  -11.976720   12.462510
  H     -5.544350  -10.730760   13.588720
  H     -5.057360  -10.638750   11.883640
  H    -11.624880   -9.934630   13.441820
  H    -16.957430   -9.479170   13.357550
  H    -15.253840   -5.004590   11.875970
  H    -19.486700   -8.429350   12.779030

 Total Charge           Charge          ....    0
 Multiplicity           Mult            ....    1
 Number of Electrons    NEL             ....  542
 Basis Dimension        Dim             .... 1120

ORBITAL ENERGIES
----------------

  NO   OCC          E(Eh)            E(eV)
   0   2.0000    -482.887463    -13140.0359
   1   2.0000    -482.873648    -13139.6600
   2   2.0000     -88.977313     -2421.1958
   3   2.0000     -88.960664     -2420.7427
   4   2.0000     -88.960524     -2420.7389
   5   2.0000     -88.959580     -2420.7132
   6   2.0000     -88.955976     -2420.6152
   7   2.0000     -62.565179     -1702.4851
   8   2.0000     -62.551363     -1702.1091
   9   2.0000     -56.399130     -1534.6984
  10   2.0000     -56.396414     -1534.6245
  11   2.0000     -56.396378     -1534.6235
  12   2.0000     -56.385295     -1534.3219
  13   2.0000     -56.382614     -1534.2489
  14   2.0000     -56.382573     -1534.2478
  15   2.0000     -19.219858      -522.9989
  16   2.0000     -19.189908      -522.1839
  17   2.0000     -14.453387      -393.2967
  18   2.0000     -14.423264      -392.4770
  19   2.0000     -14.416589      -392.2953
  20   2.0000     -14.415284      -392.2598
  21   2.0000     -14.394533      -391.6952
  22   2.0000     -14.389575      -391.5602
  23   2.0000     -10.368723      -282.1473
  24   2.0000     -10.360772      -281.9309
  25   2.0000     -10.344184      -281.4796
  26   2.0000     -10.343962      -281.4735
  27   2.0000     -10.343212      -281.4531
  28   2.0000     -10.342580      -281.4359
  29   2.0000     -10.341808      -281.4149
  30   2.0000     -10.327646      -281.0295
  31   2.0000     -10.327430      -281.0236
  32   2.0000     -10.326914      -281.0096
  33   2.0000     -10.323784      -280.9244
  34   2.0000     -10.322639      -280.8933
  35   2.0000     -10.320784      -280.8428
  36   2.0000     -10.318191      -280.7722
  37   2.0000     -10.318022      -280.7676
  38   2.0000     -10.315954      -280.7114
  39   2.0000     -10.314257      -280.6652
  40   2.0000     -10.311429      -280.5883
  41   2.0000     -10.309192      -280.5274
  42   2.0000     -10.309097      -280.5248
  43   2.0000     -10.308789      -280.5164
  44   2.0000     -10.307297      -280.4758
  45   2.0000     -10.302463      -280.3443
  46   2.0000     -10.302010      -280.3319
  47   2.0000     -10.301418      -280.3158
  48   2.0000     -10.301089      -280.3069
  49   2.0000     -10.299782      -280.2713
  50   2.0000     -10.299726      -280.2698
  51   2.0000     -10.298638      -280.2402
  52   2.0000     -10.298491      -280.2362
  53   2.0000     -10.295951      -280.1671
  54   2.0000     -10.293276      -280.0943
  55   2.0000     -10.293016      -280.0872
  56   2.0000     -10.291192      -280.0376
  57   2.0000     -10.290328      -280.0141
  58   2.0000     -10.290108      -280.0081
  59   2.0000     -10.289047      -279.9792
  60   2.0000     -10.287528      -279.9379
  61   2.0000     -10.287456      -279.9359
  62   2.0000     -10.287109      -279.9265
  63   2.0000     -10.283351      -279.8242
  64   2.0000     -10.282597      -279.8037
  65   2.0000     -10.281708      -279.7795
  66   2.0000     -10.281489      -279.7735
  67   2.0000     -10.277784      -279.6727
  68   2.0000     -10.277520      -279.6655
  69   2.0000     -10.275666      -279.6151
  70   2.0000     -10.273164      -279.5470
  71   2.0000     -10.271572      -279.5037
  72   2.0000     -10.268250      -279.4133
  73   2.0000     -10.266698      -279.3711
  74   2.0000      -8.794609      -239.3135
  75   2.0000      -8.780782      -238.9372
  76   2.0000      -8.073325      -219.6864
  77   2.0000      -8.056603      -219.2313
  78   2.0000      -8.055831      -219.2103
  79   2.0000      -8.054902      -219.1850
  80   2.0000      -8.050632      -219.0688
  81   2.0000      -6.630924      -180.4366
  82   2.0000      -6.617002      -180.0578
  83   2.0000      -6.616329      -180.0395
  84   2.0000      -6.616139      -180.0343
  85   2.0000      -6.602541      -179.6643
  86   2.0000      -6.602384      -179.6600
  87   2.0000      -6.042996      -164.4383
  88   2.0000      -6.038757      -164.3229
  89   2.0000      -6.034544      -164.2083
  90   2.0000      -6.026318      -163.9844
  91   2.0000      -6.025274      -163.9560
  92   2.0000      -6.024276      -163.9289
  93   2.0000      -6.022042      -163.8681
  94   2.0000      -6.021235      -163.8461
  95   2.0000      -6.020180      -163.8174
  96   2.0000      -6.019627      -163.8024
  97   2.0000      -6.017779      -163.7521
  98   2.0000      -6.017306      -163.7392
  99   2.0000      -6.017218      -163.7368
 100   2.0000      -6.016085      -163.7060
 101   2.0000      -6.012215      -163.6007
 102   2.0000      -2.746797       -74.7442
 103   2.0000      -2.742715       -74.6331
 104   2.0000      -2.742529       -74.6280
 105   2.0000      -2.732909       -74.3662
 106   2.0000      -2.730959       -74.3132
 107   2.0000      -2.730947       -74.3128
 108   2.0000      -2.728800       -74.2544
 109   2.0000      -2.728713       -74.2521
 110   2.0000      -2.717204       -73.9389
 111   2.0000      -2.717200       -73.9388
 112   2.0000      -1.135679       -30.9034
 113   2.0000      -1.104671       -30.0596
 114   2.0000      -1.069041       -29.0901
 115   2.0000      -1.049921       -28.5698
 116   2.0000      -1.025682       -27.9102
 117   2.0000      -1.017593       -27.6901
 118   2.0000      -1.004984       -27.3470
 119   2.0000      -0.998929       -27.1822
 120   2.0000      -0.997502       -27.1434
 121   2.0000      -0.993556       -27.0360
 122   2.0000      -0.990678       -26.9577
 123   2.0000      -0.978499       -26.6263
 124   2.0000      -0.969580       -26.3836
 125   2.0000      -0.968367       -26.3506
 126   2.0000      -0.944453       -25.6999
 127   2.0000      -0.931611       -25.3504
 128   2.0000      -0.925421       -25.1820
 129   2.0000      -0.914928       -24.8965
 130   2.0000      -0.910632       -24.7796
 131   2.0000      -0.908171       -24.7126
 132   2.0000      -0.905705       -24.6455
 133   2.0000      -0.890616       -24.2349
 134   2.0000      -0.887715       -24.1560
 135   2.0000      -0.879648       -23.9364
 136   2.0000      -0.877888       -23.8885
 137   2.0000      -0.874916       -23.8077
 138   2.0000      -0.868242       -23.6261
 139   2.0000      -0.863232       -23.4897
 140   2.0000      -0.858267       -23.3546
 141   2.0000      -0.845714       -23.0131
 142   2.0000      -0.837941       -22.8015
 143   2.0000      -0.831237       -22.6191
 144   2.0000      -0.818318       -22.2676
 145   2.0000      -0.812058       -22.0972
 146   2.0000      -0.799826       -21.7644
 147   2.0000      -0.788324       -21.4514
 148   2.0000      -0.786615       -21.4049
 149   2.0000      -0.782881       -21.3033
 150   2.0000      -0.768240       -20.9049
 151   2.0000      -0.764316       -20.7981
 152   2.0000      -0.753318       -20.4988
 153   2.0000      -0.746873       -20.3235
 154   2.0000      -0.734091       -19.9756
 155   2.0000      -0.719013       -19.5653
 156   2.0000      -0.704772       -19.1778
 157   2.0000      -0.700802       -19.0698
 158   2.0000      -0.693126       -18.8609
 159   2.0000      -0.688707       -18.7407
 160   2.0000      -0.684537       -18.6272
 161   2.0000      -0.675361       -18.3775
 162   2.0000      -0.664780       -18.0896
 163   2.0000      -0.663459       -18.0536
 164   2.0000      -0.657346       -17.8873
 165   2.0000      -0.653280       -17.7766
 166   2.0000      -0.645768       -17.5722
 167   2.0000      -0.643186       -17.5020
 168   2.0000      -0.639881       -17.4120
 169   2.0000      -0.624734       -16.9999
 170   2.0000      -0.624481       -16.9930
 171   2.0000      -0.618645       -16.8342
 172   2.0000      -0.617946       -16.8152
 173   2.0000      -0.605668       -16.4811
 174   2.0000      -0.603260       -16.4155
 175   2.0000      -0.600363       -16.3367
 176   2.0000      -0.592075       -16.1112
 177   2.0000      -0.588239       -16.0068
 178   2.0000      -0.583517       -15.8783
 179   2.0000      -0.578379       -15.7385
 180   2.0000      -0.572733       -15.5849
 181   2.0000      -0.567814       -15.4510
 182   2.0000      -0.563408       -15.3311
 183   2.0000      -0.563118       -15.3232
 184   2.0000      -0.547633       -14.9019
 185   2.0000      -0.543898       -14.8002
 186   2.0000      -0.543739       -14.7959
 187   2.0000      -0.541584       -14.7372
 188   2.0000      -0.538790       -14.6612
 189   2.0000      -0.536156       -14.5895
 190   2.0000      -0.533605       -14.5201
 191   2.0000      -0.531634       -14.4665
 192   2.0000      -0.528375       -14.3778
 193   2.0000      -0.525187       -14.2911
 194   2.0000      -0.519117       -14.1259
 195   2.0000      -0.518420       -14.1069
 196   2.0000      -0.517087       -14.0707
 197   2.0000      -0.512873       -13.9560
 198   2.0000      -0.511385       -13.9155
 199   2.0000      -0.510784       -13.8991
 200   2.0000      -0.508875       -13.8472
 201   2.0000      -0.505316       -13.7504
 202   2.0000      -0.503757       -13.7079
 203   2.0000      -0.502811       -13.6822
 204   2.0000      -0.499547       -13.5934
 205   2.0000      -0.498932       -13.5766
 206   2.0000      -0.496173       -13.5016
 207   2.0000      -0.492700       -13.4070
 208   2.0000      -0.490133       -13.3372
 209   2.0000      -0.489724       -13.3261
 210   2.0000      -0.485069       -13.1994
 211   2.0000      -0.480385       -13.0719
 212   2.0000      -0.478436       -13.0189
 213   2.0000      -0.475757       -12.9460
 214   2.0000      -0.473466       -12.8837
 215   2.0000      -0.470138       -12.7931
 216   2.0000      -0.469647       -12.7797
 217   2.0000      -0.464467       -12.6388
 218   2.0000      -0.462096       -12.5743
 219   2.0000      -0.461492       -12.5578
 220   2.0000      -0.460452       -12.5295
 221   2.0000      -0.456680       -12.4269
 222   2.0000      -0.452592       -12.3157
 223   2.0000      -0.450031       -12.2460
 224   2.0000      -0.449163       -12.2223
 225   2.0000      -0.448686       -12.2094
 226   2.0000      -0.444239       -12.0884
 227   2.0000      -0.441755       -12.0208
 228   2.0000      -0.441524       -12.0145
 229   2.0000      -0.436780       -11.8854
 230   2.0000      -0.434085       -11.8120
 231   2.0000      -0.432255       -11.7623
 232   2.0000      -0.431040       -11.7292
 233   2.0000      -0.429762       -11.6944
 234   2.0000      -0.429185       -11.6787
 235   2.0000      -0.427162       -11.6237
 236   2.0000      -0.424172       -11.5423
 237   2.0000      -0.423398       -11.5212
 238   2.0000      -0.420485       -11.4420
 239   2.0000      -0.420430       -11.4405
 240   2.0000      -0.415301       -11.3009
 241   2.0000      -0.411447       -11.1960
 242   2.0000      -0.411395       -11.1946
 243   2.0000      -0.405509       -11.0345
 244   2.0000      -0.405120       -11.0239
 245   2.0000      -0.400646       -10.9021
 246   2.0000      -0.390908       -10.6372
 247   2.0000      -0.390753       -10.6329
 248   2.0000      -0.389092       -10.5877
 249   2.0000      -0.383398       -10.4328
 250   2.0000      -0.382622       -10.4117
 251   2.0000      -0.376820       -10.2538
 252   2.0000      -0.375489       -10.2176
 253   2.0000      -0.371335       -10.1045
 254   2.0000      -0.363296        -9.8858
 255   2.0000      -0.354700        -9.6519
 256   2.0000      -0.353224        -9.6117
 257   2.0000      -0.351876        -9.5750
 258   2.0000      -0.335656        -9.1337
 259   2.0000      -0.334007        -9.0888
 260   2.0000      -0.322792        -8.7836
 261   2.0000      -0.316665        -8.6169
 262   2.0000      -0.314981        -8.5711
 263   2.0000      -0.302874        -8.2416
 264   2.0000      -0.299139        -8.1400
 265   2.0000      -0.297895        -8.1061
 266   2.0000      -0.296666        -8.0727
 267   2.0000      -0.288673        -7.8552
 268   2.0000      -0.276828        -7.5329
 269   2.0000      -0.262585        -7.1453
 270   2.0000      -0.231476        -6.2988
 271   0.0000      -0.094468        -2.5706
 272   0.0000      -0.073909        -2.0112
 273   0.0000      -0.064355        -1.7512
 274   0.0000      -0.038418        -1.0454
 275   0.0000      -0.034207        -0.9308

MULLIKEN ATOMIC CHARGES
-----------------------
   0 C :    0.335747
   1 C :   -0.367193
   2 C :   -0.197949
   3 N :    0.143686
   4 C :   -0.187114
   5 N :    0.138442
   6 C :    0.005584
   7 C :   -0.009770
   8 C :   -0.073277
   9 C :    0.117561
  10 C :   -0.090862
  11 C :   -0.021522
  12 S :    0.185220
  13 C :   -0.123931
  14 C :    0.039602
  15 Br:    0.023712
  16 C :    0.156351
  17 O :   -0.172602
  18 C :   -0.109091
  19 C :   -0.044656
  20 C :   -0.125361
  21 S :    0.193210
  22 C :   -0.090298
  23 C :   -0.089047
  24 C :    0.119091
  25 C :    0.134878
  26 C :   -0.055189
  27 C :    0.032275
  28 C :    0.013214
  29 C :    0.054663
  30 C :    0.014759
  31 C :   -0.235837
  32 C :    0.088351
  33 C :    0.219183
  34 N :   -0.150545
  35 C :    0.089414
  36 C :   -0.073236
  37 C :   -0.087901
  38 C :    0.073384
  39 C :    0.055420
  40 S :    0.109505
  41 C :   -0.201621
  42 N :   -0.035772
  43 C :    0.123497
  44 C :   -0.196774
  45 S :    0.145365
  46 C :    0.035881
  47 C :   -0.158812
  48 C :    0.254586
  49 C :   -0.338270
  50 C :   -0.173785
  51 N :    0.131782
  52 C :   -0.214904
  53 N :    0.157180
  54 C :    0.003815
  55 C :    0.000808
  56 C :    0.136256
  57 O :   -0.158539
  58 C :   -0.080406
  59 C :    0.111868
  60 C :   -0.085786
  61 C :   -0.026242
  62 S :    0.173593
  63 C :   -0.126048
  64 C :    0.038821
  65 Br:    0.010617
  66 H :   -0.011516
  67 H :   -0.008015
  68 H :   -0.003415
  69 H :    0.018566
  70 H :    0.022075
  71 H :    0.010979
  72 H :    0.032867
  73 H :    0.033541
  74 H :   -0.006148
  75 H :    0.004942
  76 H :   -0.013472
  77 H :   -0.011674
  78 H :   -0.019947
  79 H :    0.037604
  80 H :    0.013246
  81 H :    0.044427
  82 H :    0.026280
  83 H :    0.019794
  84 H :    0.140340
  85 H :    0.026765
  86 H :   -0.023861
  87 H :    0.040097
  88 H :    0.043719
  89 H :    0.036671
  90 H :    0.011285
  91 H :   -0.014993
  92 H :   -0.008066
  93 H :   -0.007070
Sum of atomic charges:   -0.0000000

LOEWDIN ATOMIC CHARGES
----------------------
   0 C :    0.080537
   1 C :   -0.156437
   2 C :   -0.019379
   3 N :   -0.063438
   4 C :   -0.019771
   5 N :   -0.059845
   6 C :   -0.022214
   7 C :   -0.049360
   8 C :    0.021441
   9 C :   -0.033085
  10 C :   -0.145191
  11 C :   -0.010233
  12 S :    0.431937
  13 C :   -0.271825
  14 C :   -0.070253
  15 Br:    0.136810
  16 C :    0.081320
  17 O :   -0.163572
  18 C :   -0.120374
  19 C :    0.056596
  20 C :   -0.187997
  21 S :    0.504816
  22 C :   -0.166513
  23 C :   -0.068258
  24 C :   -0.044876
  25 C :   -0.015495
  26 C :   -0.035581
  27 C :    0.007416
  28 C :   -0.023115
  29 C :    0.004709
  30 C :   -0.036618
  31 C :   -0.034341
  32 C :   -0.055955
  33 C :    0.046737
  34 N :    0.019491
  35 C :    0.081662
  36 C :   -0.154325
  37 C :   -0.103610
  38 C :   -0.096384
  39 C :   -0.157032
  40 S :    0.382378
  41 C :   -0.100172
  42 N :   -0.094625
  43 C :   -0.066896
  44 C :   -0.221082
  45 S :    0.466644
  46 C :    0.048961
  47 C :   -0.130026
  48 C :    0.060797
  49 C :   -0.165099
  50 C :   -0.020201
  51 N :   -0.072200
  52 C :   -0.037335
  53 N :   -0.065037
  54 C :   -0.014798
  55 C :   -0.049850
  56 C :    0.079205
  57 O :   -0.161865
  58 C :    0.017134
  59 C :   -0.038178
  60 C :   -0.145623
  61 C :   -0.017633
  62 S :    0.422919
  63 C :   -0.276793
  64 C :   -0.070511
  65 Br:    0.126580
  66 H :    0.040688
  67 H :    0.040489
  68 H :    0.038850
  69 H :    0.048343
  70 H :    0.025093
  71 H :    0.034192
  72 H :    0.036427
  73 H :    0.037853
  74 H :    0.031628
  75 H :    0.030450
  76 H :    0.027789
  77 H :    0.026125
  78 H :    0.028278
  79 H :    0.042089
  80 H :    0.029175
  81 H :    0.040618
  82 H :    0.030134
  83 H :    0.026277
  84 H :    0.087604
  85 H :    0.034000
  86 H :    0.024510
  87 H :    0.043158
  88 H :    0.045146
  89 H :    0.045372
  90 H :    0.045418
  91 H :    0.038829
  92 H :    0.039158
  93 H :    0.037216

  Mayer bond orders larger than 0.100000
B(  0-C ,  1-C ) :   1.5865 B(  0-C ,  6-C ) :   0.9933 B(  0-C , 18-C ) :   1.1025
B(  1-C ,  2-C ) :   1.1463 B(  1-C ,  4-C ) :   1.1603 B(  2-C ,  3-N ) :   2.9685
B(  4-C ,  5-N ) :   2.9045 B(  6-C ,  7-C ) :   1.2765 B(  6-C , 11-C ) :   1.4127
B(  7-C ,  8-C ) :   1.4254 B(  7-C , 16-C ) :   0.9505 B(  8-C ,  9-C ) :   1.2394
B(  8-C , 66-H ) :   1.0180 B(  9-C , 10-C ) :   1.3102 B(  9-C , 14-C ) :   1.1626
B( 10-C , 11-C ) :   1.3265 B( 10-C , 12-S ) :   1.0855 B( 11-C , 67-H ) :   0.9795
B( 12-S , 13-C ) :   1.0875 B( 13-C , 14-C ) :   1.6177 B( 13-C , 15-Br) :   1.0188
B( 14-C , 68-H ) :   1.0005 B( 16-C , 17-O ) :   2.1564 B( 16-C , 18-C ) :   0.9679
B( 18-C , 19-C ) :   1.4977 B( 19-C , 20-C ) :   1.2896 B( 19-C , 69-H ) :   0.9333
B( 20-C , 21-S ) :   1.1069 B( 20-C , 25-C ) :   1.3175 B( 21-S , 22-C ) :   1.1745
B( 22-C , 23-C ) :   1.5248 B( 22-C , 70-H ) :   0.9628 B( 23-C , 24-C ) :   1.0946
B( 23-C , 25-C ) :   1.2850 B( 24-C , 71-H ) :   0.9500 B( 24-C , 72-H ) :   0.9424
B( 24-C , 73-H ) :   0.9440 B( 25-C , 26-C ) :   1.1069 B( 26-C , 27-C ) :   1.6587
B( 26-C , 74-H ) :   0.9554 B( 27-C , 28-C ) :   1.1203 B( 27-C , 75-H ) :   0.9830
B( 28-C , 29-C ) :   1.6729 B( 28-C , 76-H ) :   0.9930 B( 29-C , 30-C ) :   1.1013
B( 29-C , 77-H ) :   0.9659 B( 30-C , 31-C ) :   1.7832 B( 30-C , 78-H ) :   0.9752
B( 31-C , 32-C ) :   1.0670 B( 31-C , 33-C ) :   1.0407 B( 32-C , 79-H ) :   0.9418
B( 32-C , 80-H ) :   0.9526 B( 32-C , 81-H ) :   0.9474 B( 33-C , 34-N ) :   0.9691
B( 33-C , 82-H ) :   0.9276 B( 33-C , 83-H ) :   0.9394 B( 34-N , 35-C ) :   1.3040
B( 34-N , 84-H ) :   0.9339 B( 35-C , 36-C ) :   1.5405 B( 35-C , 85-H ) :   0.9384
B( 36-C , 37-C ) :   1.2147 B( 36-C , 86-H ) :   0.9478 B( 37-C , 38-C ) :   1.3380
B( 37-C , 45-S ) :   1.1658 B( 38-C , 39-C ) :   1.3026 B( 38-C , 42-N ) :   1.2562
B( 39-C , 40-S ) :   1.0844 B( 39-C , 44-C ) :   1.3920 B( 40-S , 41-C ) :   1.0395
B( 41-C , 42-N ) :   1.8220 B( 41-C , 43-C ) :   1.0693 B( 43-C , 87-H ) :   0.9456
B( 43-C , 88-H ) :   0.9449 B( 43-C , 89-H ) :   0.9489 B( 44-C , 45-S ) :   1.0462
B( 44-C , 46-C ) :   1.2825 B( 46-C , 47-C ) :   1.5102 B( 46-C , 90-H ) :   0.9456
B( 47-C , 48-C ) :   1.0914 B( 47-C , 56-C ) :   0.9734 B( 48-C , 49-C ) :   1.6020
B( 48-C , 54-C ) :   1.0080 B( 49-C , 50-C ) :   1.1415 B( 49-C , 52-C ) :   1.1550
B( 50-C , 51-N ) :   2.9812 B( 52-C , 53-N ) :   3.0285 B( 54-C , 55-C ) :   1.2794
B( 54-C , 61-C ) :   1.4285 B( 55-C , 56-C ) :   0.9135 B( 55-C , 58-C ) :   1.4351
B( 56-C , 57-O ) :   2.2584 B( 58-C , 59-C ) :   1.2456 B( 58-C , 91-H ) :   1.0154
B( 59-C , 60-C ) :   1.3207 B( 59-C , 64-C ) :   1.1591 B( 60-C , 61-C ) :   1.3152
B( 60-C , 62-S ) :   1.0784 B( 61-C , 92-H ) :   0.9831 B( 62-S , 63-C ) :   1.0848
B( 63-C , 64-C ) :   1.6241 B( 63-C , 65-Br) :   1.0117 B( 64-C , 93-H ) :   0.9998

-----------------------------------------------------------------------------
         ABSORPTION SPECTRUM VIA TRANSITION ELECTRIC DIPOLE MOMENTS
-----------------------------------------------------------------------------
State   Energy  Wavelength   fosc         T2         TX        TY        TZ
        (cm-1)    (nm)                  (au**2)     (au)      (au)      (au)
-----------------------------------------------------------------------------
   0   17034.0    587.1   0.827208557  15.98723   3.49966  -0.59720  -1.83929
   1   19313.0    517.8   0.322265179   5.49337  -1.64140   0.78443   1.47778
   2   21235.3    470.9   0.002864554   0.04441   0.11848  -0.15000  -0.08872
   3   24710.4    404.7   0.250783319   3.34114  -1.32766  -0.89904   0.87760
   4   25081.2    398.7   0.361363957   4.74321  -0.06585   2.11041   0.53389
   5   26109.9    383.0   0.153158624   1.93113  -0.79697  -1.08450   0.34617
   6   28053.0    356.5   0.072203911   0.84734   0.69489   0.03369  -0.60277
   7   28192.8    354.7   0.660797054   7.71623  -2.37387  -0.15976   1.43368
   8   28322.4    353.1   0.248331571   2.88654   1.13140   0.80430   0.97958
   9   28985.8    345.0   0.005922842   0.06727  -0.16935  -0.16312   0.10947
  10   29777.6    335.8   0.084026382   0.92897   0.93230  -0.23481  -0.06820
  11   29856.6    334.9   0.075481409   0.83229   0.16460  -0.72889  -0.52338
  12   30076.1    332.5   0.017814853   0.19500   0.16611  -0.23080   0.33784
  13   30975.6    322.8   0.192774537   2.04883   0.45900  -0.55683  -1.23616
  14   31063.2    321.9   0.064136187   0.67972  -0.38251   0.65355  -0.32602
  15   31240.5    320.1   0.087776660   0.92499  -0.29309   0.76634  -0.50181
  16   31366.9    318.8   0.022295598   0.23400  -0.02035  -0.45244   0.16996
  17   31861.8    313.9   0.064055999   0.66186   0.40804   0.30388  -0.63484
  18   31905.8    313.4   0.249545534   2.57487   0.58790   1.44031  -0.39338
  19   32735.4    305.5   0.004069804   0.04093  -0.01022  -0.18336   0.08488
  20   33134.4    301.8   0.603414285   5.99532  -0.51147  -1.93441   1.41130
  21   33283.4    300.4   0.069818271   0.69058  -0.39500   0.73032  -0.03453
  22   33549.3    298.1   0.255529540   2.50746   0.96377  -0.22380  -1.23633
  23   33598.4    297.6   0.082042376   0.80389  -0.47333   0.14580   0.74739
  24   34192.9    292.5   0.348840853   3.35866  -1.78444   0.10201  -0.40503
  25   34569.7    289.3   0.647156514   6.16296   1.73564   1.73678   0.36622
  26   36313.2    275.4   0.000073525   0.00067   0.01306   0.01943  -0.01089
  27   36715.2    272.4   0.114841925   1.02975  -0.75935  -0.66452  -0.10743
  28   37231.6    268.6   0.051456067   0.45499  -0.50173   0.24445   0.37881
  29   37371.3    267.6   0.000121095   0.00107  -0.02264   0.01636   0.01692
  30   38779.8    257.9   0.167591866   1.42273   0.08034   1.13250  -0.36567
  31   38815.9    257.6   0.184873369   1.56798   0.48119   1.14386  -0.16742
  32   38840.5    257.5   0.009200453   0.07798   0.25451   0.03082   0.11071
  33   39271.9    254.6   0.000705627   0.00592  -0.02657  -0.07095  -0.01326
  34   39532.4    253.0   0.080764774   0.67258   0.34243   0.52736  -0.52651
  35   39620.5    252.4   0.075489043   0.62725  -0.73163  -0.23209  -0.19522

FINAL SINGLE POINT ENERGY     -9574.304777331710

DIPOLE MOMENT
-------------
                                X             Y             Z
Electronic contribution:    -69.46657     -43.88619     -65.51986
Nuclear contribution   :     72.83602      44.80903      62.20779
                        -----------------------------------------
Total Dipole Moment    :      3.36945       0.92284      -3.31208
                        -----------------------------------------
Magnitude (a.u.)       :      4.81401
Magnitude (Debye)      :     12.23624

Rotational constants in cm-1:     0.001191     0.000163     0.000158
Rotational constants in MHz :    35.711780     4.872467     4.726896

                             ****ORCA TERMINATED NORMALLY****
TOTAL RUN TIME: 0 days 0 hours 13 minutes 39 seconds 859 msec
