                         Program Version 4.2.0 -  RELEASE  -
|  1> # ORCA input file
|  2> # SCF done       -171.224422945887          0.000895476352
|  3> ! CAM-B3LYP def2-SVP def2/J RIJCOSX Grid4 TightSCF
|  4> %maxcore 5000
|  5> %tddft
|  6>     Mode sTDDFT
|  7>     Ethresh 5.0
|  8>     maxcore 5000
|  9> end
| 10>
| 11> %pal
| 12>   nprocs 6
| 13>   end
| 14> * xyz 0 1
| 15>    C       -8.01881         7.50522         0.65292
| 16>    C       -6.95232         8.13687         1.25597
| 17>    C       -5.68204         8.27299         0.66769
| 18>    N       -4.63197         8.43476         0.22883
| 19>    C       -7.00341         8.76648         2.51211
| 20>    N       -6.99365         9.31104         3.52498
| 21>    C       -8.00473         6.91369        -0.67636
| 22>    C       -9.30640         6.44945        -0.98572
| 23>    C       -9.62074         5.85979        -2.18327
| 24>    C       -8.60647         5.74809        -3.14121
| 25>    C       -7.31250         6.22277        -2.82829
| 26>    C       -6.98683         6.79383        -1.60571
| 27>    S       -6.21876         6.02279        -4.16806
| 28>    C       -7.50394         5.31796        -5.11695
| 29>    C       -8.68617         5.22997        -4.46296
| 30>   Br       -7.16310         4.78212        -6.88526
| 31>    C      -10.20376         6.73638         0.14902
| 32>    O      -11.36474         6.39156         0.26524
| 33>    C       -9.37248         7.42828         1.15122
| 34>    C       -9.83533         7.88560         2.35794
| 35>    N      -11.13271         8.13951         2.66117
| 36>    C      -12.16179         8.38771         1.79088
| 37>    S      -13.77647         7.95151         2.24299
| 38>    C      -14.35031         8.53198         0.71546
| 39>    N      -15.72228         8.46542         0.45987
| 40>    O      -16.11809         8.86821        -0.62027
| 41>    O      -16.42715         8.00917         1.34584
| 42>    C      -13.35274         9.02393        -0.08627
| 43>    C      -12.09033         8.97286         0.52521
| 44>    C      -10.85888         9.45354        -0.06777
| 45>    C      -10.55544         9.30456        -1.36787
| 46>    C       -9.28362         9.68133        -1.91895
| 47>    C       -8.86398         9.45804        -3.17218
| 48>    C       -9.69611         8.84007        -4.25286
| 49>    C       -7.48194         9.88488        -3.61127
| 50>    N       -7.53272        10.74925        -4.77044
| 51>    C       -8.01608        12.01312        -4.74283
| 52>    C       -8.17077        12.78911        -3.63571
| 53>    C       -8.68009        14.10422        -3.62982
| 54>    C       -9.41123        14.75537        -4.59236
| 55>    C       -9.87451        16.09074        -4.50809
| 56>    C      -10.66242        16.48920        -5.54713
| 57>    C      -10.88053        15.48868        -6.51551
| 58>    S      -10.01748        14.03261        -6.08129
| 59>    C      -11.66377        15.55129        -7.65609
| 60>    C      -12.38838        16.64701        -8.15943
| 61>    C      -13.09478        16.36431        -9.29393
| 62>    C      -12.97021        15.03166        -9.74166
| 63>    S      -11.89845        14.14647        -8.67860
| 64>    C      -13.60994        14.48509       -10.83672
| 65>    C      -13.54336        13.17541       -11.29698
| 66>    S      -12.57456        11.94595       -10.54274
| 67>    C      -13.10089        10.70887       -11.64268
| 68>    C      -13.97258        11.23894       -12.60297
| 69>    C      -14.23638        12.62673       -12.40587
| 70>    C      -15.10244        13.29474       -13.27429
| 71>    C      -15.68932        12.63875       -14.33729
| 72>    C      -16.59283        13.35639       -15.23187
| 73>    C      -17.39261        14.34897       -14.86191
| 74>    C      -15.38052        11.26849       -14.57275
| 75>    C      -15.98155        10.54977       -15.74305
| 76>    C      -14.54395        10.59839       -13.72039
| 77>    C      -12.61063         9.38456       -11.41377
| 78>    C      -13.15057         8.23514       -11.82716
| 79>    H      -10.62130         5.50974        -2.38389
| 80>    H       -5.98159         7.12842        -1.41326
| 81>    H       -9.58046         4.81988        -4.89549
| 82>    H       -9.14673         8.08854         3.16720
| 83>    H      -11.38707         8.10559         3.64072
| 84>    H      -13.54226         9.43706        -1.06014
| 85>    H      -10.14539         9.91190         0.60536
| 86>    H      -11.27465         8.83304        -2.02025
| 87>    H       -8.60019        10.15096        -1.22134
| 88>    H      -10.21611         9.61812        -4.81405
| 89>    H      -10.44109         8.16209        -3.84915
| 90>    H       -9.06858         8.28497        -4.94825
| 91>    H       -6.89247         9.00351        -3.88284
| 92>    H       -6.96118        10.39725        -2.79949
| 93>    H       -7.55654        10.28401        -5.66350
| 94>    H       -8.21150        12.43047        -5.71957
| 95>    H       -7.85751        12.40487        -2.67643
| 96>    H       -8.51318        14.67184        -2.72255
| 97>    H       -9.61370        16.71713        -3.67290
| 98>    H      -11.10674        17.46471        -5.62972
| 99>    H      -12.37501        17.60932        -7.67996
|100>    H      -13.70870        17.07550        -9.81830
|101>    H      -14.24860        15.15901       -11.39231
|102>    H      -15.29683        14.34634       -13.13103
|103>    H      -16.60223        13.02936       -16.26271
|104>    H      -17.45580        14.68521       -13.84041
|105>    H      -18.03681        14.84689       -15.56621
|106>    H      -15.62384        10.97449       -16.68110
|107>    H      -17.06745        10.63115       -15.72764
|108>    H      -15.71188         9.49672       -15.72302
|109>    H      -14.29646         9.56861       -13.92106
|110>    H      -11.72619         9.34620       -10.78800
|111>    H      -14.06957         8.18836       -12.38192
|112>    H      -12.69325         7.29338       -11.57894
|113> *
|114>
|115>                          ****END OF INPUT****

CARTESIAN COORDINATES (ANGSTROEM)
---------------------------------
  C     -8.018810    7.505220    0.652920
  C     -6.952320    8.136870    1.255970
  C     -5.682040    8.272990    0.667690
  N     -4.631970    8.434760    0.228830
  C     -7.003410    8.766480    2.512110
  N     -6.993650    9.311040    3.524980
  C     -8.004730    6.913690   -0.676360
  C     -9.306400    6.449450   -0.985720
  C     -9.620740    5.859790   -2.183270
  C     -8.606470    5.748090   -3.141210
  C     -7.312500    6.222770   -2.828290
  C     -6.986830    6.793830   -1.605710
  S     -6.218760    6.022790   -4.168060
  C     -7.503940    5.317960   -5.116950
  C     -8.686170    5.229970   -4.462960
  Br    -7.163100    4.782120   -6.885260
  C    -10.203760    6.736380    0.149020
  O    -11.364740    6.391560    0.265240
  C     -9.372480    7.428280    1.151220
  C     -9.835330    7.885600    2.357940
  N    -11.132710    8.139510    2.661170
  C    -12.161790    8.387710    1.790880
  S    -13.776470    7.951510    2.242990
  C    -14.350310    8.531980    0.715460
  N    -15.722280    8.465420    0.459870
  O    -16.118090    8.868210   -0.620270
  O    -16.427150    8.009170    1.345840
  C    -13.352740    9.023930   -0.086270
  C    -12.090330    8.972860    0.525210
  C    -10.858880    9.453540   -0.067770
  C    -10.555440    9.304560   -1.367870
  C     -9.283620    9.681330   -1.918950
  C     -8.863980    9.458040   -3.172180
  C     -9.696110    8.840070   -4.252860
  C     -7.481940    9.884880   -3.611270
  N     -7.532720   10.749250   -4.770440
  C     -8.016080   12.013120   -4.742830
  C     -8.170770   12.789110   -3.635710
  C     -8.680090   14.104220   -3.629820
  C     -9.411230   14.755370   -4.592360
  C     -9.874510   16.090740   -4.508090
  C    -10.662420   16.489200   -5.547130
  C    -10.880530   15.488680   -6.515510
  S    -10.017480   14.032610   -6.081290
  C    -11.663770   15.551290   -7.656090
  C    -12.388380   16.647010   -8.159430
  C    -13.094780   16.364310   -9.293930
  C    -12.970210   15.031660   -9.741660
  S    -11.898450   14.146470   -8.678600
  C    -13.609940   14.485090  -10.836720
  C    -13.543360   13.175410  -11.296980
  S    -12.574560   11.945950  -10.542740
  C    -13.100890   10.708870  -11.642680
  C    -13.972580   11.238940  -12.602970
  C    -14.236380   12.626730  -12.405870
  C    -15.102440   13.294740  -13.274290
  C    -15.689320   12.638750  -14.337290
  C    -16.592830   13.356390  -15.231870
  C    -17.392610   14.348970  -14.861910
  C    -15.380520   11.268490  -14.572750
  C    -15.981550   10.549770  -15.743050
  C    -14.543950   10.598390  -13.720390
  C    -12.610630    9.384560  -11.413770
  C    -13.150570    8.235140  -11.827160
  H    -10.621300    5.509740   -2.383890
  H     -5.981590    7.128420   -1.413260
  H     -9.580460    4.819880   -4.895490
  H     -9.146730    8.088540    3.167200
  H    -11.387070    8.105590    3.640720
  H    -13.542260    9.437060   -1.060140
  H    -10.145390    9.911900    0.605360
  H    -11.274650    8.833040   -2.020250
  H     -8.600190   10.150960   -1.221340
  H    -10.216110    9.618120   -4.814050
  H    -10.441090    8.162090   -3.849150
  H     -9.068580    8.284970   -4.948250
  H     -6.892470    9.003510   -3.882840
  H     -6.961180   10.397250   -2.799490
  H     -7.556540   10.284010   -5.663500
  H     -8.211500   12.430470   -5.719570
  H     -7.857510   12.404870   -2.676430
  H     -8.513180   14.671840   -2.722550
  H     -9.613700   16.717130   -3.672900
  H    -11.106740   17.464710   -5.629720
  H    -12.375010   17.609320   -7.679960
  H    -13.708700   17.075500   -9.818300
  H    -14.248600   15.159010  -11.392310
  H    -15.296830   14.346340  -13.131030
  H    -16.602230   13.029360  -16.262710
  H    -17.455800   14.685210  -13.840410
  H    -18.036810   14.846890  -15.566210
  H    -15.623840   10.974490  -16.681100
  H    -17.067450   10.631150  -15.727640
  H    -15.711880    9.496720  -15.723020
  H    -14.296460    9.568610  -13.921060
  H    -11.726190    9.346200  -10.788000
  H    -14.069570    8.188360  -12.381920
  H    -12.693250    7.293380  -11.578940

 Total Charge           Charge          ....    0
 Multiplicity           Mult            ....    1
 Number of Electrons    NEL             ....  508
 Basis Dimension        Dim             .... 1104

ORBITAL ENERGIES
----------------

  NO   OCC          E(Eh)            E(eV)
   0   2.0000    -482.895847    -13140.2640
   1   2.0000     -88.989220     -2421.5198
   2   2.0000     -88.988204     -2421.4921
   3   2.0000     -88.945163     -2420.3209
   4   2.0000     -88.934297     -2420.0253
   5   2.0000     -88.932192     -2419.9680
   6   2.0000     -62.573546     -1702.7128
   7   2.0000     -56.407523     -1534.9267
   8   2.0000     -56.404758     -1534.8515
   9   2.0000     -56.404751     -1534.8513
  10   2.0000     -19.239499      -523.5334
  11   2.0000     -19.238901      -523.5171
  12   2.0000     -19.221076      -523.0321
  13   2.0000     -14.650895      -398.6711
  14   2.0000     -14.513544      -394.9336
  15   2.0000     -14.441949      -392.9854
  16   2.0000     -14.427249      -392.5854
  17   2.0000     -14.423226      -392.4759
  18   2.0000     -10.373462      -282.2763
  19   2.0000     -10.372528      -282.2508
  20   2.0000     -10.372064      -282.2382
  21   2.0000     -10.370540      -282.1967
  22   2.0000     -10.353324      -281.7283
  23   2.0000     -10.348990      -281.6103
  24   2.0000     -10.347819      -281.5785
  25   2.0000     -10.334994      -281.2295
  26   2.0000     -10.330176      -281.0984
  27   2.0000     -10.326603      -281.0012
  28   2.0000     -10.317952      -280.7657
  29   2.0000     -10.317856      -280.7631
  30   2.0000     -10.315972      -280.7119
  31   2.0000     -10.315030      -280.6862
  32   2.0000     -10.314512      -280.6721
  33   2.0000     -10.311502      -280.5902
  34   2.0000     -10.308863      -280.5184
  35   2.0000     -10.308050      -280.4963
  36   2.0000     -10.307551      -280.4827
  37   2.0000     -10.304386      -280.3966
  38   2.0000     -10.301382      -280.3149
  39   2.0000     -10.298964      -280.2491
  40   2.0000     -10.295507      -280.1550
  41   2.0000     -10.294537      -280.1286
  42   2.0000     -10.294218      -280.1199
  43   2.0000     -10.291991      -280.0593
  44   2.0000     -10.290301      -280.0133
  45   2.0000     -10.288782      -279.9720
  46   2.0000     -10.287405      -279.9345
  47   2.0000     -10.280393      -279.7437
  48   2.0000     -10.279065      -279.7076
  49   2.0000     -10.278375      -279.6888
  50   2.0000     -10.275889      -279.6212
  51   2.0000     -10.274391      -279.5804
  52   2.0000     -10.270748      -279.4813
  53   2.0000     -10.269766      -279.4545
  54   2.0000     -10.267612      -279.3959
  55   2.0000     -10.267322      -279.3880
  56   2.0000     -10.267054      -279.3807
  57   2.0000     -10.263299      -279.2786
  58   2.0000     -10.261639      -279.2334
  59   2.0000     -10.260769      -279.2097
  60   2.0000     -10.260742      -279.2090
  61   2.0000     -10.260238      -279.1953
  62   2.0000     -10.258086      -279.1367
  63   2.0000     -10.255596      -279.0690
  64   2.0000     -10.253471      -279.0111
  65   2.0000     -10.252241      -278.9777
  66   2.0000     -10.251479      -278.9569
  67   2.0000     -10.249112      -278.8925
  68   2.0000      -8.802941      -239.5402
  69   2.0000      -8.084884      -220.0009
  70   2.0000      -8.083574      -219.9652
  71   2.0000      -8.040120      -218.7828
  72   2.0000      -8.030246      -218.5141
  73   2.0000      -8.028193      -218.4582
  74   2.0000      -6.639284      -180.6641
  75   2.0000      -6.624670      -180.2664
  76   2.0000      -6.624421      -180.2597
  77   2.0000      -6.054506      -164.7515
  78   2.0000      -6.053258      -164.7175
  79   2.0000      -6.050139      -164.6327
  80   2.0000      -6.049037      -164.6027
  81   2.0000      -6.046409      -164.5311
  82   2.0000      -6.044865      -164.4891
  83   2.0000      -6.009073      -163.5152
  84   2.0000      -6.005037      -163.4054
  85   2.0000      -6.002921      -163.3478
  86   2.0000      -5.999954      -163.2670
  87   2.0000      -5.997913      -163.2115
  88   2.0000      -5.995940      -163.1578
  89   2.0000      -5.993794      -163.0994
  90   2.0000      -5.991292      -163.0313
  91   2.0000      -5.989256      -162.9759
  92   2.0000      -2.755159       -74.9717
  93   2.0000      -2.751048       -74.8598
  94   2.0000      -2.750856       -74.8546
  95   2.0000      -2.739236       -74.5384
  96   2.0000      -2.739235       -74.5384
  97   2.0000      -1.319228       -35.8980
  98   2.0000      -1.138876       -30.9904
  99   2.0000      -1.138069       -30.9684
 100   2.0000      -1.106669       -30.1140
 101   2.0000      -1.041191       -28.3322
 102   2.0000      -1.032750       -28.1026
 103   2.0000      -1.023409       -27.8484
 104   2.0000      -1.011502       -27.5244
 105   2.0000      -1.003797       -27.3147
 106   2.0000      -0.997990       -27.1567
 107   2.0000      -0.982462       -26.7342
 108   2.0000      -0.975193       -26.5363
 109   2.0000      -0.957700       -26.0603
 110   2.0000      -0.951345       -25.8874
 111   2.0000      -0.935539       -25.4573
 112   2.0000      -0.925831       -25.1931
 113   2.0000      -0.917781       -24.9741
 114   2.0000      -0.912318       -24.8254
 115   2.0000      -0.906661       -24.6715
 116   2.0000      -0.895896       -24.3786
 117   2.0000      -0.891389       -24.2559
 118   2.0000      -0.884969       -24.0812
 119   2.0000      -0.880321       -23.9548
 120   2.0000      -0.861267       -23.4363
 121   2.0000      -0.859439       -23.3865
 122   2.0000      -0.853705       -23.2305
 123   2.0000      -0.846228       -23.0270
 124   2.0000      -0.839808       -22.8523
 125   2.0000      -0.839127       -22.8338
 126   2.0000      -0.830265       -22.5927
 127   2.0000      -0.820624       -22.3303
 128   2.0000      -0.809097       -22.0166
 129   2.0000      -0.808421       -21.9982
 130   2.0000      -0.805184       -21.9102
 131   2.0000      -0.796793       -21.6818
 132   2.0000      -0.788435       -21.4544
 133   2.0000      -0.779343       -21.2070
 134   2.0000      -0.772072       -21.0091
 135   2.0000      -0.766278       -20.8515
 136   2.0000      -0.757383       -20.6094
 137   2.0000      -0.741216       -20.1695
 138   2.0000      -0.730005       -19.8645
 139   2.0000      -0.716908       -19.5080
 140   2.0000      -0.707990       -19.2654
 141   2.0000      -0.702599       -19.1187
 142   2.0000      -0.701000       -19.0752
 143   2.0000      -0.688994       -18.7485
 144   2.0000      -0.678465       -18.4620
 145   2.0000      -0.673095       -18.3158
 146   2.0000      -0.668192       -18.1824
 147   2.0000      -0.666896       -18.1472
 148   2.0000      -0.656995       -17.8778
 149   2.0000      -0.652879       -17.7657
 150   2.0000      -0.648174       -17.6377
 151   2.0000      -0.643521       -17.5111
 152   2.0000      -0.636139       -17.3102
 153   2.0000      -0.633526       -17.2391
 154   2.0000      -0.632050       -17.1989
 155   2.0000      -0.630744       -17.1634
 156   2.0000      -0.623755       -16.9732
 157   2.0000      -0.618163       -16.8211
 158   2.0000      -0.614320       -16.7165
 159   2.0000      -0.610288       -16.6068
 160   2.0000      -0.607075       -16.5194
 161   2.0000      -0.602325       -16.3901
 162   2.0000      -0.596452       -16.2303
 163   2.0000      -0.595353       -16.2004
 164   2.0000      -0.592493       -16.1225
 165   2.0000      -0.585284       -15.9264
 166   2.0000      -0.584529       -15.9059
 167   2.0000      -0.572390       -15.5755
 168   2.0000      -0.570147       -15.5145
 169   2.0000      -0.564066       -15.3490
 170   2.0000      -0.560890       -15.2626
 171   2.0000      -0.557149       -15.1608
 172   2.0000      -0.551468       -15.0062
 173   2.0000      -0.547478       -14.8976
 174   2.0000      -0.542595       -14.7648
 175   2.0000      -0.540476       -14.7071
 176   2.0000      -0.538399       -14.6506
 177   2.0000      -0.535990       -14.5850
 178   2.0000      -0.534499       -14.5445
 179   2.0000      -0.528099       -14.3703
 180   2.0000      -0.527230       -14.3467
 181   2.0000      -0.521758       -14.1978
 182   2.0000      -0.517359       -14.0781
 183   2.0000      -0.515772       -14.0349
 184   2.0000      -0.513171       -13.9641
 185   2.0000      -0.510253       -13.8847
 186   2.0000      -0.506862       -13.7924
 187   2.0000      -0.503525       -13.7016
 188   2.0000      -0.501199       -13.6383
 189   2.0000      -0.498178       -13.5561
 190   2.0000      -0.495555       -13.4847
 191   2.0000      -0.493193       -13.4205
 192   2.0000      -0.491684       -13.3794
 193   2.0000      -0.486414       -13.2360
 194   2.0000      -0.485624       -13.2145
 195   2.0000      -0.484585       -13.1862
 196   2.0000      -0.481712       -13.1081
 197   2.0000      -0.477915       -13.0047
 198   2.0000      -0.473924       -12.8961
 199   2.0000      -0.472712       -12.8631
 200   2.0000      -0.469683       -12.7807
 201   2.0000      -0.468914       -12.7598
 202   2.0000      -0.466757       -12.7011
 203   2.0000      -0.464861       -12.6495
 204   2.0000      -0.461463       -12.5570
 205   2.0000      -0.459483       -12.5032
 206   2.0000      -0.455579       -12.3969
 207   2.0000      -0.454289       -12.3618
 208   2.0000      -0.453346       -12.3362
 209   2.0000      -0.451793       -12.2939
 210   2.0000      -0.451076       -12.2744
 211   2.0000      -0.450155       -12.2493
 212   2.0000      -0.448393       -12.2014
 213   2.0000      -0.442872       -12.0512
 214   2.0000      -0.440810       -11.9950
 215   2.0000      -0.436895       -11.8885
 216   2.0000      -0.436424       -11.8757
 217   2.0000      -0.434658       -11.8276
 218   2.0000      -0.428762       -11.6672
 219   2.0000      -0.422190       -11.4884
 220   2.0000      -0.421389       -11.4666
 221   2.0000      -0.418513       -11.3883
 222   2.0000      -0.413985       -11.2651
 223   2.0000      -0.412628       -11.2282
 224   2.0000      -0.409094       -11.1320
 225   2.0000      -0.406192       -11.0530
 226   2.0000      -0.400070       -10.8865
 227   2.0000      -0.397835       -10.8257
 228   2.0000      -0.397147       -10.8069
 229   2.0000      -0.391001       -10.6397
 230   2.0000      -0.390789       -10.6339
 231   2.0000      -0.386979       -10.5302
 232   2.0000      -0.384940       -10.4748
 233   2.0000      -0.379886       -10.3372
 234   2.0000      -0.379015       -10.3135
 235   2.0000      -0.373384       -10.1603
 236   2.0000      -0.367255        -9.9935
 237   2.0000      -0.364477        -9.9179
 238   2.0000      -0.356430        -9.6990
 239   2.0000      -0.354123        -9.6362
 240   2.0000      -0.348880        -9.4935
 241   2.0000      -0.336061        -9.1447
 242   2.0000      -0.329914        -8.9774
 243   2.0000      -0.326493        -8.8843
 244   2.0000      -0.321500        -8.7485
 245   2.0000      -0.314711        -8.5637
 246   2.0000      -0.307561        -8.3692
 247   2.0000      -0.304389        -8.2828
 248   2.0000      -0.295449        -8.0396
 249   2.0000      -0.283637        -7.7182
 250   2.0000      -0.280923        -7.6443
 251   2.0000      -0.278071        -7.5667
 252   2.0000      -0.235532        -6.4091
 253   2.0000      -0.182769        -4.9734
 254   0.0000      -0.095202        -2.5906
 255   0.0000      -0.067414        -1.8344
 256   0.0000      -0.066500        -1.8096
 257   0.0000      -0.045128        -1.2280
 258   0.0000      -0.030218        -0.8223

MULLIKEN ATOMIC CHARGES
-----------------------
   0 C :    0.328677
   1 C :   -0.359616
   2 C :   -0.183239
   3 N :    0.146979
   4 C :   -0.209586
   5 N :    0.150905
   6 C :    0.020275
   7 C :    0.022307
   8 C :   -0.095841
   9 C :    0.127717
  10 C :   -0.100361
  11 C :   -0.030536
  12 S :    0.177354
  13 C :   -0.127248
  14 C :    0.034589
  15 Br:    0.030268
  16 C :    0.140839
  17 O :   -0.151652
  18 C :   -0.168657
  19 C :    0.026470
  20 N :    0.013875
  21 C :   -0.091455
  22 S :    0.185628
  23 C :   -0.002381
  24 N :    0.278508
  25 O :   -0.246375
  26 O :   -0.263742
  27 C :    0.003263
  28 C :    0.098164
  29 C :   -0.006054
  30 C :    0.002306
  31 C :    0.023090
  32 C :   -0.186215
  33 C :    0.093015
  34 C :    0.202258
  35 N :   -0.151749
  36 C :    0.044946
  37 C :   -0.045254
  38 C :    0.016384
  39 C :   -0.051265
  40 C :    0.043015
  41 C :    0.012476
  42 C :   -0.037060
  43 S :    0.040244
  44 C :   -0.041826
  45 C :    0.026107
  46 C :    0.019128
  47 C :   -0.033293
  48 S :    0.051906
  49 C :   -0.028494
  50 C :   -0.089243
  51 S :    0.113948
  52 C :   -0.146882
  53 C :    0.140366
  54 C :    0.127708
  55 C :   -0.109197
  56 C :    0.080305
  57 C :   -0.037042
  58 C :   -0.016605
  59 C :   -0.076603
  60 C :    0.099594
  61 C :   -0.108604
  62 C :    0.026635
  63 C :   -0.042809
  64 H :   -0.011010
  65 H :   -0.008703
  66 H :   -0.000566
  67 H :    0.046843
  68 H :    0.155778
  69 H :    0.011897
  70 H :    0.002555
  71 H :   -0.002108
  72 H :   -0.024751
  73 H :    0.049551
  74 H :    0.019563
  75 H :    0.006583
  76 H :    0.012630
  77 H :    0.019609
  78 H :    0.126831
  79 H :    0.022490
  80 H :   -0.029008
  81 H :   -0.015489
  82 H :   -0.017832
  83 H :   -0.021189
  84 H :   -0.021221
  85 H :   -0.020059
  86 H :   -0.023534
  87 H :   -0.039588
  88 H :   -0.008226
  89 H :    0.015663
  90 H :    0.017263
  91 H :    0.026719
  92 H :    0.027900
  93 H :    0.005635
  94 H :   -0.050158
  95 H :   -0.016675
  96 H :    0.018813
  97 H :    0.013430
Sum of atomic charges:   -0.0000000

LOEWDIN ATOMIC CHARGES
----------------------
   0 C :    0.083417
   1 C :   -0.155177
   2 C :   -0.020248
   3 N :   -0.057492
   4 C :   -0.023509
   5 N :   -0.058193
   6 C :   -0.019067
   7 C :   -0.038441
   8 C :    0.014973
   9 C :   -0.031163
  10 C :   -0.149010
  11 C :   -0.008617
  12 S :    0.427529
  13 C :   -0.273160
  14 C :   -0.069752
  15 Br:    0.139689
  16 C :    0.074749
  17 O :   -0.152358
  18 C :   -0.137722
  19 C :    0.098841
  20 N :    0.072479
  21 C :   -0.114469
  22 S :    0.469219
  23 C :   -0.199021
  24 N :    0.275522
  25 O :   -0.213350
  26 O :   -0.228901
  27 C :    0.006559
  28 C :   -0.078749
  29 C :   -0.025503
  30 C :   -0.003043
  31 C :   -0.050845
  32 C :   -0.018569
  33 C :   -0.052767
  34 C :    0.042102
  35 N :    0.003114
  36 C :    0.039108
  37 C :   -0.130306
  38 C :   -0.030367
  39 C :   -0.176215
  40 C :   -0.023742
  41 C :   -0.056404
  42 C :   -0.169241
  43 S :    0.362272
  44 C :   -0.196769
  45 C :   -0.039411
  46 C :   -0.045818
  47 C :   -0.154551
  48 S :    0.361557
  49 C :   -0.085663
  50 C :   -0.173471
  51 S :    0.458079
  52 C :   -0.198634
  53 C :   -0.039066
  54 C :   -0.049363
  55 C :   -0.004073
  56 C :   -0.036775
  57 C :   -0.019911
  58 C :   -0.046570
  59 C :   -0.017467
  60 C :   -0.045746
  61 C :   -0.031062
  62 C :   -0.043670
  63 C :   -0.067598
  64 H :    0.040249
  65 H :    0.040131
  66 H :    0.040127
  67 H :    0.043044
  68 H :    0.103721
  69 H :    0.046923
  70 H :    0.029635
  71 H :    0.028094
  72 H :    0.024793
  73 H :    0.044783
  74 H :    0.029558
  75 H :    0.026958
  76 H :    0.024525
  77 H :    0.029308
  78 H :    0.079168
  79 H :    0.015127
  80 H :    0.022014
  81 H :    0.033823
  82 H :    0.031206
  83 H :    0.028946
  84 H :    0.029206
  85 H :    0.029950
  86 H :    0.035477
  87 H :    0.023816
  88 H :    0.026718
  89 H :    0.019759
  90 H :    0.022487
  91 H :    0.032563
  92 H :    0.034018
  93 H :    0.028645
  94 H :    0.022541
  95 H :    0.024676
  96 H :    0.018899
  97 H :    0.020921

  Mayer bond orders larger than 0.100000
B(  0-C ,  1-C ) :   1.6066 B(  0-C ,  6-C ) :   1.0053 B(  0-C , 18-C ) :   1.1256
B(  1-C ,  2-C ) :   1.1497 B(  1-C ,  4-C ) :   1.1517 B(  2-C ,  3-N ) :   2.9616
B(  4-C ,  5-N ) :   2.9713 B(  6-C ,  7-C ) :   1.2848 B(  6-C , 11-C ) :   1.4043
B(  7-C ,  8-C ) :   1.4289 B(  7-C , 16-C ) :   0.9336 B(  8-C ,  9-C ) :   1.2263
B(  8-C , 64-H ) :   1.0203 B(  9-C , 10-C ) :   1.3139 B(  9-C , 14-C ) :   1.1601
B( 10-C , 11-C ) :   1.3232 B( 10-C , 12-S ) :   1.0774 B( 11-C , 65-H ) :   0.9812
B( 12-S , 13-C ) :   1.0826 B( 13-C , 14-C ) :   1.6127 B( 13-C , 15-Br) :   1.0230
B( 14-C , 66-H ) :   1.0021 B( 16-C , 17-O ) :   2.2183 B( 16-C , 18-C ) :   0.9326
B( 18-C , 19-C ) :   1.5088 B( 19-C , 20-N ) :   1.2890 B( 19-C , 67-H ) :   0.9309
B( 20-N , 21-C ) :   1.1324 B( 20-N , 68-H ) :   0.9034 B( 21-C , 22-S ) :   1.1390
B( 21-C , 28-C ) :   1.4078 B( 22-S , 23-C ) :   1.1036 B( 23-C , 24-N ) :   0.9672
B( 23-C , 27-C ) :   1.4738 B( 24-N , 25-O ) :   1.5376 B( 24-N , 26-O ) :   1.5108
B( 25-O , 26-O ) :   0.2621 B( 27-C , 28-C ) :   1.2611 B( 27-C , 69-H ) :   1.0050
B( 28-C , 29-C ) :   1.0456 B( 29-C , 30-C ) :   1.7477 B( 29-C , 70-H ) :   0.9493
B( 30-C , 31-C ) :   1.1088 B( 30-C , 71-H ) :   0.9661 B( 31-C , 32-C ) :   1.7959
B( 31-C , 72-H ) :   0.9654 B( 32-C , 33-C ) :   1.0649 B( 32-C , 34-C ) :   1.0314
B( 33-C , 73-H ) :   0.9434 B( 33-C , 74-H ) :   0.9432 B( 33-C , 75-H ) :   0.9469
B( 34-C , 35-N ) :   1.0320 B( 34-C , 76-H ) :   0.9243 B( 34-C , 77-H ) :   0.9345
B( 35-N , 36-C ) :   1.2345 B( 35-N , 78-H ) :   0.9375 B( 36-C , 37-C ) :   1.6107
B( 36-C , 79-H ) :   0.9469 B( 37-C , 38-C ) :   1.2042 B( 37-C , 80-H ) :   0.9536
B( 38-C , 39-C ) :   1.5907 B( 38-C , 81-H ) :   0.9578 B( 39-C , 40-C ) :   1.1599
B( 39-C , 43-S ) :   1.0088 B( 40-C , 41-C ) :   1.5749 B( 40-C , 82-H ) :   0.9967
B( 41-C , 42-C ) :   1.1999 B( 41-C , 83-H ) :   0.9932 B( 42-C , 43-S ) :   1.0504
B( 42-C , 44-C ) :   1.4865 B( 44-C , 45-C ) :   1.2087 B( 44-C , 48-S ) :   1.0280
B( 45-C , 46-C ) :   1.5579 B( 45-C , 84-H ) :   0.9933 B( 46-C , 47-C ) :   1.1721
B( 46-C , 85-H ) :   0.9998 B( 47-C , 48-S ) :   1.0449 B( 47-C , 49-C ) :   1.5123
B( 49-C , 50-C ) :   1.2559 B( 49-C , 86-H ) :   0.9611 B( 50-C , 51-S ) :   1.1318
B( 50-C , 54-C ) :   1.2500 B( 51-S , 52-C ) :   1.1235 B( 52-C , 53-C ) :   1.3458
B( 52-C , 62-C ) :   1.1236 B( 53-C , 54-C ) :   1.2214 B( 53-C , 61-C ) :   1.1843
B( 54-C , 55-C ) :   1.2283 B( 55-C , 56-C ) :   1.4922 B( 55-C , 87-H ) :   0.9886
B( 56-C , 57-C ) :   1.0351 B( 56-C , 59-C ) :   1.2121 B( 57-C , 58-C ) :   1.9716
B( 57-C , 88-H ) :   0.9510 B( 58-C , 89-H ) :   0.9566 B( 58-C , 90-H ) :   0.9499
B( 59-C , 60-C ) :   1.0871 B( 59-C , 61-C ) :   1.5473 B( 60-C , 91-H ) :   0.9412
B( 60-C , 92-H ) :   0.9436 B( 60-C , 93-H ) :   0.9542 B( 61-C , 94-H ) :   0.9896
B( 62-C , 63-C ) :   1.9088 B( 62-C , 95-H ) :   0.9454 B( 63-C , 96-H ) :   0.9577
B( 63-C , 97-H ) :   0.9473

-----------------------------------------------------------------------------
         ABSORPTION SPECTRUM VIA TRANSITION ELECTRIC DIPOLE MOMENTS
-----------------------------------------------------------------------------
State   Energy  Wavelength   fosc         T2         TX        TY        TZ
        (cm-1)    (nm)                  (au**2)     (au)      (au)      (au)
-----------------------------------------------------------------------------
   0    9345.5   1070.0   0.000076899   0.00271  -0.01646   0.00912  -0.04853
   1   12611.8    792.9   1.009748893  26.35805  -2.67421  -1.08919  -4.24503
   2   14840.1    673.9   0.000977873   0.02169   0.00421   0.13129  -0.06662
   3   19897.8    502.6   0.001398540   0.02314  -0.01442  -0.14210   0.05234
   4   20212.1    494.8   0.006486542   0.10565   0.09412   0.23092   0.20849
   5   20724.3    482.5   0.000112064   0.00178   0.02578  -0.03281  -0.00628
   6   21588.2    463.2   0.010807362   0.16481  -0.04384   0.40354   0.00621
   7   21845.9    457.8   0.071346928   1.07518  -0.92091   0.35985  -0.31244
   8   24199.5    413.2   0.635468838   8.64498   0.69702  -2.76524   0.71595
   9   24857.6    402.3   0.515697462   6.82986   2.46779  -0.69522  -0.50650
  10   26192.0    381.8   0.000521619   0.00656   0.06843   0.04234   0.00902
  11   26923.6    371.4   0.109607164   1.34024  -0.77385   0.77409  -0.37705
  12   27452.1    364.3   0.001201078   0.01440   0.10094  -0.01447   0.06329
  13   27781.4    360.0   0.000160119   0.00190  -0.03074  -0.00939   0.02940
  14   28568.8    350.0   0.258842240   2.98276  -0.80814  -0.76144  -1.32284
  15   28987.9    345.0   0.159706326   1.81376  -0.34981   1.28127  -0.22303
  16   29659.8    337.2   0.064699868   0.71814  -0.28297   0.49068  -0.63032
  17   29692.4    336.8   0.008866619   0.09831  -0.21053   0.21965  -0.07575
  18   29844.2    335.1   0.308344357   3.40136  -0.79523   0.78494   1.46726
  19   30613.4    326.7   0.018287338   0.19666   0.06160   0.20494   0.38841
  20   31195.1    320.6   0.071237358   0.75179  -0.43132  -0.38188  -0.64801
  21   31434.9    318.1   0.002944943   0.03084   0.05982   0.14243   0.08352
  22   32143.3    311.1   0.209936538   2.15017   0.91808  -0.58018   0.98523
  23   32259.7    310.0   0.055733671   0.56877  -0.67156  -0.26567  -0.21725
  24   32540.4    307.3   0.235597362   2.38355  -0.16364   1.49753   0.33788
  25   32900.6    303.9   0.021322805   0.21336   0.24720  -0.37476   0.10865
  26   33179.3    301.4   0.000133540   0.00133   0.00059   0.03632  -0.00230
  27   33336.3    300.0   0.179400354   1.77166  -1.16594  -0.50615  -0.39505
  28   33716.4    296.6   0.001358575   0.01327  -0.02111   0.00391  -0.11316
  29   33912.7    294.9   0.073180974   0.71041   0.38357   0.28947   0.69246
  30   34117.7    293.1   0.178785548   1.72515   0.84839  -0.44632   0.89788
  31   34369.9    291.0   0.194637641   1.86433  -1.08389  -0.46497  -0.68798
  32   34947.0    286.1   0.000173901   0.00164  -0.03613  -0.00677   0.01694
  33   35206.3    284.0   0.149784651   1.40063   0.96163  -0.09347  -0.68349
  34   35395.1    282.5   0.001044379   0.00971  -0.06842   0.04060   0.05817
  35   35414.7    282.4   0.057926456   0.53848   0.71808  -0.01942  -0.14988
  36   36225.2    276.1   0.000857522   0.00779   0.02921   0.08133  -0.01805
  37   36388.6    274.8   0.172878424   1.56405   0.20387  -0.24902  -1.20850
  38   36470.7    274.2   0.036788117   0.33208   0.04182  -0.34463  -0.45995
  39   37022.4    270.1   0.000161396   0.00144   0.01852  -0.01413  -0.02987
  40   37583.6    266.1   0.096182300   0.84251  -0.44933  -0.25762  -0.75779
  41   37729.2    265.0   0.001052404   0.00918  -0.03792   0.08692  -0.01377
  42   37944.7    263.5   0.032534834   0.28228   0.26452  -0.40446   0.22071
  43   38460.7    260.0   0.173220348   1.48271  -0.17194  -0.20849  -1.18730
  44   38519.4    259.6   0.015764937   0.13474  -0.29908  -0.13259  -0.16645
  45   38598.3    259.1   0.000074266   0.00063   0.02002  -0.00530   0.01431
  46   38688.8    258.5   0.005816931   0.04950   0.07919  -0.13524   0.15791
  47   38781.7    257.9   0.003433795   0.02915  -0.08820   0.04538  -0.13896
  48   39035.5    256.2   0.054304609   0.45799   0.65431   0.09946  -0.14131
  49   39389.9    253.9   0.000305509   0.00255  -0.04469  -0.01488  -0.01830
  50   39524.2    253.0   0.000459175   0.00382   0.00813   0.00065  -0.06130
  51   39627.0    252.4   0.032229435   0.26775  -0.23378  -0.07466   0.45555
  52   39764.3    251.5   0.008912664   0.07379   0.00740   0.06025   0.26477
  53   39863.4    250.9   0.174839379   1.44391  -0.55690  -0.16087   1.05256

FINAL SINGLE POINT ENERGY     -6986.187723923859

DIPOLE MOMENT
-------------
                                X             Y             Z
Electronic contribution:     62.06259     -83.28717      45.67272
Nuclear contribution   :    -61.09429      82.40774     -45.30364
                        -----------------------------------------
Total Dipole Moment    :      0.96830      -0.87943       0.36908
                        -----------------------------------------
Magnitude (a.u.)       :      1.35912
Magnitude (Debye)      :      3.45462

Rotational constants in cm-1:     0.001100     0.000424     0.000392
Rotational constants in MHz :    32.979324    12.713010    11.763331

                             ****ORCA TERMINATED NORMALLY****
TOTAL RUN TIME: 0 days 0 hours 8 minutes 29 seconds 715 msec
