                         Program Version 4.2.0 -  RELEASE  -
|  1> # ORCA input file
|  2> # SCF done       -153.332551347078          0.000873032309
|  3> ! CAM-B3LYP def2-SVP def2/J RIJCOSX Grid4 TightSCF
|  4> %maxcore 5000
|  5> %tddft
|  6>     Mode sTDDFT
|  7>     Ethresh 5.0
|  8>     maxcore 5000
|  9> end
| 10>
| 11> %pal
| 12>   nprocs 6
| 13>   end
| 14> * xyz 0 1
| 15>    C       -7.49867        -2.80528        -0.27092
| 16>    C       -7.37944        -3.79740        -1.21229
| 17>    C       -8.14721        -4.97926        -1.21791
| 18>    N       -8.72828        -5.96828        -1.27187
| 19>    C       -6.44709        -3.80003        -2.26975
| 20>    N       -5.69873        -3.88912        -3.13672
| 21>    C       -8.38094        -2.84115         0.89056
| 22>    C       -8.11630        -1.70508         1.69405
| 23>    C       -8.76911        -1.46426         2.87691
| 24>    C       -9.73596        -2.38778         3.28513
| 25>    C      -10.00889        -3.51137         2.46972
| 26>    C       -9.34214        -3.75762         1.27571
| 27>    S      -11.27447        -4.49575         3.13624
| 28>    C      -11.43049        -3.39203         4.47379
| 29>    C      -10.56392        -2.35100         4.43787
| 30>   Br      -12.73541        -3.66988         5.79300
| 31>    C       -7.07809        -0.87920         1.05108
| 32>    O       -6.69726         0.21413         1.41668
| 33>    C       -6.68505        -1.61077        -0.17535
| 34>    C       -5.81801        -1.13924        -1.12997
| 35>    C       -4.81642        -0.16456        -0.95592
| 36>    S       -4.29245         0.76035        -2.33966
| 37>    C       -3.16981         1.61658        -1.37356
| 38>    C       -3.14995         1.22341        -0.06758
| 39>    C       -2.21057         1.80467         0.93536
| 40>    C       -4.08639         0.18376         0.19061
| 41>    C       -4.25183        -0.56257         1.40111
| 42>    C       -4.12982        -0.12946         2.67342
| 43>    C       -4.47864        -0.90856         3.82457
| 44>    C       -5.08796        -2.11405         3.80717
| 45>    C       -5.47963        -2.82449         4.98529
| 46>    C       -6.07810        -4.02814         4.99824
| 47>    C       -6.43949        -4.78816         3.75711
| 48>    C       -6.39877        -4.70909         6.30812
| 49>    N       -7.77921        -5.11963         6.39341
| 50>    C       -8.19817        -6.37350         6.11329
| 51>    C       -9.48440        -6.70335         5.82515
| 52>    C       -9.92996        -8.01459         5.57760
| 53>    C      -11.20584        -8.31061         5.17676
| 54>    C      -11.77062        -9.57057         4.86255
| 55>    C      -13.06020        -9.51674         4.42641
| 56>    C      -13.58792        -8.20624         4.36171
| 57>    S      -12.41060        -7.05299         4.92435
| 58>    C      -14.81683        -7.77443         3.90720
| 59>    C      -15.91358        -8.51844         3.42786
| 60>    C      -16.96779        -7.75310         3.03155
| 61>    C      -16.75970        -6.35307         3.15583
| 62>    S      -15.17822        -6.05594         3.84057
| 63>    C      -17.68274        -5.38657         2.85278
| 64>    C      -17.53370        -3.98352         2.87258
| 65>    S      -18.99483        -3.01649         3.02225
| 66>    C      -18.12408        -1.53307         2.95446
| 67>    C      -16.79147        -1.76191         2.81565
| 68>    C      -16.44135        -3.13766         2.76826
| 69>    S      -14.76521        -3.46393         2.41868
| 70>    C      -14.25019        -1.79674         2.32788
| 71>    S      -12.70980        -1.37522         1.98172
| 72>    S      -15.49478        -0.60710         2.63236
| 73>    H       -8.54525        -0.58750         3.46341
| 74>    H       -9.59238        -4.62183         0.68341
| 75>    H      -10.53562        -1.56889         5.17444
| 76>    H       -5.90553        -1.53200        -2.13633
| 77>    H       -2.56560         2.37928        -1.82622
| 78>    H       -1.39469         2.31770         0.43217
| 79>    H       -1.80223         1.02185         1.57095
| 80>    H       -2.72850         2.52641         1.56594
| 81>    H       -4.59240        -1.57843         1.23797
| 82>    H       -3.83697         0.89090         2.86591
| 83>    H       -4.28001        -0.44887         4.78489
| 84>    H       -5.31412        -2.58599         2.86354
| 85>    H       -5.25260        -2.34330         5.92863
| 86>    H       -6.92682        -4.14323         3.02858
| 87>    H       -7.11528        -5.61013         3.98427
| 88>    H       -5.54464        -5.20568         3.29422
| 89>    H       -6.17726        -4.03459         7.14140
| 90>    H       -5.77687        -5.60406         6.41682
| 91>    H       -8.46131        -4.38163         6.28208
| 92>    H       -7.43520        -7.13933         6.17093
| 93>    H      -10.22119        -5.91366         5.76145
| 94>    H       -9.22721        -8.83030         5.68379
| 95>    H      -11.20018       -10.47802         4.95906
| 96>    H      -13.63961       -10.37421         4.13382
| 97>    H      -15.89605        -9.59320         3.38838
| 98>    H      -17.88953        -8.14254         2.63686
| 99>    H      -18.67796        -5.73573         2.60974
|100>    H      -18.63647        -0.59608         3.01558
|101> *
|102>
|103>                          ****END OF INPUT****

CARTESIAN COORDINATES (ANGSTROEM)
---------------------------------
  C     -7.498670   -2.805280   -0.270920
  C     -7.379440   -3.797400   -1.212290
  C     -8.147210   -4.979260   -1.217910
  N     -8.728280   -5.968280   -1.271870
  C     -6.447090   -3.800030   -2.269750
  N     -5.698730   -3.889120   -3.136720
  C     -8.380940   -2.841150    0.890560
  C     -8.116300   -1.705080    1.694050
  C     -8.769110   -1.464260    2.876910
  C     -9.735960   -2.387780    3.285130
  C    -10.008890   -3.511370    2.469720
  C     -9.342140   -3.757620    1.275710
  S    -11.274470   -4.495750    3.136240
  C    -11.430490   -3.392030    4.473790
  C    -10.563920   -2.351000    4.437870
  Br   -12.735410   -3.669880    5.793000
  C     -7.078090   -0.879200    1.051080
  O     -6.697260    0.214130    1.416680
  C     -6.685050   -1.610770   -0.175350
  C     -5.818010   -1.139240   -1.129970
  C     -4.816420   -0.164560   -0.955920
  S     -4.292450    0.760350   -2.339660
  C     -3.169810    1.616580   -1.373560
  C     -3.149950    1.223410   -0.067580
  C     -2.210570    1.804670    0.935360
  C     -4.086390    0.183760    0.190610
  C     -4.251830   -0.562570    1.401110
  C     -4.129820   -0.129460    2.673420
  C     -4.478640   -0.908560    3.824570
  C     -5.087960   -2.114050    3.807170
  C     -5.479630   -2.824490    4.985290
  C     -6.078100   -4.028140    4.998240
  C     -6.439490   -4.788160    3.757110
  C     -6.398770   -4.709090    6.308120
  N     -7.779210   -5.119630    6.393410
  C     -8.198170   -6.373500    6.113290
  C     -9.484400   -6.703350    5.825150
  C     -9.929960   -8.014590    5.577600
  C    -11.205840   -8.310610    5.176760
  C    -11.770620   -9.570570    4.862550
  C    -13.060200   -9.516740    4.426410
  C    -13.587920   -8.206240    4.361710
  S    -12.410600   -7.052990    4.924350
  C    -14.816830   -7.774430    3.907200
  C    -15.913580   -8.518440    3.427860
  C    -16.967790   -7.753100    3.031550
  C    -16.759700   -6.353070    3.155830
  S    -15.178220   -6.055940    3.840570
  C    -17.682740   -5.386570    2.852780
  C    -17.533700   -3.983520    2.872580
  S    -18.994830   -3.016490    3.022250
  C    -18.124080   -1.533070    2.954460
  C    -16.791470   -1.761910    2.815650
  C    -16.441350   -3.137660    2.768260
  S    -14.765210   -3.463930    2.418680
  C    -14.250190   -1.796740    2.327880
  S    -12.709800   -1.375220    1.981720
  S    -15.494780   -0.607100    2.632360
  H     -8.545250   -0.587500    3.463410
  H     -9.592380   -4.621830    0.683410
  H    -10.535620   -1.568890    5.174440
  H     -5.905530   -1.532000   -2.136330
  H     -2.565600    2.379280   -1.826220
  H     -1.394690    2.317700    0.432170
  H     -1.802230    1.021850    1.570950
  H     -2.728500    2.526410    1.565940
  H     -4.592400   -1.578430    1.237970
  H     -3.836970    0.890900    2.865910
  H     -4.280010   -0.448870    4.784890
  H     -5.314120   -2.585990    2.863540
  H     -5.252600   -2.343300    5.928630
  H     -6.926820   -4.143230    3.028580
  H     -7.115280   -5.610130    3.984270
  H     -5.544640   -5.205680    3.294220
  H     -6.177260   -4.034590    7.141400
  H     -5.776870   -5.604060    6.416820
  H     -8.461310   -4.381630    6.282080
  H     -7.435200   -7.139330    6.170930
  H    -10.221190   -5.913660    5.761450
  H     -9.227210   -8.830300    5.683790
  H    -11.200180  -10.478020    4.959060
  H    -13.639610  -10.374210    4.133820
  H    -15.896050   -9.593200    3.388380
  H    -17.889530   -8.142540    2.636860
  H    -18.677960   -5.735730    2.609740
  H    -18.636470   -0.596080    3.015580

 Total Charge           Charge          ....    0
 Multiplicity           Mult            ....    1
 Number of Electrons    NEL             ....  490
 Basis Dimension        Dim             .... 1002

ORBITAL ENERGIES
----------------

  NO   OCC          E(Eh)            E(eV)
   0   2.0000    -482.875181    -13139.7017
   1   2.0000     -88.963443     -2420.8183
   2   2.0000     -88.960330     -2420.7336
   3   2.0000     -88.955767     -2420.6095
   4   2.0000     -88.955541     -2420.6033
   5   2.0000     -88.951904     -2420.5044
   6   2.0000     -88.932141     -2419.9666
   7   2.0000     -88.932060     -2419.9644
   8   2.0000     -88.880141     -2418.5516
   9   2.0000     -62.552357     -1702.1362
  10   2.0000     -56.386326     -1534.3499
  11   2.0000     -56.383611     -1534.2761
  12   2.0000     -56.383563     -1534.2748
  13   2.0000     -19.205349      -522.6041
  14   2.0000     -14.441729      -392.9794
  15   2.0000     -14.408092      -392.0641
  16   2.0000     -14.407132      -392.0380
  17   2.0000     -10.359311      -281.8912
  18   2.0000     -10.354567      -281.7621
  19   2.0000     -10.348392      -281.5941
  20   2.0000     -10.333651      -281.1929
  21   2.0000     -10.333083      -281.1775
  22   2.0000     -10.322962      -280.9021
  23   2.0000     -10.317732      -280.7598
  24   2.0000     -10.315135      -280.6891
  25   2.0000     -10.311957      -280.6026
  26   2.0000     -10.311179      -280.5815
  27   2.0000     -10.310213      -280.5552
  28   2.0000     -10.306587      -280.4565
  29   2.0000     -10.305733      -280.4333
  30   2.0000     -10.304292      -280.3940
  31   2.0000     -10.303344      -280.3682
  32   2.0000     -10.302509      -280.3455
  33   2.0000     -10.300554      -280.2923
  34   2.0000     -10.299316      -280.2586
  35   2.0000     -10.297702      -280.2147
  36   2.0000     -10.295988      -280.1681
  37   2.0000     -10.295160      -280.1455
  38   2.0000     -10.295046      -280.1424
  39   2.0000     -10.293278      -280.0943
  40   2.0000     -10.290592      -280.0213
  41   2.0000     -10.289726      -279.9977
  42   2.0000     -10.289553      -279.9930
  43   2.0000     -10.287526      -279.9378
  44   2.0000     -10.286845      -279.9193
  45   2.0000     -10.285631      -279.8862
  46   2.0000     -10.283263      -279.8218
  47   2.0000     -10.281888      -279.7844
  48   2.0000     -10.281768      -279.7811
  49   2.0000     -10.278715      -279.6980
  50   2.0000     -10.276937      -279.6497
  51   2.0000     -10.276456      -279.6366
  52   2.0000     -10.275772      -279.6180
  53   2.0000     -10.275000      -279.5970
  54   2.0000     -10.274298      -279.5779
  55   2.0000     -10.272896      -279.5397
  56   2.0000     -10.272036      -279.5163
  57   2.0000     -10.270878      -279.4848
  58   2.0000     -10.268999      -279.4337
  59   2.0000     -10.267731      -279.3992
  60   2.0000     -10.266083      -279.3543
  61   2.0000     -10.258634      -279.1516
  62   2.0000      -8.781618      -238.9600
  63   2.0000      -8.058319      -219.2780
  64   2.0000      -8.056496      -219.2284
  65   2.0000      -8.052030      -219.1069
  66   2.0000      -8.050640      -219.0691
  67   2.0000      -8.047613      -218.9867
  68   2.0000      -8.028352      -218.4626
  69   2.0000      -8.028271      -218.4604
  70   2.0000      -7.976628      -217.0551
  71   2.0000      -6.617883      -180.0817
  72   2.0000      -6.603482      -179.6899
  73   2.0000      -6.603051      -179.6782
  74   2.0000      -6.028016      -164.0306
  75   2.0000      -6.025727      -163.9684
  76   2.0000      -6.023646      -163.9117
  77   2.0000      -6.021880      -163.8637
  78   2.0000      -6.021542      -163.8545
  79   2.0000      -6.020573      -163.8281
  80   2.0000      -6.019698      -163.8043
  81   2.0000      -6.018688      -163.7768
  82   2.0000      -6.017656      -163.7487
  83   2.0000      -6.017114      -163.7340
  84   2.0000      -6.016067      -163.7055
  85   2.0000      -6.012855      -163.6181
  86   2.0000      -6.012741      -163.6150
  87   2.0000      -6.011468      -163.5804
  88   2.0000      -6.009397      -163.5240
  89   2.0000      -5.998036      -163.2149
  90   2.0000      -5.997960      -163.2128
  91   2.0000      -5.994064      -163.1068
  92   2.0000      -5.993952      -163.1037
  93   2.0000      -5.989225      -162.9751
  94   2.0000      -5.989209      -162.9747
  95   2.0000      -5.946244      -161.8055
  96   2.0000      -5.943259      -161.7243
  97   2.0000      -5.936892      -161.5510
  98   2.0000      -2.733802       -74.3905
  99   2.0000      -2.729761       -74.2806
 100   2.0000      -2.729451       -74.2721
 101   2.0000      -2.718010       -73.9608
 102   2.0000      -2.717996       -73.9604
 103   2.0000      -1.120455       -30.4891
 104   2.0000      -1.043381       -28.3918
 105   2.0000      -1.013202       -27.5706
 106   2.0000      -1.004583       -27.3361
 107   2.0000      -1.003726       -27.3128
 108   2.0000      -0.994015       -27.0485
 109   2.0000      -0.986229       -26.8367
 110   2.0000      -0.983034       -26.7497
 111   2.0000      -0.979522       -26.6541
 112   2.0000      -0.961213       -26.1559
 113   2.0000      -0.948703       -25.8155
 114   2.0000      -0.933115       -25.3913
 115   2.0000      -0.924634       -25.1606
 116   2.0000      -0.905086       -24.6286
 117   2.0000      -0.899410       -24.4742
 118   2.0000      -0.897804       -24.4305
 119   2.0000      -0.893310       -24.3082
 120   2.0000      -0.883418       -24.0390
 121   2.0000      -0.874997       -23.8099
 122   2.0000      -0.869609       -23.6633
 123   2.0000      -0.863454       -23.4958
 124   2.0000      -0.858654       -23.3652
 125   2.0000      -0.849195       -23.1078
 126   2.0000      -0.838326       -22.8120
 127   2.0000      -0.835281       -22.7292
 128   2.0000      -0.827163       -22.5083
 129   2.0000      -0.818623       -22.2759
 130   2.0000      -0.811520       -22.0826
 131   2.0000      -0.808080       -21.9890
 132   2.0000      -0.798983       -21.7414
 133   2.0000      -0.782904       -21.3039
 134   2.0000      -0.779339       -21.2069
 135   2.0000      -0.769630       -20.9427
 136   2.0000      -0.761326       -20.7167
 137   2.0000      -0.752169       -20.4676
 138   2.0000      -0.747571       -20.3425
 139   2.0000      -0.742539       -20.2055
 140   2.0000      -0.718853       -19.5610
 141   2.0000      -0.709296       -19.3009
 142   2.0000      -0.698913       -19.0184
 143   2.0000      -0.693253       -18.8644
 144   2.0000      -0.682448       -18.5704
 145   2.0000      -0.671162       -18.2633
 146   2.0000      -0.668988       -18.2041
 147   2.0000      -0.654492       -17.8096
 148   2.0000      -0.649492       -17.6736
 149   2.0000      -0.647247       -17.6125
 150   2.0000      -0.641317       -17.4511
 151   2.0000      -0.635183       -17.2842
 152   2.0000      -0.627046       -17.0628
 153   2.0000      -0.618532       -16.8311
 154   2.0000      -0.615439       -16.7470
 155   2.0000      -0.614853       -16.7310
 156   2.0000      -0.613951       -16.7065
 157   2.0000      -0.606838       -16.5129
 158   2.0000      -0.601203       -16.3596
 159   2.0000      -0.594643       -16.1811
 160   2.0000      -0.587348       -15.9826
 161   2.0000      -0.584376       -15.9017
 162   2.0000      -0.576611       -15.6904
 163   2.0000      -0.573106       -15.5950
 164   2.0000      -0.570370       -15.5206
 165   2.0000      -0.568581       -15.4719
 166   2.0000      -0.551699       -15.0125
 167   2.0000      -0.547987       -14.9115
 168   2.0000      -0.541863       -14.7448
 169   2.0000      -0.536605       -14.6018
 170   2.0000      -0.533210       -14.5094
 171   2.0000      -0.530552       -14.4371
 172   2.0000      -0.526259       -14.3202
 173   2.0000      -0.521193       -14.1824
 174   2.0000      -0.517058       -14.0699
 175   2.0000      -0.516814       -14.0632
 176   2.0000      -0.515745       -14.0341
 177   2.0000      -0.511149       -13.9091
 178   2.0000      -0.508750       -13.8438
 179   2.0000      -0.505604       -13.7582
 180   2.0000      -0.502860       -13.6835
 181   2.0000      -0.502390       -13.6707
 182   2.0000      -0.499200       -13.5839
 183   2.0000      -0.498706       -13.5705
 184   2.0000      -0.492102       -13.3908
 185   2.0000      -0.487575       -13.2676
 186   2.0000      -0.485936       -13.2230
 187   2.0000      -0.484801       -13.1921
 188   2.0000      -0.483747       -13.1634
 189   2.0000      -0.479397       -13.0451
 190   2.0000      -0.475708       -12.9447
 191   2.0000      -0.470236       -12.7958
 192   2.0000      -0.467169       -12.7123
 193   2.0000      -0.464223       -12.6321
 194   2.0000      -0.463034       -12.5998
 195   2.0000      -0.462201       -12.5771
 196   2.0000      -0.459872       -12.5138
 197   2.0000      -0.457626       -12.4526
 198   2.0000      -0.454677       -12.3724
 199   2.0000      -0.452685       -12.3182
 200   2.0000      -0.451459       -12.2848
 201   2.0000      -0.450099       -12.2478
 202   2.0000      -0.446398       -12.1471
 203   2.0000      -0.442098       -12.0301
 204   2.0000      -0.441081       -12.0024
 205   2.0000      -0.439992       -11.9728
 206   2.0000      -0.436049       -11.8655
 207   2.0000      -0.433048       -11.7838
 208   2.0000      -0.432330       -11.7643
 209   2.0000      -0.430942       -11.7265
 210   2.0000      -0.426249       -11.5988
 211   2.0000      -0.423785       -11.5318
 212   2.0000      -0.421591       -11.4721
 213   2.0000      -0.419781       -11.4228
 214   2.0000      -0.419009       -11.4018
 215   2.0000      -0.417439       -11.3591
 216   2.0000      -0.414088       -11.2679
 217   2.0000      -0.413035       -11.2393
 218   2.0000      -0.407076       -11.0771
 219   2.0000      -0.404143       -10.9973
 220   2.0000      -0.402738       -10.9591
 221   2.0000      -0.399405       -10.8684
 222   2.0000      -0.390510       -10.6263
 223   2.0000      -0.382780       -10.4160
 224   2.0000      -0.379493       -10.3265
 225   2.0000      -0.371539       -10.1101
 226   2.0000      -0.366633        -9.9766
 227   2.0000      -0.361226        -9.8295
 228   2.0000      -0.356291        -9.6952
 229   2.0000      -0.345284        -9.3957
 230   2.0000      -0.339158        -9.2290
 231   2.0000      -0.337268        -9.1775
 232   2.0000      -0.331149        -9.0110
 233   2.0000      -0.326393        -8.8816
 234   2.0000      -0.316953        -8.6247
 235   2.0000      -0.310009        -8.4358
 236   2.0000      -0.302476        -8.2308
 237   2.0000      -0.295171        -8.0320
 238   2.0000      -0.287528        -7.8240
 239   2.0000      -0.281322        -7.6552
 240   2.0000      -0.275488        -7.4964
 241   2.0000      -0.262649        -7.1470
 242   2.0000      -0.257675        -7.0117
 243   2.0000      -0.252082        -6.8595
 244   2.0000      -0.194995        -5.3061
 245   0.0000      -0.087405        -2.3784
 246   0.0000      -0.061264        -1.6671
 247   0.0000      -0.051148        -1.3918
 248   0.0000      -0.027753        -0.7552
 249   0.0000      -0.020041        -0.5454

MULLIKEN ATOMIC CHARGES
-----------------------
   0 C :    0.312674
   1 C :   -0.350429
   2 C :   -0.189741
   3 N :    0.152114
   4 C :   -0.209220
   5 N :    0.159609
   6 C :    0.005078
   7 C :   -0.016664
   8 C :   -0.069448
   9 C :    0.126991
  10 C :   -0.070844
  11 C :   -0.027387
  12 S :    0.197898
  13 C :   -0.140945
  14 C :    0.036610
  15 Br:    0.030320
  16 C :    0.123033
  17 O :   -0.140019
  18 C :   -0.143949
  19 C :    0.036736
  20 C :   -0.163354
  21 S :    0.145509
  22 C :   -0.100964
  23 C :   -0.101143
  24 C :    0.114060
  25 C :    0.174270
  26 C :   -0.026415
  27 C :    0.031265
  28 C :    0.008339
  29 C :    0.019185
  30 C :    0.005505
  31 C :   -0.211954
  32 C :    0.085219
  33 C :    0.216402
  34 N :   -0.148421
  35 C :    0.053588
  36 C :   -0.024536
  37 C :    0.011402
  38 C :   -0.042972
  39 C :    0.050173
  40 C :    0.010046
  41 C :   -0.027217
  42 S :    0.044400
  43 C :   -0.065187
  44 C :    0.037466
  45 C :    0.018011
  46 C :   -0.017526
  47 S :    0.061280
  48 C :   -0.017201
  49 C :   -0.174198
  50 S :    0.119346
  51 C :   -0.136388
  52 C :   -0.011752
  53 C :   -0.005440
  54 S :    0.198867
  55 C :   -0.162282
  56 S :   -0.149789
  57 S :    0.181986
  58 H :   -0.017326
  59 H :   -0.007643
  60 H :   -0.007977
  61 H :    0.031639
  62 H :    0.024570
  63 H :    0.009749
  64 H :    0.029220
  65 H :    0.041567
  66 H :    0.008108
  67 H :   -0.019197
  68 H :   -0.021133
  69 H :   -0.015798
  70 H :   -0.033600
  71 H :    0.046427
  72 H :    0.017702
  73 H :    0.032632
  74 H :    0.006065
  75 H :    0.024813
  76 H :    0.124296
  77 H :    0.004173
  78 H :   -0.012780
  79 H :   -0.020778
  80 H :   -0.017041
  81 H :   -0.020155
  82 H :   -0.015590
  83 H :   -0.019309
  84 H :   -0.017992
  85 H :    0.023360
Sum of atomic charges:   -0.0000000

LOEWDIN ATOMIC CHARGES
----------------------
   0 C :    0.075044
   1 C :   -0.145076
   2 C :   -0.019081
   3 N :   -0.056113
   4 C :   -0.024801
   5 N :   -0.055267
   6 C :   -0.029519
   7 C :   -0.052477
   8 C :    0.020088
   9 C :   -0.036742
  10 C :   -0.146962
  11 C :   -0.008626
  12 S :    0.451596
  13 C :   -0.276994
  14 C :   -0.081388
  15 Br:    0.142104
  16 C :    0.071690
  17 O :   -0.132902
  18 C :   -0.106749
  19 C :    0.049540
  20 C :   -0.179572
  21 S :    0.452613
  22 C :   -0.164000
  23 C :   -0.056132
  24 C :   -0.044143
  25 C :   -0.008850
  26 C :   -0.004713
  27 C :   -0.014133
  28 C :   -0.025946
  29 C :   -0.014754
  30 C :   -0.047669
  31 C :   -0.040379
  32 C :   -0.057757
  33 C :    0.044767
  34 N :    0.005443
  35 C :    0.050248
  36 C :   -0.127159
  37 C :   -0.020474
  38 C :   -0.181023
  39 C :   -0.019211
  40 C :   -0.055472
  41 C :   -0.160796
  42 S :    0.369679
  43 C :   -0.206362
  44 C :   -0.025441
  45 C :   -0.053560
  46 C :   -0.139317
  47 S :    0.365180
  48 C :   -0.117930
  49 C :   -0.179337
  50 S :    0.436283
  51 C :   -0.217208
  52 C :   -0.217013
  53 C :   -0.240431
  54 S :    0.415153
  55 C :   -0.445961
  56 S :   -0.034044
  57 S :    0.395820
  58 H :    0.039223
  59 H :    0.040545
  60 H :    0.035451
  61 H :    0.044527
  62 H :    0.026079
  63 H :    0.033014
  64 H :    0.036194
  65 H :    0.037687
  66 H :    0.029700
  67 H :    0.028217
  68 H :    0.026179
  69 H :    0.021935
  70 H :    0.023121
  71 H :    0.038327
  72 H :    0.032024
  73 H :    0.040613
  74 H :    0.026535
  75 H :    0.033491
  76 H :    0.081485
  77 H :    0.027404
  78 H :    0.014091
  79 H :    0.031346
  80 H :    0.032034
  81 H :    0.029198
  82 H :    0.031516
  83 H :    0.029775
  84 H :    0.030782
  85 H :    0.025747

  Mayer bond orders larger than 0.100000
B(  0-C ,  1-C ) :   1.6291 B(  0-C ,  6-C ) :   1.0006 B(  0-C , 18-C ) :   1.0746
B(  1-C ,  2-C ) :   1.1478 B(  1-C ,  4-C ) :   1.1436 B(  2-C ,  3-N ) :   2.9725
B(  4-C ,  5-N ) :   2.9910 B(  6-C ,  7-C ) :   1.2660 B(  6-C , 11-C ) :   1.4049
B(  7-C ,  8-C ) :   1.4234 B(  7-C , 16-C ) :   0.9289 B(  8-C ,  9-C ) :   1.2374
B(  8-C , 58-H ) :   1.0188 B(  9-C , 10-C ) :   1.3018 B(  9-C , 14-C ) :   1.1618
B( 10-C , 11-C ) :   1.3267 B( 10-C , 12-S ) :   1.0755 B( 11-C , 59-H ) :   0.9830
B( 12-S , 13-C ) :   1.1045 B( 13-C , 14-C ) :   1.5866 B( 13-C , 15-Br) :   1.0312
B( 14-C , 60-H ) :   1.0029 B( 16-C , 17-O ) :   2.2077 B( 16-C , 18-C ) :   0.9685
B( 18-C , 19-C ) :   1.5520 B( 19-C , 20-C ) :   1.2246 B( 19-C , 61-H ) :   0.9309
B( 20-C , 21-S ) :   1.1088 B( 20-C , 25-C ) :   1.3739 B( 21-S , 22-C ) :   1.1744
B( 22-C , 23-C ) :   1.5530 B( 22-C , 62-H ) :   0.9670 B( 23-C , 24-C ) :   1.0942
B( 23-C , 25-C ) :   1.2673 B( 24-C , 63-H ) :   0.9473 B( 24-C , 64-H ) :   0.9422
B( 24-C , 65-H ) :   0.9431 B( 25-C , 26-C ) :   1.1298 B( 26-C , 27-C ) :   1.7148
B( 26-C , 66-H ) :   0.9285 B( 27-C , 28-C ) :   1.1062 B( 27-C , 67-H ) :   0.9730
B( 28-C , 29-C ) :   1.7157 B( 28-C , 68-H ) :   0.9798 B( 29-C , 30-C ) :   1.1152
B( 29-C , 69-H ) :   0.9535 B( 30-C , 31-C ) :   1.7585 B( 30-C , 70-H ) :   0.9774
B( 31-C , 32-C ) :   1.0635 B( 31-C , 33-C ) :   1.0474 B( 32-C , 71-H ) :   0.9472
B( 32-C , 72-H ) :   0.9459 B( 32-C , 73-H ) :   0.9390 B( 33-C , 34-N ) :   1.0001
B( 33-C , 74-H ) :   0.9388 B( 33-C , 75-H ) :   0.9276 B( 34-N , 35-C ) :   1.2421
B( 34-N , 76-H ) :   0.9356 B( 35-C , 36-C ) :   1.5780 B( 35-C , 77-H ) :   0.9665
B( 36-C , 37-C ) :   1.1829 B( 36-C , 78-H ) :   0.9585 B( 37-C , 38-C ) :   1.5728
B( 37-C , 79-H ) :   0.9808 B( 38-C , 39-C ) :   1.1542 B( 38-C , 42-S ) :   1.0087
B( 39-C , 40-C ) :   1.5832 B( 39-C , 80-H ) :   0.9966 B( 40-C , 41-C ) :   1.1928
B( 40-C , 81-H ) :   0.9931 B( 41-C , 42-S ) :   1.0709 B( 41-C , 43-C ) :   1.4961
B( 43-C , 44-C ) :   1.1978 B( 43-C , 47-S ) :   1.0218 B( 44-C , 45-C ) :   1.5855
B( 44-C , 82-H ) :   0.9930 B( 45-C , 46-C ) :   1.1439 B( 45-C , 83-H ) :   0.9977
B( 46-C , 47-S ) :   1.0466 B( 46-C , 48-C ) :   1.6077 B( 48-C , 49-C ) :   1.1482
B( 48-C , 84-H ) :   0.9470 B( 49-C , 50-S ) :   1.1360 B( 49-C , 53-C ) :   1.5228
B( 50-S , 51-C ) :   1.1387 B( 51-C , 52-C ) :   1.6007 B( 51-C , 85-H ) :   0.9749
B( 52-C , 53-C ) :   1.2382 B( 52-C , 57-S ) :   0.9824 B( 53-C , 54-S ) :   0.9916
B( 54-S , 55-C ) :   1.0819 B( 54-S , 56-S ) :   0.1288 B( 55-C , 56-S ) :   1.6626
B( 55-C , 57-S ) :   1.0816 B( 56-S , 57-S ) :   0.1284

-----------------------------------------------------------------------------
         ABSORPTION SPECTRUM VIA TRANSITION ELECTRIC DIPOLE MOMENTS
-----------------------------------------------------------------------------
State   Energy  Wavelength   fosc         T2         TX        TY        TZ
        (cm-1)    (nm)                  (au**2)     (au)      (au)      (au)
-----------------------------------------------------------------------------
   0   12042.0    830.4   0.010924991   0.29867   0.53749   0.00570  -0.09873
   1   15167.5    659.3   0.938435028  20.36876   4.06685  -1.42633   1.33979
   2   18273.2    547.3   0.205869326   3.70897   1.46314  -0.05763   1.25095
   3   19127.1    522.8   0.025156366   0.43299  -0.01742  -0.62279   0.21171
   4   21976.7    455.0   0.133531810   2.00031  -1.27948  -0.46877  -0.37881
   5   24100.8    414.9   0.256249583   3.50031  -0.89361  -1.59450   0.39919
   6   24183.6    413.5   0.027966221   0.38071  -0.10180  -0.32376  -0.51529
   7   24740.0    404.2   0.075030922   0.99843  -0.91167  -0.12834  -0.38835
   8   24898.5    401.6   0.069284316   0.91609  -0.73658  -0.57413   0.20953
   9   25585.2    390.9   0.115947416   1.49193   0.90468   0.53920  -0.61866
  10   25988.4    384.8   0.030595124   0.38757   0.13572  -0.59233  -0.13524
  11   26050.4    383.9   0.045549708   0.57563  -0.30391  -0.69300  -0.05503
  12   27108.2    368.9   0.143543475   1.74324  -0.94219   0.11485   0.91779
  13   27722.4    360.7   0.007207279   0.08559   0.07061  -0.21976  -0.17974
  14   28113.1    355.7   0.049890614   0.58423  -0.53316  -0.50170   0.21971
  15   28277.6    353.6   0.254842664   2.96691   1.27886   1.14904  -0.10553
  16   28610.1    349.5   0.085891533   0.98834  -0.96855  -0.18071   0.13267
  17   29064.8    344.1   0.021483575   0.24334  -0.15945  -0.16867   0.43528
  18   29806.7    335.5   0.723224438   7.98793   0.99341   2.64577   0.03107
  19   30484.6    328.0   0.220344244   2.37956   1.16239   0.52408  -0.86819
  20   30609.7    326.7   0.016441218   0.17683   0.24540   0.23278  -0.24984
  21   30958.4    323.0   0.002608074   0.02773  -0.04780  -0.15618  -0.03251
  22   31105.9    321.5   0.165745869   1.75418  -0.35923   0.57746   1.13652
  23   32001.3    312.5   0.012507501   0.12867  -0.02382  -0.01201   0.35771
  24   32421.6    308.4   0.047705149   0.48440   0.22183  -0.64121  -0.15506
  25   32711.1    305.7   0.019218830   0.19342  -0.19833   0.35069  -0.17636
  26   32903.6    303.9   0.042649295   0.42672  -0.16491   0.57032  -0.27250
  27   33127.6    301.9   0.009216141   0.09159  -0.02885   0.27115   0.13127
  28   33470.8    298.8   0.312504786   3.07373   0.53109  -0.02131  -1.67070
  29   33724.9    296.5   0.228019144   2.22585  -0.62615  -0.34030   1.31072
  30   34037.3    293.8   0.145981515   1.41195  -0.53960  -0.26168   1.02582
  31   34045.3    293.7   0.095922165   0.92755  -0.65515  -0.51554   0.48223
  32   34536.3    289.6   0.007049626   0.06720   0.16742   0.19481  -0.03489
  33   34662.2    288.5   0.046378180   0.44049   0.30966   0.03902  -0.58573
  34   34703.0    288.2   0.207103374   1.96470  -0.84174  -0.83781   0.74448
  35   34939.6    286.2   0.458333628   4.31857   1.11326   0.94552  -1.47825
  36   35124.8    284.7   0.029677320   0.27815   0.32621   0.23022  -0.34459
  37   35912.9    278.5   0.009368037   0.08588  -0.02407  -0.27778  -0.09020
  38   36050.8    277.4   0.061203262   0.55890  -0.36890  -0.49964  -0.41615
  39   36536.3    273.7   0.034390886   0.30988  -0.11397  -0.52533   0.14464
  40   36838.7    271.5   0.005188814   0.04637   0.11949  -0.16429   0.07143
  41   36992.3    270.3   0.139680872   1.24309   1.08555  -0.12671  -0.22048
  42   37391.6    267.4   0.030140085   0.26537   0.17196  -0.44095  -0.20336
  43   37611.9    265.9   0.030434663   0.26639  -0.42780  -0.17866  -0.22684
  44   37681.2    265.4   0.063257255   0.55266   0.60825  -0.34909   0.24665
  45   38093.8    262.5   0.017043698   0.14729  -0.19653  -0.14079  -0.29808
  46   38437.5    260.2   0.045580666   0.39039   0.27299  -0.56199  -0.00601
  47   38819.1    257.6   0.284137507   2.40968   1.10746   1.03883  -0.32254
  48   38976.4    256.6   0.024912463   0.21042   0.32700   0.10689  -0.30343
  49   39234.0    254.9   0.051154493   0.42924   0.22277   0.61604  -0.01051
  50   39389.3    253.9   0.008781154   0.07339   0.27029   0.00716   0.01689
  51   39720.6    251.8   0.002771498   0.02297   0.05191   0.12162   0.07406
  52   39826.9    251.1   0.029980532   0.24782  -0.37689   0.22209   0.23759
  53   40052.5    249.7   0.133144986   1.09439  -0.47647  -0.90688   0.21198
  54   40254.9    248.4   0.090338687   0.73881   0.69439   0.50645  -0.01159

FINAL SINGLE POINT ENERGY     -7726.970797397327

DIPOLE MOMENT
-------------
                                X             Y             Z
Electronic contribution:    -82.00718       3.18975      12.98352
Nuclear contribution   :     83.36235      -2.65212     -10.34140
                        -----------------------------------------
Total Dipole Moment    :      1.35517       0.53764       2.64213
                        -----------------------------------------
Magnitude (a.u.)       :      3.01768
Magnitude (Debye)      :      7.67033

Rotational constants in cm-1:     0.001806     0.000643     0.000572
Rotational constants in MHz :    54.156206    19.287402    17.162471

                             ****ORCA TERMINATED NORMALLY****
TOTAL RUN TIME: 0 days 0 hours 14 minutes 23 seconds 635 msec
