                         Program Version 4.2.0 -  RELEASE  -
|  1> # ORCA input file
|  2> # SCF done       -203.019847999630          0.000515249535
|  3> ! CAM-B3LYP def2-SVP def2/J RIJCOSX Grid4 TightSCF
|  4> %maxcore 5000
|  5> %tddft
|  6>     Mode sTDDFT
|  7>     Ethresh 5.0
|  8>     maxcore 5000
|  9> end
| 10>
| 11> %pal
| 12>   nprocs 6
| 13>   end
| 14> * xyz 0 1
| 15>    C       -0.27283         7.70562         4.10865
| 16>    C        0.67790         6.84354         4.60534
| 17>    C        1.78953         7.24959         5.36900
| 18>    N        2.71648         7.51423         5.99424
| 19>    C        0.69369         5.44519         4.44005
| 20>    N        0.78667         4.30194         4.35776
| 21>    C       -0.26552         9.15538         4.30457
| 22>    C       -1.40405         9.69988         3.66349
| 23>    C       -1.68511        11.04290         3.66015
| 24>    C       -0.79476        11.89600         4.32256
| 25>    C        0.33973        11.34490         4.95963
| 26>    C        0.62184         9.98294         4.96358
| 27>    S        1.30917        12.57447         5.71485
| 28>    C        0.19044        13.79520         5.16966
| 29>    C       -0.85526        13.31022         4.45996
| 30>   Br        0.50844        15.59684         5.58785
| 31>    C       -2.16840         8.60426         3.03636
| 32>    O       -3.20983         8.73438         2.40668
| 33>    C       -1.43544         7.37870         3.32043
| 34>    C       -1.77570         6.10392         2.89437
| 35>    C       -2.83376         5.66286         2.11997
| 36>    S       -4.10080         6.65951         1.45254
| 37>    C       -4.85688         5.32588         0.66541
| 38>    C       -4.16484         4.12026         0.90214
| 39>    C       -3.02655         4.30127         1.73592
| 40>    C       -2.24742         3.20235         2.08958
| 41>    C       -2.58632         1.93775         1.63074
| 42>    O       -1.77763         0.93240         2.03383
| 43>    C       -2.05758        -0.38768         1.63268
| 44>    C       -3.71283         1.76310         0.80134
| 45>    C       -4.48685         2.83482         0.44376
| 46>    C       -6.02077         5.50660        -0.12227
| 47>    C       -6.67986         6.69063        -0.15074
| 48>    C       -7.86781         6.98863        -0.89414
| 49>    C       -8.69349         5.99036        -1.34535
| 50>    S      -10.14314         6.52608        -2.07390
| 51>    C       -9.66480         8.17682        -1.80793
| 52>    C       -8.41398         8.30247        -1.18575
| 53>    C       -7.89085         9.60461        -0.98504
| 54>    C       -6.49863         9.77103        -0.42947
| 55>    C       -6.48281         9.84390         1.10260
| 56>    C       -8.65067        10.72224        -1.31299
| 57>    C       -8.12272        12.11103        -1.06895
| 58>    C       -7.41012        12.65805        -2.30917
| 59>    C       -9.92922        10.58302        -1.90245
| 60>    C      -10.91802        11.56956        -2.28230
| 61>    C      -12.04647        10.98185        -2.77788
| 62>    S      -12.00243         9.26600        -2.84651
| 63>    C      -10.41332         9.28867        -2.15042
| 64>    C      -10.85528        13.01368        -2.19110
| 65>    C      -11.92322        13.75649        -1.81918
| 66>    C      -11.93692        15.16795        -1.75436
| 67>    C      -13.02137        15.89302        -1.34553
| 68>    C      -13.12832        17.30477        -1.23479
| 69>    C      -14.33694        17.74425        -0.79453
| 70>    C      -15.26711        16.71104        -0.52947
| 71>    S      -14.54386        15.14958        -0.86367
| 72>    C      -16.56446        16.81776        -0.08197
| 73>    C      -17.27424        17.99127         0.27362
| 74>    C      -18.54886        17.75424         0.67281
| 75>    C      -18.93179        16.37971         0.67193
| 76>    S      -17.57735        15.40439         0.13839
| 77>    C      -20.19455        15.94509         0.94965
| 78>    C      -20.77270        14.63864         0.92478
| 79>    C      -20.09073        13.42460         1.08414
| 80>    O      -18.79071        13.56416         1.43879
| 81>    C      -17.87016        12.49775         1.49982
| 82>    C      -20.77820        12.17235         0.95541
| 83>    O      -20.01537        11.04614         1.08383
| 84>    C      -20.63227         9.78883         0.95125
| 85>    C      -22.13228        12.11921         0.72382
| 86>    C      -22.85556        13.31528         0.63005
| 87>    C      -22.18138        14.57606         0.73796
| 88>    N      -23.01645        15.60252         0.61985
| 89>    S      -24.51099        15.02959         0.40373
| 90>    N      -24.16587        13.45383         0.44125
| 91>    H       -2.56177        11.42648         3.16207
| 92>    H        1.50141         9.61522         5.46432
| 93>    H       -1.63738        13.92219         4.04909
| 94>    H       -1.10338         5.31398         3.19865
| 95>    H       -1.37906         3.29241         2.72230
| 96>    H       -1.28243        -1.00078         2.08916
| 97>    H       -2.00968        -0.49771         0.54468
| 98>    H       -3.03710        -0.71889         1.99193
| 99>    H       -3.97558         0.78098         0.44219
|100>    H       -5.34826         2.68759        -0.18918
|101>    H       -6.35196         4.66630        -0.71508
|102>    H       -6.29020         7.46445         0.48749
|103>    H       -8.54217         4.93508        -1.23122
|104>    H       -6.04106        10.67421        -0.82937
|105>    H       -5.88214         8.94060        -0.77348
|106>    H       -6.84285        10.81129         1.44616
|107>    H       -5.47215         9.69711         1.47737
|108>    H       -7.13106         9.08699         1.53930
|109>    H       -7.43476        12.12081        -0.22629
|110>    H       -8.95826        12.75918        -0.80281
|111>    H       -6.51872        12.07471        -2.52927
|112>    H       -7.11232        13.69244        -2.15018
|113>    H       -8.05669        12.60868        -3.18235
|114>    H      -12.91472        11.48744        -3.15299
|115>    H       -9.94402        13.51498        -2.47719
|116>    H      -12.83375        13.25652        -1.51329
|117>    H      -11.04339        15.70836        -2.03780
|118>    H      -12.30088        17.94561        -1.48491
|119>    H      -14.59024        18.77995        -0.65320
|120>    H      -16.82169        18.96612         0.23182
|121>    H      -19.24377        18.51759         0.97636
|122>    H      -20.92493        16.72562         1.12813
|123>    H      -16.91072        12.97444         1.70135
|124>    H      -17.81011        11.95749         0.55411
|125>    H      -18.11207        11.80299         2.30570
|126>    H      -21.38985         9.62879         1.72448
|127>    H      -19.83102         9.06137         1.07377
|128>    H      -21.08629         9.66555        -0.03655
|129>    H      -22.66447        11.18948         0.62726
|130> *
|131>
|132>                          ****END OF INPUT****

CARTESIAN COORDINATES (ANGSTROEM)
---------------------------------
  C     -0.272830    7.705620    4.108650
  C      0.677900    6.843540    4.605340
  C      1.789530    7.249590    5.369000
  N      2.716480    7.514230    5.994240
  C      0.693690    5.445190    4.440050
  N      0.786670    4.301940    4.357760
  C     -0.265520    9.155380    4.304570
  C     -1.404050    9.699880    3.663490
  C     -1.685110   11.042900    3.660150
  C     -0.794760   11.896000    4.322560
  C      0.339730   11.344900    4.959630
  C      0.621840    9.982940    4.963580
  S      1.309170   12.574470    5.714850
  C      0.190440   13.795200    5.169660
  C     -0.855260   13.310220    4.459960
  Br     0.508440   15.596840    5.587850
  C     -2.168400    8.604260    3.036360
  O     -3.209830    8.734380    2.406680
  C     -1.435440    7.378700    3.320430
  C     -1.775700    6.103920    2.894370
  C     -2.833760    5.662860    2.119970
  S     -4.100800    6.659510    1.452540
  C     -4.856880    5.325880    0.665410
  C     -4.164840    4.120260    0.902140
  C     -3.026550    4.301270    1.735920
  C     -2.247420    3.202350    2.089580
  C     -2.586320    1.937750    1.630740
  O     -1.777630    0.932400    2.033830
  C     -2.057580   -0.387680    1.632680
  C     -3.712830    1.763100    0.801340
  C     -4.486850    2.834820    0.443760
  C     -6.020770    5.506600   -0.122270
  C     -6.679860    6.690630   -0.150740
  C     -7.867810    6.988630   -0.894140
  C     -8.693490    5.990360   -1.345350
  S    -10.143140    6.526080   -2.073900
  C     -9.664800    8.176820   -1.807930
  C     -8.413980    8.302470   -1.185750
  C     -7.890850    9.604610   -0.985040
  C     -6.498630    9.771030   -0.429470
  C     -6.482810    9.843900    1.102600
  C     -8.650670   10.722240   -1.312990
  C     -8.122720   12.111030   -1.068950
  C     -7.410120   12.658050   -2.309170
  C     -9.929220   10.583020   -1.902450
  C    -10.918020   11.569560   -2.282300
  C    -12.046470   10.981850   -2.777880
  S    -12.002430    9.266000   -2.846510
  C    -10.413320    9.288670   -2.150420
  C    -10.855280   13.013680   -2.191100
  C    -11.923220   13.756490   -1.819180
  C    -11.936920   15.167950   -1.754360
  C    -13.021370   15.893020   -1.345530
  C    -13.128320   17.304770   -1.234790
  C    -14.336940   17.744250   -0.794530
  C    -15.267110   16.711040   -0.529470
  S    -14.543860   15.149580   -0.863670
  C    -16.564460   16.817760   -0.081970
  C    -17.274240   17.991270    0.273620
  C    -18.548860   17.754240    0.672810
  C    -18.931790   16.379710    0.671930
  S    -17.577350   15.404390    0.138390
  C    -20.194550   15.945090    0.949650
  C    -20.772700   14.638640    0.924780
  C    -20.090730   13.424600    1.084140
  O    -18.790710   13.564160    1.438790
  C    -17.870160   12.497750    1.499820
  C    -20.778200   12.172350    0.955410
  O    -20.015370   11.046140    1.083830
  C    -20.632270    9.788830    0.951250
  C    -22.132280   12.119210    0.723820
  C    -22.855560   13.315280    0.630050
  C    -22.181380   14.576060    0.737960
  N    -23.016450   15.602520    0.619850
  S    -24.510990   15.029590    0.403730
  N    -24.165870   13.453830    0.441250
  H     -2.561770   11.426480    3.162070
  H      1.501410    9.615220    5.464320
  H     -1.637380   13.922190    4.049090
  H     -1.103380    5.313980    3.198650
  H     -1.379060    3.292410    2.722300
  H     -1.282430   -1.000780    2.089160
  H     -2.009680   -0.497710    0.544680
  H     -3.037100   -0.718890    1.991930
  H     -3.975580    0.780980    0.442190
  H     -5.348260    2.687590   -0.189180
  H     -6.351960    4.666300   -0.715080
  H     -6.290200    7.464450    0.487490
  H     -8.542170    4.935080   -1.231220
  H     -6.041060   10.674210   -0.829370
  H     -5.882140    8.940600   -0.773480
  H     -6.842850   10.811290    1.446160
  H     -5.472150    9.697110    1.477370
  H     -7.131060    9.086990    1.539300
  H     -7.434760   12.120810   -0.226290
  H     -8.958260   12.759180   -0.802810
  H     -6.518720   12.074710   -2.529270
  H     -7.112320   13.692440   -2.150180
  H     -8.056690   12.608680   -3.182350
  H    -12.914720   11.487440   -3.152990
  H     -9.944020   13.514980   -2.477190
  H    -12.833750   13.256520   -1.513290
  H    -11.043390   15.708360   -2.037800
  H    -12.300880   17.945610   -1.484910
  H    -14.590240   18.779950   -0.653200
  H    -16.821690   18.966120    0.231820
  H    -19.243770   18.517590    0.976360
  H    -20.924930   16.725620    1.128130
  H    -16.910720   12.974440    1.701350
  H    -17.810110   11.957490    0.554110
  H    -18.112070   11.802990    2.305700
  H    -21.389850    9.628790    1.724480
  H    -19.831020    9.061370    1.073770
  H    -21.086290    9.665550   -0.036550
  H    -22.664470   11.189480    0.627260

 Total Charge           Charge          ....    0
 Multiplicity           Mult            ....    1
 Number of Electrons    NEL             ....  606
 Basis Dimension        Dim             .... 1305

ORBITAL ENERGIES
----------------

  NO   OCC          E(Eh)            E(eV)
   0   2.0000    -482.877610    -13139.7678
   1   2.0000     -89.002139     -2421.8713
   2   2.0000     -88.965065     -2420.8625
   3   2.0000     -88.964018     -2420.8340
   4   2.0000     -88.962803     -2420.8010
   5   2.0000     -88.951499     -2420.4933
   6   2.0000     -88.935482     -2420.0575
   7   2.0000     -88.932364     -2419.9727
   8   2.0000     -62.555314     -1702.2166
   9   2.0000     -56.389249     -1534.4295
  10   2.0000     -56.386563     -1534.3564
  11   2.0000     -56.386522     -1534.3553
  12   2.0000     -19.258985      -524.0636
  13   2.0000     -19.251984      -523.8731
  14   2.0000     -19.251360      -523.8561
  15   2.0000     -19.205806      -522.6166
  16   2.0000     -14.420647      -392.4058
  17   2.0000     -14.419804      -392.3828
  18   2.0000     -14.401603      -391.8875
  19   2.0000     -14.396530      -391.7495
  20   2.0000     -10.353507      -281.7332
  21   2.0000     -10.350829      -281.6604
  22   2.0000     -10.348662      -281.6014
  23   2.0000     -10.346170      -281.5336
  24   2.0000     -10.345148      -281.5058
  25   2.0000     -10.332718      -281.1675
  26   2.0000     -10.328097      -281.0418
  27   2.0000     -10.323831      -280.9257
  28   2.0000     -10.321005      -280.8488
  29   2.0000     -10.319918      -280.8192
  30   2.0000     -10.313030      -280.6318
  31   2.0000     -10.312484      -280.6170
  32   2.0000     -10.307597      -280.4840
  33   2.0000     -10.307575      -280.4834
  34   2.0000     -10.306952      -280.4664
  35   2.0000     -10.305972      -280.4397
  36   2.0000     -10.303349      -280.3684
  37   2.0000     -10.302879      -280.3556
  38   2.0000     -10.301297      -280.3125
  39   2.0000     -10.301282      -280.3121
  40   2.0000     -10.300686      -280.2959
  41   2.0000     -10.300514      -280.2912
  42   2.0000     -10.299481      -280.2631
  43   2.0000     -10.297943      -280.2213
  44   2.0000     -10.297694      -280.2145
  45   2.0000     -10.296448      -280.1806
  46   2.0000     -10.295197      -280.1465
  47   2.0000     -10.294982      -280.1407
  48   2.0000     -10.293392      -280.0974
  49   2.0000     -10.292981      -280.0863
  50   2.0000     -10.292686      -280.0782
  51   2.0000     -10.291728      -280.0522
  52   2.0000     -10.291676      -280.0507
  53   2.0000     -10.291000      -280.0324
  54   2.0000     -10.288984      -279.9775
  55   2.0000     -10.287294      -279.9315
  56   2.0000     -10.285233      -279.8754
  57   2.0000     -10.284579      -279.8576
  58   2.0000     -10.283263      -279.8218
  59   2.0000     -10.282523      -279.8017
  60   2.0000     -10.281417      -279.7716
  61   2.0000     -10.280884      -279.7571
  62   2.0000     -10.279708      -279.7251
  63   2.0000     -10.278391      -279.6892
  64   2.0000     -10.277798      -279.6731
  65   2.0000     -10.276822      -279.6465
  66   2.0000     -10.276677      -279.6426
  67   2.0000     -10.275826      -279.6195
  68   2.0000     -10.275318      -279.6056
  69   2.0000     -10.274352      -279.5793
  70   2.0000     -10.273762      -279.5633
  71   2.0000     -10.273080      -279.5447
  72   2.0000     -10.270738      -279.4810
  73   2.0000     -10.270261      -279.4680
  74   2.0000     -10.269303      -279.4419
  75   2.0000     -10.268569      -279.4220
  76   2.0000     -10.264753      -279.3181
  77   2.0000     -10.264096      -279.3002
  78   2.0000     -10.258968      -279.1607
  79   2.0000     -10.251809      -278.9659
  80   2.0000      -8.784731      -239.0447
  81   2.0000      -8.094322      -220.2577
  82   2.0000      -8.061060      -219.3526
  83   2.0000      -8.058867      -219.2929
  84   2.0000      -8.057034      -219.2430
  85   2.0000      -8.047851      -218.9932
  86   2.0000      -8.031706      -218.5538
  87   2.0000      -8.027632      -218.4430
  88   2.0000      -6.620964      -180.1656
  89   2.0000      -6.606490      -179.7717
  90   2.0000      -6.606317      -179.7670
  91   2.0000      -6.065666      -165.0552
  92   2.0000      -6.058041      -164.8477
  93   2.0000      -6.056271      -164.7995
  94   2.0000      -6.030744      -164.1049
  95   2.0000      -6.028262      -164.0374
  96   2.0000      -6.026490      -163.9891
  97   2.0000      -6.026261      -163.9829
  98   2.0000      -6.024041      -163.9225
  99   2.0000      -6.022280      -163.8746
 100   2.0000      -6.021721      -163.8594
 101   2.0000      -6.020778      -163.8337
 102   2.0000      -6.019714      -163.8048
 103   2.0000      -6.017330      -163.7399
 104   2.0000      -6.013155      -163.6263
 105   2.0000      -6.009504      -163.5269
 106   2.0000      -6.001459      -163.3080
 107   2.0000      -5.997547      -163.2016
 108   2.0000      -5.997495      -163.2001
 109   2.0000      -5.993263      -163.0850
 110   2.0000      -5.992508      -163.0644
 111   2.0000      -5.988543      -162.9565
 112   2.0000      -2.736876       -74.4742
 113   2.0000      -2.732740       -74.3616
 114   2.0000      -2.732671       -74.3598
 115   2.0000      -2.721139       -74.0460
 116   2.0000      -2.721133       -74.0458
 117   2.0000      -1.169527       -31.8244
 118   2.0000      -1.158158       -31.5151
 119   2.0000      -1.146959       -31.2103
 120   2.0000      -1.119450       -30.4618
 121   2.0000      -1.104567       -30.0568
 122   2.0000      -1.009844       -27.4793
 123   2.0000      -1.006382       -27.3850
 124   2.0000      -1.001488       -27.2519
 125   2.0000      -0.998581       -27.1728
 126   2.0000      -0.984962       -26.8022
 127   2.0000      -0.978788       -26.6342
 128   2.0000      -0.975601       -26.5474
 129   2.0000      -0.974670       -26.5221
 130   2.0000      -0.964688       -26.2505
 131   2.0000      -0.959756       -26.1163
 132   2.0000      -0.946091       -25.7445
 133   2.0000      -0.937870       -25.5207
 134   2.0000      -0.930952       -25.3325
 135   2.0000      -0.927625       -25.2419
 136   2.0000      -0.916564       -24.9410
 137   2.0000      -0.904903       -24.6237
 138   2.0000      -0.895558       -24.3694
 139   2.0000      -0.888501       -24.1773
 140   2.0000      -0.880853       -23.9692
 141   2.0000      -0.873533       -23.7700
 142   2.0000      -0.870453       -23.6862
 143   2.0000      -0.869738       -23.6668
 144   2.0000      -0.859502       -23.3882
 145   2.0000      -0.855843       -23.2887
 146   2.0000      -0.853766       -23.2322
 147   2.0000      -0.846780       -23.0421
 148   2.0000      -0.842799       -22.9337
 149   2.0000      -0.839602       -22.8467
 150   2.0000      -0.830643       -22.6030
 151   2.0000      -0.827160       -22.5082
 152   2.0000      -0.817350       -22.2412
 153   2.0000      -0.817288       -22.2395
 154   2.0000      -0.810798       -22.0629
 155   2.0000      -0.806396       -21.9432
 156   2.0000      -0.803094       -21.8533
 157   2.0000      -0.790949       -21.5228
 158   2.0000      -0.785595       -21.3771
 159   2.0000      -0.779038       -21.1987
 160   2.0000      -0.776676       -21.1344
 161   2.0000      -0.758787       -20.6476
 162   2.0000      -0.747277       -20.3344
 163   2.0000      -0.744098       -20.2479
 164   2.0000      -0.727689       -19.8014
 165   2.0000      -0.723592       -19.6899
 166   2.0000      -0.722005       -19.6468
 167   2.0000      -0.714748       -19.4493
 168   2.0000      -0.705520       -19.1982
 169   2.0000      -0.699332       -19.0298
 170   2.0000      -0.693397       -18.8683
 171   2.0000      -0.689391       -18.7593
 172   2.0000      -0.686779       -18.6882
 173   2.0000      -0.679508       -18.4904
 174   2.0000      -0.678511       -18.4632
 175   2.0000      -0.668397       -18.1880
 176   2.0000      -0.660702       -17.9786
 177   2.0000      -0.658114       -17.9082
 178   2.0000      -0.653039       -17.7701
 179   2.0000      -0.650110       -17.6904
 180   2.0000      -0.646997       -17.6057
 181   2.0000      -0.641812       -17.4646
 182   2.0000      -0.631347       -17.1798
 183   2.0000      -0.626186       -17.0394
 184   2.0000      -0.622719       -16.9450
 185   2.0000      -0.615647       -16.7526
 186   2.0000      -0.614322       -16.7166
 187   2.0000      -0.613218       -16.6865
 188   2.0000      -0.612047       -16.6547
 189   2.0000      -0.608723       -16.5642
 190   2.0000      -0.605917       -16.4878
 191   2.0000      -0.602076       -16.3833
 192   2.0000      -0.591772       -16.1029
 193   2.0000      -0.588790       -16.0218
 194   2.0000      -0.586273       -15.9533
 195   2.0000      -0.581776       -15.8309
 196   2.0000      -0.577288       -15.7088
 197   2.0000      -0.576489       -15.6871
 198   2.0000      -0.571645       -15.5553
 199   2.0000      -0.560128       -15.2419
 200   2.0000      -0.560075       -15.2404
 201   2.0000      -0.555185       -15.1073
 202   2.0000      -0.549004       -14.9392
 203   2.0000      -0.545285       -14.8380
 204   2.0000      -0.544927       -14.8282
 205   2.0000      -0.540644       -14.7117
 206   2.0000      -0.538732       -14.6597
 207   2.0000      -0.537200       -14.6180
 208   2.0000      -0.533509       -14.5175
 209   2.0000      -0.531535       -14.4638
 210   2.0000      -0.529897       -14.4192
 211   2.0000      -0.527928       -14.3657
 212   2.0000      -0.527803       -14.3622
 213   2.0000      -0.526238       -14.3197
 214   2.0000      -0.525181       -14.2909
 215   2.0000      -0.521176       -14.1819
 216   2.0000      -0.519250       -14.1295
 217   2.0000      -0.516110       -14.0441
 218   2.0000      -0.512012       -13.9326
 219   2.0000      -0.508494       -13.8368
 220   2.0000      -0.506618       -13.7858
 221   2.0000      -0.505880       -13.7657
 222   2.0000      -0.504070       -13.7165
 223   2.0000      -0.501229       -13.6391
 224   2.0000      -0.497219       -13.5300
 225   2.0000      -0.495883       -13.4937
 226   2.0000      -0.494712       -13.4618
 227   2.0000      -0.490424       -13.3451
 228   2.0000      -0.488244       -13.2858
 229   2.0000      -0.487762       -13.2727
 230   2.0000      -0.485473       -13.2104
 231   2.0000      -0.482802       -13.1377
 232   2.0000      -0.481181       -13.0936
 233   2.0000      -0.480157       -13.0657
 234   2.0000      -0.478035       -13.0080
 235   2.0000      -0.477063       -12.9816
 236   2.0000      -0.474438       -12.9101
 237   2.0000      -0.466174       -12.6852
 238   2.0000      -0.464046       -12.6273
 239   2.0000      -0.462955       -12.5977
 240   2.0000      -0.460434       -12.5291
 241   2.0000      -0.458696       -12.4817
 242   2.0000      -0.455575       -12.3968
 243   2.0000      -0.454816       -12.3762
 244   2.0000      -0.453880       -12.3507
 245   2.0000      -0.451504       -12.2861
 246   2.0000      -0.450976       -12.2717
 247   2.0000      -0.448407       -12.2018
 248   2.0000      -0.446909       -12.1610
 249   2.0000      -0.446407       -12.1473
 250   2.0000      -0.444808       -12.1038
 251   2.0000      -0.441679       -12.0187
 252   2.0000      -0.437792       -11.9129
 253   2.0000      -0.436897       -11.8886
 254   2.0000      -0.435276       -11.8445
 255   2.0000      -0.434787       -11.8312
 256   2.0000      -0.430337       -11.7101
 257   2.0000      -0.428533       -11.6610
 258   2.0000      -0.427516       -11.6333
 259   2.0000      -0.427018       -11.6197
 260   2.0000      -0.423853       -11.5336
 261   2.0000      -0.421211       -11.4617
 262   2.0000      -0.419972       -11.4280
 263   2.0000      -0.418387       -11.3849
 264   2.0000      -0.415754       -11.3133
 265   2.0000      -0.411778       -11.2050
 266   2.0000      -0.410468       -11.1694
 267   2.0000      -0.407610       -11.0916
 268   2.0000      -0.406710       -11.0671
 269   2.0000      -0.401830       -10.9343
 270   2.0000      -0.398879       -10.8541
 271   2.0000      -0.397121       -10.8062
 272   2.0000      -0.396647       -10.7933
 273   2.0000      -0.394639       -10.7387
 274   2.0000      -0.391323       -10.6484
 275   2.0000      -0.390362       -10.6223
 276   2.0000      -0.389576       -10.6009
 277   2.0000      -0.384049       -10.4505
 278   2.0000      -0.382035       -10.3957
 279   2.0000      -0.379034       -10.3140
 280   2.0000      -0.376200       -10.2369
 281   2.0000      -0.373122       -10.1532
 282   2.0000      -0.368596       -10.0300
 283   2.0000      -0.367156        -9.9908
 284   2.0000      -0.358433        -9.7535
 285   2.0000      -0.352921        -9.6035
 286   2.0000      -0.352310        -9.5869
 287   2.0000      -0.336752        -9.1635
 288   2.0000      -0.328851        -8.9485
 289   2.0000      -0.325517        -8.8578
 290   2.0000      -0.321814        -8.7570
 291   2.0000      -0.317266        -8.6332
 292   2.0000      -0.315779        -8.5928
 293   2.0000      -0.305277        -8.3070
 294   2.0000      -0.304524        -8.2865
 295   2.0000      -0.299832        -8.1589
 296   2.0000      -0.287012        -7.8100
 297   2.0000      -0.282473        -7.6865
 298   2.0000      -0.278473        -7.5776
 299   2.0000      -0.272699        -7.4205
 300   2.0000      -0.259260        -7.0548
 301   2.0000      -0.234980        -6.3941
 302   2.0000      -0.204853        -5.5743
 303   0.0000      -0.089558        -2.4370
 304   0.0000      -0.069743        -1.8978
 305   0.0000      -0.052877        -1.4389
 306   0.0000      -0.034508        -0.9390
 307   0.0000      -0.028563        -0.7772

MULLIKEN ATOMIC CHARGES
-----------------------
   0 C :    0.325857
   1 C :   -0.372062
   2 C :   -0.187337
   3 N :    0.135041
   4 C :   -0.189137
   5 N :    0.137669
   6 C :    0.010940
   7 C :   -0.004882
   8 C :   -0.083401
   9 C :    0.121163
  10 C :   -0.095191
  11 C :   -0.025205
  12 S :    0.180634
  13 C :   -0.122744
  14 C :    0.034112
  15 Br:    0.013567
  16 C :    0.151988
  17 O :   -0.196109
  18 C :   -0.112144
  19 C :   -0.022122
  20 C :   -0.078617
  21 S :    0.166853
  22 C :   -0.046591
  23 C :    0.106472
  24 C :    0.147880
  25 C :   -0.101779
  26 C :    0.234507
  27 O :   -0.287545
  28 C :    0.169216
  29 C :   -0.074555
  30 C :   -0.024963
  31 C :   -0.010249
  32 C :   -0.016698
  33 C :    0.088752
  34 C :   -0.118928
  35 S :    0.146259
  36 C :   -0.156724
  37 C :    0.118272
  38 C :   -0.108572
  39 C :    0.006503
  40 C :    0.033539
  41 C :   -0.124190
  42 C :    0.023374
  43 C :    0.040639
  44 C :    0.118044
  45 C :    0.074182
  46 C :   -0.122444
  47 S :    0.119552
  48 C :   -0.141487
  49 C :   -0.034294
  50 C :   -0.000340
  51 C :   -0.027302
  52 C :   -0.009322
  53 C :    0.034130
  54 C :    0.025926
  55 C :   -0.052406
  56 S :    0.051467
  57 C :   -0.043010
  58 C :    0.025387
  59 C :    0.034984
  60 C :    0.007174
  61 S :    0.087750
  62 C :   -0.074951
  63 C :    0.028486
  64 C :    0.104785
  65 O :   -0.318772
  66 C :    0.214114
  67 C :    0.235819
  68 O :   -0.332468
  69 C :    0.180402
  70 C :   -0.200263
  71 C :    0.073716
  72 C :   -0.008086
  73 N :   -0.279488
  74 S :    0.469747
  75 N :   -0.272716
  76 H :   -0.018849
  77 H :   -0.009413
  78 H :   -0.008324
  79 H :   -0.015807
  80 H :   -0.001367
  81 H :    0.046893
  82 H :    0.026764
  83 H :    0.025626
  84 H :   -0.026017
  85 H :   -0.026041
  86 H :   -0.018287
  87 H :    0.005930
  88 H :    0.021940
  89 H :    0.000459
  90 H :    0.009281
  91 H :    0.003734
  92 H :    0.036972
  93 H :    0.017131
  94 H :   -0.004235
  95 H :    0.015007
  96 H :    0.008349
  97 H :    0.015512
  98 H :    0.017700
  99 H :    0.023459
 100 H :   -0.005078
 101 H :    0.000654
 102 H :   -0.022052
 103 H :   -0.016402
 104 H :   -0.014290
 105 H :   -0.018954
 106 H :   -0.012149
 107 H :    0.002857
 108 H :    0.030579
 109 H :    0.018510
 110 H :    0.025266
 111 H :    0.030400
 112 H :    0.039296
 113 H :    0.029721
 114 H :   -0.036582
Sum of atomic charges:   -0.0000000

LOEWDIN ATOMIC CHARGES
----------------------
   0 C :    0.078087
   1 C :   -0.163095
   2 C :   -0.018702
   3 N :   -0.071010
   4 C :   -0.018971
   5 N :   -0.070095
   6 C :   -0.017703
   7 C :   -0.048207
   8 C :    0.015004
   9 C :   -0.037170
  10 C :   -0.146493
  11 C :   -0.012507
  12 S :    0.428276
  13 C :   -0.275369
  14 C :   -0.071885
  15 Br:    0.128760
  16 C :    0.083347
  17 O :   -0.191152
  18 C :   -0.135681
  19 C :    0.047214
  20 C :   -0.203754
  21 S :    0.538012
  22 C :   -0.123384
  23 C :   -0.072915
  24 C :   -0.001390
  25 C :   -0.048479
  26 C :    0.073393
  27 O :   -0.086346
  28 C :    0.077052
  29 C :   -0.068350
  30 C :    0.007125
  31 C :   -0.056998
  32 C :    0.020383
  33 C :   -0.068363
  34 C :   -0.156553
  35 S :    0.433000
  36 C :   -0.177821
  37 C :   -0.040081
  38 C :   -0.020354
  39 C :   -0.033690
  40 C :   -0.057419
  41 C :   -0.015181
  42 C :   -0.032313
  43 C :   -0.050720
  44 C :   -0.039636
  45 C :   -0.059456
  46 C :   -0.167900
  47 S :    0.407541
  48 C :   -0.178748
  49 C :   -0.028040
  50 C :   -0.029044
  51 C :   -0.067069
  52 C :   -0.139778
  53 C :   -0.039982
  54 C :   -0.028529
  55 C :   -0.183416
  56 S :    0.352787
  57 C :   -0.179751
  58 C :   -0.040557
  59 C :   -0.024908
  60 C :   -0.142218
  61 S :    0.397080
  62 C :   -0.044001
  63 C :   -0.064970
  64 C :    0.045568
  65 O :   -0.091046
  66 C :    0.072778
  67 C :    0.044976
  68 O :   -0.095512
  69 C :    0.078848
  70 C :   -0.086786
  71 C :   -0.057539
  72 C :   -0.047444
  73 N :   -0.294260
  74 S :    0.607726
  75 N :   -0.295340
  76 H :    0.037230
  77 H :    0.040246
  78 H :    0.036664
  79 H :    0.047452
  80 H :    0.040112
  81 H :    0.033428
  82 H :    0.016288
  83 H :    0.016171
  84 H :    0.030024
  85 H :    0.029471
  86 H :    0.027481
  87 H :    0.029150
  88 H :    0.022308
  89 H :    0.027600
  90 H :    0.027055
  91 H :    0.022801
  92 H :    0.028979
  93 H :    0.021337
  94 H :    0.025686
  95 H :    0.031107
  96 H :    0.024123
  97 H :    0.024347
  98 H :    0.022785
  99 H :    0.023969
 100 H :    0.027697
 101 H :    0.020631
 102 H :    0.029772
 103 H :    0.031856
 104 H :    0.031482
 105 H :    0.029158
 106 H :    0.033158
 107 H :    0.039180
 108 H :    0.017930
 109 H :    0.014409
 110 H :    0.015731
 111 H :    0.019006
 112 H :    0.029902
 113 H :    0.018971
 114 H :    0.036422

  Mayer bond orders larger than 0.100000
B(  0-C ,  1-C ) :   1.5765 B(  0-C ,  6-C ) :   0.9832 B(  0-C , 18-C ) :   1.1346
B(  1-C ,  2-C ) :   1.1538 B(  1-C ,  4-C ) :   1.1519 B(  2-C ,  3-N ) :   2.9596
B(  4-C ,  5-N ) :   2.9728 B(  6-C ,  7-C ) :   1.2776 B(  6-C , 11-C ) :   1.4272
B(  7-C ,  8-C ) :   1.4307 B(  7-C , 16-C ) :   0.9560 B(  8-C ,  9-C ) :   1.2351
B(  8-C , 76-H ) :   1.0173 B(  9-C , 10-C ) :   1.3189 B(  9-C , 14-C ) :   1.1607
B( 10-C , 11-C ) :   1.3146 B( 10-C , 12-S ) :   1.0844 B( 11-C , 77-H ) :   0.9792
B( 12-S , 13-C ) :   1.0859 B( 13-C , 14-C ) :   1.6211 B( 13-C , 15-Br) :   1.0128
B( 14-C , 78-H ) :   0.9998 B( 16-C , 17-O ) :   2.0780 B( 16-C , 18-C ) :   1.0050
B( 18-C , 19-C ) :   1.3832 B( 19-C , 20-C ) :   1.4171 B( 19-C , 79-H ) :   0.9298
B( 20-C , 21-S ) :   1.0609 B( 20-C , 24-C ) :   1.1794 B( 21-S , 22-C ) :   1.1885
B( 22-C , 23-C ) :   1.2343 B( 22-C , 31-C ) :   1.1733 B( 23-C , 24-C ) :   1.2318
B( 23-C , 30-C ) :   1.2372 B( 24-C , 25-C ) :   1.2767 B( 25-C , 26-C ) :   1.4132
B( 25-C , 80-H ) :   0.9926 B( 26-C , 27-O ) :   1.1911 B( 26-C , 29-C ) :   1.1987
B( 27-O , 28-C ) :   0.9617 B( 28-C , 81-H ) :   0.9789 B( 28-C , 82-H ) :   0.9699
B( 28-C , 83-H ) :   0.9701 B( 29-C , 30-C ) :   1.4910 B( 29-C , 84-H ) :   0.9883
B( 30-C , 85-H ) :   0.9897 B( 31-C , 32-C ) :   1.6641 B( 31-C , 86-H ) :   0.9724
B( 32-C , 33-C ) :   1.0686 B( 32-C , 87-H ) :   0.9644 B( 33-C , 34-C ) :   1.5621
B( 33-C , 37-C ) :   1.1289 B( 34-C , 35-S ) :   1.1459 B( 34-C , 88-H ) :   0.9587
B( 35-S , 36-C ) :   1.0708 B( 36-C , 37-C ) :   1.3769 B( 36-C , 48-C ) :   1.3817
B( 37-C , 38-C ) :   1.2689 B( 38-C , 39-C ) :   1.0505 B( 38-C , 41-C ) :   1.5149
B( 39-C , 40-C ) :   1.1049 B( 39-C , 89-H ) :   0.9117 B( 39-C , 90-H ) :   0.9286
B( 40-C , 91-H ) :   0.9523 B( 40-C , 92-H ) :   0.9549 B( 40-C , 93-H ) :   0.9552
B( 41-C , 42-C ) :   1.0635 B( 41-C , 44-C ) :   1.2612 B( 42-C , 43-C ) :   1.1108
B( 42-C , 94-H ) :   0.9084 B( 42-C , 95-H ) :   0.9179 B( 43-C , 96-H ) :   0.9566
B( 43-C , 97-H ) :   0.9665 B( 43-C , 98-H ) :   0.9603 B( 44-C , 45-C ) :   1.1474
B( 44-C , 48-C ) :   1.3702 B( 45-C , 46-C ) :   1.6137 B( 45-C , 49-C ) :   1.0062
B( 46-C , 47-S ) :   1.1066 B( 46-C , 99-H ) :   0.9623 B( 47-S , 48-C ) :   1.0797
B( 49-C , 50-C ) :   1.7215 B( 49-C ,100-H ) :   0.9604 B( 50-C , 51-C ) :   1.1208
B( 50-C ,101-H ) :   0.9725 B( 51-C , 52-C ) :   1.5977 B( 51-C ,102-H ) :   0.9823
B( 52-C , 53-C ) :   1.1272 B( 52-C , 56-S ) :   1.0271 B( 53-C , 54-C ) :   1.6021
B( 53-C ,103-H ) :   0.9990 B( 54-C , 55-C ) :   1.1794 B( 54-C ,104-H ) :   0.9943
B( 55-C , 56-S ) :   1.0296 B( 55-C , 57-C ) :   1.5342 B( 57-C , 58-C ) :   1.1654
B( 57-C , 61-S ) :   1.0375 B( 58-C , 59-C ) :   1.6118 B( 58-C ,105-H ) :   0.9940
B( 59-C , 60-C ) :   1.1254 B( 59-C ,106-H ) :   0.9983 B( 60-C , 61-S ) :   1.0331
B( 60-C , 62-C ) :   1.6121 B( 62-C , 63-C ) :   1.1297 B( 62-C ,107-H ) :   0.9521
B( 63-C , 64-C ) :   1.4339 B( 63-C , 70-C ) :   0.1074 B( 63-C , 72-C ) :   1.1722
B( 64-C , 65-O ) :   1.1917 B( 64-C , 67-C ) :   1.1466 B( 65-O , 66-C ) :   0.9136
B( 66-C ,108-H ) :   0.9690 B( 66-C ,109-H ) :   0.9751 B( 66-C ,110-H ) :   0.9771
B( 67-C , 68-O ) :   1.1287 B( 67-C , 70-C ) :   1.3917 B( 68-O , 69-C ) :   0.9572
B( 69-C ,111-H ) :   0.9687 B( 69-C ,112-H ) :   0.9772 B( 69-C ,113-H ) :   0.9686
B( 70-C , 71-C ) :   1.1320 B( 70-C ,114-H ) :   1.0399 B( 71-C , 72-C ) :   1.1619
B( 71-C , 75-N ) :   1.5457 B( 72-C , 73-N ) :   1.5781 B( 73-N , 74-S ) :   1.2340
B( 73-N , 75-N ) :   0.1456 B( 74-S , 75-N ) :   1.2450

-----------------------------------------------------------------------------
         ABSORPTION SPECTRUM VIA TRANSITION ELECTRIC DIPOLE MOMENTS
-----------------------------------------------------------------------------
State   Energy  Wavelength   fosc         T2         TX        TY        TZ
        (cm-1)    (nm)                  (au**2)     (au)      (au)      (au)
-----------------------------------------------------------------------------
   0   15358.6    651.1   1.724103788  36.95625  -6.04057  -0.46783  -0.49892
   1   15817.1    632.2   0.440945951   9.17772   0.11476  -1.19970  -2.77944
   2   17453.5    573.0   0.004261357   0.08038   0.18386   0.21578   0.00375
   3   21995.3    454.6   0.263351055   3.94167  -1.27388   1.40797   0.58010
   4   22533.1    443.8   0.003600316   0.05260   0.08383   0.15440   0.14742
   5   24405.2    409.7   0.344016804   4.64058   1.11849  -1.77440   0.49099
   6   25795.3    387.7   0.007389307   0.09431   0.16315   0.21389   0.14812
   7   26299.7    380.2   0.340259635   4.25926  -0.43148   1.99524   0.30351
   8   26471.4    377.8   0.003012295   0.03746   0.16177   0.07949   0.07052
   9   27596.8    362.4   0.021333514   0.25450  -0.08411   0.49714  -0.01660
  10   28002.9    357.1   0.392904832   4.61912   0.16744  -2.13391  -0.19368
  11   28389.3    352.2   0.011273828   0.13074   0.16542  -0.31120  -0.08077
  12   28431.2    351.7   0.058320881   0.67531  -0.14330  -0.80892  -0.02047
  13   28769.2    347.6   0.181649766   2.07866  -0.31671  -1.40264  -0.10469
  14   29540.4    338.5   0.166644566   1.85717  -0.78213   1.05958  -0.35033
  15   30205.8    331.1   0.113822513   1.24055   1.00448  -0.46467   0.12509
  16   30410.5    328.8   0.060802275   0.65822   0.10027   0.75391   0.28246
  17   30565.1    327.2   0.225030138   2.42376   0.78278   1.34561   0.01834
  18   31643.0    316.0   0.018136685   0.18869   0.34259  -0.20482   0.17140
  19   32237.7    310.2   0.002114257   0.02159  -0.00877  -0.14197  -0.03686
  20   32277.0    309.8   0.023396428   0.23863   0.34795  -0.34246   0.01709
  21   32361.4    309.0   0.000190972   0.00194  -0.03073  -0.03150   0.00251
  22   32767.6    305.2   0.060977589   0.61263   0.65101   0.41995   0.11163
  23   32840.2    304.5   0.443523435   4.44617  -0.90292   1.87988  -0.31139
  24   33203.9    301.2   0.056063856   0.55586  -0.51317   0.52278  -0.13863
  25   33840.2    295.5   0.262168984   2.55049   0.12684   1.57072   0.25930
  26   33999.0    294.1   0.023381475   0.22640   0.02102  -0.47292  -0.04807
  27   34178.4    292.6   0.188803545   1.81859   0.83065  -1.01443   0.31551
  28   34450.7    290.3   0.025014563   0.23904   0.48068  -0.01442   0.08820
  29   34981.4    285.9   0.001770013   0.01666  -0.11070  -0.06584   0.00831
  30   35572.3    281.1   0.039374756   0.36440   0.46267  -0.36166   0.13980
  31   35772.0    279.5   0.001107435   0.01019  -0.03220   0.07396  -0.06070
  32   36464.6    274.2   0.172796350   1.56005  -0.33105   1.20330   0.05028
  33   36811.0    271.7   0.077914818   0.69682   0.33874  -0.75933   0.07409
  34   36970.1    270.5   0.006712623   0.05977  -0.12914   0.14715  -0.14644
  35   37144.6    269.2   0.072837148   0.64556  -0.71285   0.23430   0.28722
  36   37278.3    268.3   0.034557896   0.30519  -0.40903  -0.24861  -0.27581
  37   37536.0    266.4   0.156236528   1.37028  -0.96696   0.17004  -0.63746
  38   37885.4    264.0   0.029586566   0.25710   0.22096   0.45277   0.05719
  39   38298.5    261.1   0.074887841   0.64373  -0.07644  -0.77147   0.20669
  40   38350.3    260.8   0.040184923   0.34496   0.53114  -0.16408   0.18956
  41   38668.6    258.6   0.028852896   0.24564  -0.39926   0.24746  -0.15811
  42   38923.2    256.9   0.179512022   1.51831  -0.82006   0.91963  -0.00910
  43   39097.5    255.8   0.214804316   1.80871  -1.05803   0.67719  -0.48031
  44   39470.2    253.4   0.084832429   0.70757  -0.15993   0.82566   0.01657
  45   39733.7    251.7   0.039170836   0.32455  -0.13325   0.55320   0.02766
  46   40136.0    249.2   0.000202505   0.00166  -0.02286  -0.00490  -0.03338
  47   40218.2    248.6   0.022024238   0.18028   0.32683   0.15279   0.22388

FINAL SINGLE POINT ENERGY     -8186.516763189000

DIPOLE MOMENT
-------------
                                X             Y             Z
Electronic contribution:    115.01864      66.69555      69.40549
Nuclear contribution   :   -117.93389     -67.43081     -71.41949
                        -----------------------------------------
Total Dipole Moment    :     -2.91525      -0.73527      -2.01400
                        -----------------------------------------
Magnitude (a.u.)       :      3.61877
Magnitude (Debye)      :      9.19818

Rotational constants in cm-1:     0.000780     0.000187     0.000161
Rotational constants in MHz :    23.393776     5.599674     4.839121

                             ****ORCA TERMINATED NORMALLY****
TOTAL RUN TIME: 0 days 0 hours 18 minutes 42 seconds 798 msec
