                         Program Version 4.2.0 -  RELEASE  -
|  1> # ORCA input file
|  2> # SCF done       -206.984561685480          0.000766987205
|  3> ! CAM-B3LYP def2-SVP def2/J RIJCOSX Grid4 TightSCF
|  4> %maxcore 5000
|  5> %tddft
|  6>     Mode sTDDFT
|  7>     Ethresh 5.0
|  8>     maxcore 5000
|  9> end
| 10>
| 11> %pal
| 12>   nprocs 6
| 13>   end
| 14> * xyz 0 1
| 15>    C       -4.13615         0.93448         1.16229
| 16>    C       -2.95453         1.50388         1.56971
| 17>    C       -2.03163         0.87987         2.43318
| 18>    N       -1.23653         0.42255         3.12361
| 19>    C       -2.51034         2.78889         1.20125
| 20>    N       -2.10099         3.83169         0.94484
| 21>    C       -4.65183        -0.35528         1.60395
| 22>    C       -5.93394        -0.55198         1.03437
| 23>    C       -6.68716        -1.67525         1.27007
| 24>    C       -6.14960        -2.65467         2.11271
| 25>    C       -4.86692        -2.45242         2.67478
| 26>    C       -4.10499        -1.31526         2.43473
| 27>    S       -4.39191        -3.78807         3.67946
| 28>    C       -5.90295        -4.58775         3.33721
| 29>    C       -6.72234        -3.89251         2.51290
| 30>   Br       -6.25450        -6.26550         4.09766
| 31>    C       -6.27321         0.60486         0.18840
| 32>    O       -7.25931         0.73077        -0.51415
| 33>    C       -5.12879         1.52639         0.28915
| 34>    C       -4.94183         2.65385        -0.46866
| 35>    N       -5.86076         3.35998        -1.15948
| 36>    C       -7.20579         3.50339        -0.97290
| 37>    S       -7.99812         3.09659         0.50904
| 38>    C       -9.45698         3.80895        -0.09256
| 39>    N      -10.59430         3.81517         0.70784
| 40>    O      -11.60522         4.34489         0.25272
| 41>    O      -10.52018         3.31092         1.81569
| 42>    C       -9.33451         4.31451        -1.36111
| 43>    C       -8.03941         4.16392        -1.89317
| 44>    C       -7.64041         4.61775        -3.19423
| 45>    C       -8.44415         5.45143        -3.90593
| 46>    C       -8.31283         5.96398        -5.20684
| 47>    C       -9.33612         6.72498        -5.72739
| 48>    C       -9.50159         7.31195        -7.00527
| 49>    C      -10.69870         7.94569        -7.19096
| 50>    C      -11.54987         7.89992        -6.06876
| 51>    S      -10.76313         7.04841        -4.75792
| 52>    C      -12.83803         8.33929        -5.84082
| 53>    C      -13.78730         8.99177        -6.65831
| 54>    C      -14.99439         9.18562        -6.05960
| 55>    C      -15.08327         8.69424        -4.72601
| 56>    S      -13.52492         8.01468        -4.26555
| 57>    C      -16.19066         8.71568        -3.93365
| 58>    N      -16.32388         8.29145        -2.65528
| 59>    C      -15.31448         7.76912        -1.75376
| 60>    C      -15.19157         6.24350        -1.91192
| 61>    C      -14.54358         5.63553        -0.67548
| 62>    N      -14.42381         4.18754        -0.72961
| 63>    S      -15.05163         3.54059         0.76951
| 64>    N      -15.11466         5.04882         1.58950
| 65>    C      -15.45610         5.96325         0.52269
| 66>    C      -15.34613         7.44004         0.84263
| 67>    C      -15.77501         8.29235        -0.36250
| 68>    N      -17.22376         8.45914        -0.43509
| 69>    S      -17.83556         7.94440        -1.95098
| 70>    C      -17.90235         9.32676         0.33805
| 71>    C      -17.39604        10.01439         1.39744
| 72>    C      -18.14160        10.99227         2.07427
| 73>    C      -17.66593        11.91476         2.96852
| 74>    C      -16.32888        12.29868         3.34272
| 75>    C      -15.17628        12.19477         2.59610
| 76>    C      -13.91263        12.64468         3.03203
| 77>    N      -12.85174        12.97009         3.32750
| 78>    C      -15.09031        11.72273         1.27651
| 79>    N      -14.94235        11.37071         0.19028
| 80>    C      -16.42636        13.03319         4.60425
| 81>    C      -17.79392        13.27341         4.88765
| 82>    C      -18.62083        12.63946         3.83938
| 83>    O      -19.82685        12.66987         3.72900
| 84>    C      -18.20813        13.97046         5.99524
| 85>    C      -17.22684        14.44331         6.87417
| 86>    C      -15.86546        14.18542         6.59082
| 87>    C      -15.44570        13.48789         5.46415
| 88>    S      -14.82159        14.84329         7.81435
| 89>    C      -16.20982        15.45253         8.67558
| 90>    C      -17.39450        15.17655         8.08085
| 91>   Br      -15.96360        16.39097        10.28095
| 92>    H       -7.66179        -1.79364         0.82343
| 93>    H       -3.13238        -1.20928         2.88519
| 94>    H       -7.69088        -4.23668         2.19914
| 95>    H       -3.93693         3.04241        -0.57648
| 96>    H       -5.49288         3.96827        -1.88356
| 97>    H      -10.17224         4.75145        -1.87182
| 98>    H       -6.70611         4.26671        -3.60966
| 99>    H       -9.34684         5.77547        -3.40647
|100>    H       -7.44522         5.74705        -5.81199
|101>    H       -8.73543         7.23920        -7.75731
|102>    H      -10.98994         8.43385        -8.10460
|103>    H      -13.55532         9.28558        -7.66639
|104>    H      -15.83771         9.65548        -6.53396
|105>    H      -17.10612         9.11901        -4.34691
|106>    H      -14.35418         8.23533        -1.98521
|107>    H      -14.60123         6.02430        -2.80145
|108>    H      -16.17984         5.79771        -2.04382
|109>    H      -13.55605         6.09335        -0.51971
|110>    H      -13.44796         3.91491        -0.81435
|111>    H      -14.21091         5.26647         2.00626
|112>    H      -16.49019         5.71647         0.24917
|113>    H      -14.31180         7.68514         1.09411
|114>    H      -15.97303         7.67739         1.70189
|115>    H      -15.35367         9.30417        -0.23627
|116>    H      -18.92849         9.48549         0.03383
|117>    H      -16.37906         9.85123         1.70976
|118>    H      -19.21477        11.01254         1.91878
|119>    H      -19.25626        14.14507         6.18093
|120>    H      -14.39631        13.31129         5.29684
|121>    H      -18.34826        15.47548         8.47569
|122> *
|123>
|124>                          ****END OF INPUT****

CARTESIAN COORDINATES (ANGSTROEM)
---------------------------------
  C     -4.136150    0.934480    1.162290
  C     -2.954530    1.503880    1.569710
  C     -2.031630    0.879870    2.433180
  N     -1.236530    0.422550    3.123610
  C     -2.510340    2.788890    1.201250
  N     -2.100990    3.831690    0.944840
  C     -4.651830   -0.355280    1.603950
  C     -5.933940   -0.551980    1.034370
  C     -6.687160   -1.675250    1.270070
  C     -6.149600   -2.654670    2.112710
  C     -4.866920   -2.452420    2.674780
  C     -4.104990   -1.315260    2.434730
  S     -4.391910   -3.788070    3.679460
  C     -5.902950   -4.587750    3.337210
  C     -6.722340   -3.892510    2.512900
  Br    -6.254500   -6.265500    4.097660
  C     -6.273210    0.604860    0.188400
  O     -7.259310    0.730770   -0.514150
  C     -5.128790    1.526390    0.289150
  C     -4.941830    2.653850   -0.468660
  N     -5.860760    3.359980   -1.159480
  C     -7.205790    3.503390   -0.972900
  S     -7.998120    3.096590    0.509040
  C     -9.456980    3.808950   -0.092560
  N    -10.594300    3.815170    0.707840
  O    -11.605220    4.344890    0.252720
  O    -10.520180    3.310920    1.815690
  C     -9.334510    4.314510   -1.361110
  C     -8.039410    4.163920   -1.893170
  C     -7.640410    4.617750   -3.194230
  C     -8.444150    5.451430   -3.905930
  C     -8.312830    5.963980   -5.206840
  C     -9.336120    6.724980   -5.727390
  C     -9.501590    7.311950   -7.005270
  C    -10.698700    7.945690   -7.190960
  C    -11.549870    7.899920   -6.068760
  S    -10.763130    7.048410   -4.757920
  C    -12.838030    8.339290   -5.840820
  C    -13.787300    8.991770   -6.658310
  C    -14.994390    9.185620   -6.059600
  C    -15.083270    8.694240   -4.726010
  S    -13.524920    8.014680   -4.265550
  C    -16.190660    8.715680   -3.933650
  N    -16.323880    8.291450   -2.655280
  C    -15.314480    7.769120   -1.753760
  C    -15.191570    6.243500   -1.911920
  C    -14.543580    5.635530   -0.675480
  N    -14.423810    4.187540   -0.729610
  S    -15.051630    3.540590    0.769510
  N    -15.114660    5.048820    1.589500
  C    -15.456100    5.963250    0.522690
  C    -15.346130    7.440040    0.842630
  C    -15.775010    8.292350   -0.362500
  N    -17.223760    8.459140   -0.435090
  S    -17.835560    7.944400   -1.950980
  C    -17.902350    9.326760    0.338050
  C    -17.396040   10.014390    1.397440
  C    -18.141600   10.992270    2.074270
  C    -17.665930   11.914760    2.968520
  C    -16.328880   12.298680    3.342720
  C    -15.176280   12.194770    2.596100
  C    -13.912630   12.644680    3.032030
  N    -12.851740   12.970090    3.327500
  C    -15.090310   11.722730    1.276510
  N    -14.942350   11.370710    0.190280
  C    -16.426360   13.033190    4.604250
  C    -17.793920   13.273410    4.887650
  C    -18.620830   12.639460    3.839380
  O    -19.826850   12.669870    3.729000
  C    -18.208130   13.970460    5.995240
  C    -17.226840   14.443310    6.874170
  C    -15.865460   14.185420    6.590820
  C    -15.445700   13.487890    5.464150
  S    -14.821590   14.843290    7.814350
  C    -16.209820   15.452530    8.675580
  C    -17.394500   15.176550    8.080850
  Br   -15.963600   16.390970   10.280950
  H     -7.661790   -1.793640    0.823430
  H     -3.132380   -1.209280    2.885190
  H     -7.690880   -4.236680    2.199140
  H     -3.936930    3.042410   -0.576480
  H     -5.492880    3.968270   -1.883560
  H    -10.172240    4.751450   -1.871820
  H     -6.706110    4.266710   -3.609660
  H     -9.346840    5.775470   -3.406470
  H     -7.445220    5.747050   -5.811990
  H     -8.735430    7.239200   -7.757310
  H    -10.989940    8.433850   -8.104600
  H    -13.555320    9.285580   -7.666390
  H    -15.837710    9.655480   -6.533960
  H    -17.106120    9.119010   -4.346910
  H    -14.354180    8.235330   -1.985210
  H    -14.601230    6.024300   -2.801450
  H    -16.179840    5.797710   -2.043820
  H    -13.556050    6.093350   -0.519710
  H    -13.447960    3.914910   -0.814350
  H    -14.210910    5.266470    2.006260
  H    -16.490190    5.716470    0.249170
  H    -14.311800    7.685140    1.094110
  H    -15.973030    7.677390    1.701890
  H    -15.353670    9.304170   -0.236270
  H    -18.928490    9.485490    0.033830
  H    -16.379060    9.851230    1.709760
  H    -19.214770   11.012540    1.918780
  H    -19.256260   14.145070    6.180930
  H    -14.396310   13.311290    5.296840
  H    -18.348260   15.475480    8.475690

 Total Charge           Charge          ....    0
 Multiplicity           Mult            ....    1
 Number of Electrons    NEL             ....  638
 Basis Dimension        Dim             .... 1292

ORBITAL ENERGIES
----------------

  NO   OCC          E(Eh)            E(eV)
   0   2.0000    -482.885210    -13139.9746
   1   2.0000    -482.881299    -13139.8682
   2   2.0000     -89.015230     -2422.2276
   3   2.0000     -88.983213     -2421.3563
   4   2.0000     -88.975322     -2421.1416
   5   2.0000     -88.970288     -2421.0046
   6   2.0000     -88.951963     -2420.5060
   7   2.0000     -88.939388     -2420.1638
   8   2.0000     -88.933197     -2419.9953
   9   2.0000     -62.562903     -1702.4231
  10   2.0000     -62.559025     -1702.3176
  11   2.0000     -56.396857     -1534.6365
  12   2.0000     -56.394136     -1534.5624
  13   2.0000     -56.394107     -1534.5617
  14   2.0000     -56.392970     -1534.5307
  15   2.0000     -56.390265     -1534.4571
  16   2.0000     -56.390227     -1534.4561
  17   2.0000     -19.245126      -523.6865
  18   2.0000     -19.242982      -523.6282
  19   2.0000     -19.217723      -522.9408
  20   2.0000     -19.204773      -522.5884
  21   2.0000     -14.654546      -398.7705
  22   2.0000     -14.509303      -394.8182
  23   2.0000     -14.489831      -394.2883
  24   2.0000     -14.485660      -394.1748
  25   2.0000     -14.419315      -392.3695
  26   2.0000     -14.416214      -392.2851
  27   2.0000     -14.414810      -392.2469
  28   2.0000     -14.408945      -392.0873
  29   2.0000     -14.407620      -392.0513
  30   2.0000     -14.390881      -391.5958
  31   2.0000     -10.369435      -282.1667
  32   2.0000     -10.368974      -282.1541
  33   2.0000     -10.364349      -282.0283
  34   2.0000     -10.358668      -281.8737
  35   2.0000     -10.355758      -281.7945
  36   2.0000     -10.354919      -281.7717
  37   2.0000     -10.353658      -281.7374
  38   2.0000     -10.348914      -281.6083
  39   2.0000     -10.345603      -281.5182
  40   2.0000     -10.342791      -281.4417
  41   2.0000     -10.342032      -281.4210
  42   2.0000     -10.337302      -281.2923
  43   2.0000     -10.337027      -281.2848
  44   2.0000     -10.334553      -281.2175
  45   2.0000     -10.332826      -281.1705
  46   2.0000     -10.325123      -280.9609
  47   2.0000     -10.322470      -280.8887
  48   2.0000     -10.322133      -280.8795
  49   2.0000     -10.319492      -280.8076
  50   2.0000     -10.318413      -280.7783
  51   2.0000     -10.318022      -280.7677
  52   2.0000     -10.312914      -280.6287
  53   2.0000     -10.312881      -280.6278
  54   2.0000     -10.309588      -280.5381
  55   2.0000     -10.308295      -280.5030
  56   2.0000     -10.307850      -280.4909
  57   2.0000     -10.307530      -280.4822
  58   2.0000     -10.306209      -280.4462
  59   2.0000     -10.303667      -280.3770
  60   2.0000     -10.301712      -280.3238
  61   2.0000     -10.301368      -280.3145
  62   2.0000     -10.301113      -280.3075
  63   2.0000     -10.301088      -280.3069
  64   2.0000     -10.301017      -280.3049
  65   2.0000     -10.300940      -280.3028
  66   2.0000     -10.299475      -280.2629
  67   2.0000     -10.298086      -280.2252
  68   2.0000     -10.297353      -280.2052
  69   2.0000     -10.296235      -280.1748
  70   2.0000     -10.294883      -280.1380
  71   2.0000     -10.292887      -280.0837
  72   2.0000     -10.292355      -280.0692
  73   2.0000     -10.291789      -280.0538
  74   2.0000     -10.291707      -280.0516
  75   2.0000     -10.287132      -279.9271
  76   2.0000     -10.285233      -279.8754
  77   2.0000     -10.283180      -279.8195
  78   2.0000     -10.282240      -279.7940
  79   2.0000     -10.281860      -279.7836
  80   2.0000     -10.281225      -279.7664
  81   2.0000     -10.281153      -279.7644
  82   2.0000     -10.279612      -279.7225
  83   2.0000     -10.270898      -279.4853
  84   2.0000     -10.266838      -279.3749
  85   2.0000      -8.792313      -239.2510
  86   2.0000      -8.788458      -239.1461
  87   2.0000      -8.105886      -220.5724
  88   2.0000      -8.078003      -219.8136
  89   2.0000      -8.071327      -219.6320
  90   2.0000      -8.066331      -219.4960
  91   2.0000      -8.047611      -218.9866
  92   2.0000      -8.035924      -218.6686
  93   2.0000      -8.025305      -218.3796
  94   2.0000      -6.628620      -180.3739
  95   2.0000      -6.624749      -180.2686
  96   2.0000      -6.614057      -179.9776
  97   2.0000      -6.613833      -179.9716
  98   2.0000      -6.610186      -179.8723
  99   2.0000      -6.610014      -179.8676
 100   2.0000      -6.078428      -165.4024
 101   2.0000      -6.073842      -165.2777
 102   2.0000      -6.062225      -164.9615
 103   2.0000      -6.047605      -164.5637
 104   2.0000      -6.043240      -164.4449
 105   2.0000      -6.040997      -164.3839
 106   2.0000      -6.039567      -164.3450
 107   2.0000      -6.036751      -164.2683
 108   2.0000      -6.036013      -164.2483
 109   2.0000      -6.032552      -164.1541
 110   2.0000      -6.031754      -164.1324
 111   2.0000      -6.027542      -164.0177
 112   2.0000      -6.017486      -163.7441
 113   2.0000      -6.013318      -163.6307
 114   2.0000      -6.008452      -163.4983
 115   2.0000      -6.005675      -163.4227
 116   2.0000      -6.001674      -163.3139
 117   2.0000      -5.998496      -163.2274
 118   2.0000      -5.996742      -163.1796
 119   2.0000      -5.992340      -163.0599
 120   2.0000      -5.981905      -162.7759
 121   2.0000      -2.744496       -74.6815
 122   2.0000      -2.740599       -74.5755
 123   2.0000      -2.740389       -74.5698
 124   2.0000      -2.740254       -74.5661
 125   2.0000      -2.736552       -74.4654
 126   2.0000      -2.736396       -74.4611
 127   2.0000      -2.728661       -74.2506
 128   2.0000      -2.728653       -74.2504
 129   2.0000      -2.724832       -74.1465
 130   2.0000      -2.724818       -74.1461
 131   2.0000      -1.320850       -35.9422
 132   2.0000      -1.138633       -30.9838
 133   2.0000      -1.134922       -30.8828
 134   2.0000      -1.128319       -30.7031
 135   2.0000      -1.119656       -30.4674
 136   2.0000      -1.103607       -30.0307
 137   2.0000      -1.056758       -28.7558
 138   2.0000      -1.041590       -28.3431
 139   2.0000      -1.024048       -27.8658
 140   2.0000      -1.017729       -27.6938
 141   2.0000      -1.014619       -27.6092
 142   2.0000      -1.010101       -27.4862
 143   2.0000      -1.006136       -27.3784
 144   2.0000      -0.997351       -27.1393
 145   2.0000      -0.996061       -27.1042
 146   2.0000      -0.991820       -26.9888
 147   2.0000      -0.990161       -26.9437
 148   2.0000      -0.983158       -26.7531
 149   2.0000      -0.973507       -26.4905
 150   2.0000      -0.943181       -25.6653
 151   2.0000      -0.939946       -25.5772
 152   2.0000      -0.939414       -25.5628
 153   2.0000      -0.932433       -25.3728
 154   2.0000      -0.923366       -25.1261
 155   2.0000      -0.917148       -24.9569
 156   2.0000      -0.909316       -24.7437
 157   2.0000      -0.904039       -24.6001
 158   2.0000      -0.903104       -24.5747
 159   2.0000      -0.893400       -24.3106
 160   2.0000      -0.886916       -24.1342
 161   2.0000      -0.886073       -24.1113
 162   2.0000      -0.880234       -23.9524
 163   2.0000      -0.876408       -23.8483
 164   2.0000      -0.867862       -23.6157
 165   2.0000      -0.855992       -23.2927
 166   2.0000      -0.852864       -23.2076
 167   2.0000      -0.848689       -23.0940
 168   2.0000      -0.843810       -22.9613
 169   2.0000      -0.837264       -22.7831
 170   2.0000      -0.829575       -22.5739
 171   2.0000      -0.825061       -22.4511
 172   2.0000      -0.823600       -22.4113
 173   2.0000      -0.814473       -22.1629
 174   2.0000      -0.802715       -21.8430
 175   2.0000      -0.796739       -21.6804
 176   2.0000      -0.773783       -21.0557
 177   2.0000      -0.763884       -20.7863
 178   2.0000      -0.760513       -20.6946
 179   2.0000      -0.753406       -20.5012
 180   2.0000      -0.747134       -20.3306
 181   2.0000      -0.739886       -20.1333
 182   2.0000      -0.733468       -19.9587
 183   2.0000      -0.724738       -19.7211
 184   2.0000      -0.710040       -19.3212
 185   2.0000      -0.706250       -19.2180
 186   2.0000      -0.705351       -19.1936
 187   2.0000      -0.698395       -19.0043
 188   2.0000      -0.692191       -18.8355
 189   2.0000      -0.688822       -18.7438
 190   2.0000      -0.685936       -18.6653
 191   2.0000      -0.679554       -18.4916
 192   2.0000      -0.678314       -18.4579
 193   2.0000      -0.665345       -18.1049
 194   2.0000      -0.661271       -17.9941
 195   2.0000      -0.657154       -17.8821
 196   2.0000      -0.654810       -17.8183
 197   2.0000      -0.650173       -17.6921
 198   2.0000      -0.645949       -17.5772
 199   2.0000      -0.642292       -17.4776
 200   2.0000      -0.639654       -17.4059
 201   2.0000      -0.633721       -17.2444
 202   2.0000      -0.633293       -17.2328
 203   2.0000      -0.627757       -17.0821
 204   2.0000      -0.622318       -16.9341
 205   2.0000      -0.617617       -16.8062
 206   2.0000      -0.617245       -16.7961
 207   2.0000      -0.616339       -16.7714
 208   2.0000      -0.607575       -16.5330
 209   2.0000      -0.604969       -16.4620
 210   2.0000      -0.602828       -16.4038
 211   2.0000      -0.596662       -16.2360
 212   2.0000      -0.593565       -16.1517
 213   2.0000      -0.588660       -16.0183
 214   2.0000      -0.586774       -15.9669
 215   2.0000      -0.583985       -15.8910
 216   2.0000      -0.576938       -15.6993
 217   2.0000      -0.573249       -15.5989
 218   2.0000      -0.572104       -15.5677
 219   2.0000      -0.563568       -15.3355
 220   2.0000      -0.558492       -15.1973
 221   2.0000      -0.556063       -15.1312
 222   2.0000      -0.554005       -15.0752
 223   2.0000      -0.548670       -14.9301
 224   2.0000      -0.545227       -14.8364
 225   2.0000      -0.544583       -14.8189
 226   2.0000      -0.543208       -14.7815
 227   2.0000      -0.539549       -14.6819
 228   2.0000      -0.534294       -14.5389
 229   2.0000      -0.533784       -14.5250
 230   2.0000      -0.531379       -14.4596
 231   2.0000      -0.528302       -14.3758
 232   2.0000      -0.525073       -14.2880
 233   2.0000      -0.521882       -14.2011
 234   2.0000      -0.518144       -14.0994
 235   2.0000      -0.513988       -13.9863
 236   2.0000      -0.512737       -13.9523
 237   2.0000      -0.512382       -13.9426
 238   2.0000      -0.508308       -13.8318
 239   2.0000      -0.506488       -13.7822
 240   2.0000      -0.503124       -13.6907
 241   2.0000      -0.502408       -13.6712
 242   2.0000      -0.501715       -13.6524
 243   2.0000      -0.499879       -13.6024
 244   2.0000      -0.497327       -13.5330
 245   2.0000      -0.494885       -13.4665
 246   2.0000      -0.494318       -13.4511
 247   2.0000      -0.493740       -13.4353
 248   2.0000      -0.491408       -13.3719
 249   2.0000      -0.487358       -13.2617
 250   2.0000      -0.486580       -13.2405
 251   2.0000      -0.479837       -13.0570
 252   2.0000      -0.477361       -12.9897
 253   2.0000      -0.477151       -12.9839
 254   2.0000      -0.476470       -12.9654
 255   2.0000      -0.472698       -12.8628
 256   2.0000      -0.469277       -12.7697
 257   2.0000      -0.465633       -12.6705
 258   2.0000      -0.463695       -12.6178
 259   2.0000      -0.460297       -12.5253
 260   2.0000      -0.459016       -12.4905
 261   2.0000      -0.457437       -12.4475
 262   2.0000      -0.456063       -12.4101
 263   2.0000      -0.454536       -12.3686
 264   2.0000      -0.453411       -12.3379
 265   2.0000      -0.451864       -12.2958
 266   2.0000      -0.451625       -12.2894
 267   2.0000      -0.445100       -12.1118
 268   2.0000      -0.444909       -12.1066
 269   2.0000      -0.441014       -12.0006
 270   2.0000      -0.439766       -11.9666
 271   2.0000      -0.439024       -11.9464
 272   2.0000      -0.436967       -11.8905
 273   2.0000      -0.435639       -11.8543
 274   2.0000      -0.433142       -11.7864
 275   2.0000      -0.429245       -11.6803
 276   2.0000      -0.429001       -11.6737
 277   2.0000      -0.427321       -11.6280
 278   2.0000      -0.426211       -11.5978
 279   2.0000      -0.424740       -11.5578
 280   2.0000      -0.422104       -11.4860
 281   2.0000      -0.420031       -11.4296
 282   2.0000      -0.415744       -11.3130
 283   2.0000      -0.413891       -11.2625
 284   2.0000      -0.410598       -11.1729
 285   2.0000      -0.409184       -11.1345
 286   2.0000      -0.405010       -11.0209
 287   2.0000      -0.402765       -10.9598
 288   2.0000      -0.394111       -10.7243
 289   2.0000      -0.388831       -10.5806
 290   2.0000      -0.388511       -10.5719
 291   2.0000      -0.387241       -10.5374
 292   2.0000      -0.384808       -10.4711
 293   2.0000      -0.382863       -10.4182
 294   2.0000      -0.379641       -10.3306
 295   2.0000      -0.374572       -10.1926
 296   2.0000      -0.372320       -10.1313
 297   2.0000      -0.371410       -10.1066
 298   2.0000      -0.370854       -10.0915
 299   2.0000      -0.368579       -10.0296
 300   2.0000      -0.356527        -9.7016
 301   2.0000      -0.353436        -9.6175
 302   2.0000      -0.350427        -9.5356
 303   2.0000      -0.341877        -9.3029
 304   2.0000      -0.339452        -9.2370
 305   2.0000      -0.328114        -8.9284
 306   2.0000      -0.325505        -8.8574
 307   2.0000      -0.322825        -8.7845
 308   2.0000      -0.321286        -8.7426
 309   2.0000      -0.312625        -8.5070
 310   2.0000      -0.312139        -8.4937
 311   2.0000      -0.309665        -8.4264
 312   2.0000      -0.297416        -8.0931
 313   2.0000      -0.292931        -7.9710
 314   2.0000      -0.289437        -7.8760
 315   2.0000      -0.272403        -7.4125
 316   2.0000      -0.266421        -7.2497
 317   2.0000      -0.253831        -6.9071
 318   2.0000      -0.208803        -5.6818
 319   0.0000      -0.089819        -2.4441
 320   0.0000      -0.078488        -2.1358
 321   0.0000      -0.071403        -1.9430
 322   0.0000      -0.062487        -1.7004
 323   0.0000      -0.047471        -1.2918

MULLIKEN ATOMIC CHARGES
-----------------------
   0 C :    0.308370
   1 C :   -0.343281
   2 C :   -0.182941
   3 N :    0.145492
   4 C :   -0.213815
   5 N :    0.153334
   6 C :    0.008990
   7 C :   -0.001640
   8 C :   -0.070202
   9 C :    0.115457
  10 C :   -0.092155
  11 C :   -0.017745
  12 S :    0.186808
  13 C :   -0.124915
  14 C :    0.042528
  15 Br:    0.024968
  16 C :    0.134379
  17 O :   -0.156764
  18 C :   -0.147176
  19 C :    0.017930
  20 N :    0.018035
  21 C :   -0.090030
  22 S :    0.209531
  23 C :   -0.023687
  24 N :    0.292215
  25 O :   -0.285113
  26 O :   -0.251159
  27 C :   -0.000733
  28 C :    0.134952
  29 C :   -0.063122
  30 C :    0.009470
  31 C :   -0.005251
  32 C :   -0.004983
  33 C :    0.015702
  34 C :    0.048403
  35 C :   -0.048418
  36 S :   -0.000337
  37 C :   -0.020082
  38 C :    0.019313
  39 C :    0.050340
  40 C :   -0.059199
  41 S :    0.037709
  42 C :    0.121053
  43 N :   -0.352298
  44 C :   -0.080192
  45 C :    0.258808
  46 C :    0.002298
  47 N :   -0.340688
  48 S :    0.211160
  49 N :   -0.307447
  50 C :   -0.021252
  51 C :    0.180718
  52 C :    0.098081
  53 N :   -0.378535
  54 S :    0.371369
  55 C :    0.158056
  56 C :   -0.032464
  57 C :    0.032376
  58 C :   -0.136422
  59 C :    0.303678
  60 C :   -0.369727
  61 C :   -0.182223
  62 N :    0.143558
  63 C :   -0.157156
  64 N :    0.125046
  65 C :    0.003833
  66 C :   -0.001797
  67 C :    0.135108
  68 O :   -0.154935
  69 C :   -0.077505
  70 C :    0.118272
  71 C :   -0.089172
  72 C :   -0.026420
  73 S :    0.182819
  74 C :   -0.124674
  75 C :    0.037660
  76 Br:    0.019347
  77 H :   -0.009449
  78 H :   -0.007151
  79 H :   -0.002442
  80 H :    0.047806
  81 H :    0.158646
  82 H :    0.009887
  83 H :   -0.033324
  84 H :    0.012003
  85 H :   -0.026096
  86 H :   -0.015115
  87 H :   -0.013853
  88 H :   -0.014552
  89 H :   -0.009861
  90 H :    0.012361
  91 H :    0.058402
  92 H :    0.010551
  93 H :   -0.002396
  94 H :   -0.007153
  95 H :    0.135769
  96 H :    0.131555
  97 H :    0.013006
  98 H :    0.007912
  99 H :    0.022489
 100 H :    0.040201
 101 H :    0.022647
 102 H :    0.027302
 103 H :    0.011115
 104 H :   -0.011566
 105 H :   -0.005322
 106 H :   -0.004883
Sum of atomic charges:   -0.0000000

LOEWDIN ATOMIC CHARGES
----------------------
   0 C :    0.081895
   1 C :   -0.150337
   2 C :   -0.019222
   3 N :   -0.054707
   4 C :   -0.024935
   5 N :   -0.058155
   6 C :   -0.023463
   7 C :   -0.048558
   8 C :    0.022475
   9 C :   -0.031772
  10 C :   -0.145332
  11 C :   -0.007619
  12 S :    0.433434
  13 C :   -0.271156
  14 C :   -0.069599
  15 Br:    0.137760
  16 C :    0.063771
  17 O :   -0.162497
  18 C :   -0.149461
  19 C :    0.096582
  20 N :    0.083730
  21 C :   -0.116068
  22 S :    0.507273
  23 C :   -0.207660
  24 N :    0.284535
  25 O :   -0.243080
  26 O :   -0.215912
  27 C :   -0.005089
  28 C :   -0.073661
  29 C :   -0.073311
  30 C :   -0.010292
  31 C :   -0.091625
  32 C :   -0.117488
  33 C :   -0.058591
  34 C :   -0.015150
  35 C :   -0.208753
  36 S :    0.357981
  37 C :   -0.154115
  38 C :   -0.058720
  39 C :   -0.009638
  40 C :   -0.215951
  41 S :    0.385026
  42 C :    0.011588
  43 N :   -0.141387
  44 C :    0.009475
  45 C :   -0.040165
  46 C :   -0.008833
  47 N :   -0.243686
  48 S :    0.350335
  49 N :   -0.220454
  50 C :   -0.019178
  51 C :   -0.028886
  52 C :    0.024691
  53 N :   -0.135747
  54 S :    0.456707
  55 C :    0.073602
  56 C :   -0.106111
  57 C :    0.078849
  58 C :   -0.125435
  59 C :    0.078317
  60 C :   -0.161790
  61 C :   -0.021001
  62 N :   -0.061974
  63 C :   -0.001285
  64 N :   -0.075163
  65 C :   -0.018900
  66 C :   -0.051115
  67 C :    0.080951
  68 O :   -0.155211
  69 C :    0.020095
  70 C :   -0.034710
  71 C :   -0.145182
  72 C :   -0.013587
  73 S :    0.429842
  74 C :   -0.273501
  75 C :   -0.070271
  76 Br:    0.133370
  77 H :    0.041703
  78 H :    0.041149
  79 H :    0.039307
  80 H :    0.045422
  81 H :    0.107874
  82 H :    0.041132
  83 H :    0.018252
  84 H :    0.014278
  85 H :    0.028063
  86 H :    0.031492
  87 H :    0.032759
  88 H :    0.032679
  89 H :    0.033640
  90 H :    0.033659
  91 H :    0.028538
  92 H :    0.017846
  93 H :    0.018848
  94 H :    0.008663
  95 H :    0.035653
  96 H :    0.049370
  97 H :    0.019993
  98 H :    0.031158
  99 H :    0.034049
 100 H :    0.033104
 101 H :    0.032126
 102 H :    0.031205
 103 H :    0.042468
 104 H :    0.040341
 105 H :    0.040250
 106 H :    0.038177

  Mayer bond orders larger than 0.100000
B(  0-C ,  1-C ) :   1.6246 B(  0-C ,  6-C ) :   1.0129 B(  0-C , 18-C ) :   1.1085
B(  1-C ,  2-C ) :   1.1434 B(  1-C ,  4-C ) :   1.1435 B(  2-C ,  3-N ) :   2.9677
B(  4-C ,  5-N ) :   2.9837 B(  6-C ,  7-C ) :   1.2760 B(  6-C , 11-C ) :   1.4127
B(  7-C ,  8-C ) :   1.4281 B(  7-C , 16-C ) :   0.9440 B(  8-C ,  9-C ) :   1.2413
B(  8-C , 77-H ) :   1.0175 B(  9-C , 10-C ) :   1.3108 B(  9-C , 14-C ) :   1.1643
B( 10-C , 11-C ) :   1.3281 B( 10-C , 12-S ) :   1.0848 B( 11-C , 78-H ) :   0.9796
B( 12-S , 13-C ) :   1.0886 B( 13-C , 14-C ) :   1.6154 B( 13-C , 15-Br) :   1.0199
B( 14-C , 79-H ) :   1.0003 B( 16-C , 17-O ) :   2.2037 B( 16-C , 18-C ) :   0.9540
B( 18-C , 19-C ) :   1.5085 B( 19-C , 20-N ) :   1.3133 B( 19-C , 80-H ) :   0.9337
B( 20-N , 21-C ) :   1.1477 B( 20-N , 81-H ) :   0.9000 B( 21-C , 22-S ) :   1.1437
B( 21-C , 28-C ) :   1.3719 B( 22-S , 23-C ) :   1.1158 B( 23-C , 24-N ) :   0.9931
B( 23-C , 27-C ) :   1.4530 B( 24-N , 25-O ) :   1.4580 B( 24-N , 26-O ) :   1.5259
B( 25-O , 26-O ) :   0.2411 B( 27-C , 28-C ) :   1.2534 B( 27-C , 82-H ) :   0.9892
B( 28-C , 29-C ) :   1.0701 B( 29-C , 30-C ) :   1.6570 B( 29-C , 83-H ) :   0.9759
B( 30-C , 31-C ) :   1.1618 B( 30-C , 84-H ) :   0.9543 B( 31-C , 32-C ) :   1.5391
B( 31-C , 85-H ) :   0.9886 B( 32-C , 33-C ) :   1.1541 B( 32-C , 36-S ) :   1.0517
B( 33-C , 34-C ) :   1.5694 B( 33-C , 86-H ) :   0.9974 B( 34-C , 35-C ) :   1.2109
B( 34-C , 87-H ) :   0.9946 B( 35-C , 36-S ) :   1.0240 B( 35-C , 37-C ) :   1.4894
B( 37-C , 38-C ) :   1.1904 B( 37-C , 41-S ) :   1.0680 B( 38-C , 39-C ) :   1.6030
B( 38-C , 88-H ) :   0.9944 B( 39-C , 40-C ) :   1.1560 B( 39-C , 89-H ) :   0.9938
B( 40-C , 41-S ) :   0.9948 B( 40-C , 42-C ) :   1.6123 B( 42-C , 43-N ) :   1.1411
B( 42-C , 90-H ) :   0.9471 B( 43-N , 44-C ) :   0.9149 B( 43-N , 54-S ) :   0.9414
B( 44-C , 45-C ) :   1.0010 B( 44-C , 52-C ) :   1.0221 B( 44-C , 91-H ) :   0.8982
B( 45-C , 46-C ) :   1.0418 B( 45-C , 92-H ) :   0.9115 B( 45-C , 93-H ) :   0.8950
B( 46-C , 47-N ) :   1.0268 B( 46-C , 50-C ) :   1.0042 B( 46-C , 94-H ) :   0.9165
B( 47-N , 48-S ) :   0.9375 B( 47-N , 95-H ) :   0.9333 B( 48-S , 49-N ) :   1.0099
B( 49-N , 50-C ) :   1.0311 B( 49-N , 96-H ) :   0.9345 B( 50-C , 51-C ) :   1.0316
B( 50-C , 97-H ) :   0.9085 B( 51-C , 52-C ) :   1.0642 B( 51-C , 98-H ) :   0.9141
B( 51-C , 99-H ) :   0.9182 B( 52-C , 53-N ) :   0.8743 B( 52-C ,100-H ) :   0.8854
B( 53-N , 54-S ) :   0.9284 B( 53-N , 55-C ) :   1.2027 B( 55-C , 56-C ) :   1.5579
B( 55-C ,101-H ) :   0.9611 B( 56-C , 57-C ) :   1.2196 B( 56-C ,102-H ) :   0.9415
B( 57-C , 58-C ) :   1.5396 B( 57-C ,103-H ) :   0.9547 B( 58-C , 59-C ) :   1.0836
B( 58-C , 67-C ) :   0.9586 B( 59-C , 60-C ) :   1.5830 B( 59-C , 65-C ) :   1.0107
B( 60-C , 61-C ) :   1.1278 B( 60-C , 63-C ) :   1.1939 B( 61-C , 62-N ) :   2.9817
B( 63-C , 64-N ) :   2.8899 B( 64-N ,100-H ) :   0.1186 B( 65-C , 66-C ) :   1.2772
B( 65-C , 72-C ) :   1.4143 B( 66-C , 67-C ) :   0.9195 B( 66-C , 69-C ) :   1.4330
B( 67-C , 68-O ) :   2.2560 B( 69-C , 70-C ) :   1.2420 B( 69-C ,104-H ) :   1.0174
B( 70-C , 71-C ) :   1.3141 B( 70-C , 75-C ) :   1.1611 B( 71-C , 72-C ) :   1.3236
B( 71-C , 73-S ) :   1.0836 B( 72-C ,105-H ) :   0.9818 B( 73-S , 74-C ) :   1.0870
B( 74-C , 75-C ) :   1.6196 B( 74-C , 76-Br) :   1.0164 B( 75-C ,106-H ) :   1.0009

-----------------------------------------------------------------------------
         ABSORPTION SPECTRUM VIA TRANSITION ELECTRIC DIPOLE MOMENTS
-----------------------------------------------------------------------------
State   Energy  Wavelength   fosc         T2         TX        TY        TZ
        (cm-1)    (nm)                  (au**2)     (au)      (au)      (au)
-----------------------------------------------------------------------------
   0   13420.1    745.1   0.736605783  18.06981  -3.34960   2.38049  -1.08777
   1   15454.4    647.1   0.498801424  10.62553   2.73842  -1.76630   0.08233
   2   17455.7    572.9   0.007782392   0.14678   0.19637   0.09335   0.31544
   3   19361.2    516.5   0.054739733   0.93078  -0.66542   0.32481   0.61846
   4   21395.4    467.4   0.007912342   0.12175  -0.31071   0.06385   0.14537
   5   22355.7    447.3   0.214853741   3.16396   0.62380  -0.03969  -1.66531
   6   23647.6    422.9   0.533689966   7.42980   1.34361   1.62219   1.73003
   7   24183.6    413.5   0.465113779   6.33161  -1.92740   1.30739  -0.95263
   8   25370.9    394.2   0.005773265   0.07491  -0.06179  -0.11373   0.24117
   9   25402.2    393.7   0.003495708   0.04530   0.05095   0.03955  -0.20284
  10   25717.2    388.8   0.000121733   0.00156  -0.01335  -0.01593   0.03356
  11   26215.6    381.5   0.018247287   0.22915   0.24408  -0.40449   0.07721
  12   26997.2    370.4   0.216997960   2.64613  -0.77224  -0.51101   1.33741
  13   28360.9    352.6   0.292885387   3.39980  -1.09229  -1.33769   0.64597
  14   28566.6    350.1   0.017619724   0.20306   0.12636  -0.40129  -0.16141
  15   28920.2    345.8   0.061270072   0.69747   0.42225   0.03465  -0.71970
  16   29318.2    341.1   0.159903036   1.79554   0.38227  -0.93288  -0.88269
  17   29391.3    340.2   0.123967384   1.38856  -0.29348   0.20383   1.12289
  18   29538.7    338.5   0.159037362   1.77249  -0.05263  -1.06143   0.80193
  19   30144.5    331.7   0.385169256   4.20648  -0.14005  -0.72178   1.91466
  20   30379.0    329.2   0.266509692   2.88812  -0.13301  -1.33552  -1.04250
  21   30815.0    324.5   0.123598664   1.32047   0.40554   0.73863   0.78130
  22   30853.2    324.1   0.038563181   0.41148   0.50223  -0.38175  -0.11624
  23   31061.2    321.9   0.060281665   0.63891   0.06521   0.76107   0.23546
  24   31470.0    317.8   0.467880776   4.89457  -0.65783   0.65928   2.00678
  25   31554.6    316.9   0.053801897   0.56132   0.08629   0.69974  -0.25345
  26   31754.5    314.9   0.245623083   2.54647  -1.02947  -0.89333   0.82984
  27   31941.2    313.1   0.004356551   0.04490  -0.13793   0.07386   0.14291
  28   32142.5    311.1   0.071175442   0.72900   0.02943  -0.64013  -0.56424
  29   32225.8    310.3   0.135424009   1.38346   0.44809  -0.57025  -0.92601
  30   32856.8    304.4   0.021528968   0.21571   0.12773   0.44604   0.02114
  31   33074.4    302.3   0.002240434   0.02230   0.13113   0.02655   0.06634
  32   33653.4    297.1   0.067265269   0.65802  -0.68618  -0.37004   0.22414
  33   33759.1    296.2   0.287045697   2.79921  -1.31044  -1.04017   0.00376
  34   33777.1    296.1   0.002487787   0.02425   0.04110   0.13765   0.06009
  35   33844.2    295.5   0.041400740   0.40272   0.30508   0.31317   0.45997
  36   34480.9    290.0   0.058125634   0.55496   0.62088   0.17775   0.37132
  37   34640.0    288.7   0.007484965   0.07114   0.15357   0.21804  -0.00335
  38   34798.3    287.4   0.239720286   2.26789  -0.79574   0.52304   1.16667
  39   34887.3    286.6   0.213348211   2.01325   0.52643  -0.74328  -1.08796
  40   35495.2    281.7   0.041662869   0.38642  -0.20268   0.58617   0.04175
  41   36013.0    277.7   0.174678682   1.59682   0.42103   0.72592  -0.94477
  42   36379.4    274.9   0.003612186   0.03269  -0.06617  -0.09888   0.13613
  43   36437.7    274.4   0.014657329   0.13243   0.35658  -0.02492  -0.06823
  44   36528.8    273.8   0.004692831   0.04229  -0.06422  -0.00901  -0.19516
  45   36851.1    271.4   0.004009095   0.03582   0.02662  -0.12026   0.14368
  46   36952.3    270.6   0.002853789   0.02542   0.14344  -0.06021  -0.03499
  47   36977.5    270.4   0.000906429   0.00807  -0.06169  -0.04966  -0.04240
  48   37276.3    268.3   0.008436167   0.07451   0.22000   0.12663   0.10034
  49   37463.2    266.9   0.038888239   0.34173   0.13278   0.50125  -0.26991
  50   37893.6    263.9   0.008169392   0.07097  -0.04056  -0.12384   0.23237
  51   38195.9    261.8   0.019180149   0.16531  -0.27873  -0.00776  -0.29591
  52   38616.3    259.0   0.012253913   0.10447  -0.06376   0.15480   0.27647
  53   38862.9    257.3   0.090850342   0.76960   0.00870   0.64340  -0.59630
  54   39095.6    255.8   0.091631511   0.77160  -0.57266   0.24498  -0.61939
  55   39157.4    255.4   0.054088452   0.45474  -0.31764  -0.41587   0.42532
  56   39468.6    253.4   0.184681259   1.54045  -0.06671   0.82142  -0.92804
  57   39726.5    251.7   0.044475631   0.36857   0.05885   0.17607  -0.57802
  58   39894.8    250.7   0.070285599   0.58000   0.27752   0.32138   0.63221
  59   40157.4    249.0   0.045130085   0.36998   0.46783  -0.27994   0.26972

FINAL SINGLE POINT ENERGY    -10854.662304231968

DIPOLE MOMENT
-------------
                                X             Y             Z
Electronic contribution:     39.84856     -37.63719     166.45936
Nuclear contribution   :    -41.88796      37.47188    -169.26369
                        -----------------------------------------
Total Dipole Moment    :     -2.03940      -0.16531      -2.80433
                        -----------------------------------------
Magnitude (a.u.)       :      3.47142
Magnitude (Debye)      :      8.82365

Rotational constants in cm-1:     0.000582     0.000204     0.000174
Rotational constants in MHz :    17.442868     6.107737     5.203133

                             ****ORCA TERMINATED NORMALLY****
TOTAL RUN TIME: 0 days 0 hours 19 minutes 53 seconds 16 msec
