                         Program Version 4.2.0 -  RELEASE  -
|  1> # ORCA input file
|  2> # SCF done       -178.447092592084          0.000468826136
|  3> ! CAM-B3LYP def2-SVP def2/J RIJCOSX Grid4 TightSCF
|  4> %maxcore 5000
|  5> %tddft
|  6>     Mode sTDDFT
|  7>     Ethresh 5.0
|  8>     maxcore 5000
|  9> end
| 10>
| 11> %pal
| 12>   nprocs 6
| 13>   end
| 14> * xyz 0 1
| 15>    C       -5.31198         2.01982         5.78498
| 16>    C       -4.64644         0.84292         5.51034
| 17>    C       -3.44552         0.45508         6.12912
| 18>    N       -2.47135         0.07090         6.60454
| 19>    C       -5.03946        -0.11235         4.55651
| 20>    N       -5.26796        -0.94289         3.79439
| 21>    C       -4.81284         3.07005         6.67416
| 22>    C       -5.64238         4.20570         6.52582
| 23>    C       -5.41531         5.38644         7.18553
| 24>    C       -4.33733         5.43615         8.07581
| 25>    C       -3.54629         4.28051         8.26045
| 26>    C       -3.75594         3.09558         7.56083
| 27>    S       -2.30519         4.54372         9.44826
| 28>    C       -2.85154         6.18383         9.66352
| 29>    C       -3.90928         6.52024         8.89016
| 30>   Br       -1.99420         7.29450        10.90620
| 31>    C       -6.75880         3.87228         5.61762
| 32>    O       -7.66377         4.63087         5.31266
| 33>    C       -6.54815         2.47268         5.21909
| 34>    C       -7.46881         1.71846         4.49719
| 35>    C       -8.68137         2.23224         4.07557
| 36>    C       -9.69160         1.55085         3.41227
| 37>    C      -10.91293         2.13780         3.03111
| 38>    C      -11.76263         1.28708         2.38044
| 39>    C      -11.24625        -0.00961         2.21596
| 40>    S       -9.65104        -0.12798         2.92824
| 41>    C      -11.87596        -1.05912         1.55145
| 42>    C      -13.14009        -0.99984         0.93204
| 43>    C      -13.49647        -2.15523         0.29667
| 44>    C      -12.53065        -3.17636         0.38809
| 45>    S      -11.16025        -2.63527         1.33364
| 46>    C      -12.60554        -4.41696        -0.21401
| 47>    C      -11.62756        -5.39998        -0.12616
| 48>    O      -10.52245        -5.23720         0.66253
| 49>    C      -11.52707        -6.63924        -0.76206
| 50>    C      -12.19805        -7.54361        -1.70010
| 51>    O      -13.24236        -7.44256        -2.29143
| 52>    N      -11.32807        -8.62833        -1.78195
| 53>    C      -10.17428        -8.52249        -1.00181
| 54>    O       -9.30596        -9.35412        -0.93614
| 55>    C      -10.32254        -7.22127        -0.34851
| 56>    C       -9.71434        -6.33535         0.54848
| 57>    C       -8.52950        -6.46706         1.26435
| 58>    C       -8.07910        -5.57119         2.21536
| 59>    C       -6.90172        -5.77647         2.91284
| 60>    C       -6.40901        -4.98820         3.94394
| 61>    C       -5.20851        -5.22152         4.63661
| 62>    C       -4.96262        -4.32392         5.64040
| 63>    C       -5.96084        -3.34704         5.77599
| 64>    S       -7.21836        -3.58412         4.59564
| 65>    C       -5.95900        -2.30760         6.70860
| 66>    C       -4.98041        -2.07732         7.68533
| 67>    C       -5.19391        -0.94082         8.42225
| 68>    C       -6.34249        -0.22902         8.05194
| 69>    S       -7.18336        -1.06652         6.76475
| 70>    C       -6.70912         1.01365         8.55601
| 71>    C       -7.75226         1.80329         8.13029
| 72>    C       -7.93920         3.10482         8.58522
| 73>    C       -8.86858         4.04987         8.12266
| 74>    C       -8.72500         5.29325         8.67693
| 75>    C       -7.68126         5.37669         9.61747
| 76>    S       -6.90418         3.81955         9.80002
| 77>    C       -7.23588         6.48318        10.31820
| 78>    C       -7.69893         7.81969        10.20798
| 79>    C       -7.02871         8.70579        10.98326
| 80>    C       -5.98268         8.12635        11.77304
| 81>    S       -5.92868         6.38027        11.47141
| 82>    C       -5.14151         8.74653        12.61376
| 83>    H       -6.05708         6.24043         7.03329
| 84>    H       -3.11377         2.24646         7.72571
| 85>    H       -4.37130         7.49096         8.89276
| 86>    H       -7.25067         0.67818         4.28923
| 87>    H       -8.88310         3.27440         4.28198
| 88>    H      -11.12838         3.17016         3.24162
| 89>    H      -12.73307         1.57167         2.01726
| 90>    H      -13.75287        -0.11755         0.95657
| 91>    H      -14.41728        -2.29934        -0.23953
| 92>    H      -13.46574        -4.64916        -0.82342
| 93>    H      -11.51686        -9.43249        -2.36263
| 94>    H       -7.96188        -7.36293         1.05752
| 95>    H       -8.67470        -4.69417         2.43237
| 96>    H       -6.30316        -6.64005         2.65050
| 97>    H       -4.55677        -6.03745         4.37976
| 98>    H       -4.08885        -4.34605         6.26506
| 99>    H       -4.13540        -2.72554         7.82219
|100>    H       -4.53825        -0.59357         9.20062
|101>    H       -6.05894         1.41240         9.32667
|102>    H       -8.42603         1.43521         7.36780
|103>    H       -9.59756         3.80174         7.37222
|104>    H       -9.33613         6.13947         8.42107
|105>    H       -8.50655         8.07974         9.54701
|106>    H       -7.22926         9.76144        11.02637
|107>    H       -5.20423         9.80942        12.76637
|108>    H       -4.38014         8.21165        13.15078
|109> *
|110>
|111>                          ****END OF INPUT****

CARTESIAN COORDINATES (ANGSTROEM)
---------------------------------
  C     -5.311980    2.019820    5.784980
  C     -4.646440    0.842920    5.510340
  C     -3.445520    0.455080    6.129120
  N     -2.471350    0.070900    6.604540
  C     -5.039460   -0.112350    4.556510
  N     -5.267960   -0.942890    3.794390
  C     -4.812840    3.070050    6.674160
  C     -5.642380    4.205700    6.525820
  C     -5.415310    5.386440    7.185530
  C     -4.337330    5.436150    8.075810
  C     -3.546290    4.280510    8.260450
  C     -3.755940    3.095580    7.560830
  S     -2.305190    4.543720    9.448260
  C     -2.851540    6.183830    9.663520
  C     -3.909280    6.520240    8.890160
  Br    -1.994200    7.294500   10.906200
  C     -6.758800    3.872280    5.617620
  O     -7.663770    4.630870    5.312660
  C     -6.548150    2.472680    5.219090
  C     -7.468810    1.718460    4.497190
  C     -8.681370    2.232240    4.075570
  C     -9.691600    1.550850    3.412270
  C    -10.912930    2.137800    3.031110
  C    -11.762630    1.287080    2.380440
  C    -11.246250   -0.009610    2.215960
  S     -9.651040   -0.127980    2.928240
  C    -11.875960   -1.059120    1.551450
  C    -13.140090   -0.999840    0.932040
  C    -13.496470   -2.155230    0.296670
  C    -12.530650   -3.176360    0.388090
  S    -11.160250   -2.635270    1.333640
  C    -12.605540   -4.416960   -0.214010
  C    -11.627560   -5.399980   -0.126160
  O    -10.522450   -5.237200    0.662530
  C    -11.527070   -6.639240   -0.762060
  C    -12.198050   -7.543610   -1.700100
  O    -13.242360   -7.442560   -2.291430
  N    -11.328070   -8.628330   -1.781950
  C    -10.174280   -8.522490   -1.001810
  O     -9.305960   -9.354120   -0.936140
  C    -10.322540   -7.221270   -0.348510
  C     -9.714340   -6.335350    0.548480
  C     -8.529500   -6.467060    1.264350
  C     -8.079100   -5.571190    2.215360
  C     -6.901720   -5.776470    2.912840
  C     -6.409010   -4.988200    3.943940
  C     -5.208510   -5.221520    4.636610
  C     -4.962620   -4.323920    5.640400
  C     -5.960840   -3.347040    5.775990
  S     -7.218360   -3.584120    4.595640
  C     -5.959000   -2.307600    6.708600
  C     -4.980410   -2.077320    7.685330
  C     -5.193910   -0.940820    8.422250
  C     -6.342490   -0.229020    8.051940
  S     -7.183360   -1.066520    6.764750
  C     -6.709120    1.013650    8.556010
  C     -7.752260    1.803290    8.130290
  C     -7.939200    3.104820    8.585220
  C     -8.868580    4.049870    8.122660
  C     -8.725000    5.293250    8.676930
  C     -7.681260    5.376690    9.617470
  S     -6.904180    3.819550    9.800020
  C     -7.235880    6.483180   10.318200
  C     -7.698930    7.819690   10.207980
  C     -7.028710    8.705790   10.983260
  C     -5.982680    8.126350   11.773040
  S     -5.928680    6.380270   11.471410
  C     -5.141510    8.746530   12.613760
  H     -6.057080    6.240430    7.033290
  H     -3.113770    2.246460    7.725710
  H     -4.371300    7.490960    8.892760
  H     -7.250670    0.678180    4.289230
  H     -8.883100    3.274400    4.281980
  H    -11.128380    3.170160    3.241620
  H    -12.733070    1.571670    2.017260
  H    -13.752870   -0.117550    0.956570
  H    -14.417280   -2.299340   -0.239530
  H    -13.465740   -4.649160   -0.823420
  H    -11.516860   -9.432490   -2.362630
  H     -7.961880   -7.362930    1.057520
  H     -8.674700   -4.694170    2.432370
  H     -6.303160   -6.640050    2.650500
  H     -4.556770   -6.037450    4.379760
  H     -4.088850   -4.346050    6.265060
  H     -4.135400   -2.725540    7.822190
  H     -4.538250   -0.593570    9.200620
  H     -6.058940    1.412400    9.326670
  H     -8.426030    1.435210    7.367800
  H     -9.597560    3.801740    7.372220
  H     -9.336130    6.139470    8.421070
  H     -8.506550    8.079740    9.547010
  H     -7.229260    9.761440   11.026370
  H     -5.204230    9.809420   12.766370
  H     -4.380140    8.211650   13.150780

 Total Charge           Charge          ....    0
 Multiplicity           Mult            ....    1
 Number of Electrons    NEL             ....  544
 Basis Dimension        Dim             .... 1128

ORBITAL ENERGIES
----------------

  NO   OCC          E(Eh)            E(eV)
   0   2.0000    -482.877185    -13139.7562
   1   2.0000     -88.960971     -2420.7511
   2   2.0000     -88.960704     -2420.7438
   3   2.0000     -88.958891     -2420.6945
   4   2.0000     -88.955235     -2420.5950
   5   2.0000     -88.953578     -2420.5499
   6   2.0000     -88.952356     -2420.5167
   7   2.0000     -88.950038     -2420.4536
   8   2.0000     -62.554714     -1702.2003
   9   2.0000     -56.388613     -1534.4122
  10   2.0000     -56.385989     -1534.3408
  11   2.0000     -56.385956     -1534.3399
  12   2.0000     -19.299398      -525.1633
  13   2.0000     -19.209344      -522.7128
  14   2.0000     -19.204933      -522.5928
  15   2.0000     -19.192679      -522.2594
  16   2.0000     -14.447894      -393.1472
  17   2.0000     -14.389131      -391.5482
  18   2.0000     -14.387635      -391.5074
  19   2.0000     -10.397579      -282.9325
  20   2.0000     -10.393333      -282.8170
  21   2.0000     -10.356031      -281.8019
  22   2.0000     -10.353358      -281.7292
  23   2.0000     -10.342312      -281.4286
  24   2.0000     -10.341561      -281.4082
  25   2.0000     -10.326130      -280.9883
  26   2.0000     -10.325014      -280.9579
  27   2.0000     -10.322810      -280.8979
  28   2.0000     -10.318445      -280.7792
  29   2.0000     -10.317688      -280.7586
  30   2.0000     -10.317381      -280.7502
  31   2.0000     -10.316471      -280.7255
  32   2.0000     -10.315604      -280.7019
  33   2.0000     -10.311992      -280.6036
  34   2.0000     -10.311603      -280.5930
  35   2.0000     -10.311043      -280.5777
  36   2.0000     -10.310248      -280.5561
  37   2.0000     -10.308553      -280.5100
  38   2.0000     -10.307987      -280.4946
  39   2.0000     -10.306157      -280.4448
  40   2.0000     -10.303267      -280.3661
  41   2.0000     -10.300395      -280.2880
  42   2.0000     -10.297884      -280.2197
  43   2.0000     -10.296898      -280.1928
  44   2.0000     -10.296010      -280.1687
  45   2.0000     -10.295880      -280.1651
  46   2.0000     -10.294685      -280.1326
  47   2.0000     -10.294261      -280.1211
  48   2.0000     -10.293607      -280.1033
  49   2.0000     -10.292514      -280.0735
  50   2.0000     -10.290761      -280.0258
  51   2.0000     -10.289355      -279.9876
  52   2.0000     -10.287964      -279.9497
  53   2.0000     -10.287381      -279.9339
  54   2.0000     -10.286750      -279.9167
  55   2.0000     -10.286216      -279.9022
  56   2.0000     -10.285578      -279.8848
  57   2.0000     -10.285449      -279.8813
  58   2.0000     -10.284985      -279.8687
  59   2.0000     -10.284984      -279.8686
  60   2.0000     -10.284928      -279.8671
  61   2.0000     -10.284203      -279.8474
  62   2.0000     -10.284027      -279.8426
  63   2.0000     -10.282824      -279.8099
  64   2.0000     -10.281531      -279.7747
  65   2.0000     -10.279147      -279.7098
  66   2.0000     -10.277349      -279.6609
  67   2.0000     -10.274750      -279.5902
  68   2.0000     -10.274027      -279.5705
  69   2.0000     -10.269556      -279.4488
  70   2.0000     -10.262481      -279.2563
  71   2.0000     -10.260490      -279.2021
  72   2.0000      -8.784080      -239.0270
  73   2.0000      -8.056920      -219.2399
  74   2.0000      -8.056064      -219.2167
  75   2.0000      -8.053945      -219.1590
  76   2.0000      -8.050976      -219.0782
  77   2.0000      -8.049206      -219.0300
  78   2.0000      -8.048249      -219.0040
  79   2.0000      -8.045984      -218.9424
  80   2.0000      -6.620123      -180.1427
  81   2.0000      -6.605977      -179.7578
  82   2.0000      -6.605745      -179.7515
  83   2.0000      -6.026598      -163.9921
  84   2.0000      -6.025729      -163.9684
  85   2.0000      -6.023467      -163.9069
  86   2.0000      -6.022366      -163.8769
  87   2.0000      -6.021438      -163.8517
  88   2.0000      -6.020436      -163.8244
  89   2.0000      -6.019485      -163.7985
  90   2.0000      -6.018907      -163.7828
  91   2.0000      -6.018181      -163.7630
  92   2.0000      -6.018032      -163.7590
  93   2.0000      -6.017418      -163.7423
  94   2.0000      -6.016488      -163.7169
  95   2.0000      -6.015475      -163.6894
  96   2.0000      -6.015448      -163.6887
  97   2.0000      -6.014845      -163.6723
  98   2.0000      -6.014083      -163.6515
  99   2.0000      -6.012449      -163.6071
 100   2.0000      -6.011518      -163.5817
 101   2.0000      -6.010325      -163.5492
 102   2.0000      -6.009001      -163.5132
 103   2.0000      -6.007385      -163.4693
 104   2.0000      -2.736069       -74.4522
 105   2.0000      -2.732093       -74.3440
 106   2.0000      -2.731900       -74.3388
 107   2.0000      -2.720657       -74.0328
 108   2.0000      -2.720643       -74.0325
 109   2.0000      -1.215298       -33.0699
 110   2.0000      -1.150619       -31.3099
 111   2.0000      -1.129923       -30.7468
 112   2.0000      -1.105647       -30.0862
 113   2.0000      -1.037745       -28.2385
 114   2.0000      -1.005901       -27.3720
 115   2.0000      -1.003290       -27.3009
 116   2.0000      -1.002008       -27.2660
 117   2.0000      -1.000518       -27.2255
 118   2.0000      -0.989180       -26.9170
 119   2.0000      -0.981568       -26.7098
 120   2.0000      -0.980639       -26.6846
 121   2.0000      -0.976534       -26.5728
 122   2.0000      -0.968783       -26.3619
 123   2.0000      -0.966707       -26.3054
 124   2.0000      -0.926867       -25.2213
 125   2.0000      -0.924421       -25.1548
 126   2.0000      -0.920305       -25.0428
 127   2.0000      -0.913769       -24.8649
 128   2.0000      -0.903598       -24.5882
 129   2.0000      -0.893638       -24.3171
 130   2.0000      -0.888651       -24.1814
 131   2.0000      -0.882954       -24.0264
 132   2.0000      -0.871181       -23.7060
 133   2.0000      -0.866988       -23.5919
 134   2.0000      -0.862588       -23.4722
 135   2.0000      -0.854855       -23.2618
 136   2.0000      -0.852847       -23.2071
 137   2.0000      -0.848897       -23.0997
 138   2.0000      -0.843744       -22.9594
 139   2.0000      -0.834325       -22.7031
 140   2.0000      -0.830532       -22.5999
 141   2.0000      -0.827370       -22.5139
 142   2.0000      -0.824849       -22.4453
 143   2.0000      -0.816869       -22.2281
 144   2.0000      -0.810912       -22.0660
 145   2.0000      -0.801368       -21.8063
 146   2.0000      -0.786932       -21.4135
 147   2.0000      -0.772604       -21.0236
 148   2.0000      -0.764556       -20.8046
 149   2.0000      -0.758128       -20.6297
 150   2.0000      -0.750105       -20.4114
 151   2.0000      -0.738433       -20.0938
 152   2.0000      -0.734104       -19.9760
 153   2.0000      -0.721167       -19.6239
 154   2.0000      -0.708968       -19.2920
 155   2.0000      -0.698259       -19.0006
 156   2.0000      -0.692864       -18.8538
 157   2.0000      -0.689719       -18.7682
 158   2.0000      -0.680226       -18.5099
 159   2.0000      -0.674308       -18.3488
 160   2.0000      -0.668690       -18.1960
 161   2.0000      -0.667205       -18.1556
 162   2.0000      -0.652371       -17.7519
 163   2.0000      -0.647400       -17.6166
 164   2.0000      -0.645206       -17.5570
 165   2.0000      -0.638725       -17.3806
 166   2.0000      -0.636723       -17.3261
 167   2.0000      -0.630676       -17.1616
 168   2.0000      -0.624202       -16.9854
 169   2.0000      -0.623922       -16.9778
 170   2.0000      -0.622415       -16.9368
 171   2.0000      -0.615901       -16.7595
 172   2.0000      -0.612873       -16.6771
 173   2.0000      -0.610259       -16.6060
 174   2.0000      -0.607542       -16.5320
 175   2.0000      -0.603168       -16.4130
 176   2.0000      -0.599609       -16.3162
 177   2.0000      -0.590487       -16.0680
 178   2.0000      -0.584826       -15.9139
 179   2.0000      -0.580926       -15.8078
 180   2.0000      -0.579031       -15.7562
 181   2.0000      -0.577312       -15.7095
 182   2.0000      -0.574251       -15.6262
 183   2.0000      -0.568242       -15.4626
 184   2.0000      -0.560237       -15.2448
 185   2.0000      -0.556931       -15.1549
 186   2.0000      -0.549153       -14.9432
 187   2.0000      -0.541640       -14.7388
 188   2.0000      -0.538063       -14.6414
 189   2.0000      -0.535748       -14.5785
 190   2.0000      -0.533961       -14.5298
 191   2.0000      -0.530193       -14.4273
 192   2.0000      -0.526168       -14.3178
 193   2.0000      -0.524322       -14.2675
 194   2.0000      -0.519785       -14.1441
 195   2.0000      -0.519354       -14.1323
 196   2.0000      -0.512020       -13.9328
 197   2.0000      -0.511728       -13.9248
 198   2.0000      -0.509854       -13.8738
 199   2.0000      -0.507871       -13.8199
 200   2.0000      -0.505934       -13.7672
 201   2.0000      -0.503587       -13.7033
 202   2.0000      -0.503150       -13.6914
 203   2.0000      -0.502519       -13.6742
 204   2.0000      -0.498513       -13.5652
 205   2.0000      -0.498011       -13.5516
 206   2.0000      -0.495752       -13.4901
 207   2.0000      -0.492102       -13.3908
 208   2.0000      -0.491079       -13.3629
 209   2.0000      -0.489624       -13.3234
 210   2.0000      -0.486201       -13.2302
 211   2.0000      -0.480812       -13.0835
 212   2.0000      -0.478488       -13.0203
 213   2.0000      -0.477304       -12.9881
 214   2.0000      -0.475663       -12.9434
 215   2.0000      -0.473787       -12.8924
 216   2.0000      -0.472407       -12.8548
 217   2.0000      -0.471637       -12.8339
 218   2.0000      -0.470388       -12.7999
 219   2.0000      -0.467612       -12.7244
 220   2.0000      -0.464576       -12.6418
 221   2.0000      -0.462816       -12.5939
 222   2.0000      -0.456768       -12.4293
 223   2.0000      -0.453423       -12.3383
 224   2.0000      -0.451242       -12.2789
 225   2.0000      -0.450411       -12.2563
 226   2.0000      -0.443068       -12.0565
 227   2.0000      -0.441140       -12.0040
 228   2.0000      -0.439892       -11.9701
 229   2.0000      -0.438996       -11.9457
 230   2.0000      -0.433134       -11.7862
 231   2.0000      -0.431771       -11.7491
 232   2.0000      -0.430408       -11.7120
 233   2.0000      -0.428169       -11.6511
 234   2.0000      -0.425138       -11.5686
 235   2.0000      -0.424617       -11.5544
 236   2.0000      -0.421939       -11.4815
 237   2.0000      -0.419452       -11.4139
 238   2.0000      -0.415759       -11.3134
 239   2.0000      -0.410708       -11.1759
 240   2.0000      -0.408219       -11.1082
 241   2.0000      -0.406494       -11.0613
 242   2.0000      -0.402459       -10.9515
 243   2.0000      -0.402314       -10.9475
 244   2.0000      -0.400539       -10.8992
 245   2.0000      -0.392420       -10.6783
 246   2.0000      -0.385079       -10.4785
 247   2.0000      -0.381006       -10.3677
 248   2.0000      -0.378864       -10.3094
 249   2.0000      -0.371023       -10.0961
 250   2.0000      -0.367925       -10.0117
 251   2.0000      -0.366213        -9.9652
 252   2.0000      -0.364098        -9.9076
 253   2.0000      -0.356750        -9.7077
 254   2.0000      -0.355011        -9.6603
 255   2.0000      -0.344558        -9.3759
 256   2.0000      -0.342059        -9.3079
 257   2.0000      -0.340860        -9.2753
 258   2.0000      -0.338425        -9.2090
 259   2.0000      -0.331918        -9.0320
 260   2.0000      -0.330536        -8.9944
 261   2.0000      -0.326347        -8.8804
 262   2.0000      -0.324437        -8.8284
 263   2.0000      -0.319230        -8.6867
 264   2.0000      -0.311538        -8.4774
 265   2.0000      -0.298740        -8.1291
 266   2.0000      -0.296963        -8.0808
 267   2.0000      -0.280496        -7.6327
 268   2.0000      -0.271243        -7.3809
 269   2.0000      -0.242522        -6.5994
 270   2.0000      -0.221680        -6.0322
 271   2.0000      -0.189655        -5.1608
 272   0.0000      -0.116120        -3.1598
 273   0.0000      -0.100011        -2.7214
 274   0.0000      -0.059807        -1.6274
 275   0.0000      -0.049006        -1.3335
 276   0.0000      -0.037183        -1.0118

MULLIKEN ATOMIC CHARGES
-----------------------
   0 C :    0.328922
   1 C :   -0.387125
   2 C :   -0.192132
   3 N :    0.125372
   4 C :   -0.214604
   5 N :    0.140084
   6 C :    0.024765
   7 C :    0.012536
   8 C :   -0.085167
   9 C :    0.107947
  10 C :   -0.076286
  11 C :   -0.059815
  12 S :    0.165522
  13 C :   -0.130327
  14 C :    0.060999
  15 Br:    0.002339
  16 C :    0.141899
  17 O :   -0.189507
  18 C :   -0.111871
  19 C :   -0.040779
  20 C :   -0.053973
  21 C :    0.011279
  22 C :    0.011618
  23 C :    0.036712
  24 C :   -0.065440
  25 S :    0.129656
  26 C :   -0.029801
  27 C :    0.009659
  28 C :    0.043312
  29 C :   -0.032273
  30 S :    0.145010
  31 C :   -0.033691
  32 C :    0.092946
  33 O :   -0.249438
  34 C :   -0.018173
  35 C :    0.160496
  36 O :   -0.142791
  37 N :   -0.169244
  38 C :    0.160793
  39 O :   -0.142022
  40 C :   -0.042853
  41 C :    0.141570
  42 C :   -0.085644
  43 C :    0.052459
  44 C :   -0.030023
  45 C :    0.002755
  46 C :    0.021796
  47 C :    0.038518
  48 C :   -0.038564
  49 S :    0.137053
  50 C :   -0.048329
  51 C :    0.027258
  52 C :    0.055042
  53 C :   -0.048681
  54 S :    0.114070
  55 C :    0.012176
  56 C :    0.013887
  57 C :   -0.060710
  58 C :    0.074354
  59 C :    0.023952
  60 C :   -0.046485
  61 S :    0.089216
  62 C :   -0.071363
  63 C :    0.030458
  64 C :    0.055796
  65 C :   -0.077814
  66 S :    0.101451
  67 C :   -0.009874
  68 H :   -0.026663
  69 H :   -0.019753
  70 H :   -0.013337
  71 H :    0.004492
  72 H :    0.011631
  73 H :   -0.008919
  74 H :   -0.013143
  75 H :   -0.011047
  76 H :   -0.003695
  77 H :    0.014305
  78 H :    0.137205
  79 H :    0.006216
  80 H :    0.007921
  81 H :   -0.010304
  82 H :   -0.011495
  83 H :   -0.006723
  84 H :   -0.006128
  85 H :   -0.004935
  86 H :    0.008359
  87 H :   -0.000709
  88 H :   -0.005240
  89 H :   -0.010384
  90 H :   -0.006336
  91 H :   -0.005606
  92 H :    0.026502
  93 H :    0.028907
Sum of atomic charges:   -0.0000000

LOEWDIN ATOMIC CHARGES
----------------------
   0 C :    0.068065
   1 C :   -0.179829
   2 C :   -0.017683
   3 N :   -0.095970
   4 C :   -0.029286
   5 N :   -0.086483
   6 C :   -0.012526
   7 C :   -0.050782
   8 C :    0.013088
   9 C :   -0.044705
  10 C :   -0.147744
  11 C :   -0.025920
  12 S :    0.419597
  13 C :   -0.284607
  14 C :   -0.072396
  15 Br:    0.125642
  16 C :    0.082323
  17 O :   -0.172445
  18 C :   -0.122129
  19 C :    0.031680
  20 C :   -0.089157
  21 C :   -0.114587
  22 C :   -0.055032
  23 C :   -0.016439
  24 C :   -0.200292
  25 S :    0.412749
  26 C :   -0.151352
  27 C :   -0.048764
  28 C :   -0.016481
  29 C :   -0.161931
  30 S :    0.425493
  31 C :   -0.039804
  32 C :    0.040404
  33 O :   -0.016312
  34 C :   -0.067532
  35 C :    0.084767
  36 O :   -0.158767
  37 N :   -0.010575
  38 C :    0.085254
  39 O :   -0.158737
  40 C :   -0.100107
  41 C :    0.081289
  42 C :   -0.071905
  43 C :    0.011324
  44 C :   -0.068784
  45 C :   -0.123687
  46 C :   -0.045862
  47 C :   -0.012022
  48 C :   -0.184310
  49 S :    0.423886
  50 C :   -0.145034
  51 C :   -0.036729
  52 C :   -0.009751
  53 C :   -0.164910
  54 S :    0.426289
  55 C :   -0.021034
  56 C :   -0.067319
  57 C :   -0.127206
  58 C :   -0.027353
  59 C :   -0.019814
  60 C :   -0.183031
  61 S :    0.400721
  62 C :   -0.167653
  63 C :   -0.030405
  64 C :   -0.024717
  65 C :   -0.144755
  66 S :    0.387055
  67 C :   -0.055436
  68 H :    0.033966
  69 H :    0.036049
  70 H :    0.033538
  71 H :    0.025812
  72 H :    0.033874
  73 H :    0.034951
  74 H :    0.032320
  75 H :    0.031824
  76 H :    0.037424
  77 H :    0.053626
  78 H :    0.093586
  79 H :    0.043794
  80 H :    0.027685
  81 H :    0.035084
  82 H :    0.034165
  83 H :    0.035104
  84 H :    0.035769
  85 H :    0.037850
  86 H :    0.030640
  87 H :    0.033226
  88 H :    0.037257
  89 H :    0.033831
  90 H :    0.035072
  91 H :    0.035957
  92 H :    0.031615
  93 H :    0.026450

  Mayer bond orders larger than 0.100000
B(  0-C ,  1-C ) :   1.5311 B(  0-C ,  6-C ) :   0.9720 B(  0-C , 18-C ) :   1.1533
B(  1-C ,  2-C ) :   1.1564 B(  1-C ,  4-C ) :   1.1803 B(  2-C ,  3-N ) :   2.9401
B(  4-C ,  5-N ) :   2.9462 B(  6-C ,  7-C ) :   1.2850 B(  6-C , 11-C ) :   1.4239
B(  7-C ,  8-C ) :   1.4328 B(  7-C , 16-C ) :   0.9352 B(  8-C ,  9-C ) :   1.2220
B(  8-C , 68-H ) :   1.0143 B(  9-C , 10-C ) :   1.3303 B(  9-C , 14-C ) :   1.1666
B( 10-C , 11-C ) :   1.2946 B( 10-C , 12-S ) :   1.0806 B( 11-C , 69-H ) :   0.9843
B( 12-S , 13-C ) :   1.0822 B( 13-C , 14-C ) :   1.6127 B( 13-C , 15-Br) :   1.0094
B( 14-C , 70-H ) :   1.0001 B( 16-C , 17-O ) :   2.1177 B( 16-C , 18-C ) :   0.9959
B( 18-C , 19-C ) :   1.3691 B( 19-C , 20-C ) :   1.3451 B( 19-C , 71-H ) :   0.9600
B( 20-C , 21-C ) :   1.3262 B( 20-C , 72-H ) :   0.9649 B( 21-C , 22-C ) :   1.2464
B( 21-C , 25-S ) :   1.0975 B( 22-C , 23-C ) :   1.4608 B( 22-C , 73-H ) :   1.0027
B( 23-C , 24-C ) :   1.2883 B( 23-C , 74-H ) :   0.9938 B( 24-C , 25-S ) :   1.0548
B( 24-C , 26-C ) :   1.3681 B( 26-C , 27-C ) :   1.2638 B( 26-C , 30-S ) :   1.0883
B( 27-C , 28-C ) :   1.4985 B( 27-C , 75-H ) :   0.9953 B( 28-C , 29-C ) :   1.2148
B( 28-C , 76-H ) :   1.0015 B( 29-C , 30-S ) :   1.0568 B( 29-C , 31-C ) :   1.4184
B( 31-C , 32-C ) :   1.3248 B( 31-C , 77-H ) :   0.9617 B( 32-C , 33-O ) :   1.0956
B( 32-C , 34-C ) :   1.2903 B( 33-O , 41-C ) :   1.1251 B( 34-C , 35-C ) :   0.8769
B( 34-C , 40-C ) :   1.3818 B( 35-C , 36-O ) :   2.2620 B( 35-C , 37-N ) :   1.0899
B( 37-N , 38-C ) :   1.0658 B( 37-N , 78-H ) :   0.9145 B( 38-C , 39-O ) :   2.2638
B( 38-C , 40-C ) :   0.8907 B( 40-C , 41-C ) :   1.2479 B( 41-C , 42-C ) :   1.3256
B( 42-C , 43-C ) :   1.3875 B( 42-C , 79-H ) :   0.9671 B( 43-C , 44-C ) :   1.3209
B( 43-C , 80-H ) :   0.9845 B( 44-C , 45-C ) :   1.3663 B( 44-C , 81-H ) :   0.9834
B( 45-C , 46-C ) :   1.2407 B( 45-C , 49-S ) :   1.0984 B( 46-C , 47-C ) :   1.4707
B( 46-C , 82-H ) :   1.0010 B( 47-C , 48-C ) :   1.2922 B( 47-C , 83-H ) :   0.9932
B( 48-C , 49-S ) :   1.0706 B( 48-C , 50-C ) :   1.3524 B( 50-C , 51-C ) :   1.2827
B( 50-C , 54-S ) :   1.0976 B( 51-C , 52-C ) :   1.4672 B( 51-C , 84-H ) :   0.9960
B( 52-C , 53-C ) :   1.2281 B( 52-C , 85-H ) :   1.0038 B( 53-C , 54-S ) :   1.0438
B( 53-C , 55-C ) :   1.4492 B( 55-C , 56-C ) :   1.2851 B( 55-C , 86-H ) :   0.9671
B( 56-C , 57-C ) :   1.4605 B( 56-C , 87-H ) :   0.9644 B( 57-C , 58-C ) :   1.2007
B( 57-C , 61-S ) :   1.0737 B( 58-C , 59-C ) :   1.5324 B( 58-C , 88-H ) :   0.9975
B( 59-C , 60-C ) :   1.2156 B( 59-C , 89-H ) :   0.9965 B( 60-C , 61-S ) :   1.0492
B( 60-C , 62-C ) :   1.4778 B( 62-C , 63-C ) :   1.1724 B( 62-C , 66-S ) :   1.0759
B( 63-C , 64-C ) :   1.6344 B( 63-C , 90-H ) :   0.9940 B( 64-C , 65-C ) :   1.0857
B( 64-C , 91-H ) :   0.9935 B( 65-C , 66-S ) :   1.0091 B( 65-C , 67-C ) :   1.8518
B( 67-C , 92-H ) :   0.9501 B( 67-C , 93-H ) :   0.9387

-----------------------------------------------------------------------------
         ABSORPTION SPECTRUM VIA TRANSITION ELECTRIC DIPOLE MOMENTS
-----------------------------------------------------------------------------
State   Energy  Wavelength   fosc         T2         TX        TY        TZ
        (cm-1)    (nm)                  (au**2)     (au)      (au)      (au)
-----------------------------------------------------------------------------
   0    2174.3   4599.3   0.025377520   3.84250  -0.26665  -0.55981  -1.85957
   1    6955.4   1437.7   0.186329461   8.81925  -0.12629  -2.55148  -1.51435
   2   11026.5    906.9   2.028520795  60.56414  -1.84713  -6.42788  -3.97927
   3   12196.6    819.9   0.113231081   3.05634   0.80718   1.18920   0.99530
   4   13930.1    717.9   0.004849048   0.11460   0.09247  -0.20007   0.25694
   5   15597.5    641.1   0.329159844   6.94749   2.31825  -1.14783   0.50569
   6   17330.8    577.0   0.294563069   5.59545   1.94080  -0.42144   1.28496
   7   18554.1    539.0   0.333826234   5.92318  -2.00928   0.16226  -1.36369
   8   18951.1    527.7   0.008844545   0.15364   0.06233  -0.21419  -0.32231
   9   19001.5    526.3   0.230901167   4.00050   1.34044   0.91308   1.17047
  10   21319.3    469.1   0.120915574   1.86717   0.25105   0.95817   0.94131
  11   22065.2    453.2   0.044765176   0.66790   0.27073  -0.56727  -0.52230
  12   22589.8    442.7   0.182576428   2.66077   0.98151  -1.30283  -0.00578
  13   23915.3    418.1   0.000862458   0.01187   0.06087   0.09003  -0.00785
  14   24262.5    412.2   0.115754395   1.57065   1.11611  -0.56674  -0.06116
  15   24592.6    406.6   0.115600952   1.54751  -0.98222  -0.11661  -0.75443
  16   24771.6    403.7   0.004505677   0.05988   0.09254  -0.07419  -0.21404
  17   24832.1    402.7   0.094261989   1.24968  -0.36632   0.98962   0.36898
  18   25403.2    393.7   0.078143277   1.01270   0.93839   0.21113   0.29587
  19   25758.2    388.2   0.084555978   1.08070   0.48044   0.83907   0.38189
  20   26518.7    377.1   0.162788877   2.02092  -1.19509  -0.41501  -0.64842
  21   27604.0    362.3   0.091923007   1.09630   0.42290   0.78744   0.54534
  22   28551.9    350.2   0.089167380   1.02813  -0.70323  -0.01136  -0.73039
  23   28839.4    346.7   0.036670462   0.41861   0.50115   0.12401   0.38998
  24   29071.2    344.0   0.039567557   0.44808   0.60372  -0.15673   0.24297
  25   29331.7    340.9   0.007963510   0.08938   0.08064   0.16399   0.23661
  26   29602.5    337.8   0.022587256   0.25120   0.34802   0.10150   0.34608
  27   29790.9    335.7   0.067633403   0.74740  -0.78928   0.13280  -0.32681
  28   29945.4    333.9   0.026730508   0.29387  -0.17440   0.46732   0.21229
  29   30224.7    330.9   0.007135941   0.07773  -0.14585  -0.07077  -0.22682
  30   30463.9    328.3   0.082533949   0.89191   0.54734   0.59313   0.49044
  31   30631.6    326.5   0.095145560   1.02257  -0.03571  -0.81833  -0.59299
  32   30910.6    323.5   0.120365681   1.28195  -0.26921  -0.89283  -0.64212
  33   31036.0    322.2   0.090655299   0.96162  -0.15625  -0.80457  -0.53839
  34   31135.4    321.2   0.038637032   0.40853  -0.01463   0.53814   0.34456
  35   31722.5    315.2   0.085912003   0.89158  -0.67052  -0.21027  -0.63069
  36   31983.9    312.7   0.007425439   0.07643  -0.26930  -0.00596  -0.06222
  37   32004.0    312.5   0.001328033   0.01366   0.09574   0.04673  -0.04806
  38   32031.5    312.2   0.000748102   0.00769   0.05158   0.05670   0.04258
  39   32601.3    306.7   0.072183824   0.72892   0.42775   0.52773   0.51715
  40   32669.0    306.1   0.012279915   0.12375  -0.09773   0.33702   0.02481
  41   33016.2    302.9   0.009585213   0.09558  -0.15887  -0.14879  -0.21954
  42   33487.8    298.6   0.037669176   0.37032   0.11138  -0.54215  -0.25295
  43   33619.9    297.4   0.024855457   0.24339  -0.14813   0.45478   0.12093
  44   33765.3    296.2   0.032937784   0.32114   0.04599  -0.31372  -0.46969
  45   33990.6    294.2   0.013179949   0.12765   0.26838  -0.05620  -0.22905
  46   34506.1    289.8   0.118740174   1.13286  -0.31105  -0.88861  -0.49648
  47   34863.8    286.8   0.009058023   0.08553   0.08684  -0.24629  -0.13165
  48   34995.6    285.7   0.181476879   1.70719   0.43900  -1.14904  -0.44067
  49   35020.4    285.5   0.007983461   0.07505  -0.07070   0.26246   0.03413
  50   35249.6    283.7   0.012111662   0.11312   0.13903  -0.22979  -0.20245
  51   35506.0    281.6   0.044341449   0.41113  -0.21787   0.59694   0.08559
  52   35629.9    280.7   0.029589879   0.27340   0.11649  -0.45036  -0.23877
  53   36034.0    277.5   0.017616562   0.16095  -0.09511   0.37921   0.09000
  54   36100.7    277.0   0.033550976   0.30596   0.51988  -0.08390   0.16925
  55   36528.8    273.8   0.034626186   0.31206  -0.15614  -0.48865  -0.22115
  56   36671.9    272.7   0.018052619   0.16206  -0.04067  -0.33189  -0.22418
  57   36850.8    271.4   0.061828092   0.55235   0.70657  -0.01146   0.23017
  58   37149.9    269.2   0.003531824   0.03130  -0.14597   0.04149   0.09094
  59   37640.3    265.7   0.011222735   0.09816  -0.23675   0.20281  -0.03126
  60   37720.3    265.1   0.001674502   0.01461  -0.03549  -0.02266  -0.11332
  61   37850.7    264.2   0.020203907   0.17573  -0.29184   0.29676  -0.04989
  62   37986.2    263.3   0.004448557   0.03855   0.11757   0.00221   0.15725
  63   38156.3    262.1   0.000195269   0.00168  -0.03853   0.01379  -0.00319
  64   38199.2    261.8   0.000132783   0.00114   0.00996   0.01228  -0.02991
  65   38377.4    260.6   0.014931986   0.12809   0.15112  -0.31681   0.06987
  66   38835.4    257.5   0.064140064   0.54372   0.56918  -0.46360   0.06951
  67   38966.8    256.6   0.009752364   0.08239   0.15418  -0.23349   0.06407
  68   39026.0    256.2   0.026014786   0.21945  -0.28795   0.23674  -0.28371
  69   39116.2    255.6   0.019774978   0.16643  -0.35082   0.01035  -0.20797
  70   39255.2    254.7   0.041427208   0.34743   0.33698  -0.48266  -0.03016
  71   39486.2    253.3   0.011190860   0.09330   0.06276  -0.20249   0.21992
  72   39682.7    252.0   0.017541304   0.14552   0.06249  -0.37394  -0.04224
  73   39932.7    250.4   0.011134338   0.09179   0.12794   0.20346   0.18447

FINAL SINGLE POINT ENERGY     -7857.606594210753

DIPOLE MOMENT
-------------
                                X             Y             Z
Electronic contribution:     63.35163      57.58847      50.07315
Nuclear contribution   :    -65.43872     -55.11623     -48.03218
                        -----------------------------------------
Total Dipole Moment    :     -2.08709       2.47224       2.04097
                        -----------------------------------------
Magnitude (a.u.)       :      3.82537
Magnitude (Debye)      :      9.72333

Rotational constants in cm-1:     0.002234     0.000353     0.000320
Rotational constants in MHz :    66.972106    10.568581     9.603443

                             ****ORCA TERMINATED NORMALLY****
TOTAL RUN TIME: 0 days 0 hours 14 minutes 34 seconds 953 msec
