                         Program Version 4.2.0 -  RELEASE  -
|  1> # ORCA input file
|  2> # SCF done       -151.143744935766          0.000919241914
|  3> ! CAM-B3LYP def2-SVP def2/J RIJCOSX Grid4 TightSCF
|  4> %maxcore 5000
|  5> %tddft
|  6>     Mode sTDDFT
|  7>     Ethresh 5.0
|  8>     maxcore 5000
|  9> end
| 10>
| 11> %pal
| 12>   nprocs 6
| 13>   end
| 14> * xyz 0 1
| 15>    C      -10.80747         3.51847        -4.87614
| 16>    C      -10.64922         2.51543        -5.79205
| 17>    C      -11.46305         2.34240        -6.93259
| 18>    N      -12.08776         2.14736        -7.87527
| 19>    C       -9.65425         1.51659        -5.72367
| 20>    N       -8.87885         0.67068        -5.73070
| 21>    C      -11.82008         4.55952        -4.89870
| 22>    C      -11.63937         5.42301        -3.78436
| 23>    C      -12.45964         6.50044        -3.54273
| 24>    C      -13.50638         6.73831        -4.43851
| 25>    C      -13.67814         5.87340        -5.54969
| 26>    C      -12.85158         4.78636        -5.79524
| 27>    S      -15.03016         6.35424        -6.52678
| 28>    C      -15.34037         7.68914        -5.44253
| 29>    C      -14.47842         7.77387        -4.40255
| 30>   Br      -16.77438         8.83874        -5.79264
| 31>    C      -10.47875         4.97532        -3.00232
| 32>    O       -9.98254         5.50047        -2.03328
| 33>    C       -9.99148         3.73287        -3.68254
| 34>    C       -8.97145         3.01080        -3.19963
| 35>    C       -8.32387         3.37079        -1.92850
| 36>    N       -8.98648         3.11101        -0.81420
| 37>    C       -8.40648         3.51126         0.31925
| 38>    N       -7.20058         4.08491         0.36271
| 39>    C       -6.60319         4.22838        -0.80153
| 40>    N       -7.10347         3.90107        -1.97807
| 41>    C       -9.19982         3.29285         1.51033
| 42>    C       -8.95432         3.69950         2.76260
| 43>    C       -7.75803         4.45685         3.21907
| 44>    C      -10.00956         3.46721         3.82291
| 45>    N      -10.78743         4.67195         3.99603
| 46>    C      -10.59562         5.55904         4.98932
| 47>    C      -11.11358         6.81917         4.99808
| 48>    C      -10.99807         7.69547         6.08771
| 49>    C      -11.51618         8.96594         6.11709
| 50>    C      -11.46952         9.88963         7.18712
| 51>    C      -12.08909        11.07570         6.93061
| 52>    C      -12.65200        11.15805         5.63694
| 53>    S      -12.37825         9.67866         4.75576
| 54>    C      -13.33492        12.22006         5.07014
| 55>    C      -13.66157        13.45979         5.65352
| 56>    C      -14.34647        14.29158         4.81953
| 57>    C      -14.59179        13.75790         3.52711
| 58>    S      -13.92260        12.14710         3.41940
| 59>    C      -15.26423        14.44274         2.54119
| 60>    C      -15.56739        14.07869         1.21784
| 61>    S      -16.48510        15.21562         0.24800
| 62>    C      -16.46908        14.20593        -1.14391
| 63>    C      -15.79388        13.05220        -0.88117
| 64>    C      -15.28625        12.96422         0.43420
| 65>    O      -14.58699        11.86414         0.84479
| 66>    C      -14.36896        10.84967        -0.00608
| 67>    O      -13.76429         9.87212         0.34898
| 68>    C      -14.90398        10.96186        -1.43507
| 69>    O      -14.70817        10.08321        -2.23272
| 70>    O      -15.59872        12.05007        -1.79724
| 71>    H      -12.30587         7.14179        -2.68897
| 72>    H      -13.02232         4.15679        -6.65265
| 73>    H      -14.52156         8.53144        -3.64088
| 74>    H       -8.57565         2.14035        -3.70287
| 75>    H       -5.60969         4.66079        -0.79608
| 76>    H      -10.11562         2.75920         1.29153
| 77>    H       -7.15273         4.76642         2.37422
| 78>    H       -7.15464         3.82426         3.87084
| 79>    H       -8.06594         5.32882         3.79681
| 80>    H       -9.54669         3.21414         4.77934
| 81>    H      -10.68011         2.65498         3.52585
| 82>    H      -11.25144         5.01233         3.16445
| 83>    H      -10.03652         5.19171         5.84041
| 84>    H      -11.65574         7.16999         4.13023
| 85>    H      -10.47478         7.35118         6.97062
| 86>    H      -10.98323         9.64666         8.11583
| 87>    H      -12.15321        11.89005         7.62966
| 88>    H      -13.39097        13.70706         6.66453
| 89>    H      -14.68378        15.27753         5.08643
| 90>    H      -15.62057        15.42611         2.82058
| 91>    H      -16.94080        14.50442        -2.05541
| 92> *
| 93>
| 94>                          ****END OF INPUT****

CARTESIAN COORDINATES (ANGSTROEM)
---------------------------------
  C    -10.807470    3.518470   -4.876140
  C    -10.649220    2.515430   -5.792050
  C    -11.463050    2.342400   -6.932590
  N    -12.087760    2.147360   -7.875270
  C     -9.654250    1.516590   -5.723670
  N     -8.878850    0.670680   -5.730700
  C    -11.820080    4.559520   -4.898700
  C    -11.639370    5.423010   -3.784360
  C    -12.459640    6.500440   -3.542730
  C    -13.506380    6.738310   -4.438510
  C    -13.678140    5.873400   -5.549690
  C    -12.851580    4.786360   -5.795240
  S    -15.030160    6.354240   -6.526780
  C    -15.340370    7.689140   -5.442530
  C    -14.478420    7.773870   -4.402550
  Br   -16.774380    8.838740   -5.792640
  C    -10.478750    4.975320   -3.002320
  O     -9.982540    5.500470   -2.033280
  C     -9.991480    3.732870   -3.682540
  C     -8.971450    3.010800   -3.199630
  C     -8.323870    3.370790   -1.928500
  N     -8.986480    3.111010   -0.814200
  C     -8.406480    3.511260    0.319250
  N     -7.200580    4.084910    0.362710
  C     -6.603190    4.228380   -0.801530
  N     -7.103470    3.901070   -1.978070
  C     -9.199820    3.292850    1.510330
  C     -8.954320    3.699500    2.762600
  C     -7.758030    4.456850    3.219070
  C    -10.009560    3.467210    3.822910
  N    -10.787430    4.671950    3.996030
  C    -10.595620    5.559040    4.989320
  C    -11.113580    6.819170    4.998080
  C    -10.998070    7.695470    6.087710
  C    -11.516180    8.965940    6.117090
  C    -11.469520    9.889630    7.187120
  C    -12.089090   11.075700    6.930610
  C    -12.652000   11.158050    5.636940
  S    -12.378250    9.678660    4.755760
  C    -13.334920   12.220060    5.070140
  C    -13.661570   13.459790    5.653520
  C    -14.346470   14.291580    4.819530
  C    -14.591790   13.757900    3.527110
  S    -13.922600   12.147100    3.419400
  C    -15.264230   14.442740    2.541190
  C    -15.567390   14.078690    1.217840
  S    -16.485100   15.215620    0.248000
  C    -16.469080   14.205930   -1.143910
  C    -15.793880   13.052200   -0.881170
  C    -15.286250   12.964220    0.434200
  O    -14.586990   11.864140    0.844790
  C    -14.368960   10.849670   -0.006080
  O    -13.764290    9.872120    0.348980
  C    -14.903980   10.961860   -1.435070
  O    -14.708170   10.083210   -2.232720
  O    -15.598720   12.050070   -1.797240
  H    -12.305870    7.141790   -2.688970
  H    -13.022320    4.156790   -6.652650
  H    -14.521560    8.531440   -3.640880
  H     -8.575650    2.140350   -3.702870
  H     -5.609690    4.660790   -0.796080
  H    -10.115620    2.759200    1.291530
  H     -7.152730    4.766420    2.374220
  H     -7.154640    3.824260    3.870840
  H     -8.065940    5.328820    3.796810
  H     -9.546690    3.214140    4.779340
  H    -10.680110    2.654980    3.525850
  H    -11.251440    5.012330    3.164450
  H    -10.036520    5.191710    5.840410
  H    -11.655740    7.169990    4.130230
  H    -10.474780    7.351180    6.970620
  H    -10.983230    9.646660    8.115830
  H    -12.153210   11.890050    7.629660
  H    -13.390970   13.707060    6.664530
  H    -14.683780   15.277530    5.086430
  H    -15.620570   15.426110    2.820580
  H    -16.940800   14.504420   -2.055410

 Total Charge           Charge          ....    0
 Multiplicity           Mult            ....    1
 Number of Electrons    NEL             ....  442
 Basis Dimension        Dim             ....  923

ORBITAL ENERGIES
----------------

  NO   OCC          E(Eh)            E(eV)
   0   2.0000    -482.877321    -13139.7599
   1   2.0000     -88.970382     -2421.0072
   2   2.0000     -88.964406     -2420.8446
   3   2.0000     -88.933828     -2420.0125
   4   2.0000     -88.929626     -2419.8981
   5   2.0000     -62.555056     -1702.2096
   6   2.0000     -56.388988     -1534.4224
   7   2.0000     -56.386295     -1534.3491
   8   2.0000     -56.386274     -1534.3485
   9   2.0000     -19.308987      -525.4243
  10   2.0000     -19.304620      -525.3054
  11   2.0000     -19.240207      -523.5526
  12   2.0000     -19.231528      -523.3165
  13   2.0000     -19.221874      -523.0538
  14   2.0000     -14.449911      -393.2021
  15   2.0000     -14.420341      -392.3974
  16   2.0000     -14.419915      -392.3858
  17   2.0000     -14.418433      -392.3455
  18   2.0000     -14.416908      -392.3040
  19   2.0000     -14.416323      -392.2881
  20   2.0000     -10.442311      -284.1497
  21   2.0000     -10.435631      -283.9680
  22   2.0000     -10.371098      -282.2119
  23   2.0000     -10.366142      -282.0771
  24   2.0000     -10.360783      -281.9312
  25   2.0000     -10.355948      -281.7997
  26   2.0000     -10.352985      -281.7191
  27   2.0000     -10.351136      -281.6687
  28   2.0000     -10.349207      -281.6162
  29   2.0000     -10.348117      -281.5866
  30   2.0000     -10.346236      -281.5354
  31   2.0000     -10.328342      -281.0485
  32   2.0000     -10.324267      -280.9376
  33   2.0000     -10.323488      -280.9164
  34   2.0000     -10.322174      -280.8806
  35   2.0000     -10.321873      -280.8724
  36   2.0000     -10.317628      -280.7569
  37   2.0000     -10.316563      -280.7279
  38   2.0000     -10.309825      -280.5446
  39   2.0000     -10.308539      -280.5096
  40   2.0000     -10.305732      -280.4332
  41   2.0000     -10.305083      -280.4156
  42   2.0000     -10.303751      -280.3793
  43   2.0000     -10.303345      -280.3683
  44   2.0000     -10.301173      -280.3092
  45   2.0000     -10.301057      -280.3060
  46   2.0000     -10.298885      -280.2469
  47   2.0000     -10.293456      -280.0992
  48   2.0000     -10.289372      -279.9880
  49   2.0000     -10.286827      -279.9188
  50   2.0000     -10.284664      -279.8599
  51   2.0000     -10.282209      -279.7931
  52   2.0000     -10.280191      -279.7382
  53   2.0000     -10.277247      -279.6581
  54   2.0000     -10.275668      -279.6151
  55   2.0000     -10.273623      -279.5595
  56   2.0000     -10.271536      -279.5027
  57   2.0000     -10.267479      -279.3923
  58   2.0000     -10.262356      -279.2529
  59   2.0000     -10.261511      -279.2299
  60   2.0000      -8.784507      -239.0386
  61   2.0000      -8.066388      -219.4976
  62   2.0000      -8.059846      -219.3196
  63   2.0000      -8.030121      -218.5107
  64   2.0000      -8.025668      -218.3895
  65   2.0000      -6.620791      -180.1609
  66   2.0000      -6.606328      -179.7673
  67   2.0000      -6.605980      -179.7579
  68   2.0000      -6.036047      -164.2492
  69   2.0000      -6.031825      -164.1343
  70   2.0000      -6.029295      -164.0654
  71   2.0000      -6.027616      -164.0198
  72   2.0000      -6.025329      -163.9575
  73   2.0000      -6.021466      -163.8524
  74   2.0000      -5.999786      -163.2625
  75   2.0000      -5.995852      -163.1554
  76   2.0000      -5.995391      -163.1429
  77   2.0000      -5.991240      -163.0299
  78   2.0000      -5.991068      -163.0253
  79   2.0000      -5.986546      -162.9022
  80   2.0000      -2.736665       -74.4684
  81   2.0000      -2.732608       -74.3580
  82   2.0000      -2.732430       -74.3532
  83   2.0000      -2.720893       -74.0393
  84   2.0000      -2.720864       -74.0385
  85   2.0000      -1.251871       -34.0651
  86   2.0000      -1.216878       -33.1129
  87   2.0000      -1.153453       -31.3871
  88   2.0000      -1.138468       -30.9793
  89   2.0000      -1.124275       -30.5931
  90   2.0000      -1.122506       -30.5449
  91   2.0000      -1.051386       -28.6097
  92   2.0000      -1.023988       -27.8641
  93   2.0000      -1.012547       -27.5528
  94   2.0000      -1.001494       -27.2520
  95   2.0000      -0.998268       -27.1643
  96   2.0000      -0.994235       -27.0545
  97   2.0000      -0.993517       -27.0350
  98   2.0000      -0.988895       -26.9092
  99   2.0000      -0.982583       -26.7374
 100   2.0000      -0.960956       -26.1489
 101   2.0000      -0.940482       -25.5918
 102   2.0000      -0.919325       -25.0161
 103   2.0000      -0.909140       -24.7389
 104   2.0000      -0.897634       -24.4259
 105   2.0000      -0.894717       -24.3465
 106   2.0000      -0.883289       -24.0355
 107   2.0000      -0.881162       -23.9776
 108   2.0000      -0.857932       -23.3455
 109   2.0000      -0.855185       -23.2708
 110   2.0000      -0.849558       -23.1176
 111   2.0000      -0.833068       -22.6689
 112   2.0000      -0.826639       -22.4940
 113   2.0000      -0.825463       -22.4620
 114   2.0000      -0.814265       -22.1573
 115   2.0000      -0.809046       -22.0153
 116   2.0000      -0.796001       -21.6603
 117   2.0000      -0.791801       -21.5460
 118   2.0000      -0.788257       -21.4496
 119   2.0000      -0.768471       -20.9111
 120   2.0000      -0.762876       -20.7589
 121   2.0000      -0.752757       -20.4836
 122   2.0000      -0.740310       -20.1449
 123   2.0000      -0.734726       -19.9929
 124   2.0000      -0.716779       -19.5045
 125   2.0000      -0.713151       -19.4058
 126   2.0000      -0.702356       -19.1121
 127   2.0000      -0.696703       -18.9583
 128   2.0000      -0.692402       -18.8412
 129   2.0000      -0.679508       -18.4904
 130   2.0000      -0.672578       -18.3018
 131   2.0000      -0.658926       -17.9303
 132   2.0000      -0.657034       -17.8788
 133   2.0000      -0.649210       -17.6659
 134   2.0000      -0.642334       -17.4788
 135   2.0000      -0.631216       -17.1763
 136   2.0000      -0.623000       -16.9527
 137   2.0000      -0.618717       -16.8361
 138   2.0000      -0.612199       -16.6588
 139   2.0000      -0.610865       -16.6225
 140   2.0000      -0.607304       -16.5256
 141   2.0000      -0.605060       -16.4645
 142   2.0000      -0.598273       -16.2798
 143   2.0000      -0.590913       -16.0796
 144   2.0000      -0.585635       -15.9359
 145   2.0000      -0.583726       -15.8840
 146   2.0000      -0.574816       -15.6415
 147   2.0000      -0.564113       -15.3503
 148   2.0000      -0.557802       -15.1786
 149   2.0000      -0.556331       -15.1385
 150   2.0000      -0.554093       -15.0776
 151   2.0000      -0.550290       -14.9741
 152   2.0000      -0.550008       -14.9665
 153   2.0000      -0.543524       -14.7900
 154   2.0000      -0.541251       -14.7282
 155   2.0000      -0.540931       -14.7195
 156   2.0000      -0.538351       -14.6493
 157   2.0000      -0.532905       -14.5011
 158   2.0000      -0.526994       -14.3402
 159   2.0000      -0.524234       -14.2651
 160   2.0000      -0.520698       -14.1689
 161   2.0000      -0.516981       -14.0678
 162   2.0000      -0.509903       -13.8752
 163   2.0000      -0.508919       -13.8484
 164   2.0000      -0.506472       -13.7818
 165   2.0000      -0.505953       -13.7677
 166   2.0000      -0.504911       -13.7393
 167   2.0000      -0.496889       -13.5210
 168   2.0000      -0.494696       -13.4614
 169   2.0000      -0.488056       -13.2807
 170   2.0000      -0.486979       -13.2514
 171   2.0000      -0.485398       -13.2083
 172   2.0000      -0.476904       -12.9772
 173   2.0000      -0.475034       -12.9263
 174   2.0000      -0.473302       -12.8792
 175   2.0000      -0.470399       -12.8002
 176   2.0000      -0.466373       -12.6907
 177   2.0000      -0.465180       -12.6582
 178   2.0000      -0.461080       -12.5466
 179   2.0000      -0.460218       -12.5232
 180   2.0000      -0.453933       -12.3521
 181   2.0000      -0.453252       -12.3336
 182   2.0000      -0.449912       -12.2427
 183   2.0000      -0.447529       -12.1779
 184   2.0000      -0.446364       -12.1462
 185   2.0000      -0.442472       -12.0403
 186   2.0000      -0.438246       -11.9253
 187   2.0000      -0.437215       -11.8972
 188   2.0000      -0.436297       -11.8722
 189   2.0000      -0.435034       -11.8379
 190   2.0000      -0.431225       -11.7342
 191   2.0000      -0.430916       -11.7258
 192   2.0000      -0.426122       -11.5954
 193   2.0000      -0.423075       -11.5125
 194   2.0000      -0.422225       -11.4893
 195   2.0000      -0.418311       -11.3828
 196   2.0000      -0.416630       -11.3371
 197   2.0000      -0.413404       -11.2493
 198   2.0000      -0.409795       -11.1511
 199   2.0000      -0.400629       -10.9017
 200   2.0000      -0.398677       -10.8486
 201   2.0000      -0.387363       -10.5407
 202   2.0000      -0.385152       -10.4805
 203   2.0000      -0.384683       -10.4678
 204   2.0000      -0.371339       -10.1047
 205   2.0000      -0.366887        -9.9835
 206   2.0000      -0.364914        -9.9298
 207   2.0000      -0.355197        -9.6654
 208   2.0000      -0.343862        -9.3570
 209   2.0000      -0.343373        -9.3436
 210   2.0000      -0.335114        -9.1189
 211   2.0000      -0.330920        -9.0048
 212   2.0000      -0.328841        -8.9482
 213   2.0000      -0.326895        -8.8953
 214   2.0000      -0.313403        -8.5281
 215   2.0000      -0.312557        -8.5051
 216   2.0000      -0.311375        -8.4730
 217   2.0000      -0.305531        -8.3139
 218   2.0000      -0.289357        -7.8738
 219   2.0000      -0.260213        -7.0808
 220   2.0000      -0.195126        -5.3097
 221   0.0000      -0.087934        -2.3928
 222   0.0000      -0.065845        -1.7917
 223   0.0000      -0.055500        -1.5102
 224   0.0000      -0.041515        -1.1297
 225   0.0000      -0.034467        -0.9379

MULLIKEN ATOMIC CHARGES
-----------------------
   0 C :    0.324274
   1 C :   -0.340362
   2 C :   -0.189198
   3 N :    0.160096
   4 C :   -0.191355
   5 N :    0.166595
   6 C :    0.009771
   7 C :   -0.008848
   8 C :   -0.063990
   9 C :    0.109547
  10 C :   -0.087857
  11 C :   -0.021555
  12 S :    0.180098
  13 C :   -0.126809
  14 C :    0.065287
  15 Br:    0.026149
  16 C :    0.154003
  17 O :   -0.138042
  18 C :   -0.057267
  19 C :    0.006007
  20 C :   -0.015762
  21 N :   -0.061709
  22 C :   -0.030061
  23 N :   -0.095736
  24 C :    0.117229
  25 N :   -0.099089
  26 C :    0.039612
  27 C :   -0.177351
  28 C :    0.107176
  29 C :    0.205306
  30 N :   -0.136526
  31 C :    0.057381
  32 C :   -0.032476
  33 C :    0.003640
  34 C :   -0.048387
  35 C :    0.051264
  36 C :    0.003664
  37 C :   -0.036695
  38 S :    0.077530
  39 C :   -0.059905
  40 C :    0.042311
  41 C :    0.009021
  42 C :   -0.007144
  43 S :    0.093041
  44 C :   -0.007486
  45 C :   -0.184197
  46 S :    0.131802
  47 C :   -0.157989
  48 C :    0.194914
  49 C :    0.167306
  50 O :   -0.201777
  51 C :    0.158937
  52 O :   -0.120395
  53 C :    0.159574
  54 O :   -0.117165
  55 O :   -0.182852
  56 H :    0.006140
  57 H :   -0.007174
  58 H :   -0.026090
  59 H :    0.055299
  60 H :    0.019282
  61 H :   -0.018061
  62 H :    0.037364
  63 H :    0.022928
  64 H :    0.021442
  65 H :    0.015304
  66 H :    0.019550
  67 H :    0.129373
  68 H :    0.004372
  69 H :   -0.002037
  70 H :   -0.020578
  71 H :   -0.018343
  72 H :   -0.019512
  73 H :   -0.019243
  74 H :   -0.022414
  75 H :   -0.029183
  76 H :    0.028036
Sum of atomic charges:   -0.0000000

LOEWDIN ATOMIC CHARGES
----------------------
   0 C :    0.074829
   1 C :   -0.127623
   2 C :   -0.017629
   3 N :   -0.044184
   4 C :   -0.018879
   5 N :   -0.042454
   6 C :   -0.024718
   7 C :   -0.055263
   8 C :    0.031288
   9 C :   -0.026851
  10 C :   -0.141994
  11 C :   -0.008675
  12 S :    0.427300
  13 C :   -0.270280
  14 C :   -0.062024
  15 Br:    0.139436
  16 C :    0.089055
  17 O :   -0.129698
  18 C :   -0.057487
  19 C :    0.071642
  20 C :    0.050056
  21 N :   -0.091758
  22 C :    0.064219
  23 N :   -0.094644
  24 C :    0.080549
  25 N :   -0.101838
  26 C :   -0.071118
  27 C :    0.008791
  28 C :   -0.057573
  29 C :    0.051055
  30 N :    0.015032
  31 C :    0.052337
  32 C :   -0.124149
  33 C :   -0.020280
  34 C :   -0.182829
  35 C :   -0.019015
  36 C :   -0.057658
  37 C :   -0.155612
  38 S :    0.374615
  39 C :   -0.212931
  40 C :   -0.021630
  41 C :   -0.058966
  42 C :   -0.127719
  43 S :    0.391918
  44 C :   -0.130051
  45 C :   -0.168305
  46 S :    0.452578
  47 C :   -0.216937
  48 C :   -0.015000
  49 C :   -0.044960
  50 O :   -0.017154
  51 C :    0.051767
  52 O :   -0.102030
  53 C :    0.067793
  54 O :   -0.108899
  55 O :   -0.014677
  56 H :    0.047668
  57 H :    0.040797
  58 H :    0.037310
  59 H :    0.054277
  60 H :    0.023551
  61 H :    0.032280
  62 H :    0.032629
  63 H :    0.039635
  64 H :    0.033884
  65 H :    0.031294
  66 H :    0.028791
  67 H :    0.086098
  68 H :    0.028174
  69 H :    0.022130
  70 H :    0.031123
  71 H :    0.031407
  72 H :    0.028671
  73 H :    0.029659
  74 H :    0.028320
  75 H :    0.029573
  76 H :    0.031959

  Mayer bond orders larger than 0.100000
B(  0-C ,  1-C ) :   1.6671 B(  0-C ,  6-C ) :   1.0307 B(  0-C , 18-C ) :   1.0009
B(  1-C ,  2-C ) :   1.1379 B(  1-C ,  4-C ) :   1.1483 B(  2-C ,  3-N ) :   2.9750
B(  4-C ,  5-N ) :   2.9768 B(  6-C ,  7-C ) :   1.2625 B(  6-C , 11-C ) :   1.3959
B(  7-C ,  8-C ) :   1.4006 B(  7-C , 16-C ) :   0.9546 B(  8-C ,  9-C ) :   1.2609
B(  8-C , 56-H ) :   1.0208 B(  9-C , 10-C ) :   1.2808 B(  9-C , 14-C ) :   1.1676
B( 10-C , 11-C ) :   1.3456 B( 10-C , 12-S ) :   1.0902 B( 11-C , 57-H ) :   0.9806
B( 12-S , 13-C ) :   1.0747 B( 13-C , 14-C ) :   1.6091 B( 13-C , 15-Br) :   1.0240
B( 14-C , 58-H ) :   0.9779 B( 16-C , 17-O ) :   2.2209 B( 16-C , 18-C ) :   0.9110
B( 18-C , 19-C ) :   1.8873 B( 19-C , 20-C ) :   0.9242 B( 19-C , 59-H ) :   0.9277
B( 20-C , 21-N ) :   1.5097 B( 20-C , 25-N ) :   1.5081 B( 21-N , 22-C ) :   1.5044
B( 22-C , 23-N ) :   1.4920 B( 22-C , 26-C ) :   1.0527 B( 23-N , 24-C ) :   1.5118
B( 24-C , 25-N ) :   1.5011 B( 24-C , 60-H ) :   0.9756 B( 26-C , 27-C ) :   1.7537
B( 26-C , 61-H ) :   0.9550 B( 27-C , 28-C ) :   1.0821 B( 27-C , 29-C ) :   1.0275
B( 28-C , 62-H ) :   0.9219 B( 28-C , 63-H ) :   0.9355 B( 28-C , 64-H ) :   0.9392
B( 29-C , 30-N ) :   1.0122 B( 29-C , 65-H ) :   0.9322 B( 29-C , 66-H ) :   0.9400
B( 30-N , 31-C ) :   1.2467 B( 30-N , 67-H ) :   0.9330 B( 31-C , 32-C ) :   1.5661
B( 31-C , 68-H ) :   0.9673 B( 32-C , 33-C ) :   1.1917 B( 32-C , 69-H ) :   0.9640
B( 33-C , 34-C ) :   1.5661 B( 33-C , 70-H ) :   0.9785 B( 34-C , 35-C ) :   1.1575
B( 34-C , 38-S ) :   1.0099 B( 35-C , 36-C ) :   1.5756 B( 35-C , 71-H ) :   0.9972
B( 36-C , 37-C ) :   1.1976 B( 36-C , 72-H ) :   0.9942 B( 37-C , 38-S ) :   1.0743
B( 37-C , 39-C ) :   1.4822 B( 39-C , 40-C ) :   1.2085 B( 39-C , 43-S ) :   1.0117
B( 40-C , 41-C ) :   1.5672 B( 40-C , 73-H ) :   0.9922 B( 41-C , 42-C ) :   1.1565
B( 41-C , 74-H ) :   1.0003 B( 42-C , 43-S ) :   1.0700 B( 42-C , 44-C ) :   1.5713
B( 44-C , 45-C ) :   1.1744 B( 44-C , 75-H ) :   0.9369 B( 45-C , 46-S ) :   1.1501
B( 45-C , 49-C ) :   1.4298 B( 46-S , 47-C ) :   1.1151 B( 47-C , 48-C ) :   1.5602
B( 47-C , 76-H ) :   0.9772 B( 48-C , 49-C ) :   1.2290 B( 48-C , 55-O ) :   1.0218
B( 49-C , 50-O ) :   1.0365 B( 50-O , 51-C ) :   1.0988 B( 51-C , 52-O ) :   2.2224
B( 51-C , 53-C ) :   0.8435 B( 53-C , 54-O ) :   2.1214 B( 53-C , 55-O ) :   1.1310
B( 54-O , 58-H ) :   0.1115

-----------------------------------------------------------------------------
         ABSORPTION SPECTRUM VIA TRANSITION ELECTRIC DIPOLE MOMENTS
-----------------------------------------------------------------------------
State   Energy  Wavelength   fosc         T2         TX        TY        TZ
        (cm-1)    (nm)                  (au**2)     (au)      (au)      (au)
-----------------------------------------------------------------------------
   0   14227.9    702.8   0.562030265  13.00448   1.78100  -2.72019   1.55983
   1   14430.6    693.0   0.226013219   5.15616   1.08243  -1.63102   1.15077
   2   17013.6    587.8   0.338111158   6.54242   1.19562  -2.20531   0.49951
   3   20105.6    497.4   0.006034143   0.09880   0.04706  -0.07961   0.30042
   4   22627.7    441.9   0.091312162   1.32851  -0.03735   0.21818   1.13116
   5   25398.8    393.7   0.036340657   0.47104  -0.08787  -0.03843  -0.67959
   6   26944.3    371.1   0.414118922   5.05980   1.50487  -1.66949  -0.08931
   7   28152.3    355.2   0.007724558   0.09033  -0.07133   0.18513   0.22576
   8   29046.5    344.3   0.823331281   9.33161   0.02861   1.92330   2.37313
   9   29544.1    338.5   0.077148018   0.85966  -0.48715   0.74825   0.24994
  10   29982.3    333.5   0.003705071   0.04068   0.14235  -0.08086   0.11782
  11   30589.9    326.9   0.000335272   0.00361  -0.02262   0.00596  -0.05533
  12   31146.2    321.1   0.080182121   0.84752  -0.09771  -0.40987  -0.81852
  13   32353.4    309.1   0.001130187   0.01150  -0.04510  -0.04162  -0.08794
  14   32763.4    305.2   0.514045988   5.16521   1.38328  -1.78735  -0.23899
  15   32894.2    304.0   0.023885855   0.23905   0.15205  -0.31244  -0.34397
  16   33352.0    299.8   0.000892488   0.00881  -0.04188  -0.06421  -0.05416
  17   33414.8    299.3   0.000147006   0.00145  -0.01133   0.01715  -0.03203
  18   33694.3    296.8   0.087826684   0.85811   0.00340   0.61296   0.69453
  19   33831.0    295.6   0.018247040   0.17756   0.06794  -0.20834  -0.35992
  20   35369.1    282.7   0.104345043   0.97123  -0.04779  -0.48834  -0.85468
  21   35612.1    280.8   0.028570146   0.26411   0.03666   0.34165   0.38215
  22   35999.2    277.8   0.015582712   0.14250  -0.15669  -0.03374   0.34178
  23   36319.3    275.3   0.093158329   0.84442  -0.11627   0.69115   0.59432
  24   36350.4    275.1   0.010439446   0.09455   0.02582  -0.20105  -0.23121
  25   36584.1    273.3   0.002703833   0.02433  -0.06974  -0.13777   0.02205
  26   36761.1    272.0   0.004408101   0.03948  -0.11288   0.16188   0.02298
  27   37272.3    268.3   0.129958859   1.14788  -0.51978   0.91301  -0.21007
  28   37394.6    267.4   0.072642613   0.63953  -0.40225   0.66911  -0.17325
  29   38213.5    261.7   0.027874547   0.24014  -0.19200   0.02443  -0.45020
  30   38608.5    259.0   0.019153947   0.16332   0.02172  -0.25291  -0.31447
  31   38888.7    257.1   0.002509348   0.02124  -0.04422  -0.08583   0.10919
  32   39378.9    253.9   0.000198354   0.00166  -0.02451   0.03074  -0.01061
  33   39661.2    252.1   0.335994685   2.78896  -0.98286  -0.15888  -1.34079
  34   39864.6    250.8   0.138420882   1.14311  -0.66916  -0.00523  -0.83385
  35   40035.8    249.8   0.097683950   0.80325  -0.57544   0.17122  -0.66543
  36   40076.0    249.5   0.231399146   1.90087   0.96305  -0.10171   0.98136
  37   40290.3    248.2   0.050254953   0.41063   0.39984  -0.49325   0.08641

FINAL SINGLE POINT ENERGY     -6404.879766475749

DIPOLE MOMENT
-------------
                                X             Y             Z
Electronic contribution:    -68.79166      21.54436    -104.89168
Nuclear contribution   :     68.56766     -20.29229     108.17047
                        -----------------------------------------
Total Dipole Moment    :     -0.22400       1.25208       3.27879
                        -----------------------------------------
Magnitude (a.u.)       :      3.51687
Magnitude (Debye)      :      8.93916

Rotational constants in cm-1:     0.001126     0.000738     0.000462
Rotational constants in MHz :    33.745566    22.135086    13.856910

                             ****ORCA TERMINATED NORMALLY****
TOTAL RUN TIME: 0 days 0 hours 8 minutes 22 seconds 36 msec
