                         Program Version 4.2.0 -  RELEASE  -
|  1> # ORCA input file
|  2> # SCF done       -168.903801366001          0.004786709555
|  3> ! CAM-B3LYP def2-SVP def2/J RIJCOSX Grid4 TightSCF
|  4> %maxcore 5000
|  5> %tddft
|  6>     Mode sTDDFT
|  7>     Ethresh 5.0
|  8>     maxcore 5000
|  9> end
| 10>
| 11> %pal
| 12>   nprocs 6
| 13>   end
| 14> * xyz 0 1
| 15>    C       -9.39411         1.22304         5.19192
| 16>    C       -9.00536         2.48903         5.53540
| 17>    C       -9.86319         3.43681         6.13497
| 18>    N      -10.51583         4.24721         6.61825
| 19>    C       -7.73006         3.04647         5.29826
| 20>    N       -6.73056         3.57980         5.11706
| 21>    C      -10.73982         0.67380         5.34291
| 22>    C      -10.73974        -0.62151         4.75729
| 23>    C      -11.85548        -1.42230         4.73365
| 24>    C      -13.02508        -0.92068         5.32099
| 25>    C      -13.01604         0.37107         5.89296
| 26>    C      -11.88541         1.18603         5.90934
| 27>    S      -14.56421         0.78631         6.56202
| 28>    C      -15.19579        -0.75930         6.06849
| 29>    C      -14.29438        -1.54929         5.43654
| 30>   Br      -16.98562        -1.18838         6.43224
| 31>    C       -9.40564        -0.87072         4.23609
| 32>    O       -9.16834        -1.98792         3.56489
| 33>    C       -8.57749         0.19987         4.55245
| 34>    C       -7.15474         0.22228         4.51557
| 35>    C       -6.34980        -0.74113         4.00167
| 36>    C       -4.91856        -0.86673         4.22879
| 37>    C       -4.03955        -0.07321         4.93869
| 38>    C       -2.71755        -0.48214         5.04040
| 39>    C       -2.29671        -1.66787         4.45997
| 40>    C       -3.17419        -2.47701         3.75315
| 41>    C       -4.49196        -2.07118         3.62622
| 42>    C       -5.64098        -2.65218         2.94621
| 43>    C       -6.73301        -1.87420         3.18399
| 44>    C       -8.10560        -2.01140         2.61365
| 45>    C       -5.58022        -3.88138         2.09019
| 46>    C       -5.53100        -5.16452         2.93731
| 47>    O       -6.34268        -5.54976         3.71692
| 48>    O       -4.39800        -5.85515         2.64116
| 49>    C       -3.68248        -5.17887         1.69323
| 50>    C       -4.32329        -4.00276         1.29219
| 51>    C       -3.76687        -3.16057         0.34934
| 52>    C       -2.54048        -3.55537        -0.15262
| 53>    C       -1.89051        -4.71869         0.26240
| 54>    C       -2.45328        -5.57007         1.19491
| 55>    C       -0.56846        -4.75995        -0.42781
| 56>    C       -0.66259        -3.52947        -1.34210
| 57>    O        0.15677        -3.16240        -2.13335
| 58>    O       -1.80967        -2.86911        -1.09617
| 59>    C        0.58466        -4.53105         0.50509
| 60>    S        0.39314        -4.58493         2.24560
| 61>    C        2.07187        -4.20871         2.54076
| 62>    C        2.72657        -4.04067         1.34396
| 63>    C        1.87279        -4.20308         0.20571
| 64>    N        2.68101        -3.97728        -0.87696
| 65>    C        3.91880        -3.68691        -0.36848
| 66>    N        3.99733        -3.72693         0.92531
| 67>    N        2.64806        -4.13844         3.78044
| 68>    C        2.06048        -4.17123         4.99898
| 69>    S        0.33868        -4.22632         5.17348
| 70>    C        0.52769        -4.21413         6.90251
| 71>    N       -0.63872        -4.23859         7.65848
| 72>    O       -0.53810        -4.26470         8.87325
| 73>    O       -1.69255        -4.22755         7.03548
| 74>    C        1.83722        -4.17980         7.30268
| 75>    C        2.73923        -4.15317         6.22767
| 76>    C        4.18372        -4.12442         6.34713
| 77>    C        4.86024        -4.20056         7.48854
| 78>    H      -11.83456        -2.40450         4.28922
| 79>    H      -11.92864         2.16504         6.35697
| 80>    H      -14.51443        -2.53446         5.06826
| 81>    H       -6.67887         1.03024         5.05021
| 82>    H       -4.36337         0.84862         5.39784
| 83>    H       -2.01089         0.12612         5.58391
| 84>    H       -1.26722        -1.97442         4.56197
| 85>    H       -2.81626        -3.40418         3.33460
| 86>    H       -8.23319        -2.97152         2.11053
| 87>    H       -8.28163        -1.19875         1.89096
| 88>    H       -6.47143        -3.93174         1.45730
| 89>    H       -4.24414        -2.24820         0.03533
| 90>    H       -1.96512        -6.46914         1.52918
| 91>    H       -0.40794        -5.66531        -1.02410
| 92>    H        2.36743        -3.88610        -1.82981
| 93>    H        4.75250        -3.45814        -1.00315
| 94>    H        3.65399        -4.01610         3.75421
| 95>    H        2.11417        -4.16845         8.34040
| 96>    H        4.73816        -4.03568         5.42071
| 97>    H        4.37637        -4.29731         8.44391
| 98>    H        5.93587        -4.17588         7.49899
| 99> *
|100>
|101>                          ****END OF INPUT****

CARTESIAN COORDINATES (ANGSTROEM)
---------------------------------
  C     -9.394110    1.223040    5.191920
  C     -9.005360    2.489030    5.535400
  C     -9.863190    3.436810    6.134970
  N    -10.515830    4.247210    6.618250
  C     -7.730060    3.046470    5.298260
  N     -6.730560    3.579800    5.117060
  C    -10.739820    0.673800    5.342910
  C    -10.739740   -0.621510    4.757290
  C    -11.855480   -1.422300    4.733650
  C    -13.025080   -0.920680    5.320990
  C    -13.016040    0.371070    5.892960
  C    -11.885410    1.186030    5.909340
  S    -14.564210    0.786310    6.562020
  C    -15.195790   -0.759300    6.068490
  C    -14.294380   -1.549290    5.436540
  Br   -16.985620   -1.188380    6.432240
  C     -9.405640   -0.870720    4.236090
  O     -9.168340   -1.987920    3.564890
  C     -8.577490    0.199870    4.552450
  C     -7.154740    0.222280    4.515570
  C     -6.349800   -0.741130    4.001670
  C     -4.918560   -0.866730    4.228790
  C     -4.039550   -0.073210    4.938690
  C     -2.717550   -0.482140    5.040400
  C     -2.296710   -1.667870    4.459970
  C     -3.174190   -2.477010    3.753150
  C     -4.491960   -2.071180    3.626220
  C     -5.640980   -2.652180    2.946210
  C     -6.733010   -1.874200    3.183990
  C     -8.105600   -2.011400    2.613650
  C     -5.580220   -3.881380    2.090190
  C     -5.531000   -5.164520    2.937310
  O     -6.342680   -5.549760    3.716920
  O     -4.398000   -5.855150    2.641160
  C     -3.682480   -5.178870    1.693230
  C     -4.323290   -4.002760    1.292190
  C     -3.766870   -3.160570    0.349340
  C     -2.540480   -3.555370   -0.152620
  C     -1.890510   -4.718690    0.262400
  C     -2.453280   -5.570070    1.194910
  C     -0.568460   -4.759950   -0.427810
  C     -0.662590   -3.529470   -1.342100
  O      0.156770   -3.162400   -2.133350
  O     -1.809670   -2.869110   -1.096170
  C      0.584660   -4.531050    0.505090
  S      0.393140   -4.584930    2.245600
  C      2.071870   -4.208710    2.540760
  C      2.726570   -4.040670    1.343960
  C      1.872790   -4.203080    0.205710
  N      2.681010   -3.977280   -0.876960
  C      3.918800   -3.686910   -0.368480
  N      3.997330   -3.726930    0.925310
  N      2.648060   -4.138440    3.780440
  C      2.060480   -4.171230    4.998980
  S      0.338680   -4.226320    5.173480
  C      0.527690   -4.214130    6.902510
  N     -0.638720   -4.238590    7.658480
  O     -0.538100   -4.264700    8.873250
  O     -1.692550   -4.227550    7.035480
  C      1.837220   -4.179800    7.302680
  C      2.739230   -4.153170    6.227670
  C      4.183720   -4.124420    6.347130
  C      4.860240   -4.200560    7.488540
  H    -11.834560   -2.404500    4.289220
  H    -11.928640    2.165040    6.356970
  H    -14.514430   -2.534460    5.068260
  H     -6.678870    1.030240    5.050210
  H     -4.363370    0.848620    5.397840
  H     -2.010890    0.126120    5.583910
  H     -1.267220   -1.974420    4.561970
  H     -2.816260   -3.404180    3.334600
  H     -8.233190   -2.971520    2.110530
  H     -8.281630   -1.198750    1.890960
  H     -6.471430   -3.931740    1.457300
  H     -4.244140   -2.248200    0.035330
  H     -1.965120   -6.469140    1.529180
  H     -0.407940   -5.665310   -1.024100
  H      2.367430   -3.886100   -1.829810
  H      4.752500   -3.458140   -1.003150
  H      3.653990   -4.016100    3.754210
  H      2.114170   -4.168450    8.340400
  H      4.738160   -4.035680    5.420710
  H      4.376370   -4.297310    8.443910
  H      5.935870   -4.175880    7.498990

 Total Charge           Charge          ....    0
 Multiplicity           Mult            ....    1
 Number of Electrons    NEL             ....  478
 Basis Dimension        Dim             .... 1017

ORBITAL ENERGIES
----------------

  NO   OCC          E(Eh)            E(eV)
   0   2.0000    -482.884079    -13139.9438
   1   2.0000     -88.979921     -2421.2667
   2   2.0000     -88.978463     -2421.2271
   3   2.0000     -88.975032     -2421.1337
   4   2.0000     -62.561757     -1702.3919
   5   2.0000     -56.395710     -1534.6053
   6   2.0000     -56.392996     -1534.5314
   7   2.0000     -56.392957     -1534.5304
   8   2.0000     -19.299013      -525.1529
   9   2.0000     -19.292669      -524.9802
  10   2.0000     -19.289253      -524.8872
  11   2.0000     -19.232994      -523.3564
  12   2.0000     -19.223334      -523.0935
  13   2.0000     -19.223094      -523.0870
  14   2.0000     -19.219107      -522.9785
  15   2.0000     -14.635282      -398.2463
  16   2.0000     -14.485720      -394.1765
  17   2.0000     -14.469130      -393.7251
  18   2.0000     -14.417859      -392.3299
  19   2.0000     -14.416558      -392.2945
  20   2.0000     -14.403197      -391.9309
  21   2.0000     -10.428371      -283.7704
  22   2.0000     -10.415839      -283.4294
  23   2.0000     -10.378186      -282.4048
  24   2.0000     -10.366435      -282.0850
  25   2.0000     -10.357472      -281.8411
  26   2.0000     -10.356748      -281.8215
  27   2.0000     -10.354834      -281.7694
  28   2.0000     -10.354335      -281.7558
  29   2.0000     -10.353894      -281.7438
  30   2.0000     -10.347564      -281.5715
  31   2.0000     -10.347531      -281.5706
  32   2.0000     -10.341558      -281.4081
  33   2.0000     -10.329362      -281.0762
  34   2.0000     -10.327571      -281.0275
  35   2.0000     -10.321872      -280.8724
  36   2.0000     -10.320112      -280.8245
  37   2.0000     -10.319008      -280.7945
  38   2.0000     -10.319004      -280.7944
  39   2.0000     -10.317162      -280.7443
  40   2.0000     -10.310408      -280.5605
  41   2.0000     -10.310384      -280.5598
  42   2.0000     -10.306981      -280.4672
  43   2.0000     -10.306928      -280.4658
  44   2.0000     -10.306374      -280.4507
  45   2.0000     -10.306150      -280.4446
  46   2.0000     -10.305445      -280.4254
  47   2.0000     -10.305086      -280.4156
  48   2.0000     -10.302182      -280.3366
  49   2.0000     -10.300881      -280.3012
  50   2.0000     -10.300827      -280.2997
  51   2.0000     -10.300024      -280.2779
  52   2.0000     -10.298547      -280.2377
  53   2.0000     -10.295633      -280.1584
  54   2.0000     -10.295575      -280.1568
  55   2.0000     -10.294608      -280.1305
  56   2.0000     -10.289666      -279.9960
  57   2.0000     -10.288737      -279.9708
  58   2.0000     -10.283639      -279.8320
  59   2.0000     -10.278842      -279.7015
  60   2.0000     -10.270194      -279.4662
  61   2.0000     -10.267567      -279.3947
  62   2.0000     -10.264191      -279.3028
  63   2.0000     -10.263886      -279.2945
  64   2.0000     -10.262927      -279.2684
  65   2.0000     -10.258982      -279.1611
  66   2.0000     -10.257353      -279.1168
  67   2.0000      -8.791160      -239.2196
  68   2.0000      -8.074590      -219.7208
  69   2.0000      -8.071921      -219.6481
  70   2.0000      -8.070862      -219.6193
  71   2.0000      -6.627448      -180.3420
  72   2.0000      -6.612873      -179.9454
  73   2.0000      -6.612724      -179.9414
  74   2.0000      -6.044380      -164.4759
  75   2.0000      -6.041725      -164.4037
  76   2.0000      -6.040492      -164.3701
  77   2.0000      -6.039862      -164.3530
  78   2.0000      -6.037323      -164.2839
  79   2.0000      -6.036252      -164.2548
  80   2.0000      -6.035992      -164.2477
  81   2.0000      -6.033581      -164.1821
  82   2.0000      -6.032234      -164.1454
  83   2.0000      -2.743356       -74.6505
  84   2.0000      -2.739222       -74.5380
  85   2.0000      -2.739079       -74.5341
  86   2.0000      -2.727514       -74.2194
  87   2.0000      -2.727510       -74.2193
  88   2.0000      -1.302917       -35.4542
  89   2.0000      -1.235336       -33.6152
  90   2.0000      -1.224897       -33.3311
  91   2.0000      -1.197645       -32.5896
  92   2.0000      -1.142189       -31.0806
  93   2.0000      -1.131027       -30.7768
  94   2.0000      -1.121819       -30.5262
  95   2.0000      -1.120577       -30.4924
  96   2.0000      -1.091522       -29.7018
  97   2.0000      -1.026051       -27.9203
  98   2.0000      -1.013702       -27.5842
  99   2.0000      -1.000982       -27.2381
 100   2.0000      -0.996879       -27.1265
 101   2.0000      -0.995644       -27.0929
 102   2.0000      -0.993287       -27.0287
 103   2.0000      -0.986085       -26.8327
 104   2.0000      -0.974955       -26.5299
 105   2.0000      -0.973390       -26.4873
 106   2.0000      -0.942459       -25.6456
 107   2.0000      -0.934120       -25.4187
 108   2.0000      -0.920870       -25.0581
 109   2.0000      -0.915902       -24.9230
 110   2.0000      -0.908211       -24.7137
 111   2.0000      -0.902552       -24.5597
 112   2.0000      -0.892935       -24.2980
 113   2.0000      -0.885948       -24.1079
 114   2.0000      -0.875967       -23.8363
 115   2.0000      -0.869892       -23.6710
 116   2.0000      -0.861702       -23.4481
 117   2.0000      -0.856002       -23.2930
 118   2.0000      -0.840169       -22.8622
 119   2.0000      -0.830893       -22.6098
 120   2.0000      -0.829375       -22.5684
 121   2.0000      -0.827677       -22.5222
 122   2.0000      -0.824633       -22.4394
 123   2.0000      -0.808502       -22.0005
 124   2.0000      -0.791242       -21.5308
 125   2.0000      -0.790172       -21.5017
 126   2.0000      -0.766533       -20.8584
 127   2.0000      -0.759853       -20.6766
 128   2.0000      -0.754607       -20.5339
 129   2.0000      -0.744391       -20.2559
 130   2.0000      -0.731898       -19.9159
 131   2.0000      -0.720958       -19.6183
 132   2.0000      -0.714964       -19.4552
 133   2.0000      -0.707618       -19.2553
 134   2.0000      -0.702940       -19.1280
 135   2.0000      -0.697655       -18.9842
 136   2.0000      -0.693841       -18.8804
 137   2.0000      -0.693437       -18.8694
 138   2.0000      -0.687046       -18.6955
 139   2.0000      -0.674130       -18.3440
 140   2.0000      -0.666293       -18.1307
 141   2.0000      -0.661419       -17.9981
 142   2.0000      -0.656286       -17.8584
 143   2.0000      -0.652718       -17.7614
 144   2.0000      -0.649751       -17.6806
 145   2.0000      -0.647907       -17.6304
 146   2.0000      -0.636934       -17.3319
 147   2.0000      -0.632307       -17.2059
 148   2.0000      -0.626955       -17.0603
 149   2.0000      -0.617533       -16.8039
 150   2.0000      -0.616561       -16.7775
 151   2.0000      -0.612786       -16.6748
 152   2.0000      -0.611758       -16.6468
 153   2.0000      -0.599801       -16.3214
 154   2.0000      -0.598714       -16.2918
 155   2.0000      -0.593317       -16.1450
 156   2.0000      -0.587630       -15.9902
 157   2.0000      -0.583037       -15.8652
 158   2.0000      -0.581911       -15.8346
 159   2.0000      -0.574326       -15.6282
 160   2.0000      -0.572862       -15.5884
 161   2.0000      -0.562179       -15.2977
 162   2.0000      -0.560295       -15.2464
 163   2.0000      -0.557792       -15.1783
 164   2.0000      -0.555029       -15.1031
 165   2.0000      -0.551698       -15.0125
 166   2.0000      -0.549307       -14.9474
 167   2.0000      -0.548818       -14.9341
 168   2.0000      -0.542312       -14.7571
 169   2.0000      -0.541095       -14.7239
 170   2.0000      -0.539442       -14.6790
 171   2.0000      -0.538690       -14.6585
 172   2.0000      -0.531738       -14.4693
 173   2.0000      -0.531430       -14.4609
 174   2.0000      -0.529476       -14.4078
 175   2.0000      -0.524271       -14.2661
 176   2.0000      -0.522024       -14.2050
 177   2.0000      -0.520443       -14.1620
 178   2.0000      -0.518234       -14.1019
 179   2.0000      -0.515181       -14.0188
 180   2.0000      -0.511607       -13.9215
 181   2.0000      -0.507052       -13.7976
 182   2.0000      -0.506027       -13.7697
 183   2.0000      -0.501307       -13.6413
 184   2.0000      -0.496963       -13.5230
 185   2.0000      -0.491197       -13.3661
 186   2.0000      -0.489963       -13.3326
 187   2.0000      -0.489337       -13.3155
 188   2.0000      -0.484118       -13.1735
 189   2.0000      -0.483674       -13.1614
 190   2.0000      -0.479172       -13.0389
 191   2.0000      -0.476054       -12.9541
 192   2.0000      -0.473559       -12.8862
 193   2.0000      -0.468112       -12.7380
 194   2.0000      -0.467042       -12.7089
 195   2.0000      -0.462874       -12.5954
 196   2.0000      -0.460472       -12.5301
 197   2.0000      -0.453233       -12.3331
 198   2.0000      -0.451783       -12.2936
 199   2.0000      -0.450943       -12.2708
 200   2.0000      -0.448255       -12.1976
 201   2.0000      -0.445348       -12.1185
 202   2.0000      -0.444916       -12.1068
 203   2.0000      -0.439519       -11.9599
 204   2.0000      -0.438569       -11.9341
 205   2.0000      -0.433918       -11.8075
 206   2.0000      -0.427963       -11.6455
 207   2.0000      -0.423826       -11.5329
 208   2.0000      -0.420440       -11.4408
 209   2.0000      -0.419551       -11.4166
 210   2.0000      -0.418848       -11.3974
 211   2.0000      -0.411061       -11.1855
 212   2.0000      -0.408398       -11.1131
 213   2.0000      -0.406572       -11.0634
 214   2.0000      -0.400578       -10.9003
 215   2.0000      -0.398312       -10.8386
 216   2.0000      -0.391547       -10.6545
 217   2.0000      -0.388747       -10.5783
 218   2.0000      -0.388319       -10.5667
 219   2.0000      -0.381561       -10.3828
 220   2.0000      -0.377176       -10.2635
 221   2.0000      -0.373454       -10.1622
 222   2.0000      -0.371517       -10.1095
 223   2.0000      -0.364172        -9.9096
 224   2.0000      -0.363117        -9.8809
 225   2.0000      -0.362275        -9.8580
 226   2.0000      -0.352845        -9.6014
 227   2.0000      -0.352174        -9.5832
 228   2.0000      -0.341980        -9.3058
 229   2.0000      -0.330226        -8.9859
 230   2.0000      -0.328921        -8.9504
 231   2.0000      -0.315025        -8.5723
 232   2.0000      -0.312823        -8.5124
 233   2.0000      -0.305338        -8.3087
 234   2.0000      -0.299066        -8.1380
 235   2.0000      -0.293593        -7.9891
 236   2.0000      -0.282640        -7.6910
 237   2.0000      -0.257256        -7.0003
 238   2.0000      -0.243361        -6.6222
 239   0.0000      -0.089800        -2.4436
 240   0.0000      -0.057576        -1.5667
 241   0.0000      -0.047214        -1.2848
 242   0.0000      -0.015810        -0.4302
 243   0.0000      -0.010211        -0.2778

MULLIKEN ATOMIC CHARGES
-----------------------
   0 C :    0.289887
   1 C :   -0.340475
   2 C :   -0.185117
   3 N :    0.154437
   4 C :   -0.196850
   5 N :    0.171106
   6 C :   -0.002349
   7 C :    0.051514
   8 C :   -0.082020
   9 C :    0.113296
  10 C :   -0.103581
  11 C :   -0.013322
  12 S :    0.189130
  13 C :   -0.124915
  14 C :    0.039155
  15 Br:    0.021009
  16 C :    0.143008
  17 O :   -0.245648
  18 C :   -0.071125
  19 C :   -0.050525
  20 C :    0.091801
  21 C :    0.071857
  22 C :   -0.053129
  23 C :    0.037602
  24 C :    0.046617
  25 C :   -0.036061
  26 C :    0.052567
  27 C :    0.018488
  28 C :   -0.190666
  29 C :    0.333171
  30 C :   -0.005850
  31 C :    0.221351
  32 O :   -0.117782
  33 O :   -0.209521
  34 C :    0.198968
  35 C :   -0.033195
  36 C :   -0.089932
  37 C :    0.218666
  38 C :   -0.088625
  39 C :   -0.094182
  40 C :    0.078344
  41 C :    0.231489
  42 O :   -0.175187
  43 O :   -0.202077
  44 C :   -0.317104
  45 S :    0.089449
  46 C :   -0.214307
  47 C :    0.105453
  48 C :    0.168223
  49 N :   -0.057282
  50 C :    0.129950
  51 N :   -0.115592
  52 N :    0.003517
  53 C :   -0.099830
  54 S :    0.139422
  55 C :   -0.008951
  56 N :    0.281077
  57 O :   -0.260189
  58 O :   -0.272057
  59 C :    0.014376
  60 C :    0.105448
  61 C :   -0.031918
  62 C :   -0.021956
  63 H :   -0.016410
  64 H :   -0.006735
  65 H :   -0.005504
  66 H :   -0.005969
  67 H :   -0.021512
  68 H :   -0.017693
  69 H :   -0.033289
  70 H :   -0.049083
  71 H :    0.012298
  72 H :    0.039440
  73 H :    0.033262
  74 H :   -0.013410
  75 H :   -0.009012
  76 H :    0.057600
  77 H :    0.140745
  78 H :    0.019523
  79 H :    0.151253
  80 H :    0.004595
  81 H :   -0.024014
  82 H :    0.017255
  83 H :    0.027604
Sum of atomic charges:   -0.0000000

LOEWDIN ATOMIC CHARGES
----------------------
   0 C :    0.084242
   1 C :   -0.128048
   2 C :   -0.016447
   3 N :   -0.047417
   4 C :   -0.024503
   5 N :   -0.043657
   6 C :   -0.024114
   7 C :   -0.032954
   8 C :    0.008603
   9 C :   -0.035565
  10 C :   -0.153730
  11 C :   -0.003525
  12 S :    0.437025
  13 C :   -0.274860
  14 C :   -0.069954
  15 Br:    0.134242
  16 C :    0.114242
  17 O :   -0.042350
  18 C :   -0.109967
  19 C :    0.018614
  20 C :   -0.026583
  21 C :   -0.011505
  22 C :   -0.012151
  23 C :   -0.020101
  24 C :   -0.020114
  25 C :   -0.024495
  26 C :   -0.026942
  27 C :   -0.005675
  28 C :   -0.058438
  29 C :    0.102131
  30 C :   -0.044653
  31 C :    0.104817
  32 O :   -0.117600
  33 O :   -0.036384
  34 C :    0.043943
  35 C :   -0.035698
  36 C :   -0.016186
  37 C :    0.050945
  38 C :   -0.050944
  39 C :   -0.034835
  40 C :   -0.050246
  41 C :    0.110828
  42 O :   -0.150701
  43 O :   -0.029289
  44 C :   -0.244093
  45 S :    0.433330
  46 C :   -0.150948
  47 C :   -0.090615
  48 C :   -0.018099
  49 N :    0.050003
  50 C :    0.066721
  51 N :   -0.137686
  52 N :    0.035938
  53 C :   -0.099906
  54 S :    0.458013
  55 C :   -0.220451
  56 N :    0.274427
  57 O :   -0.225735
  58 O :   -0.240287
  59 C :    0.010180
  60 C :   -0.113721
  61 C :   -0.028715
  62 C :   -0.042112
  63 H :    0.038401
  64 H :    0.041463
  65 H :    0.037885
  66 H :    0.041600
  67 H :    0.030239
  68 H :    0.028369
  69 H :    0.012935
  70 H :    0.022949
  71 H :    0.032253
  72 H :    0.032061
  73 H :    0.056146
  74 H :    0.044357
  75 H :    0.041530
  76 H :    0.054828
  77 H :    0.089756
  78 H :    0.022862
  79 H :    0.106102
  80 H :    0.044409
  81 H :    0.024422
  82 H :    0.022701
  83 H :    0.028483

  Mayer bond orders larger than 0.100000
B(  0-C ,  1-C ) :   1.6559 B(  0-C ,  6-C ) :   0.9891 B(  0-C , 18-C ) :   1.0632
B(  1-C ,  2-C ) :   1.1412 B(  1-C ,  4-C ) :   1.1335 B(  2-C ,  3-N ) :   2.9750
B(  4-C ,  5-N ) :   3.0056 B(  6-C ,  7-C ) :   1.2585 B(  6-C , 11-C ) :   1.4590
B(  7-C ,  8-C ) :   1.4222 B(  7-C , 16-C ) :   1.0423 B(  8-C ,  9-C ) :   1.2247
B(  8-C , 63-H ) :   1.0147 B(  9-C , 10-C ) :   1.3353 B(  9-C , 14-C ) :   1.1692
B( 10-C , 11-C ) :   1.2865 B( 10-C , 12-S ) :   1.0874 B( 11-C , 64-H ) :   0.9807
B( 12-S , 13-C ) :   1.0952 B( 13-C , 14-C ) :   1.6114 B( 13-C , 15-Br) :   1.0168
B( 14-C , 65-H ) :   0.9991 B( 16-C , 17-O ) :   1.3362 B( 16-C , 18-C ) :   1.3937
B( 17-O , 29-C ) :   0.9041 B( 18-C , 19-C ) :   1.1047 B( 19-C , 20-C ) :   1.6492
B( 19-C , 66-H ) :   0.9436 B( 20-C , 21-C ) :   1.0143 B( 20-C , 28-C ) :   1.0994
B( 21-C , 22-C ) :   1.3906 B( 21-C , 26-C ) :   1.3316 B( 22-C , 23-C ) :   1.3624
B( 22-C , 67-H ) :   0.9926 B( 23-C , 24-C ) :   1.3908 B( 23-C , 68-H ) :   0.9848
B( 24-C , 25-C ) :   1.3753 B( 24-C , 69-H ) :   0.9764 B( 25-C , 26-C ) :   1.3519
B( 25-C , 70-H ) :   0.9979 B( 26-C , 27-C ) :   1.0526 B( 27-C , 28-C ) :   1.7054
B( 27-C , 30-C ) :   1.0139 B( 28-C , 29-C ) :   1.0444 B( 29-C , 71-H ) :   0.9220
B( 29-C , 72-H ) :   0.9358 B( 30-C , 31-C ) :   0.8993 B( 30-C , 35-C ) :   0.9407
B( 30-C , 73-H ) :   0.8508 B( 31-C , 32-O ) :   2.2988 B( 31-C , 33-O ) :   1.0685
B( 33-O , 34-C ) :   1.0593 B( 34-C , 35-C ) :   1.3689 B( 34-C , 39-C ) :   1.3640
B( 35-C , 36-C ) :   1.3542 B( 36-C , 37-C ) :   1.3638 B( 36-C , 39-C ) :   0.1276
B( 36-C , 74-H ) :   1.0312 B( 37-C , 38-C ) :   1.3827 B( 37-C , 43-O ) :   1.0367
B( 38-C , 39-C ) :   1.3375 B( 38-C , 40-C ) :   0.9508 B( 39-C , 75-H ) :   1.0284
B( 40-C , 41-C ) :   0.9442 B( 40-C , 44-C ) :   1.0139 B( 40-C , 76-H ) :   0.8533
B( 41-C , 42-O ) :   2.1630 B( 41-C , 43-O ) :   1.1226 B( 44-C , 45-S ) :   1.0642
B( 44-C , 46-C ) :   0.1375 B( 44-C , 48-C ) :   1.5120 B( 45-S , 46-C ) :   1.1227
B( 46-C , 47-C ) :   1.4160 B( 46-C , 52-N ) :   1.1537 B( 47-C , 48-C ) :   1.2617
B( 47-C , 51-N ) :   1.2904 B( 48-C , 49-N ) :   1.1875 B( 49-N , 50-C ) :   1.1652
B( 49-N , 77-H ) :   0.9140 B( 50-C , 51-N ) :   1.7280 B( 50-C , 78-H ) :   0.9786
B( 52-N , 53-C ) :   1.2307 B( 52-N , 79-H ) :   0.8956 B( 53-C , 54-S ) :   1.1308
B( 53-C , 60-C ) :   1.3544 B( 54-S , 55-C ) :   1.0639 B( 55-C , 56-N ) :   0.9930
B( 55-C , 59-C ) :   1.4782 B( 56-N , 57-O ) :   1.5204 B( 56-N , 58-O ) :   1.4936
B( 57-O , 58-O ) :   0.2496 B( 59-C , 60-C ) :   1.2558 B( 59-C , 80-H ) :   0.9997
B( 60-C , 61-C ) :   1.0589 B( 61-C , 62-C ) :   1.9725 B( 61-C , 81-H ) :   0.9637
B( 62-C , 82-H ) :   0.9536 B( 62-C , 83-H ) :   0.9476

-----------------------------------------------------------------------------
         ABSORPTION SPECTRUM VIA TRANSITION ELECTRIC DIPOLE MOMENTS
-----------------------------------------------------------------------------
State   Energy  Wavelength   fosc         T2         TX        TY        TZ
        (cm-1)    (nm)                  (au**2)     (au)      (au)      (au)
-----------------------------------------------------------------------------
   0   17724.4    564.2   0.044570105   0.82784  -0.77133  -0.47700  -0.07324
   1   24683.3    405.1   0.017242638   0.22997  -0.41953   0.22386   0.06209
   2   25002.9    400.0   0.075410349   0.99292   0.41599  -0.06774  -0.90293
   3   25246.4    396.1   0.633433985   8.25996  -1.05977   0.08970   2.66998
   4   25726.9    388.7   0.591998827   7.57546   2.30420  -1.44342  -0.42739
   5   26871.9    372.1   0.873023357  10.69553  -3.19386  -0.60925   0.35155
   6   30018.7    333.1   0.004597028   0.05042   0.22180   0.03477  -0.00359
   7   30177.8    331.4   0.006286044   0.06857  -0.21786  -0.08010  -0.12123
   8   30968.0    322.9   0.014326086   0.15230   0.01175  -0.29041  -0.26042
   9   31983.5    312.7   0.136318966   1.40316  -0.98433  -0.07211  -0.65502
  10   32882.1    304.1   0.002703257   0.02706  -0.01871   0.01424  -0.16282
  11   33088.3    302.2   0.193135970   1.92161  -0.83949  -0.03292  -1.10262
  12   33446.3    299.0   0.002440267   0.02402   0.11144  -0.01189   0.10704
  13   34291.5    291.6   0.194926051   1.87137  -0.66440   0.06394  -1.19409
  14   34796.2    287.4   0.036322433   0.34365  -0.08185  -0.56968  -0.11143
  15   35097.2    284.9   0.311001059   2.91719   1.61670  -0.14194  -0.53229
  16   35469.6    281.9   0.287149955   2.66519  -0.50784  -1.49353  -0.42028
  17   35834.7    279.1   0.004005086   0.03679  -0.13726   0.06252  -0.11852
  18   36274.2    275.7   0.023716699   0.21524  -0.42509  -0.02161   0.18460
  19   36448.2    274.4   0.012922438   0.11672  -0.31240  -0.05908   0.12505
  20   37413.5    267.3   0.012944363   0.11390   0.32003   0.08616  -0.06369
  21   37454.3    267.0   0.187563049   1.64862   1.17183   0.48352  -0.20408
  22   38201.5    261.8   0.186004380   1.60295  -0.47022   1.04631   0.53580
  23   38230.4    261.6   0.028368389   0.24429   0.15921  -0.34995  -0.31061
  24   39227.7    254.9   0.023588102   0.19796  -0.00566  -0.43118  -0.10959
  25   39853.7    250.9   0.237965289   1.96571   0.65203   1.21540   0.25175
  26   39997.9    250.0   0.017879057   0.14716  -0.29803  -0.23953  -0.03099
  27   40071.1    249.6   0.002513182   0.02065   0.02652   0.13618  -0.03741

FINAL SINGLE POINT ENERGY     -6385.417539666119

DIPOLE MOMENT
-------------
                                X             Y             Z
Electronic contribution:   -157.88819      16.54220      26.42783
Nuclear contribution   :    158.70461     -18.65352     -29.69134
                        -----------------------------------------
Total Dipole Moment    :      0.81642      -2.11132      -3.26352
                        -----------------------------------------
Magnitude (a.u.)       :      3.97174
Magnitude (Debye)      :     10.09537

Rotational constants in cm-1:     0.002102     0.000378     0.000360
Rotational constants in MHz :    63.024782    11.346620    10.793179

                             ****ORCA TERMINATED NORMALLY****
TOTAL RUN TIME: 0 days 0 hours 7 minutes 49 seconds 560 msec
