                         Program Version 4.2.0 -  RELEASE  -
|  1> # ORCA input file
|  2> # SCF done       -220.519884835958          0.000713390737
|  3> ! CAM-B3LYP def2-SVP def2/J RIJCOSX Grid4 TightSCF
|  4> %maxcore 5000
|  5> %tddft
|  6>     Mode sTDDFT
|  7>     Ethresh 5.0
|  8>     maxcore 5000
|  9> end
| 10>
| 11> %pal
| 12>   nprocs 6
| 13>   end
| 14> * xyz 0 1
| 15>    C      -17.40915         6.59305         5.85414
| 16>    C      -17.33894         5.44133         6.59195
| 17>    C      -18.20175         5.13475         7.66623
| 18>    N      -18.86842         4.82934         8.54915
| 19>    C      -16.42045         4.38986         6.38718
| 20>    N      -15.71942         3.48690         6.27771
| 21>    C      -18.37909         7.66317         6.05013
| 22>    C      -18.16145         8.66443         5.07282
| 23>    C      -18.92828         9.80126         4.98880
| 24>    C      -19.95624         9.96506         5.92194
| 25>    C      -20.16592         8.96157         6.89884
| 26>    C      -19.39509         7.80918         6.97853
| 27>    S      -21.48825         9.36337         7.95240
| 28>    C      -21.73610        10.85276         7.08006
| 29>    C      -20.87525        11.04160         6.05163
| 30>   Br      -23.10811        12.01694         7.60768
| 31>    C      -17.02760         8.27941         4.21048
| 32>    O      -16.63673         8.87859         3.23386
| 33>    C      -16.54119         6.97816         4.74878
| 34>    C      -15.54221         6.23769         4.20609
| 35>    C      -14.62028         6.70666         3.19690
| 36>    C      -14.02314         7.97168         3.33087
| 37>    C      -13.12565         8.46022         2.41086
| 38>    C      -12.79496         7.71513         1.28036
| 39>    C      -13.35546         6.47045         1.13194
| 40>    C      -14.24010         5.94285         2.08765
| 41>    N      -14.67862         4.70124         1.67434
| 42>    C      -15.56603         3.80788         2.36753
| 43>    C      -14.11285         4.33950         0.47426
| 44>    O      -14.35017         3.32035        -0.12316
| 45>    C      -13.16028         5.45214         0.05330
| 46>    C      -11.71696         4.90755         0.02878
| 47>    C      -11.28798         4.58861         1.46287
| 48>    O      -11.83066         3.83579         2.23751
| 49>    N      -10.19039         5.34888         1.74813
| 50>    C       -9.53867         5.34673         3.02887
| 51>    C       -9.84241         6.16478         0.67971
| 52>    C       -8.84211         7.10855         0.61128
| 53>    C       -8.71382         7.86056        -0.56534
| 54>    C       -9.58829         7.61919        -1.63108
| 55>    C      -10.58026         6.65444        -1.55739
| 56>    C      -10.71252         5.93016        -0.39264
| 57>    C       -7.73228         8.91399        -0.69562
| 58>    C       -6.63975         9.08828         0.07171
| 59>    C       -5.73537        10.18080        -0.05204
| 60>    S       -6.07378        11.52695        -1.12639
| 61>    C       -4.63359        12.30605        -0.61620
| 62>    C       -3.92245        11.56142         0.32044
| 63>    C       -4.55136        10.36276         0.64039
| 64>    C       -2.66614        12.28981         0.73971
| 65>    C       -2.66883        12.59211         2.24042
| 66>    C       -1.41102        11.50498         0.34793
| 67>    C       -2.79645        13.55627        -0.07513
| 68>    C       -3.95179        13.52260        -0.85395
| 69>    S       -4.16055        14.94945        -1.77924
| 70>    C       -2.68134        15.61406        -1.10659
| 71>    C       -2.07901        14.73708        -0.22108
| 72>    C       -2.32123        16.94253        -1.46421
| 73>    C       -1.29146        17.63511        -0.94050
| 74>    C       -0.97294        19.00416        -1.28279
| 75>    C        0.37087        19.37514        -1.40079
| 76>    C        1.59409        18.59446        -1.12840
| 77>    O        1.71031        17.47145        -0.71853
| 78>    O        2.66301        19.38163        -1.40466
| 79>    C        2.26125        20.66189        -1.86322
| 80>    C        0.76696        20.63244        -1.84413
| 81>    C       -0.16776        21.58552        -2.19484
| 82>    C       -1.50393        21.25700        -2.03566
| 83>    C       -1.92628        20.01364        -1.55449
| 84>    C       -3.35142        19.85262        -1.30415
| 85>    C       -3.87705        19.18355        -0.26451
| 86>    C       -5.28098        19.03133        -0.05507
| 87>    S       -5.90102        17.99075         1.20469
| 88>    C       -7.54523        18.26972         0.80752
| 89>    C       -7.64016        19.13124        -0.25731
| 90>    C       -6.35658        19.54961        -0.73690
| 91>    O       -6.49035        20.39961        -1.78082
| 92>    C       -7.83311        20.52602        -1.96731
| 93>    N       -8.26755        21.38119        -3.00935
| 94>    O       -9.46983        21.47882        -3.16484
| 95>    O       -7.42126        21.94796        -3.66619
| 96>    C       -8.58410        19.79270        -1.09140
| 97>    H      -18.73680        10.54131         4.22765
| 98>    H      -19.59877         7.07436         7.73903
| 99>    H      -20.88679        11.90328         5.40948
|100>    H      -15.38739         5.23049         4.56379
|101>    H      -14.25954         8.55703         4.20567
|102>    H      -12.68075         9.43154         2.55978
|103>    H      -12.11464         8.10836         0.54075
|104>    H      -16.47335         4.33281         2.67311
|105>    H      -15.07859         3.36553         3.23826
|106>    H      -15.82083         3.00986         1.66938
|107>    H      -13.41925         5.82162        -0.94213
|108>    H      -11.70126         4.00141        -0.58453
|109>    H      -10.04693         4.61208         3.65221
|110>    H       -9.60974         6.33114         3.49688
|111>    H       -8.48789         5.07028         2.92365
|112>    H       -8.19559         7.29247         1.45363
|113>    H       -9.48209         8.20297        -2.53313
|114>    H      -11.24363         6.48631        -2.39236
|115>    H       -7.90944         9.61930        -1.49848
|116>    H       -6.38683         8.37366         0.84354
|117>    H       -4.17952         9.64040         1.34511
|118>    H       -2.65138        11.66521         2.80853
|119>    H       -3.56158        13.15153         2.51164
|120>    H       -1.79418        13.18155         2.50352
|121>    H       -1.37245        10.56455         0.89236
|122>    H       -0.52122        12.08412         0.58144
|123>    H       -1.41720        11.29096        -0.71844
|124>    H       -1.15699        14.96310         0.28179
|125>    H       -2.96722        17.41765        -2.19131
|126>    H       -0.58240        17.14401        -0.29034
|127>    H        2.66744        20.82106        -2.86852
|128>    H        2.67925        21.42272        -1.19446
|129>    H        0.12640        22.55400        -2.56719
|130>    H       -2.25693        21.99620        -2.26707
|131>    H       -4.01451        20.37914        -1.97817
|132>    H       -3.23967        18.69022         0.45482
|133>    H       -8.32387        17.79451         1.36695
|134>    H       -9.65295        19.74752        -1.06219
|135> *
|136>
|137>                          ****END OF INPUT****

CARTESIAN COORDINATES (ANGSTROEM)
---------------------------------
  C    -17.409150    6.593050    5.854140
  C    -17.338940    5.441330    6.591950
  C    -18.201750    5.134750    7.666230
  N    -18.868420    4.829340    8.549150
  C    -16.420450    4.389860    6.387180
  N    -15.719420    3.486900    6.277710
  C    -18.379090    7.663170    6.050130
  C    -18.161450    8.664430    5.072820
  C    -18.928280    9.801260    4.988800
  C    -19.956240    9.965060    5.921940
  C    -20.165920    8.961570    6.898840
  C    -19.395090    7.809180    6.978530
  S    -21.488250    9.363370    7.952400
  C    -21.736100   10.852760    7.080060
  C    -20.875250   11.041600    6.051630
  Br   -23.108110   12.016940    7.607680
  C    -17.027600    8.279410    4.210480
  O    -16.636730    8.878590    3.233860
  C    -16.541190    6.978160    4.748780
  C    -15.542210    6.237690    4.206090
  C    -14.620280    6.706660    3.196900
  C    -14.023140    7.971680    3.330870
  C    -13.125650    8.460220    2.410860
  C    -12.794960    7.715130    1.280360
  C    -13.355460    6.470450    1.131940
  C    -14.240100    5.942850    2.087650
  N    -14.678620    4.701240    1.674340
  C    -15.566030    3.807880    2.367530
  C    -14.112850    4.339500    0.474260
  O    -14.350170    3.320350   -0.123160
  C    -13.160280    5.452140    0.053300
  C    -11.716960    4.907550    0.028780
  C    -11.287980    4.588610    1.462870
  O    -11.830660    3.835790    2.237510
  N    -10.190390    5.348880    1.748130
  C     -9.538670    5.346730    3.028870
  C     -9.842410    6.164780    0.679710
  C     -8.842110    7.108550    0.611280
  C     -8.713820    7.860560   -0.565340
  C     -9.588290    7.619190   -1.631080
  C    -10.580260    6.654440   -1.557390
  C    -10.712520    5.930160   -0.392640
  C     -7.732280    8.913990   -0.695620
  C     -6.639750    9.088280    0.071710
  C     -5.735370   10.180800   -0.052040
  S     -6.073780   11.526950   -1.126390
  C     -4.633590   12.306050   -0.616200
  C     -3.922450   11.561420    0.320440
  C     -4.551360   10.362760    0.640390
  C     -2.666140   12.289810    0.739710
  C     -2.668830   12.592110    2.240420
  C     -1.411020   11.504980    0.347930
  C     -2.796450   13.556270   -0.075130
  C     -3.951790   13.522600   -0.853950
  S     -4.160550   14.949450   -1.779240
  C     -2.681340   15.614060   -1.106590
  C     -2.079010   14.737080   -0.221080
  C     -2.321230   16.942530   -1.464210
  C     -1.291460   17.635110   -0.940500
  C     -0.972940   19.004160   -1.282790
  C      0.370870   19.375140   -1.400790
  C      1.594090   18.594460   -1.128400
  O      1.710310   17.471450   -0.718530
  O      2.663010   19.381630   -1.404660
  C      2.261250   20.661890   -1.863220
  C      0.766960   20.632440   -1.844130
  C     -0.167760   21.585520   -2.194840
  C     -1.503930   21.257000   -2.035660
  C     -1.926280   20.013640   -1.554490
  C     -3.351420   19.852620   -1.304150
  C     -3.877050   19.183550   -0.264510
  C     -5.280980   19.031330   -0.055070
  S     -5.901020   17.990750    1.204690
  C     -7.545230   18.269720    0.807520
  C     -7.640160   19.131240   -0.257310
  C     -6.356580   19.549610   -0.736900
  O     -6.490350   20.399610   -1.780820
  C     -7.833110   20.526020   -1.967310
  N     -8.267550   21.381190   -3.009350
  O     -9.469830   21.478820   -3.164840
  O     -7.421260   21.947960   -3.666190
  C     -8.584100   19.792700   -1.091400
  H    -18.736800   10.541310    4.227650
  H    -19.598770    7.074360    7.739030
  H    -20.886790   11.903280    5.409480
  H    -15.387390    5.230490    4.563790
  H    -14.259540    8.557030    4.205670
  H    -12.680750    9.431540    2.559780
  H    -12.114640    8.108360    0.540750
  H    -16.473350    4.332810    2.673110
  H    -15.078590    3.365530    3.238260
  H    -15.820830    3.009860    1.669380
  H    -13.419250    5.821620   -0.942130
  H    -11.701260    4.001410   -0.584530
  H    -10.046930    4.612080    3.652210
  H     -9.609740    6.331140    3.496880
  H     -8.487890    5.070280    2.923650
  H     -8.195590    7.292470    1.453630
  H     -9.482090    8.202970   -2.533130
  H    -11.243630    6.486310   -2.392360
  H     -7.909440    9.619300   -1.498480
  H     -6.386830    8.373660    0.843540
  H     -4.179520    9.640400    1.345110
  H     -2.651380   11.665210    2.808530
  H     -3.561580   13.151530    2.511640
  H     -1.794180   13.181550    2.503520
  H     -1.372450   10.564550    0.892360
  H     -0.521220   12.084120    0.581440
  H     -1.417200   11.290960   -0.718440
  H     -1.156990   14.963100    0.281790
  H     -2.967220   17.417650   -2.191310
  H     -0.582400   17.144010   -0.290340
  H      2.667440   20.821060   -2.868520
  H      2.679250   21.422720   -1.194460
  H      0.126400   22.554000   -2.567190
  H     -2.256930   21.996200   -2.267070
  H     -4.014510   20.379140   -1.978170
  H     -3.239670   18.690220    0.454820
  H     -8.323870   17.794510    1.366950
  H     -9.652950   19.747520   -1.062190

 Total Charge           Charge          ....    0
 Multiplicity           Mult            ....    1
 Number of Electrons    NEL             ....  620
 Basis Dimension        Dim             .... 1372

ORBITAL ENERGIES
----------------

  NO   OCC          E(Eh)            E(eV)
   0   2.0000    -482.888306    -13140.0588
   1   2.0000     -88.980094     -2421.2714
   2   2.0000     -88.978494     -2421.2279
   3   2.0000     -88.959469     -2420.7102
   4   2.0000     -88.958739     -2420.6904
   5   2.0000     -62.566032     -1702.5083
   6   2.0000     -56.399989     -1534.7217
   7   2.0000     -56.397261     -1534.6475
   8   2.0000     -56.397232     -1534.6467
   9   2.0000     -19.313641      -525.5509
  10   2.0000     -19.254727      -523.9478
  11   2.0000     -19.248407      -523.7758
  12   2.0000     -19.246232      -523.7166
  13   2.0000     -19.216729      -522.9138
  14   2.0000     -19.194956      -522.3213
  15   2.0000     -19.191296      -522.2217
  16   2.0000     -19.188581      -522.1478
  17   2.0000     -14.659844      -398.9146
  18   2.0000     -14.453396      -393.2969
  19   2.0000     -14.451797      -393.2534
  20   2.0000     -14.420105      -392.3910
  21   2.0000     -14.417930      -392.3318
  22   2.0000     -10.394638      -282.8525
  23   2.0000     -10.391556      -282.7686
  24   2.0000     -10.374062      -282.2926
  25   2.0000     -10.370675      -282.2004
  26   2.0000     -10.368843      -282.1506
  27   2.0000     -10.362169      -281.9690
  28   2.0000     -10.348971      -281.6098
  29   2.0000     -10.345737      -281.5218
  30   2.0000     -10.344892      -281.4988
  31   2.0000     -10.340471      -281.3785
  32   2.0000     -10.328871      -281.0629
  33   2.0000     -10.324765      -280.9511
  34   2.0000     -10.322669      -280.8941
  35   2.0000     -10.320776      -280.8426
  36   2.0000     -10.318546      -280.7819
  37   2.0000     -10.318166      -280.7716
  38   2.0000     -10.317249      -280.7466
  39   2.0000     -10.317084      -280.7421
  40   2.0000     -10.316897      -280.7370
  41   2.0000     -10.311430      -280.5883
  42   2.0000     -10.311080      -280.5788
  43   2.0000     -10.308793      -280.5165
  44   2.0000     -10.306911      -280.4653
  45   2.0000     -10.303719      -280.3784
  46   2.0000     -10.302681      -280.3502
  47   2.0000     -10.300330      -280.2862
  48   2.0000     -10.300218      -280.2832
  49   2.0000     -10.300124      -280.2806
  50   2.0000     -10.299615      -280.2668
  51   2.0000     -10.299440      -280.2620
  52   2.0000     -10.299247      -280.2568
  53   2.0000     -10.298769      -280.2437
  54   2.0000     -10.297510      -280.2095
  55   2.0000     -10.295384      -280.1516
  56   2.0000     -10.295239      -280.1477
  57   2.0000     -10.294753      -280.1345
  58   2.0000     -10.294175      -280.1188
  59   2.0000     -10.292481      -280.0726
  60   2.0000     -10.291514      -280.0463
  61   2.0000     -10.288559      -279.9659
  62   2.0000     -10.288548      -279.9656
  63   2.0000     -10.287697      -279.9425
  64   2.0000     -10.286364      -279.9062
  65   2.0000     -10.286036      -279.8973
  66   2.0000     -10.283679      -279.8331
  67   2.0000     -10.283644      -279.8322
  68   2.0000     -10.281250      -279.7670
  69   2.0000     -10.281097      -279.7629
  70   2.0000     -10.280775      -279.7541
  71   2.0000     -10.279932      -279.7312
  72   2.0000     -10.279072      -279.7078
  73   2.0000     -10.278343      -279.6879
  74   2.0000     -10.277508      -279.6652
  75   2.0000     -10.277304      -279.6597
  76   2.0000     -10.276495      -279.6376
  77   2.0000     -10.275224      -279.6031
  78   2.0000     -10.274038      -279.5708
  79   2.0000     -10.271238      -279.4946
  80   2.0000     -10.270857      -279.4842
  81   2.0000     -10.270505      -279.4747
  82   2.0000     -10.268628      -279.4236
  83   2.0000     -10.266767      -279.3729
  84   2.0000     -10.264927      -279.3229
  85   2.0000     -10.262827      -279.2657
  86   2.0000      -8.795470      -239.3369
  87   2.0000      -8.075090      -219.7344
  88   2.0000      -8.074473      -219.7176
  89   2.0000      -8.054639      -219.1779
  90   2.0000      -8.053780      -219.1545
  91   2.0000      -6.631808      -180.4607
  92   2.0000      -6.617201      -180.0632
  93   2.0000      -6.616970      -180.0569
  94   2.0000      -6.044307      -164.4739
  95   2.0000      -6.044154      -164.4698
  96   2.0000      -6.039994      -164.3566
  97   2.0000      -6.039892      -164.3538
  98   2.0000      -6.037642      -164.2926
  99   2.0000      -6.035690      -164.2395
 100   2.0000      -6.023883      -163.9182
 101   2.0000      -6.023069      -163.8960
 102   2.0000      -6.019894      -163.8096
 103   2.0000      -6.019125      -163.7887
 104   2.0000      -6.016792      -163.7252
 105   2.0000      -6.015817      -163.6987
 106   2.0000      -2.747624       -74.7667
 107   2.0000      -2.743588       -74.6568
 108   2.0000      -2.743440       -74.6528
 109   2.0000      -2.731812       -74.3364
 110   2.0000      -2.731792       -74.3358
 111   2.0000      -1.331464       -36.2310
 112   2.0000      -1.232459       -33.5369
 113   2.0000      -1.189103       -32.3571
 114   2.0000      -1.147975       -31.2380
 115   2.0000      -1.137869       -30.9630
 116   2.0000      -1.132697       -30.8222
 117   2.0000      -1.129947       -30.7474
 118   2.0000      -1.100491       -29.9459
 119   2.0000      -1.059404       -28.8278
 120   2.0000      -1.057877       -28.7863
 121   2.0000      -1.025917       -27.9166
 122   2.0000      -1.016815       -27.6689
 123   2.0000      -1.009290       -27.4642
 124   2.0000      -1.001346       -27.2480
 125   2.0000      -0.997734       -27.1497
 126   2.0000      -0.992231       -27.0000
 127   2.0000      -0.977008       -26.5857
 128   2.0000      -0.971929       -26.4475
 129   2.0000      -0.959426       -26.1073
 130   2.0000      -0.954720       -25.9792
 131   2.0000      -0.944873       -25.7113
 132   2.0000      -0.940364       -25.5886
 133   2.0000      -0.931438       -25.3457
 134   2.0000      -0.925906       -25.1952
 135   2.0000      -0.912669       -24.8350
 136   2.0000      -0.911414       -24.8008
 137   2.0000      -0.904025       -24.5998
 138   2.0000      -0.896010       -24.3817
 139   2.0000      -0.889599       -24.2072
 140   2.0000      -0.888935       -24.1892
 141   2.0000      -0.888432       -24.1755
 142   2.0000      -0.875068       -23.8118
 143   2.0000      -0.866187       -23.5701
 144   2.0000      -0.865043       -23.5390
 145   2.0000      -0.859189       -23.3797
 146   2.0000      -0.844109       -22.9694
 147   2.0000      -0.838114       -22.8062
 148   2.0000      -0.833241       -22.6736
 149   2.0000      -0.829278       -22.5658
 150   2.0000      -0.826075       -22.4786
 151   2.0000      -0.821933       -22.3659
 152   2.0000      -0.820192       -22.3186
 153   2.0000      -0.813306       -22.1312
 154   2.0000      -0.807582       -21.9754
 155   2.0000      -0.799749       -21.7623
 156   2.0000      -0.799103       -21.7447
 157   2.0000      -0.789412       -21.4810
 158   2.0000      -0.775405       -21.0999
 159   2.0000      -0.772640       -21.0246
 160   2.0000      -0.767106       -20.8740
 161   2.0000      -0.760720       -20.7003
 162   2.0000      -0.753935       -20.5156
 163   2.0000      -0.740060       -20.1381
 164   2.0000      -0.718748       -19.5581
 165   2.0000      -0.714572       -19.4445
 166   2.0000      -0.713970       -19.4281
 167   2.0000      -0.710530       -19.3345
 168   2.0000      -0.709530       -19.3073
 169   2.0000      -0.704319       -19.1655
 170   2.0000      -0.698167       -18.9981
 171   2.0000      -0.693898       -18.8819
 172   2.0000      -0.689511       -18.7626
 173   2.0000      -0.686826       -18.6895
 174   2.0000      -0.677438       -18.4340
 175   2.0000      -0.670604       -18.2481
 176   2.0000      -0.665343       -18.1049
 177   2.0000      -0.662564       -18.0293
 178   2.0000      -0.656290       -17.8586
 179   2.0000      -0.651072       -17.7166
 180   2.0000      -0.645012       -17.5517
 181   2.0000      -0.643476       -17.5099
 182   2.0000      -0.640121       -17.4186
 183   2.0000      -0.635786       -17.3006
 184   2.0000      -0.632183       -17.2026
 185   2.0000      -0.627992       -17.0885
 186   2.0000      -0.626369       -17.0444
 187   2.0000      -0.624824       -17.0023
 188   2.0000      -0.613979       -16.7072
 189   2.0000      -0.613299       -16.6887
 190   2.0000      -0.606607       -16.5066
 191   2.0000      -0.605703       -16.4820
 192   2.0000      -0.601240       -16.3606
 193   2.0000      -0.596832       -16.2406
 194   2.0000      -0.593004       -16.1365
 195   2.0000      -0.590519       -16.0688
 196   2.0000      -0.590079       -16.0569
 197   2.0000      -0.588117       -16.0035
 198   2.0000      -0.585576       -15.9343
 199   2.0000      -0.584864       -15.9150
 200   2.0000      -0.578947       -15.7539
 201   2.0000      -0.573353       -15.6017
 202   2.0000      -0.569976       -15.5098
 203   2.0000      -0.566502       -15.4153
 204   2.0000      -0.562976       -15.3194
 205   2.0000      -0.559007       -15.2114
 206   2.0000      -0.555368       -15.1123
 207   2.0000      -0.553653       -15.0657
 208   2.0000      -0.549667       -14.9572
 209   2.0000      -0.549507       -14.9528
 210   2.0000      -0.548332       -14.9209
 211   2.0000      -0.543986       -14.8026
 212   2.0000      -0.542863       -14.7721
 213   2.0000      -0.537507       -14.6263
 214   2.0000      -0.534785       -14.5522
 215   2.0000      -0.533526       -14.5180
 216   2.0000      -0.531132       -14.4528
 217   2.0000      -0.528123       -14.3710
 218   2.0000      -0.525572       -14.3015
 219   2.0000      -0.523106       -14.2344
 220   2.0000      -0.522406       -14.2154
 221   2.0000      -0.521397       -14.1879
 222   2.0000      -0.518242       -14.1021
 223   2.0000      -0.515061       -14.0155
 224   2.0000      -0.514212       -13.9924
 225   2.0000      -0.512658       -13.9501
 226   2.0000      -0.511165       -13.9095
 227   2.0000      -0.509548       -13.8655
 228   2.0000      -0.504868       -13.7382
 229   2.0000      -0.502077       -13.6622
 230   2.0000      -0.500999       -13.6329
 231   2.0000      -0.496817       -13.5191
 232   2.0000      -0.495241       -13.4762
 233   2.0000      -0.493762       -13.4359
 234   2.0000      -0.492278       -13.3956
 235   2.0000      -0.490496       -13.3471
 236   2.0000      -0.489142       -13.3102
 237   2.0000      -0.487191       -13.2571
 238   2.0000      -0.479717       -13.0538
 239   2.0000      -0.478897       -13.0314
 240   2.0000      -0.477796       -13.0015
 241   2.0000      -0.475731       -12.9453
 242   2.0000      -0.475059       -12.9270
 243   2.0000      -0.472185       -12.8488
 244   2.0000      -0.470131       -12.7929
 245   2.0000      -0.468843       -12.7579
 246   2.0000      -0.466860       -12.7039
 247   2.0000      -0.466242       -12.6871
 248   2.0000      -0.463647       -12.6165
 249   2.0000      -0.462654       -12.5894
 250   2.0000      -0.461881       -12.5684
 251   2.0000      -0.458569       -12.4783
 252   2.0000      -0.458187       -12.4679
 253   2.0000      -0.456944       -12.4341
 254   2.0000      -0.456577       -12.4241
 255   2.0000      -0.452482       -12.3127
 256   2.0000      -0.450429       -12.2568
 257   2.0000      -0.448327       -12.1996
 258   2.0000      -0.446656       -12.1541
 259   2.0000      -0.444893       -12.1062
 260   2.0000      -0.444389       -12.0924
 261   2.0000      -0.443220       -12.0606
 262   2.0000      -0.441957       -12.0263
 263   2.0000      -0.440257       -11.9800
 264   2.0000      -0.439950       -11.9717
 265   2.0000      -0.436321       -11.8729
 266   2.0000      -0.432612       -11.7720
 267   2.0000      -0.430381       -11.7113
 268   2.0000      -0.427965       -11.6455
 269   2.0000      -0.427546       -11.6341
 270   2.0000      -0.426587       -11.6080
 271   2.0000      -0.425187       -11.5699
 272   2.0000      -0.422934       -11.5086
 273   2.0000      -0.418944       -11.4000
 274   2.0000      -0.416616       -11.3367
 275   2.0000      -0.415457       -11.3052
 276   2.0000      -0.410736       -11.1767
 277   2.0000      -0.404321       -11.0021
 278   2.0000      -0.401306       -10.9201
 279   2.0000      -0.398629       -10.8472
 280   2.0000      -0.394304       -10.7295
 281   2.0000      -0.391188       -10.6448
 282   2.0000      -0.390174       -10.6172
 283   2.0000      -0.385151       -10.4805
 284   2.0000      -0.380355       -10.3500
 285   2.0000      -0.379032       -10.3140
 286   2.0000      -0.377656       -10.2765
 287   2.0000      -0.376845       -10.2545
 288   2.0000      -0.376072       -10.2334
 289   2.0000      -0.370225       -10.0743
 290   2.0000      -0.364495        -9.9184
 291   2.0000      -0.352140        -9.5822
 292   2.0000      -0.348155        -9.4738
 293   2.0000      -0.340978        -9.2785
 294   2.0000      -0.337078        -9.1724
 295   2.0000      -0.335625        -9.1328
 296   2.0000      -0.333281        -9.0690
 297   2.0000      -0.332504        -9.0479
 298   2.0000      -0.325516        -8.8577
 299   2.0000      -0.324194        -8.8218
 300   2.0000      -0.318866        -8.6768
 301   2.0000      -0.318365        -8.6631
 302   2.0000      -0.316906        -8.6235
 303   2.0000      -0.303541        -8.2598
 304   2.0000      -0.295892        -8.0516
 305   2.0000      -0.294719        -8.0197
 306   2.0000      -0.279775        -7.6131
 307   2.0000      -0.273958        -7.4548
 308   2.0000      -0.261960        -7.1283
 309   2.0000      -0.226533        -6.1643
 310   0.0000      -0.088603        -2.4110
 311   0.0000      -0.069605        -1.8940
 312   0.0000      -0.058281        -1.5859
 313   0.0000      -0.056891        -1.5481
 314   0.0000      -0.032072        -0.8727

MULLIKEN ATOMIC CHARGES
-----------------------
   0 C :    0.312603
   1 C :   -0.348609
   2 C :   -0.186275
   3 N :    0.149384
   4 C :   -0.188407
   5 N :    0.156127
   6 C :    0.015538
   7 C :   -0.013890
   8 C :   -0.070884
   9 C :    0.118542
  10 C :   -0.090984
  11 C :   -0.019712
  12 S :    0.187594
  13 C :   -0.123633
  14 C :    0.039774
  15 Br:    0.026114
  16 C :    0.122669
  17 O :   -0.132688
  18 C :   -0.082976
  19 C :   -0.073644
  20 C :   -0.000501
  21 C :    0.044348
  22 C :    0.015558
  23 C :   -0.026022
  24 C :   -0.065696
  25 C :    0.179928
  26 N :   -0.222277
  27 C :    0.112424
  28 C :    0.133067
  29 O :   -0.185382
  30 C :    0.028320
  31 C :    0.047851
  32 C :    0.112431
  33 O :   -0.201463
  34 N :   -0.230217
  35 C :    0.123431
  36 C :    0.229546
  37 C :   -0.149522
  38 C :    0.135564
  39 C :   -0.034302
  40 C :   -0.036161
  41 C :   -0.039345
  42 C :   -0.036831
  43 C :    0.030752
  44 C :   -0.049809
  45 S :    0.125707
  46 C :   -0.086504
  47 C :    0.017875
  48 C :   -0.052987
  49 C :   -0.104691
  50 C :    0.101475
  51 C :    0.108182
  52 C :    0.002494
  53 C :   -0.089763
  54 S :    0.143202
  55 C :   -0.112272
  56 C :   -0.031836
  57 C :    0.098518
  58 C :   -0.090736
  59 C :    0.057005
  60 C :   -0.074078
  61 C :    0.208560
  62 O :   -0.169725
  63 O :   -0.291334
  64 C :    0.330011
  65 C :   -0.096728
  66 C :   -0.032310
  67 C :   -0.001103
  68 C :    0.051362
  69 C :   -0.078718
  70 C :    0.115008
  71 C :   -0.245793
  72 S :    0.166678
  73 C :   -0.142222
  74 C :    0.128498
  75 C :    0.201118
  76 O :   -0.194624
  77 C :    0.243429
  78 N :    0.271578
  79 O :   -0.247992
  80 O :   -0.231214
  81 C :   -0.077638
  82 H :   -0.009119
  83 H :   -0.005932
  84 H :   -0.001912
  85 H :    0.038057
  86 H :   -0.023516
  87 H :   -0.021413
  88 H :   -0.012611
  89 H :    0.035519
  90 H :    0.064585
  91 H :    0.054480
  92 H :    0.040195
  93 H :    0.055795
  94 H :    0.059887
  95 H :    0.033656
  96 H :    0.031635
  97 H :   -0.048691
  98 H :   -0.026464
  99 H :   -0.025182
 100 H :   -0.010568
 101 H :   -0.014029
 102 H :   -0.028822
 103 H :    0.008611
 104 H :    0.017962
 105 H :    0.011825
 106 H :    0.007455
 107 H :    0.014844
 108 H :    0.022473
 109 H :   -0.014339
 110 H :   -0.006795
 111 H :    0.018707
 112 H :    0.041146
 113 H :    0.041038
 114 H :   -0.022601
 115 H :   -0.010918
 116 H :    0.017137
 117 H :   -0.010343
 118 H :    0.032433
 119 H :    0.015051
Sum of atomic charges:   -0.0000000

LOEWDIN ATOMIC CHARGES
----------------------
   0 C :    0.076885
   1 C :   -0.139269
   2 C :   -0.017881
   3 N :   -0.051678
   4 C :   -0.020728
   5 N :   -0.047995
   6 C :   -0.022777
   7 C :   -0.050945
   8 C :    0.021742
   9 C :   -0.031351
  10 C :   -0.143411
  11 C :   -0.008958
  12 S :    0.433712
  13 C :   -0.270322
  14 C :   -0.070672
  15 Br:    0.138823
  16 C :    0.079378
  17 O :   -0.130458
  18 C :   -0.096226
  19 C :    0.083420
  20 C :   -0.070166
  21 C :    0.024619
  22 C :   -0.044585
  23 C :    0.000953
  24 C :   -0.049729
  25 C :    0.062674
  26 N :   -0.000326
  27 C :    0.032846
  28 C :    0.084028
  29 O :   -0.180279
  30 C :   -0.021143
  31 C :   -0.020723
  32 C :    0.080797
  33 O :   -0.194238
  34 N :   -0.008833
  35 C :    0.033874
  36 C :    0.037794
  37 C :   -0.055544
  38 C :   -0.011648
  39 C :   -0.037690
  40 C :   -0.016247
  41 C :   -0.045877
  42 C :   -0.036233
  43 C :   -0.033889
  44 C :   -0.166795
  45 S :    0.428606
  46 C :   -0.192976
  47 C :   -0.042772
  48 C :   -0.053307
  49 C :   -0.034151
  50 C :   -0.025017
  51 C :   -0.023423
  52 C :   -0.036835
  53 C :   -0.198918
  54 S :    0.434685
  55 C :   -0.170977
  56 C :   -0.045806
  57 C :   -0.021796
  58 C :   -0.036187
  59 C :    0.012882
  60 C :   -0.075245
  61 C :    0.087652
  62 O :   -0.161673
  63 O :   -0.089018
  64 C :    0.101584
  65 C :   -0.023181
  66 C :   -0.031540
  67 C :    0.009715
  68 C :   -0.024020
  69 C :   -0.021904
  70 C :   -0.030802
  71 C :   -0.204371
  72 S :    0.488242
  73 C :   -0.188456
  74 C :   -0.082367
  75 C :    0.019686
  76 O :   -0.002352
  77 C :    0.025845
  78 N :    0.271663
  79 O :   -0.208985
  80 O :   -0.193226
  81 C :   -0.007909
  82 H :    0.041232
  83 H :    0.041226
  84 H :    0.039255
  85 H :    0.043459
  86 H :    0.029070
  87 H :    0.028300
  88 H :    0.035479
  89 H :    0.026471
  90 H :    0.034840
  91 H :    0.041795
  92 H :    0.049973
  93 H :    0.055956
  94 H :    0.042218
  95 H :    0.027262
  96 H :    0.026848
  97 H :    0.024501
  98 H :    0.026470
  99 H :    0.030326
 100 H :    0.020971
 101 H :    0.031555
 102 H :    0.028393
 103 H :    0.022728
 104 H :    0.028713
 105 H :    0.024177
 106 H :    0.022551
 107 H :    0.025324
 108 H :    0.030899
 109 H :    0.033607
 110 H :    0.028191
 111 H :    0.032231
 112 H :    0.035743
 113 H :    0.035666
 114 H :    0.030460
 115 H :    0.034059
 116 H :    0.032570
 117 H :    0.032212
 118 H :    0.029139
 119 H :    0.047861

  Mayer bond orders larger than 0.100000
B(  0-C ,  1-C ) :   1.6428 B(  0-C ,  6-C ) :   1.0121 B(  0-C , 18-C ) :   1.0419
B(  1-C ,  2-C ) :   1.1383 B(  1-C ,  4-C ) :   1.1475 B(  2-C ,  3-N ) :   2.9693
B(  4-C ,  5-N ) :   2.9602 B(  6-C ,  7-C ) :   1.2719 B(  6-C , 11-C ) :   1.4009
B(  7-C ,  8-C ) :   1.4218 B(  7-C , 16-C ) :   0.9406 B(  8-C ,  9-C ) :   1.2474
B(  8-C , 82-H ) :   1.0170 B(  9-C , 10-C ) :   1.3003 B(  9-C , 14-C ) :   1.1646
B( 10-C , 11-C ) :   1.3391 B( 10-C , 12-S ) :   1.0855 B( 11-C , 83-H ) :   0.9793
B( 12-S , 13-C ) :   1.0870 B( 13-C , 14-C ) :   1.6156 B( 13-C , 15-Br) :   1.0199
B( 14-C , 84-H ) :   1.0004 B( 16-C , 17-O ) :   2.2441 B( 16-C , 18-C ) :   0.9219
B( 18-C , 19-C ) :   1.6877 B( 19-C , 20-C ) :   1.0384 B( 19-C , 85-H ) :   0.9289
B( 20-C , 21-C ) :   1.3062 B( 20-C , 25-C ) :   1.3673 B( 21-C , 22-C ) :   1.4424
B( 21-C , 86-H ) :   0.9864 B( 22-C , 23-C ) :   1.2790 B( 22-C , 87-H ) :   0.9911
B( 23-C , 24-C ) :   1.4784 B( 23-C , 88-H ) :   1.0022 B( 24-C , 25-C ) :   1.3245
B( 24-C , 30-C ) :   0.9471 B( 25-C , 26-N ) :   1.0988 B( 26-N , 27-C ) :   0.9547
B( 26-N , 28-C ) :   1.1064 B( 27-C , 89-H ) :   0.9616 B( 27-C , 90-H ) :   0.9656
B( 27-C , 91-H ) :   0.9473 B( 28-C , 29-O ) :   2.1800 B( 28-C , 30-C ) :   0.9265
B( 30-C , 31-C ) :   1.0414 B( 30-C , 92-H ) :   0.8796 B( 31-C , 32-C ) :   0.9081
B( 31-C , 41-C ) :   0.9797 B( 31-C , 93-H ) :   0.8682 B( 32-C , 33-O ) :   2.1263
B( 32-C , 34-N ) :   1.1463 B( 34-N , 35-C ) :   0.9656 B( 34-N , 36-C ) :   1.0412
B( 35-C , 94-H ) :   0.9573 B( 35-C , 95-H ) :   0.9714 B( 35-C , 96-H ) :   0.9726
B( 36-C , 37-C ) :   1.3706 B( 36-C , 41-C ) :   1.3515 B( 37-C , 38-C ) :   1.2789
B( 37-C , 97-H ) :   1.0035 B( 38-C , 39-C ) :   1.3641 B( 38-C , 42-C ) :   1.0649
B( 39-C , 40-C ) :   1.3326 B( 39-C , 98-H ) :   0.9971 B( 40-C , 41-C ) :   1.4270
B( 40-C , 99-H ) :   1.0062 B( 42-C , 43-C ) :   1.6864 B( 42-C ,100-H ) :   0.9756
B( 43-C , 44-C ) :   1.1472 B( 43-C ,101-H ) :   0.9718 B( 44-C , 45-S ) :   1.0971
B( 44-C , 48-C ) :   1.4459 B( 45-S , 46-C ) :   1.0800 B( 46-C , 47-C ) :   1.5433
B( 46-C , 53-C ) :   1.1708 B( 47-C , 48-C ) :   1.2838 B( 47-C , 49-C ) :   0.9423
B( 48-C ,102-H ) :   1.0119 B( 49-C , 50-C ) :   1.0356 B( 49-C , 51-C ) :   1.0322
B( 49-C , 52-C ) :   0.9438 B( 50-C ,103-H ) :   0.9645 B( 50-C ,104-H ) :   0.9650
B( 50-C ,105-H ) :   0.9649 B( 51-C ,106-H ) :   0.9643 B( 51-C ,107-H ) :   0.9650
B( 51-C ,108-H ) :   0.9640 B( 52-C , 53-C ) :   1.5270 B( 52-C , 56-C ) :   1.3088
B( 53-C , 54-S ) :   1.0865 B( 54-S , 55-C ) :   1.1066 B( 55-C , 56-C ) :   1.4682
B( 55-C , 57-C ) :   1.1294 B( 56-C ,109-H ) :   1.0031 B( 57-C , 58-C ) :   1.7447
B( 57-C ,110-H ) :   0.9455 B( 58-C , 59-C ) :   1.0757 B( 58-C ,111-H ) :   0.9443
B( 59-C , 60-C ) :   1.3379 B( 59-C , 68-C ) :   1.3377 B( 60-C , 61-C ) :   0.9187
B( 60-C , 65-C ) :   1.4080 B( 61-C , 62-O ) :   2.1682 B( 61-C , 63-O ) :   1.1287
B( 63-O , 64-C ) :   0.9770 B( 64-C , 65-C ) :   1.0080 B( 64-C ,112-H ) :   0.9272
B( 64-C ,113-H ) :   0.9266 B( 65-C , 66-C ) :   1.3639 B( 66-C , 67-C ) :   1.3637
B( 66-C ,114-H ) :   1.0090 B( 67-C , 68-C ) :   1.3630 B( 67-C ,115-H ) :   0.9928
B( 68-C , 69-C ) :   1.0193 B( 69-C , 70-C ) :   1.7814 B( 69-C ,116-H ) :   0.9601
B( 70-C , 71-C ) :   1.1225 B( 70-C ,117-H ) :   0.9413 B( 71-C , 72-S ) :   1.1423
B( 71-C , 73-C ) :   0.1131 B( 71-C , 75-C ) :   1.4708 B( 72-S , 73-C ) :   1.1975
B( 73-C , 74-C ) :   1.4297 B( 73-C ,118-H ) :   0.9761 B( 74-C , 75-C ) :   1.2241
B( 74-C , 81-C ) :   1.0562 B( 75-C , 76-O ) :   1.0923 B( 76-O , 77-C ) :   1.1189
B( 77-C , 78-N ) :   0.9139 B( 77-C , 81-C ) :   1.5802 B( 78-N , 79-O ) :   1.5348
B( 78-N , 80-O ) :   1.5143 B( 79-O , 80-O ) :   0.2803 B( 81-C ,119-H ) :   1.0248

-----------------------------------------------------------------------------
         ABSORPTION SPECTRUM VIA TRANSITION ELECTRIC DIPOLE MOMENTS
-----------------------------------------------------------------------------
State   Energy  Wavelength   fosc         T2         TX        TY        TZ
        (cm-1)    (nm)                  (au**2)     (au)      (au)      (au)
-----------------------------------------------------------------------------
   0   20289.9    492.9   0.470409475   7.63258  -0.97207  -2.58476   0.08167
   1   21971.1    455.1   1.026811208  15.38561   2.63843   2.65821  -1.16542
   2   22299.6    448.4   0.267167822   3.94424   0.22939   1.84002   0.71130
   3   22622.2    442.0   0.169040885   2.45999   0.62203  -0.92351  -1.10462
   4   25592.0    390.7   0.025813272   0.33206   0.14985   0.13666  -0.53938
   5   26644.7    375.3   0.154528512   1.90929   1.03749   0.51866  -0.75093
   6   27379.2    365.2   0.666594142   8.01523  -2.52312  -1.24709   0.30636
   7   27991.9    357.2   0.023988072   0.28212  -0.45261   0.26672  -0.07830
   8   28335.1    352.9   0.168775095   1.96092  -1.35748  -0.34216   0.03330
   9   28665.1    348.9   0.055045529   0.63219   0.28241  -0.73586  -0.10460
  10   28830.4    346.9   0.372766443   4.25659  -1.12327   1.71549   0.22795
  11   29362.2    340.6   0.001311928   0.01471   0.05901  -0.06153   0.08626
  12   29636.8    337.4   0.058199102   0.64649  -0.74328  -0.13462   0.27549
  13   30143.3    331.7   0.035738665   0.39032  -0.25644  -0.13774   0.55280
  14   30595.5    326.8   0.045828794   0.49312  -0.28804   0.63342  -0.09456
  15   32187.3    310.7   0.000053124   0.00054   0.00244   0.00330   0.02295
  16   32956.8    303.4   0.000006122   0.00006  -0.00140   0.00769   0.00014
  17   33272.3    300.6   0.020375618   0.20161   0.32745  -0.29027  -0.10062
  18   33342.7    299.9   0.236610552   2.33620   1.10829   0.12938  -1.04458
  19   33840.6    295.5   0.038592888   0.37544   0.60694  -0.04717  -0.06958
  20   34050.0    293.7   0.632826432   6.11847  -1.31580   2.07505  -0.28509
  21   34701.5    288.2   0.044615365   0.42326   0.52937  -0.16092   0.34225
  22   35635.8    280.6   0.333572215   3.08162   1.70887   0.22677  -0.33158
  23   35998.5    277.8   0.005767588   0.05275  -0.14384   0.15113   0.09599
  24   36105.9    277.0   0.003445523   0.03142   0.10751  -0.13300  -0.04655
  25   36365.1    275.0   0.024843703   0.22491  -0.37377  -0.13719  -0.25765
  26   36728.3    272.3   0.109539266   0.98185  -0.90497   0.36903   0.16340
  27   36861.5    271.3   0.014733732   0.13159  -0.20340   0.09131   0.28614
  28   37622.5    265.8   0.384897514   3.36801  -0.77625   0.89731  -1.40010
  29   37974.4    263.3   0.000731064   0.00634  -0.02913   0.05698   0.04736
  30   37988.1    263.2   0.071860930   0.62276   0.48034  -0.34815   0.52041
  31   38290.7    261.2   0.085618820   0.73613   0.35461   0.75236  -0.21055
  32   38420.1    260.3   0.001493688   0.01280  -0.09347   0.00550   0.06350
  33   38740.4    258.1   0.000663170   0.00564   0.03941   0.05865  -0.02535
  34   38911.7    257.0   0.321355679   2.71883  -0.19585  -1.13916   1.17592
  35   39431.5    253.6   0.055450913   0.46296  -0.67178  -0.04953  -0.09597
  36   39571.3    252.7   0.186834186   1.55436  -0.80366   0.07761   0.94999
  37   40099.9    249.4   0.010423648   0.08558   0.19093   0.15064   0.16257
  38   40294.6    248.2   0.009436091   0.07709   0.03991  -0.19278   0.19580

FINAL SINGLE POINT ENERGY     -7499.208475473427

DIPOLE MOMENT
-------------
                                X             Y             Z
Electronic contribution:   -203.54897      22.59688      78.78849
Nuclear contribution   :    204.32533     -19.56522     -78.27045
                        -----------------------------------------
Total Dipole Moment    :      0.77635       3.03166       0.51804
                        -----------------------------------------
Magnitude (a.u.)       :      3.17207
Magnitude (Debye)      :      8.06277

Rotational constants in cm-1:     0.000732     0.000172     0.000147
Rotational constants in MHz :    21.943659     5.166014     4.413152

                             ****ORCA TERMINATED NORMALLY****
TOTAL RUN TIME: 0 days 0 hours 12 minutes 33 seconds 454 msec
