                         Program Version 4.2.0 -  RELEASE  -
|  1> # ORCA input file
|  2> # SCF done       -201.281907736428          0.000992595738
|  3> ! CAM-B3LYP def2-SVP def2/J RIJCOSX Grid4 TightSCF
|  4> %maxcore 5000
|  5> %tddft
|  6>     Mode sTDDFT
|  7>     Ethresh 5.0
|  8>     maxcore 5000
|  9> end
| 10>
| 11> %pal
| 12>   nprocs 6
| 13>   end
| 14> * xyz 0 1
| 15>    C       -4.16901        -7.08852        -6.70654
| 16>    C       -4.86827        -7.84687        -5.79530
| 17>    C       -4.56417        -9.19068        -5.49594
| 18>    N       -4.37062       -10.28814        -5.21782
| 19>    C       -6.00370        -7.44671        -5.06235
| 20>    N       -6.94922        -7.24151        -4.44098
| 21>    C       -3.05225        -7.56593        -7.52104
| 22>    C       -2.65092        -6.52675        -8.39666
| 23>    C       -1.63275        -6.67531        -9.30534
| 24>    C       -0.97506        -7.90962        -9.35400
| 25>    C       -1.37819        -8.93870        -8.47237
| 26>    C       -2.40925        -8.78827        -7.55215
| 27>    S       -0.43477       -10.38084        -8.69883
| 28>    C        0.47384        -9.59143        -9.96027
| 29>    C        0.09415        -8.31434       -10.19991
| 30>   Br        1.83810       -10.52892       -10.84336
| 31>    C       -3.49166        -5.33422        -8.15615
| 32>    O       -3.42043        -4.26845        -8.73627
| 33>    C       -4.41714        -5.71764        -7.07410
| 34>    C       -5.35115        -4.88387        -6.49873
| 35>    C       -5.62963        -3.56869        -6.85994
| 36>    C       -6.62511        -2.85944        -6.20834
| 37>    C       -7.08289        -1.54242        -6.43497
| 38>    C       -8.11615        -1.16130        -5.62025
| 39>    C       -8.51047        -2.16216        -4.71401
| 40>    S       -7.53954        -3.59634        -4.91783
| 41>    C       -9.49668        -2.20479        -3.73407
| 42>    C      -10.45947        -1.27242        -3.30288
| 43>    C      -11.25660        -1.74437        -2.29577
| 44>    C      -10.94967        -3.06269        -1.87995
| 45>    S       -9.61566        -3.67724        -2.81996
| 46>    C      -11.61237        -3.82346        -0.93681
| 47>    C      -11.25433        -5.11371        -0.53188
| 48>    S      -12.39765        -6.11936         0.35501
| 49>    C      -11.35058        -7.52326         0.42582
| 50>    C      -10.13713        -7.19533        -0.20078
| 51>    C      -10.09772        -5.87366        -0.70903
| 52>    O       -8.88774        -5.60560        -1.22637
| 53>    C       -8.16159        -6.74288        -1.09276
| 54>    N       -6.81644        -6.71254        -1.54512
| 55>    O       -6.17860        -7.73730        -1.41657
| 56>    O       -6.39499        -5.66513        -1.98306
| 57>    C       -8.85885        -7.74772        -0.47492
| 58>    C      -11.72621        -8.77933         0.92884
| 59>    S      -10.67658       -10.13091         0.60463
| 60>    C      -11.82623       -11.25257         1.27599
| 61>    C      -12.98348       -10.59156         1.70272
| 62>    C      -12.88936        -9.19890         1.58677
| 63>    C      -13.86412        -8.23676         2.19976
| 64>    C      -13.16854        -7.41197         3.29083
| 65>    C      -15.05775        -8.97039         2.81979
| 66>    C      -15.39686       -10.22983         2.04266
| 67>    C      -14.26134       -11.25405         2.15090
| 68>    C      -14.63446       -12.48815         1.31762
| 69>    C      -11.48365       -12.61778         1.34399
| 70>    C      -10.27730       -13.12099         0.95263
| 71>    C       -9.88888       -14.47422         1.03251
| 72>    C      -10.64574       -15.61319         1.08301
| 73>    C      -12.02648       -15.90394         0.77911
| 74>    C      -12.83893       -15.23629        -0.10480
| 75>    C      -14.15675       -15.62708        -0.41294
| 76>    N      -15.24413       -15.88207        -0.68019
| 77>    C      -12.44009       -14.11855        -0.86232
| 78>    N      -12.17857       -13.21866        -1.52573
| 79>    C      -12.34142       -17.20097         1.37502
| 80>    C      -11.13898       -17.79475         1.83266
| 81>    C      -10.01955       -16.85968         1.59866
| 82>    O       -8.84413       -17.04318         1.81964
| 83>    C      -11.10269       -19.04260         2.40462
| 84>    C      -12.31240       -19.73206         2.54326
| 85>    C      -13.50985       -19.12301         2.09938
| 86>    C      -13.54553       -17.86377         1.51206
| 87>    S      -14.88783       -20.14379         2.37867
| 88>    C      -13.85019       -21.36092         3.07357
| 89>    C      -12.53971       -21.02156         3.09800
| 90>   Br      -14.59673       -22.96230         3.70324
| 91>    H       -1.35241        -5.86570        -9.96087
| 92>    H       -2.67712        -9.60399        -6.90203
| 93>    H        0.54677        -7.68250       -10.94219
| 94>    H       -5.93348        -5.28855        -5.67905
| 95>    H       -5.07724        -3.10143        -7.66157
| 96>    H       -6.64190        -0.91588        -7.18996
| 97>    H       -8.59130        -0.19669        -5.65241
| 98>    H      -10.54574        -0.29200        -3.73628
| 99>    H      -12.05177        -1.18165        -1.83894
|100>    H      -12.51434        -3.41279        -0.50360
|101>    H       -8.48494        -8.72568        -0.25568
|102>    H      -14.22321        -7.55822         1.41678
|103>    H      -12.33605        -6.83610         2.89995
|104>    H      -12.79022        -8.07258         4.06823
|105>    H      -13.88169        -6.72405         3.73758
|106>    H      -15.91696        -8.29959         2.85177
|107>    H      -14.81652        -9.24897         3.84823
|108>    H      -15.55840        -9.98652         0.99039
|109>    H      -16.31491       -10.67006         2.43455
|110>    H      -14.15997       -11.55180         3.20258
|111>    H      -14.32062       -12.36727         0.28372
|112>    H      -15.71373       -12.62232         1.32909
|113>    H      -14.19873       -13.40066         1.71385
|114>    H      -12.20146       -13.28319         1.79742
|115>    H       -9.51567       -12.42584         0.62229
|116>    H       -8.82172       -14.65555         1.12640
|117>    H      -10.17106       -19.47499         2.73404
|118>    H      -14.48283       -17.43929         1.19237
|119>    H      -11.76340       -21.65264         3.49044
|120> *
|121>
|122>                          ****END OF INPUT****

CARTESIAN COORDINATES (ANGSTROEM)
---------------------------------
  C     -4.169010   -7.088520   -6.706540
  C     -4.868270   -7.846870   -5.795300
  C     -4.564170   -9.190680   -5.495940
  N     -4.370620  -10.288140   -5.217820
  C     -6.003700   -7.446710   -5.062350
  N     -6.949220   -7.241510   -4.440980
  C     -3.052250   -7.565930   -7.521040
  C     -2.650920   -6.526750   -8.396660
  C     -1.632750   -6.675310   -9.305340
  C     -0.975060   -7.909620   -9.354000
  C     -1.378190   -8.938700   -8.472370
  C     -2.409250   -8.788270   -7.552150
  S     -0.434770  -10.380840   -8.698830
  C      0.473840   -9.591430   -9.960270
  C      0.094150   -8.314340  -10.199910
  Br     1.838100  -10.528920  -10.843360
  C     -3.491660   -5.334220   -8.156150
  O     -3.420430   -4.268450   -8.736270
  C     -4.417140   -5.717640   -7.074100
  C     -5.351150   -4.883870   -6.498730
  C     -5.629630   -3.568690   -6.859940
  C     -6.625110   -2.859440   -6.208340
  C     -7.082890   -1.542420   -6.434970
  C     -8.116150   -1.161300   -5.620250
  C     -8.510470   -2.162160   -4.714010
  S     -7.539540   -3.596340   -4.917830
  C     -9.496680   -2.204790   -3.734070
  C    -10.459470   -1.272420   -3.302880
  C    -11.256600   -1.744370   -2.295770
  C    -10.949670   -3.062690   -1.879950
  S     -9.615660   -3.677240   -2.819960
  C    -11.612370   -3.823460   -0.936810
  C    -11.254330   -5.113710   -0.531880
  S    -12.397650   -6.119360    0.355010
  C    -11.350580   -7.523260    0.425820
  C    -10.137130   -7.195330   -0.200780
  C    -10.097720   -5.873660   -0.709030
  O     -8.887740   -5.605600   -1.226370
  C     -8.161590   -6.742880   -1.092760
  N     -6.816440   -6.712540   -1.545120
  O     -6.178600   -7.737300   -1.416570
  O     -6.394990   -5.665130   -1.983060
  C     -8.858850   -7.747720   -0.474920
  C    -11.726210   -8.779330    0.928840
  S    -10.676580  -10.130910    0.604630
  C    -11.826230  -11.252570    1.275990
  C    -12.983480  -10.591560    1.702720
  C    -12.889360   -9.198900    1.586770
  C    -13.864120   -8.236760    2.199760
  C    -13.168540   -7.411970    3.290830
  C    -15.057750   -8.970390    2.819790
  C    -15.396860  -10.229830    2.042660
  C    -14.261340  -11.254050    2.150900
  C    -14.634460  -12.488150    1.317620
  C    -11.483650  -12.617780    1.343990
  C    -10.277300  -13.120990    0.952630
  C     -9.888880  -14.474220    1.032510
  C    -10.645740  -15.613190    1.083010
  C    -12.026480  -15.903940    0.779110
  C    -12.838930  -15.236290   -0.104800
  C    -14.156750  -15.627080   -0.412940
  N    -15.244130  -15.882070   -0.680190
  C    -12.440090  -14.118550   -0.862320
  N    -12.178570  -13.218660   -1.525730
  C    -12.341420  -17.200970    1.375020
  C    -11.138980  -17.794750    1.832660
  C    -10.019550  -16.859680    1.598660
  O     -8.844130  -17.043180    1.819640
  C    -11.102690  -19.042600    2.404620
  C    -12.312400  -19.732060    2.543260
  C    -13.509850  -19.123010    2.099380
  C    -13.545530  -17.863770    1.512060
  S    -14.887830  -20.143790    2.378670
  C    -13.850190  -21.360920    3.073570
  C    -12.539710  -21.021560    3.098000
  Br   -14.596730  -22.962300    3.703240
  H     -1.352410   -5.865700   -9.960870
  H     -2.677120   -9.603990   -6.902030
  H      0.546770   -7.682500  -10.942190
  H     -5.933480   -5.288550   -5.679050
  H     -5.077240   -3.101430   -7.661570
  H     -6.641900   -0.915880   -7.189960
  H     -8.591300   -0.196690   -5.652410
  H    -10.545740   -0.292000   -3.736280
  H    -12.051770   -1.181650   -1.838940
  H    -12.514340   -3.412790   -0.503600
  H     -8.484940   -8.725680   -0.255680
  H    -14.223210   -7.558220    1.416780
  H    -12.336050   -6.836100    2.899950
  H    -12.790220   -8.072580    4.068230
  H    -13.881690   -6.724050    3.737580
  H    -15.916960   -8.299590    2.851770
  H    -14.816520   -9.248970    3.848230
  H    -15.558400   -9.986520    0.990390
  H    -16.314910  -10.670060    2.434550
  H    -14.159970  -11.551800    3.202580
  H    -14.320620  -12.367270    0.283720
  H    -15.713730  -12.622320    1.329090
  H    -14.198730  -13.400660    1.713850
  H    -12.201460  -13.283190    1.797420
  H     -9.515670  -12.425840    0.622290
  H     -8.821720  -14.655550    1.126400
  H    -10.171060  -19.474990    2.734040
  H    -14.482830  -17.439290    1.192370
  H    -11.763400  -21.652640    3.490440

 Total Charge           Charge          ....    0
 Multiplicity           Mult            ....    1
 Number of Electrons    NEL             ....  618
 Basis Dimension        Dim             .... 1269

ORBITAL ENERGIES
----------------

  NO   OCC          E(Eh)            E(eV)
   0   2.0000    -482.884838    -13139.9645
   1   2.0000    -482.873814    -13139.6645
   2   2.0000     -88.988147     -2421.4906
   3   2.0000     -88.974502     -2421.1193
   4   2.0000     -88.967780     -2420.9364
   5   2.0000     -88.960825     -2420.7471
   6   2.0000     -88.953345     -2420.5436
   7   2.0000     -88.949529     -2420.4397
   8   2.0000     -62.562552     -1702.4136
   9   2.0000     -62.551530     -1702.1137
  10   2.0000     -56.396501     -1534.6268
  11   2.0000     -56.393788     -1534.5530
  12   2.0000     -56.393753     -1534.5520
  13   2.0000     -56.385463     -1534.3265
  14   2.0000     -56.382780     -1534.2534
  15   2.0000     -56.382738     -1534.2523
  16   2.0000     -19.318060      -525.6711
  17   2.0000     -19.238260      -523.4997
  18   2.0000     -19.236816      -523.4604
  19   2.0000     -19.210534      -522.7452
  20   2.0000     -19.195417      -522.3338
  21   2.0000     -14.649920      -398.6446
  22   2.0000     -14.414484      -392.2381
  23   2.0000     -14.413323      -392.2065
  24   2.0000     -14.398223      -391.7956
  25   2.0000     -14.392649      -391.6439
  26   2.0000     -10.390318      -282.7349
  27   2.0000     -10.362598      -281.9806
  28   2.0000     -10.361454      -281.9495
  29   2.0000     -10.357755      -281.8488
  30   2.0000     -10.345528      -281.5161
  31   2.0000     -10.344655      -281.4924
  32   2.0000     -10.342714      -281.4395
  33   2.0000     -10.340688      -281.3844
  34   2.0000     -10.339332      -281.3475
  35   2.0000     -10.333311      -281.1837
  36   2.0000     -10.327253      -281.0188
  37   2.0000     -10.326924      -281.0099
  38   2.0000     -10.324594      -280.9465
  39   2.0000     -10.323246      -280.9098
  40   2.0000     -10.319958      -280.8203
  41   2.0000     -10.319064      -280.7960
  42   2.0000     -10.317675      -280.7582
  43   2.0000     -10.317491      -280.7532
  44   2.0000     -10.316469      -280.7254
  45   2.0000     -10.315201      -280.6909
  46   2.0000     -10.314640      -280.6756
  47   2.0000     -10.314623      -280.6752
  48   2.0000     -10.313963      -280.6572
  49   2.0000     -10.311764      -280.5974
  50   2.0000     -10.310062      -280.5510
  51   2.0000     -10.309980      -280.5488
  52   2.0000     -10.308915      -280.5198
  53   2.0000     -10.307156      -280.4720
  54   2.0000     -10.306013      -280.4409
  55   2.0000     -10.304608      -280.4027
  56   2.0000     -10.304038      -280.3871
  57   2.0000     -10.302632      -280.3489
  58   2.0000     -10.301867      -280.3281
  59   2.0000     -10.300854      -280.3005
  60   2.0000     -10.299623      -280.2670
  61   2.0000     -10.298433      -280.2346
  62   2.0000     -10.297085      -280.1979
  63   2.0000     -10.295751      -280.1616
  64   2.0000     -10.295626      -280.1582
  65   2.0000     -10.292409      -280.0707
  66   2.0000     -10.291847      -280.0554
  67   2.0000     -10.291063      -280.0341
  68   2.0000     -10.290559      -280.0203
  69   2.0000     -10.290062      -280.0068
  70   2.0000     -10.290007      -280.0053
  71   2.0000     -10.289740      -279.9981
  72   2.0000     -10.289274      -279.9854
  73   2.0000     -10.288715      -279.9702
  74   2.0000     -10.287210      -279.9292
  75   2.0000     -10.283730      -279.8345
  76   2.0000     -10.283053      -279.8161
  77   2.0000     -10.273608      -279.5591
  78   2.0000     -10.272017      -279.5158
  79   2.0000     -10.271105      -279.4910
  80   2.0000     -10.270987      -279.4878
  81   2.0000     -10.270843      -279.4838
  82   2.0000     -10.267247      -279.3860
  83   2.0000     -10.263856      -279.2937
  84   2.0000      -8.791982      -239.2420
  85   2.0000      -8.780952      -238.9419
  86   2.0000      -8.081972      -219.9216
  87   2.0000      -8.070562      -219.6112
  88   2.0000      -8.063170      -219.4100
  89   2.0000      -8.056880      -219.2388
  90   2.0000      -8.050160      -219.0560
  91   2.0000      -8.045898      -218.9400
  92   2.0000      -6.628263      -180.3642
  93   2.0000      -6.617186      -180.0628
  94   2.0000      -6.613723      -179.9686
  95   2.0000      -6.613530      -179.9633
  96   2.0000      -6.602691      -179.6684
  97   2.0000      -6.602559      -179.6648
  98   2.0000      -6.051526      -164.6704
  99   2.0000      -6.047319      -164.5559
 100   2.0000      -6.043827      -164.4609
 101   2.0000      -6.040263      -164.3639
 102   2.0000      -6.035982      -164.2474
 103   2.0000      -6.032489      -164.1524
 104   2.0000      -6.031754      -164.1324
 105   2.0000      -6.028449      -164.0424
 106   2.0000      -6.026573      -163.9914
 107   2.0000      -6.025066      -163.9504
 108   2.0000      -6.022313      -163.8755
 109   2.0000      -6.019823      -163.8077
 110   2.0000      -6.018073      -163.7601
 111   2.0000      -6.015505      -163.6902
 112   2.0000      -6.015475      -163.6894
 113   2.0000      -6.011335      -163.5767
 114   2.0000      -6.011077      -163.5697
 115   2.0000      -6.007036      -163.4598
 116   2.0000      -2.744163       -74.6725
 117   2.0000      -2.740041       -74.5603
 118   2.0000      -2.739906       -74.5566
 119   2.0000      -2.733090       -74.3712
 120   2.0000      -2.729016       -74.2603
 121   2.0000      -2.728848       -74.2557
 122   2.0000      -2.728351       -74.2422
 123   2.0000      -2.728328       -74.2416
 124   2.0000      -2.717374       -73.9435
 125   2.0000      -2.717360       -73.9431
 126   2.0000      -1.321848       -35.9693
 127   2.0000      -1.242145       -33.8005
 128   2.0000      -1.138396       -30.9773
 129   2.0000      -1.125708       -30.6321
 130   2.0000      -1.108643       -30.1677
 131   2.0000      -1.021709       -27.8021
 132   2.0000      -1.019650       -27.7461
 133   2.0000      -1.012072       -27.5399
 134   2.0000      -1.010127       -27.4870
 135   2.0000      -1.005261       -27.3545
 136   2.0000      -0.998098       -27.1596
 137   2.0000      -0.994883       -27.0721
 138   2.0000      -0.992480       -27.0067
 139   2.0000      -0.987731       -26.8775
 140   2.0000      -0.984724       -26.7957
 141   2.0000      -0.974513       -26.5179
 142   2.0000      -0.969792       -26.3894
 143   2.0000      -0.944425       -25.6991
 144   2.0000      -0.943287       -25.6682
 145   2.0000      -0.936605       -25.4863
 146   2.0000      -0.926667       -25.2159
 147   2.0000      -0.923109       -25.1191
 148   2.0000      -0.911066       -24.7914
 149   2.0000      -0.906879       -24.6774
 150   2.0000      -0.902797       -24.5664
 151   2.0000      -0.899805       -24.4849
 152   2.0000      -0.890989       -24.2450
 153   2.0000      -0.885912       -24.1069
 154   2.0000      -0.884579       -24.0706
 155   2.0000      -0.879746       -23.9391
 156   2.0000      -0.870649       -23.6916
 157   2.0000      -0.868740       -23.6396
 158   2.0000      -0.860256       -23.4088
 159   2.0000      -0.857348       -23.3296
 160   2.0000      -0.844178       -22.9713
 161   2.0000      -0.835904       -22.7461
 162   2.0000      -0.830260       -22.5925
 163   2.0000      -0.827938       -22.5293
 164   2.0000      -0.822818       -22.3900
 165   2.0000      -0.812781       -22.1169
 166   2.0000      -0.804948       -21.9038
 167   2.0000      -0.803827       -21.8732
 168   2.0000      -0.798444       -21.7268
 169   2.0000      -0.783760       -21.3272
 170   2.0000      -0.770254       -20.9597
 171   2.0000      -0.759992       -20.6804
 172   2.0000      -0.754474       -20.5303
 173   2.0000      -0.740691       -20.1552
 174   2.0000      -0.735967       -20.0267
 175   2.0000      -0.731551       -19.9065
 176   2.0000      -0.726998       -19.7826
 177   2.0000      -0.712627       -19.3916
 178   2.0000      -0.704847       -19.1799
 179   2.0000      -0.702161       -19.1068
 180   2.0000      -0.694740       -18.9048
 181   2.0000      -0.688776       -18.7426
 182   2.0000      -0.685263       -18.6470
 183   2.0000      -0.679762       -18.4973
 184   2.0000      -0.672761       -18.3068
 185   2.0000      -0.670252       -18.2385
 186   2.0000      -0.667146       -18.1540
 187   2.0000      -0.661918       -18.0117
 188   2.0000      -0.655604       -17.8399
 189   2.0000      -0.650174       -17.6921
 190   2.0000      -0.642817       -17.4919
 191   2.0000      -0.641625       -17.4595
 192   2.0000      -0.636955       -17.3324
 193   2.0000      -0.633666       -17.2429
 194   2.0000      -0.628342       -17.0981
 195   2.0000      -0.622563       -16.9408
 196   2.0000      -0.621713       -16.9177
 197   2.0000      -0.620717       -16.8906
 198   2.0000      -0.614596       -16.7240
 199   2.0000      -0.612210       -16.6591
 200   2.0000      -0.605436       -16.4748
 201   2.0000      -0.597676       -16.2636
 202   2.0000      -0.592262       -16.1163
 203   2.0000      -0.591028       -16.0827
 204   2.0000      -0.582514       -15.8510
 205   2.0000      -0.581853       -15.8330
 206   2.0000      -0.578817       -15.7504
 207   2.0000      -0.577060       -15.7026
 208   2.0000      -0.576076       -15.6758
 209   2.0000      -0.570653       -15.5283
 210   2.0000      -0.558873       -15.2077
 211   2.0000      -0.558344       -15.1933
 212   2.0000      -0.551999       -15.0207
 213   2.0000      -0.548937       -14.9373
 214   2.0000      -0.545460       -14.8427
 215   2.0000      -0.539599       -14.6832
 216   2.0000      -0.536941       -14.6109
 217   2.0000      -0.535869       -14.5817
 218   2.0000      -0.532020       -14.4770
 219   2.0000      -0.528538       -14.3823
 220   2.0000      -0.527295       -14.3484
 221   2.0000      -0.526145       -14.3171
 222   2.0000      -0.521098       -14.1798
 223   2.0000      -0.520542       -14.1647
 224   2.0000      -0.517468       -14.0810
 225   2.0000      -0.513813       -13.9816
 226   2.0000      -0.511567       -13.9204
 227   2.0000      -0.510335       -13.8869
 228   2.0000      -0.509127       -13.8541
 229   2.0000      -0.508652       -13.8411
 230   2.0000      -0.505750       -13.7622
 231   2.0000      -0.504963       -13.7407
 232   2.0000      -0.503547       -13.7022
 233   2.0000      -0.501492       -13.6463
 234   2.0000      -0.497685       -13.5427
 235   2.0000      -0.496394       -13.5076
 236   2.0000      -0.492442       -13.4000
 237   2.0000      -0.491616       -13.3775
 238   2.0000      -0.489384       -13.3168
 239   2.0000      -0.485410       -13.2087
 240   2.0000      -0.482018       -13.1164
 241   2.0000      -0.479937       -13.0598
 242   2.0000      -0.478634       -13.0243
 243   2.0000      -0.477850       -13.0029
 244   2.0000      -0.475859       -12.9488
 245   2.0000      -0.473252       -12.8778
 246   2.0000      -0.472441       -12.8558
 247   2.0000      -0.468219       -12.7409
 248   2.0000      -0.465951       -12.6792
 249   2.0000      -0.462393       -12.5824
 250   2.0000      -0.459299       -12.4982
 251   2.0000      -0.455684       -12.3998
 252   2.0000      -0.454648       -12.3716
 253   2.0000      -0.451779       -12.2935
 254   2.0000      -0.450701       -12.2642
 255   2.0000      -0.448588       -12.2067
 256   2.0000      -0.444624       -12.0988
 257   2.0000      -0.444109       -12.0848
 258   2.0000      -0.442576       -12.0431
 259   2.0000      -0.442511       -12.0413
 260   2.0000      -0.441459       -12.0127
 261   2.0000      -0.440668       -11.9912
 262   2.0000      -0.436333       -11.8732
 263   2.0000      -0.435179       -11.8418
 264   2.0000      -0.432932       -11.7807
 265   2.0000      -0.430724       -11.7206
 266   2.0000      -0.428713       -11.6659
 267   2.0000      -0.424657       -11.5555
 268   2.0000      -0.424110       -11.5406
 269   2.0000      -0.423126       -11.5138
 270   2.0000      -0.420249       -11.4355
 271   2.0000      -0.416518       -11.3340
 272   2.0000      -0.415262       -11.2999
 273   2.0000      -0.411965       -11.2101
 274   2.0000      -0.408567       -11.1177
 275   2.0000      -0.408016       -11.1027
 276   2.0000      -0.405979       -11.0473
 277   2.0000      -0.404977       -11.0200
 278   2.0000      -0.398827       -10.8526
 279   2.0000      -0.395279       -10.7561
 280   2.0000      -0.391953       -10.6656
 281   2.0000      -0.390908       -10.6372
 282   2.0000      -0.388824       -10.5804
 283   2.0000      -0.388756       -10.5786
 284   2.0000      -0.384154       -10.4534
 285   2.0000      -0.383361       -10.4318
 286   2.0000      -0.374625       -10.1941
 287   2.0000      -0.374231       -10.1833
 288   2.0000      -0.371589       -10.1114
 289   2.0000      -0.367930       -10.0119
 290   2.0000      -0.366154        -9.9635
 291   2.0000      -0.363628        -9.8948
 292   2.0000      -0.363398        -9.8886
 293   2.0000      -0.351821        -9.5735
 294   2.0000      -0.346182        -9.4201
 295   2.0000      -0.342917        -9.3312
 296   2.0000      -0.331762        -9.0277
 297   2.0000      -0.330032        -8.9806
 298   2.0000      -0.324945        -8.8422
 299   2.0000      -0.323922        -8.8144
 300   2.0000      -0.316331        -8.6078
 301   2.0000      -0.313993        -8.5442
 302   2.0000      -0.313345        -8.5266
 303   2.0000      -0.299363        -8.1461
 304   2.0000      -0.293716        -7.9924
 305   2.0000      -0.289647        -7.8817
 306   2.0000      -0.277528        -7.5519
 307   2.0000      -0.256453        -6.9785
 308   2.0000      -0.216768        -5.8986
 309   0.0000      -0.117983        -3.2105
 310   0.0000      -0.092487        -2.5167
 311   0.0000      -0.071016        -1.9324
 312   0.0000      -0.054006        -1.4696
 313   0.0000      -0.052447        -1.4272

MULLIKEN ATOMIC CHARGES
-----------------------
   0 C :    0.331478
   1 C :   -0.361193
   2 C :   -0.191301
   3 N :    0.136678
   4 C :   -0.170488
   5 N :    0.109868
   6 C :    0.012185
   7 C :   -0.013771
   8 C :   -0.077195
   9 C :    0.116562
  10 C :   -0.091864
  11 C :   -0.023809
  12 S :    0.179311
  13 C :   -0.121873
  14 C :    0.034292
  15 Br:    0.012796
  16 C :    0.135787
  17 O :   -0.163230
  18 C :   -0.081315
  19 C :   -0.057945
  20 C :   -0.013229
  21 C :    0.010821
  22 C :    0.022227
  23 C :    0.046725
  24 C :   -0.041448
  25 S :    0.090150
  26 C :   -0.017912
  27 C :    0.032579
  28 C :    0.043759
  29 C :   -0.046631
  30 S :    0.112546
  31 C :    0.067961
  32 C :   -0.202588
  33 S :    0.145507
  34 C :   -0.111531
  35 C :    0.085337
  36 C :    0.201054
  37 O :   -0.181152
  38 C :    0.268514
  39 N :    0.285308
  40 O :   -0.238676
  41 O :   -0.225406
  42 C :   -0.092941
  43 C :   -0.088980
  44 S :    0.105153
  45 C :   -0.090532
  46 C :    0.008054
  47 C :   -0.032184
  48 C :   -0.086464
  49 C :    0.075355
  50 C :    0.086060
  51 C :    0.042823
  52 C :   -0.063238
  53 C :    0.050255
  54 C :    0.041840
  55 C :   -0.000144
  56 C :    0.043457
  57 C :   -0.125897
  58 C :    0.276016
  59 C :   -0.366742
  60 C :   -0.175101
  61 N :    0.153681
  62 C :   -0.193012
  63 N :    0.167092
  64 C :   -0.001851
  65 C :    0.010822
  66 C :    0.129033
  67 O :   -0.144068
  68 C :   -0.075575
  69 C :    0.111389
  70 C :   -0.085843
  71 C :   -0.027785
  72 S :    0.182402
  73 C :   -0.126608
  74 C :    0.043865
  75 Br:    0.022310
  76 H :   -0.016447
  77 H :   -0.009584
  78 H :   -0.006760
  79 H :    0.033310
  80 H :    0.013420
  81 H :   -0.002418
  82 H :   -0.008129
  83 H :   -0.008851
  84 H :   -0.005694
  85 H :   -0.011447
  86 H :    0.024172
  87 H :    0.016768
  88 H :    0.016980
  89 H :    0.011981
  90 H :    0.013941
  91 H :    0.003191
  92 H :   -0.007754
  93 H :    0.007138
  94 H :    0.005114
  95 H :    0.009448
  96 H :    0.041299
  97 H :    0.016826
  98 H :    0.018985
  99 H :   -0.003363
 100 H :    0.013540
 101 H :    0.032145
 102 H :   -0.009683
 103 H :   -0.006401
 104 H :   -0.003258
Sum of atomic charges:   -0.0000000

LOEWDIN ATOMIC CHARGES
----------------------
   0 C :    0.073346
   1 C :   -0.154235
   2 C :   -0.017082
   3 N :   -0.068563
   4 C :   -0.010830
   5 N :   -0.082960
   6 C :   -0.017057
   7 C :   -0.048740
   8 C :    0.016495
   9 C :   -0.036299
  10 C :   -0.145902
  11 C :   -0.013444
  12 S :    0.426944
  13 C :   -0.275460
  14 C :   -0.071264
  15 Br:    0.128304
  16 C :    0.080785
  17 O :   -0.159004
  18 C :   -0.107072
  19 C :    0.046760
  20 C :   -0.068750
  21 C :   -0.104851
  22 C :   -0.043124
  23 C :   -0.010074
  24 C :   -0.190392
  25 S :    0.426786
  26 C :   -0.155264
  27 C :   -0.038120
  28 C :   -0.017314
  29 C :   -0.156782
  30 S :    0.439957
  31 C :   -0.056355
  32 C :   -0.201958
  33 S :    0.481811
  34 C :   -0.171311
  35 C :   -0.076248
  36 C :    0.017691
  37 O :    0.013146
  38 C :    0.042189
  39 N :    0.277034
  40 O :   -0.197635
  41 O :   -0.185487
  42 C :   -0.018722
  43 C :   -0.171716
  44 S :    0.466593
  45 C :   -0.165276
  46 C :   -0.024295
  47 C :   -0.042054
  48 C :   -0.039779
  49 C :   -0.045169
  50 C :   -0.022425
  51 C :   -0.022876
  52 C :   -0.027570
  53 C :   -0.046423
  54 C :    0.020657
  55 C :   -0.049117
  56 C :    0.067753
  57 C :   -0.099670
  58 C :    0.064853
  59 C :   -0.149130
  60 C :   -0.020757
  61 N :   -0.058982
  62 C :   -0.016825
  63 N :   -0.043986
  64 C :   -0.018938
  65 C :   -0.051721
  66 C :    0.081792
  67 O :   -0.143588
  68 C :    0.022564
  69 C :   -0.034151
  70 C :   -0.143878
  71 C :   -0.015024
  72 S :    0.429799
  73 C :   -0.272578
  74 C :   -0.069555
  75 Br:    0.135650
  76 H :    0.038457
  77 H :    0.040176
  78 H :    0.037235
  79 H :    0.029913
  80 H :    0.038352
  81 H :    0.037248
  82 H :    0.035052
  83 H :    0.034337
  84 H :    0.035480
  85 H :    0.037876
  86 H :    0.040862
  87 H :    0.017787
  88 H :    0.011652
  89 H :    0.025455
  90 H :    0.025906
  91 H :    0.027225
  92 H :    0.021926
  93 H :    0.025229
  94 H :    0.025310
  95 H :    0.031794
  96 H :    0.033203
  97 H :    0.031432
  98 H :    0.018904
  99 H :    0.036562
 100 H :    0.028072
 101 H :    0.049239
 102 H :    0.041414
 103 H :    0.039746
 104 H :    0.039026

  Mayer bond orders larger than 0.100000
B(  0-C ,  1-C ) :   1.5765 B(  0-C ,  6-C ) :   0.9876 B(  0-C , 18-C ) :   1.1176
B(  1-C ,  2-C ) :   1.1509 B(  1-C ,  4-C ) :   1.1598 B(  2-C ,  3-N ) :   2.9621
B(  4-C ,  5-N ) :   2.9297 B(  6-C ,  7-C ) :   1.2794 B(  6-C , 11-C ) :   1.4209
B(  7-C ,  8-C ) :   1.4300 B(  7-C , 16-C ) :   0.9318 B(  8-C ,  9-C ) :   1.2398
B(  8-C , 76-H ) :   1.0159 B(  9-C , 10-C ) :   1.3181 B(  9-C , 14-C ) :   1.1592
B( 10-C , 11-C ) :   1.3186 B( 10-C , 12-S ) :   1.0826 B( 11-C , 77-H ) :   0.9787
B( 12-S , 13-C ) :   1.0851 B( 13-C , 14-C ) :   1.6209 B( 13-C , 15-Br) :   1.0127
B( 14-C , 78-H ) :   1.0004 B( 16-C , 17-O ) :   2.2009 B( 16-C , 18-C ) :   0.9648
B( 18-C , 19-C ) :   1.4815 B( 19-C , 20-C ) :   1.2636 B( 19-C , 79-H ) :   0.9351
B( 20-C , 21-C ) :   1.4029 B( 20-C , 80-H ) :   0.9875 B( 21-C , 22-C ) :   1.1867
B( 21-C , 25-S ) :   1.0937 B( 22-C , 23-C ) :   1.5241 B( 22-C , 81-H ) :   1.0011
B( 23-C , 24-C ) :   1.2362 B( 23-C , 82-H ) :   0.9965 B( 24-C , 25-S ) :   1.0610
B( 24-C , 26-C ) :   1.4247 B( 26-C , 27-C ) :   1.2112 B( 26-C , 30-S ) :   1.0934
B( 27-C , 28-C ) :   1.5623 B( 27-C , 83-H ) :   0.9952 B( 28-C , 29-C ) :   1.1669
B( 28-C , 84-H ) :   0.9985 B( 29-C , 30-S ) :   1.0594 B( 29-C , 31-C ) :   1.5387
B( 31-C , 32-C ) :   1.2058 B( 31-C , 85-H ) :   0.9492 B( 32-C , 33-S ) :   1.0811
B( 32-C , 36-C ) :   1.3626 B( 33-S , 34-C ) :   1.1333 B( 34-C , 35-C ) :   1.3287
B( 34-C , 43-C ) :   1.2363 B( 35-C , 36-C ) :   1.2688 B( 35-C , 42-C ) :   1.0955
B( 36-C , 37-O ) :   1.1174 B( 37-O , 38-C ) :   1.1146 B( 38-C , 39-N ) :   0.9090
B( 38-C , 42-C ) :   1.5748 B( 39-N , 40-O ) :   1.5355 B( 39-N , 41-O ) :   1.5113
B( 40-O , 41-O ) :   0.2846 B( 42-C , 86-H ) :   1.0139 B( 43-C , 44-S ) :   1.1345
B( 43-C , 47-C ) :   1.4128 B( 44-S , 45-C ) :   1.0978 B( 45-C , 46-C ) :   1.4239
B( 45-C , 54-C ) :   1.2409 B( 46-C , 47-C ) :   1.3891 B( 46-C , 52-C ) :   0.9843
B( 47-C , 48-C ) :   1.0207 B( 48-C , 49-C ) :   1.0831 B( 48-C , 50-C ) :   1.0560
B( 48-C , 87-H ) :   0.8750 B( 49-C , 88-H ) :   0.9605 B( 49-C , 89-H ) :   0.9557
B( 49-C , 90-H ) :   0.9637 B( 50-C , 51-C ) :   1.0978 B( 50-C , 91-H ) :   0.9266
B( 50-C , 92-H ) :   0.9245 B( 51-C , 52-C ) :   1.0798 B( 51-C , 93-H ) :   0.9366
B( 51-C , 94-H ) :   0.9311 B( 52-C , 53-C ) :   1.0761 B( 52-C , 95-H ) :   0.8864
B( 53-C , 96-H ) :   0.9626 B( 53-C , 97-H ) :   0.9521 B( 53-C , 98-H ) :   0.9573
B( 54-C , 55-C ) :   1.5696 B( 54-C , 99-H ) :   0.9632 B( 55-C , 56-C ) :   1.2005
B( 55-C ,100-H ) :   0.9501 B( 56-C , 57-C ) :   1.6125 B( 56-C ,101-H ) :   0.9310
B( 57-C , 58-C ) :   1.0585 B( 57-C , 66-C ) :   0.9505 B( 58-C , 59-C ) :   1.6232
B( 58-C , 64-C ) :   1.0083 B( 59-C , 60-C ) :   1.1281 B( 59-C , 62-C ) :   1.1814
B( 60-C , 61-N ) :   2.9799 B( 62-C , 63-N ) :   2.9518 B( 64-C , 65-C ) :   1.2765
B( 64-C , 71-C ) :   1.4150 B( 65-C , 66-C ) :   0.9173 B( 65-C , 68-C ) :   1.4240
B( 66-C , 67-O ) :   2.2641 B( 68-C , 69-C ) :   1.2481 B( 68-C ,102-H ) :   1.0175
B( 69-C , 70-C ) :   1.3115 B( 69-C , 74-C ) :   1.1619 B( 70-C , 71-C ) :   1.3239
B( 70-C , 72-S ) :   1.0831 B( 71-C ,103-H ) :   0.9838 B( 72-S , 73-C ) :   1.0865
B( 73-C , 74-C ) :   1.6205 B( 73-C , 75-Br) :   1.0185 B( 74-C ,104-H ) :   0.9999

-----------------------------------------------------------------------------
         ABSORPTION SPECTRUM VIA TRANSITION ELECTRIC DIPOLE MOMENTS
-----------------------------------------------------------------------------
State   Energy  Wavelength   fosc         T2         TX        TY        TZ
        (cm-1)    (nm)                  (au**2)     (au)      (au)      (au)
-----------------------------------------------------------------------------
   0    8320.1   1201.9   0.793461017  31.39600  -3.46264  -2.46905   3.64827
   1   13914.0    718.7   0.344267669   8.14553   1.10094  -2.46995  -0.91258
   2   16315.2    612.9   0.971216188  19.59742  -0.48741   4.39013   0.29433
   3   18582.9    538.1   0.096900702   1.71668  -0.35177   1.23129  -0.27723
   4   20858.6    479.4   0.231189029   3.64886  -0.01555  -1.76134   0.73913
   5   22278.4    448.9   0.176001529   2.60081  -0.69734   1.10652  -0.94348
   6   23044.9    433.9   0.096984677   1.38549  -0.43773  -0.81478   0.72802
   7   23371.6    427.9   0.163084476   2.29721  -1.06379   0.89406   0.60516
   8   24100.8    414.9   0.029254217   0.39961   0.49423  -0.32868  -0.21750
   9   25154.8    397.5   0.251421498   3.29046   0.63933  -1.62588   0.48809
  10   25937.8    385.5   0.036835629   0.46753   0.40000  -0.13351  -0.53824
  11   26085.2    383.4   0.056687419   0.71543  -0.54943  -0.37316   0.52374
  12   26458.3    378.0   0.002732834   0.03400  -0.08734  -0.14598   0.07118
  13   27554.9    362.9   0.014492530   0.17315   0.39991  -0.11493   0.00376
  14   27605.3    362.2   0.027392831   0.32668  -0.32367  -0.46037   0.09987
  15   28456.5    351.4   0.035192986   0.40715  -0.16611   0.60594   0.11128
  16   28862.2    346.5   0.141524971   1.61428  -0.95888   0.69408   0.46161
  17   29324.9    341.0   0.013187985   0.14805  -0.33796   0.02308   0.18248
  18   29441.9    339.7   0.010956834   0.12252  -0.05635  -0.28640   0.19317
  19   29454.1    339.5   0.065721246   0.73457  -0.26526  -0.71646   0.38844
  20   30036.5    332.9   0.242179572   2.65439   1.23128  -0.85251  -0.64152
  21   30514.3    327.7   0.005588211   0.06029   0.24068   0.04273   0.02322
  22   30884.9    323.8   0.089212142   0.95094  -0.82552   0.51906   0.00584
  23   31040.8    322.2   0.202124690   2.14369   1.10487  -0.45393  -0.84669
  24   31258.3    319.9   0.010257352   0.10803   0.00875  -0.32829   0.01327
  25   31966.8    312.8   0.438632745   4.51729   1.25225   0.87928  -1.47514
  26   32236.6    310.2   0.515643014   5.26594   0.87150  -2.09722   0.32880
  27   32383.3    308.8   0.003609600   0.03670   0.01515   0.17085  -0.08530
  28   32722.1    305.6   0.012478187   0.12554  -0.24658   0.05783  -0.24778
  29   33176.6    301.4   0.042184983   0.41860   0.05593   0.59578  -0.24600
  30   33233.8    300.9   0.074826043   0.74122   0.57827  -0.24921  -0.58713
  31   33801.7    295.8   0.014553944   0.14175   0.01679  -0.21461   0.30888
  32   34064.2    293.6   0.049806595   0.48135  -0.26676  -0.52678   0.36427
  33   34237.5    292.1   0.003476128   0.03342   0.02411  -0.10096   0.15050
  34   34471.6    290.1   0.001640983   0.01567  -0.08157   0.02996   0.09011
  35   34779.8    287.5   0.005854450   0.05542  -0.12287  -0.09398   0.17744
  36   34876.3    286.7   0.113567712   1.07201   0.64397   0.42223  -0.69212
  37   35060.8    285.2   0.066057054   0.62026  -0.55769   0.05465   0.55340
  38   35256.3    283.6   0.104314637   0.97406   0.79848  -0.13029  -0.56525
  39   35692.5    280.2   0.030852206   0.28457   0.11648  -0.41100   0.31950
  40   35879.4    278.7   0.026452474   0.24272  -0.40789   0.24384   0.12994
  41   36418.3    274.6   0.011969144   0.10820  -0.22388  -0.22243   0.09275
  42   36497.2    274.0   0.071142050   0.64171  -0.76038   0.12293   0.22005
  43   36766.2    272.0   0.097069880   0.86918  -0.62522   0.54423  -0.42672
  44   36929.8    270.8   0.024887557   0.22186   0.35282  -0.21073   0.23016
  45   36980.5    270.4   0.030979115   0.27579  -0.17956   0.37396  -0.32202
  46   37056.3    269.9   0.021882237   0.19440  -0.39873   0.10383   0.15696
  47   37448.3    267.0   0.084988442   0.74714  -0.56959   0.63921  -0.11884
  48   37843.5    264.2   0.016458667   0.14318   0.24320   0.20840  -0.20150
  49   38027.0    263.0   0.035865671   0.31050   0.37475   0.27139  -0.31049
  50   38415.6    260.3   0.068389572   0.58608  -0.06743  -0.66308   0.37664
  51   38655.4    258.7   0.109504698   0.93261   0.48345   0.38082  -0.74421
  52   38683.4    258.5   0.007041818   0.05993  -0.08213  -0.20475   0.10613
  53   38859.7    257.3   0.001105007   0.00936   0.05055   0.06416  -0.05186
  54   38941.0    256.8   0.100229445   0.84735   0.51445   0.52171  -0.55724
  55   39250.5    254.8   0.005373641   0.04507  -0.21106  -0.02117   0.00875
  56   39301.0    254.4   0.029244647   0.24497   0.09175  -0.47713   0.09435
  57   39541.5    252.9   0.057529178   0.47897  -0.20594  -0.56649   0.34008
  58   39613.3    252.4   0.115301102   0.95823   0.14802   0.74747  -0.61449
  59   40050.9    249.7   0.023466192   0.19289   0.23062  -0.25086  -0.27708

FINAL SINGLE POINT ENERGY    -10409.985447527130

DIPOLE MOMENT
-------------
                                X             Y             Z
Electronic contribution:     97.97019    -152.22488     -63.78685
Nuclear contribution   :   -101.06224     154.59471      66.60973
                        -----------------------------------------
Total Dipole Moment    :     -3.09205       2.36983       2.82288
                        -----------------------------------------
Magnitude (a.u.)       :      4.81098
Magnitude (Debye)      :     12.22853

Rotational constants in cm-1:     0.000632     0.000224     0.000170
Rotational constants in MHz :    18.959908     6.718576     5.093093

                             ****ORCA TERMINATED NORMALLY****
TOTAL RUN TIME: 0 days 0 hours 12 minutes 50 seconds 213 msec
