                         Program Version 4.2.0 -  RELEASE  -
|  1> # ORCA input file
|  2> # SCF done       -188.199516139396          0.000774681816
|  3> ! CAM-B3LYP def2-SVP def2/J RIJCOSX Grid4 TightSCF
|  4> %maxcore 5000
|  5> %tddft
|  6>     Mode sTDDFT
|  7>     Ethresh 5.0
|  8>     maxcore 5000
|  9> end
| 10>
| 11> %pal
| 12>   nprocs 6
| 13>   end
| 14> * xyz 0 1
| 15>    C       -7.43717        -1.84637         1.37655
| 16>    C       -6.46659        -1.77781         2.34136
| 17>    C       -6.18199        -2.81704         3.25063
| 18>    N       -5.90707        -3.63389         4.00925
| 19>    C       -5.65961        -0.64513         2.57781
| 20>    N       -4.98865         0.24963         2.83794
| 21>    C       -8.37290        -2.94304         1.17463
| 22>    C       -9.33392        -2.55222         0.20940
| 23>    C      -10.35605        -3.37722        -0.19218
| 24>    C      -10.43416        -4.64878         0.38531
| 25>    C       -9.46673        -5.03223         1.34510
| 26>    C       -8.43342        -4.19845         1.75223
| 27>    S       -9.74435        -6.64792         1.92186
| 28>    C      -11.13739        -6.78352         0.88181
| 29>    C      -11.38407        -5.67770         0.14018
| 30>   Br      -12.13354        -8.37260         0.87278
| 31>    C       -9.02906        -1.18898        -0.27327
| 32>    O       -9.62518        -0.57551        -1.13023
| 33>    C       -7.78652        -0.79112         0.44247
| 34>    C       -7.02727         0.28414         0.10781
| 35>    C       -7.43090         1.32874        -0.79451
| 36>    C       -6.57934         1.66973        -1.81366
| 37>    S       -7.25588         2.72287        -2.97410
| 38>    C       -8.72275         2.81269        -2.04213
| 39>    C       -8.68117         2.04892        -0.86985
| 40>    C       -9.75849         2.14549         0.04384
| 41>    C       -9.57744         1.60581         1.44045
| 42>    C       -8.41904         2.30456         2.15571
| 43>    C      -10.91596         2.82946        -0.32000
| 44>    C      -12.13793         2.76632         0.56005
| 45>    C      -12.24695         3.97781         1.48664
| 46>    C      -10.96544         3.58354        -1.52095
| 47>    C      -11.96586         4.49022        -2.05978
| 48>    C      -11.54450         5.06224        -3.23003
| 49>    S       -9.98521         4.58917        -3.75292
| 50>    C       -9.83296         3.57618        -2.35367
| 51>    C      -13.24627         4.86268        -1.50847
| 52>    C      -13.86366         6.03693        -1.76482
| 53>    C      -15.12131         6.40720        -1.22192
| 54>    S      -15.84736         7.92405        -1.68690
| 55>    C      -17.24809         7.70313        -0.66967
| 56>    C      -17.13774         6.48291         0.00520
| 57>    C      -15.95160         5.76992        -0.31741
| 58>    S      -15.91500         4.28045         0.57078
| 59>    C      -17.45887         4.74545         1.27494
| 60>    N      -17.94774         5.86301         0.90239
| 61>    C      -18.25571         8.67517        -0.64546
| 62>    C      -19.37371         8.60216         0.15069
| 63>    C      -20.42892         9.51974         0.20036
| 64>    C      -20.64567        10.64555        -0.57319
| 65>    C      -21.75148        11.52097        -0.45807
| 66>    C      -21.76132        12.55162        -1.35624
| 67>    C      -20.65900        12.54158        -2.23068
| 68>    S      -19.61110        11.19124        -1.87367
| 69>    C      -20.31165        13.39435        -3.26752
| 70>    C      -20.94694        14.54403        -3.77344
| 71>    C      -20.28520        15.11615        -4.82210
| 72>    C      -19.09179        14.44710        -5.19719
| 73>    S      -18.84804        13.06012        -4.16001
| 74>    C      -18.24667        14.81192        -6.21805
| 75>    C      -17.05610        14.17300        -6.61427
| 76>    S      -16.14967        14.80824        -7.98473
| 77>    C      -14.91195        13.61580        -7.89822
| 78>    C      -15.16270        12.74838        -6.86226
| 79>    C      -16.36228        13.06634        -6.14829
| 80>    O      -16.55420        12.18682        -5.14305
| 81>    C      -15.51285        11.31932        -5.20179
| 82>    N      -15.48567        10.28776        -4.24252
| 83>    O      -14.55415         9.50229        -4.30091
| 84>    O      -16.38489        10.24350        -3.42560
| 85>    C      -14.63265        11.59784        -6.21645
| 86>    H      -11.07237        -3.05118        -0.92993
| 87>    H       -7.71563        -4.53682         2.48081
| 88>    H      -12.20050        -5.58973        -0.55311
| 89>    H       -5.99667         0.32131         0.44023
| 90>    H       -5.59857         1.26593        -1.98038
| 91>    H       -9.40080         0.52929         1.42393
| 92>    H      -10.47018         1.77177         2.03656
| 93>    H       -7.46086         2.07728         1.69607
| 94>    H       -8.37745         1.98305         3.19424
| 95>    H       -8.56059         3.38286         2.13246
| 96>    H      -12.12790         1.85172         1.15233
| 97>    H      -13.02062         2.69145        -0.07180
| 98>    H      -11.40281         4.00988         2.17153
| 99>    H      -13.16463         3.92610         2.06818
|100>    H      -12.25347         4.90099         0.91228
|101>    H      -12.09947         5.74318        -3.84458
|102>    H      -13.75252         4.16996        -0.85912
|103>    H      -13.40714         6.78348        -2.39845
|104>    H      -17.93436         4.09293         1.98029
|105>    H      -18.08782         9.51351        -1.30447
|106>    H      -19.44531         7.74939         0.81280
|107>    H      -21.19968         9.32066         0.93537
|108>    H      -22.51263        11.36418         0.28657
|109>    H      -22.52757        13.30454        -1.40947
|110>    H      -21.86591        14.91944        -3.35895
|111>    H      -20.61588        15.99947        -5.33982
|112>    H      -18.52000        15.68687        -6.79228
|113>    H      -14.10172        13.62992        -8.59592
|114>    H      -13.74321        11.05054        -6.44985
|115> *
|116>
|117>                          ****END OF INPUT****

CARTESIAN COORDINATES (ANGSTROEM)
---------------------------------
  C     -7.437170   -1.846370    1.376550
  C     -6.466590   -1.777810    2.341360
  C     -6.181990   -2.817040    3.250630
  N     -5.907070   -3.633890    4.009250
  C     -5.659610   -0.645130    2.577810
  N     -4.988650    0.249630    2.837940
  C     -8.372900   -2.943040    1.174630
  C     -9.333920   -2.552220    0.209400
  C    -10.356050   -3.377220   -0.192180
  C    -10.434160   -4.648780    0.385310
  C     -9.466730   -5.032230    1.345100
  C     -8.433420   -4.198450    1.752230
  S     -9.744350   -6.647920    1.921860
  C    -11.137390   -6.783520    0.881810
  C    -11.384070   -5.677700    0.140180
  Br   -12.133540   -8.372600    0.872780
  C     -9.029060   -1.188980   -0.273270
  O     -9.625180   -0.575510   -1.130230
  C     -7.786520   -0.791120    0.442470
  C     -7.027270    0.284140    0.107810
  C     -7.430900    1.328740   -0.794510
  C     -6.579340    1.669730   -1.813660
  S     -7.255880    2.722870   -2.974100
  C     -8.722750    2.812690   -2.042130
  C     -8.681170    2.048920   -0.869850
  C     -9.758490    2.145490    0.043840
  C     -9.577440    1.605810    1.440450
  C     -8.419040    2.304560    2.155710
  C    -10.915960    2.829460   -0.320000
  C    -12.137930    2.766320    0.560050
  C    -12.246950    3.977810    1.486640
  C    -10.965440    3.583540   -1.520950
  C    -11.965860    4.490220   -2.059780
  C    -11.544500    5.062240   -3.230030
  S     -9.985210    4.589170   -3.752920
  C     -9.832960    3.576180   -2.353670
  C    -13.246270    4.862680   -1.508470
  C    -13.863660    6.036930   -1.764820
  C    -15.121310    6.407200   -1.221920
  S    -15.847360    7.924050   -1.686900
  C    -17.248090    7.703130   -0.669670
  C    -17.137740    6.482910    0.005200
  C    -15.951600    5.769920   -0.317410
  S    -15.915000    4.280450    0.570780
  C    -17.458870    4.745450    1.274940
  N    -17.947740    5.863010    0.902390
  C    -18.255710    8.675170   -0.645460
  C    -19.373710    8.602160    0.150690
  C    -20.428920    9.519740    0.200360
  C    -20.645670   10.645550   -0.573190
  C    -21.751480   11.520970   -0.458070
  C    -21.761320   12.551620   -1.356240
  C    -20.659000   12.541580   -2.230680
  S    -19.611100   11.191240   -1.873670
  C    -20.311650   13.394350   -3.267520
  C    -20.946940   14.544030   -3.773440
  C    -20.285200   15.116150   -4.822100
  C    -19.091790   14.447100   -5.197190
  S    -18.848040   13.060120   -4.160010
  C    -18.246670   14.811920   -6.218050
  C    -17.056100   14.173000   -6.614270
  S    -16.149670   14.808240   -7.984730
  C    -14.911950   13.615800   -7.898220
  C    -15.162700   12.748380   -6.862260
  C    -16.362280   13.066340   -6.148290
  O    -16.554200   12.186820   -5.143050
  C    -15.512850   11.319320   -5.201790
  N    -15.485670   10.287760   -4.242520
  O    -14.554150    9.502290   -4.300910
  O    -16.384890   10.243500   -3.425600
  C    -14.632650   11.597840   -6.216450
  H    -11.072370   -3.051180   -0.929930
  H     -7.715630   -4.536820    2.480810
  H    -12.200500   -5.589730   -0.553110
  H     -5.996670    0.321310    0.440230
  H     -5.598570    1.265930   -1.980380
  H     -9.400800    0.529290    1.423930
  H    -10.470180    1.771770    2.036560
  H     -7.460860    2.077280    1.696070
  H     -8.377450    1.983050    3.194240
  H     -8.560590    3.382860    2.132460
  H    -12.127900    1.851720    1.152330
  H    -13.020620    2.691450   -0.071800
  H    -11.402810    4.009880    2.171530
  H    -13.164630    3.926100    2.068180
  H    -12.253470    4.900990    0.912280
  H    -12.099470    5.743180   -3.844580
  H    -13.752520    4.169960   -0.859120
  H    -13.407140    6.783480   -2.398450
  H    -17.934360    4.092930    1.980290
  H    -18.087820    9.513510   -1.304470
  H    -19.445310    7.749390    0.812800
  H    -21.199680    9.320660    0.935370
  H    -22.512630   11.364180    0.286570
  H    -22.527570   13.304540   -1.409470
  H    -21.865910   14.919440   -3.358950
  H    -20.615880   15.999470   -5.339820
  H    -18.520000   15.686870   -6.792280
  H    -14.101720   13.629920   -8.595920
  H    -13.743210   11.050540   -6.449850

 Total Charge           Charge          ....    0
 Multiplicity           Mult            ....    1
 Number of Electrons    NEL             ....  576
 Basis Dimension        Dim             .... 1189

ORBITAL ENERGIES
----------------

  NO   OCC          E(Eh)            E(eV)
   0   2.0000    -482.886192    -13140.0013
   1   2.0000     -88.976253     -2421.1669
   2   2.0000     -88.972751     -2421.0717
   3   2.0000     -88.959693     -2420.7163
   4   2.0000     -88.955992     -2420.6156
   5   2.0000     -88.947318     -2420.3796
   6   2.0000     -88.945280     -2420.3241
   7   2.0000     -88.936296     -2420.0796
   8   2.0000     -88.932872     -2419.9865
   9   2.0000     -62.563923     -1702.4509
  10   2.0000     -56.397875     -1534.6642
  11   2.0000     -56.395153     -1534.5901
  12   2.0000     -56.395122     -1534.5893
  13   2.0000     -19.307110      -525.3732
  14   2.0000     -19.251805      -523.8682
  15   2.0000     -19.249956      -523.8179
  16   2.0000     -19.214410      -522.8507
  17   2.0000     -14.662340      -398.9826
  18   2.0000     -14.416094      -392.2819
  19   2.0000     -14.415545      -392.2669
  20   2.0000     -14.410176      -392.1208
  21   2.0000     -10.389718      -282.7186
  22   2.0000     -10.365574      -282.0616
  23   2.0000     -10.359831      -281.9053
  24   2.0000     -10.345452      -281.5141
  25   2.0000     -10.343070      -281.4492
  26   2.0000     -10.341446      -281.4051
  27   2.0000     -10.331090      -281.1233
  28   2.0000     -10.326343      -280.9941
  29   2.0000     -10.318730      -280.7869
  30   2.0000     -10.318205      -280.7726
  31   2.0000     -10.318161      -280.7714
  32   2.0000     -10.317985      -280.7666
  33   2.0000     -10.314982      -280.6849
  34   2.0000     -10.309577      -280.5379
  35   2.0000     -10.309542      -280.5369
  36   2.0000     -10.308705      -280.5141
  37   2.0000     -10.308519      -280.5091
  38   2.0000     -10.306626      -280.4575
  39   2.0000     -10.305957      -280.4394
  40   2.0000     -10.302659      -280.3496
  41   2.0000     -10.301096      -280.3071
  42   2.0000     -10.298578      -280.2386
  43   2.0000     -10.297975      -280.2221
  44   2.0000     -10.297335      -280.2047
  45   2.0000     -10.296807      -280.1904
  46   2.0000     -10.296202      -280.1739
  47   2.0000     -10.295701      -280.1603
  48   2.0000     -10.295435      -280.1530
  49   2.0000     -10.294175      -280.1188
  50   2.0000     -10.293943      -280.1124
  51   2.0000     -10.293095      -280.0894
  52   2.0000     -10.292818      -280.0818
  53   2.0000     -10.292371      -280.0697
  54   2.0000     -10.291526      -280.0467
  55   2.0000     -10.286371      -279.9064
  56   2.0000     -10.283761      -279.8354
  57   2.0000     -10.283067      -279.8165
  58   2.0000     -10.278373      -279.6887
  59   2.0000     -10.277899      -279.6758
  60   2.0000     -10.277512      -279.6653
  61   2.0000     -10.277234      -279.6578
  62   2.0000     -10.276697      -279.6431
  63   2.0000     -10.275640      -279.6144
  64   2.0000     -10.273267      -279.5498
  65   2.0000     -10.271602      -279.5045
  66   2.0000     -10.270357      -279.4706
  67   2.0000     -10.270265      -279.4681
  68   2.0000     -10.269973      -279.4602
  69   2.0000     -10.268666      -279.4246
  70   2.0000     -10.258935      -279.1598
  71   2.0000     -10.258827      -279.1569
  72   2.0000     -10.258295      -279.1424
  73   2.0000     -10.248456      -278.8747
  74   2.0000     -10.247620      -278.8519
  75   2.0000      -8.793363      -239.2796
  76   2.0000      -8.072200      -219.6557
  77   2.0000      -8.067669      -219.5324
  78   2.0000      -8.055850      -219.2108
  79   2.0000      -8.051286      -219.0866
  80   2.0000      -8.043626      -218.8782
  81   2.0000      -8.040213      -218.7853
  82   2.0000      -8.032131      -218.5654
  83   2.0000      -8.029321      -218.4889
  84   2.0000      -6.629683      -180.4029
  85   2.0000      -6.615093      -180.0058
  86   2.0000      -6.614882      -180.0001
  87   2.0000      -6.041898      -164.4084
  88   2.0000      -6.037614      -164.2918
  89   2.0000      -6.037035      -164.2761
  90   2.0000      -6.033430      -164.1780
  91   2.0000      -6.032715      -164.1585
  92   2.0000      -6.029958      -164.0835
  93   2.0000      -6.025233      -163.9549
  94   2.0000      -6.021019      -163.8403
  95   2.0000      -6.020798      -163.8342
  96   2.0000      -6.017718      -163.7504
  97   2.0000      -6.016701      -163.7228
  98   2.0000      -6.013073      -163.6240
  99   2.0000      -6.012935      -163.6203
 100   2.0000      -6.009389      -163.5238
 101   2.0000      -6.008869      -163.5096
 102   2.0000      -6.005406      -163.4154
 103   2.0000      -6.005283      -163.4120
 104   2.0000      -6.002407      -163.3338
 105   2.0000      -6.001819      -163.3178
 106   2.0000      -5.999076      -163.2432
 107   2.0000      -5.997622      -163.2036
 108   2.0000      -5.994875      -163.1288
 109   2.0000      -5.993297      -163.0859
 110   2.0000      -5.990078      -162.9983
 111   2.0000      -2.745541       -74.7100
 112   2.0000      -2.741459       -74.5989
 113   2.0000      -2.741310       -74.5948
 114   2.0000      -2.729718       -74.2794
 115   2.0000      -2.729694       -74.2787
 116   2.0000      -1.332173       -36.2503
 117   2.0000      -1.230706       -33.4892
 118   2.0000      -1.147644       -31.2290
 119   2.0000      -1.129695       -30.7406
 120   2.0000      -1.061336       -28.8804
 121   2.0000      -1.023399       -27.8481
 122   2.0000      -1.013740       -27.5853
 123   2.0000      -1.002217       -27.2717
 124   2.0000      -0.994544       -27.0629
 125   2.0000      -0.994299       -27.0563
 126   2.0000      -0.989686       -26.9307
 127   2.0000      -0.987161       -26.8620
 128   2.0000      -0.972392       -26.4601
 129   2.0000      -0.966217       -26.2921
 130   2.0000      -0.964512       -26.2457
 131   2.0000      -0.943187       -25.6654
 132   2.0000      -0.938033       -25.5252
 133   2.0000      -0.921811       -25.0837
 134   2.0000      -0.909933       -24.7605
 135   2.0000      -0.908885       -24.7320
 136   2.0000      -0.904946       -24.6248
 137   2.0000      -0.899465       -24.4757
 138   2.0000      -0.887738       -24.1566
 139   2.0000      -0.886505       -24.1230
 140   2.0000      -0.882587       -24.0164
 141   2.0000      -0.872543       -23.7431
 142   2.0000      -0.870652       -23.6917
 143   2.0000      -0.860243       -23.4084
 144   2.0000      -0.850730       -23.1495
 145   2.0000      -0.848515       -23.0893
 146   2.0000      -0.836512       -22.7626
 147   2.0000      -0.830146       -22.5894
 148   2.0000      -0.826611       -22.4932
 149   2.0000      -0.819758       -22.3067
 150   2.0000      -0.816416       -22.2158
 151   2.0000      -0.813172       -22.1275
 152   2.0000      -0.810341       -22.0505
 153   2.0000      -0.798392       -21.7253
 154   2.0000      -0.791619       -21.5410
 155   2.0000      -0.784778       -21.3549
 156   2.0000      -0.774707       -21.0809
 157   2.0000      -0.763144       -20.7662
 158   2.0000      -0.755282       -20.5523
 159   2.0000      -0.749494       -20.3948
 160   2.0000      -0.728344       -19.8192
 161   2.0000      -0.713197       -19.4071
 162   2.0000      -0.709374       -19.3030
 163   2.0000      -0.707996       -19.2656
 164   2.0000      -0.701416       -19.0865
 165   2.0000      -0.695745       -18.9322
 166   2.0000      -0.694790       -18.9062
 167   2.0000      -0.690606       -18.7923
 168   2.0000      -0.688577       -18.7371
 169   2.0000      -0.679859       -18.4999
 170   2.0000      -0.673669       -18.3315
 171   2.0000      -0.668264       -18.1844
 172   2.0000      -0.663000       -18.0411
 173   2.0000      -0.657945       -17.9036
 174   2.0000      -0.651217       -17.7205
 175   2.0000      -0.646027       -17.5793
 176   2.0000      -0.645718       -17.5709
 177   2.0000      -0.632724       -17.2173
 178   2.0000      -0.631709       -17.1897
 179   2.0000      -0.628038       -17.0898
 180   2.0000      -0.625611       -17.0237
 181   2.0000      -0.622149       -16.9295
 182   2.0000      -0.617703       -16.8086
 183   2.0000      -0.612200       -16.6588
 184   2.0000      -0.611458       -16.6386
 185   2.0000      -0.609067       -16.5736
 186   2.0000      -0.601898       -16.3785
 187   2.0000      -0.594688       -16.1823
 188   2.0000      -0.593227       -16.1425
 189   2.0000      -0.590966       -16.0810
 190   2.0000      -0.576178       -15.6786
 191   2.0000      -0.569536       -15.4979
 192   2.0000      -0.566857       -15.4250
 193   2.0000      -0.566721       -15.4213
 194   2.0000      -0.555800       -15.1241
 195   2.0000      -0.552068       -15.0225
 196   2.0000      -0.550077       -14.9684
 197   2.0000      -0.546785       -14.8788
 198   2.0000      -0.542602       -14.7649
 199   2.0000      -0.540198       -14.6995
 200   2.0000      -0.539399       -14.6778
 201   2.0000      -0.534707       -14.5501
 202   2.0000      -0.529896       -14.4192
 203   2.0000      -0.526201       -14.3187
 204   2.0000      -0.525761       -14.3067
 205   2.0000      -0.524070       -14.2607
 206   2.0000      -0.522995       -14.2314
 207   2.0000      -0.516438       -14.0530
 208   2.0000      -0.515659       -14.0318
 209   2.0000      -0.513767       -13.9803
 210   2.0000      -0.510970       -13.9042
 211   2.0000      -0.509541       -13.8653
 212   2.0000      -0.506274       -13.7764
 213   2.0000      -0.503609       -13.7039
 214   2.0000      -0.501643       -13.6504
 215   2.0000      -0.497784       -13.5454
 216   2.0000      -0.495339       -13.4789
 217   2.0000      -0.491091       -13.3633
 218   2.0000      -0.490825       -13.3560
 219   2.0000      -0.490082       -13.3358
 220   2.0000      -0.487023       -13.2526
 221   2.0000      -0.485032       -13.1984
 222   2.0000      -0.483187       -13.1482
 223   2.0000      -0.476830       -12.9752
 224   2.0000      -0.475132       -12.9290
 225   2.0000      -0.471247       -12.8233
 226   2.0000      -0.470172       -12.7940
 227   2.0000      -0.465309       -12.6617
 228   2.0000      -0.460180       -12.5221
 229   2.0000      -0.459891       -12.5143
 230   2.0000      -0.456888       -12.4325
 231   2.0000      -0.455069       -12.3831
 232   2.0000      -0.450894       -12.2694
 233   2.0000      -0.449004       -12.2180
 234   2.0000      -0.447893       -12.1878
 235   2.0000      -0.447416       -12.1748
 236   2.0000      -0.446436       -12.1481
 237   2.0000      -0.444364       -12.0917
 238   2.0000      -0.443422       -12.0661
 239   2.0000      -0.439570       -11.9613
 240   2.0000      -0.439461       -11.9583
 241   2.0000      -0.436398       -11.8750
 242   2.0000      -0.435030       -11.8378
 243   2.0000      -0.433011       -11.7828
 244   2.0000      -0.431567       -11.7435
 245   2.0000      -0.427903       -11.6438
 246   2.0000      -0.426756       -11.6126
 247   2.0000      -0.425490       -11.5782
 248   2.0000      -0.422572       -11.4988
 249   2.0000      -0.421374       -11.4662
 250   2.0000      -0.419000       -11.4016
 251   2.0000      -0.415482       -11.3058
 252   2.0000      -0.414403       -11.2765
 253   2.0000      -0.413733       -11.2582
 254   2.0000      -0.409962       -11.1556
 255   2.0000      -0.406587       -11.0638
 256   2.0000      -0.404555       -11.0085
 257   2.0000      -0.404047       -10.9947
 258   2.0000      -0.400366       -10.8945
 259   2.0000      -0.388532       -10.5725
 260   2.0000      -0.388110       -10.5610
 261   2.0000      -0.385198       -10.4818
 262   2.0000      -0.382606       -10.4112
 263   2.0000      -0.381165       -10.3720
 264   2.0000      -0.377470       -10.2715
 265   2.0000      -0.376264       -10.2387
 266   2.0000      -0.375399       -10.2151
 267   2.0000      -0.373444       -10.1619
 268   2.0000      -0.372009       -10.1229
 269   2.0000      -0.362188        -9.8556
 270   2.0000      -0.354897        -9.6572
 271   2.0000      -0.347700        -9.4614
 272   2.0000      -0.342744        -9.3265
 273   2.0000      -0.338288        -9.2053
 274   2.0000      -0.332811        -9.0562
 275   2.0000      -0.327150        -8.9022
 276   2.0000      -0.320933        -8.7330
 277   2.0000      -0.316176        -8.6036
 278   2.0000      -0.313611        -8.5338
 279   2.0000      -0.313029        -8.5180
 280   2.0000      -0.303500        -8.2586
 281   2.0000      -0.300293        -8.1714
 282   2.0000      -0.293520        -7.9871
 283   2.0000      -0.286161        -7.7868
 284   2.0000      -0.267844        -7.2884
 285   2.0000      -0.264733        -7.2037
 286   2.0000      -0.235439        -6.4066
 287   2.0000      -0.193545        -5.2666
 288   0.0000      -0.085612        -2.3296
 289   0.0000      -0.084168        -2.2903
 290   0.0000      -0.065551        -1.7837
 291   0.0000      -0.055634        -1.5139
 292   0.0000      -0.031056        -0.8451

MULLIKEN ATOMIC CHARGES
-----------------------
   0 C :    0.309871
   1 C :   -0.341632
   2 C :   -0.184199
   3 N :    0.150004
   4 C :   -0.196969
   5 N :    0.161226
   6 C :    0.018324
   7 C :   -0.019028
   8 C :   -0.071806
   9 C :    0.120658
  10 C :   -0.088831
  11 C :   -0.025290
  12 S :    0.186771
  13 C :   -0.123068
  14 C :    0.036713
  15 Br:    0.024908
  16 C :    0.138302
  17 O :   -0.127478
  18 C :   -0.098901
  19 C :   -0.080679
  20 C :    0.037850
  21 C :   -0.081808
  22 S :    0.150625
  23 C :   -0.155784
  24 C :    0.177207
  25 C :   -0.110763
  26 C :    0.058286
  27 C :    0.013936
  28 C :   -0.121924
  29 C :    0.009512
  30 C :    0.035434
  31 C :    0.119161
  32 C :    0.088567
  33 C :   -0.130807
  34 S :    0.125981
  35 C :   -0.146205
  36 C :   -0.032125
  37 C :    0.056587
  38 C :   -0.206684
  39 S :    0.181834
  40 C :   -0.166784
  41 C :    0.069120
  42 C :   -0.009597
  43 S :    0.068173
  44 C :    0.023846
  45 N :   -0.047315
  46 C :    0.030477
  47 C :   -0.001816
  48 C :    0.010390
  49 C :   -0.027372
  50 C :    0.037321
  51 C :    0.017110
  52 C :   -0.024346
  53 S :    0.057508
  54 C :   -0.038255
  55 C :    0.040451
  56 C :    0.025099
  57 C :   -0.025473
  58 S :    0.077152
  59 C :    0.040041
  60 C :   -0.220516
  61 S :    0.143508
  62 C :   -0.144484
  63 C :    0.127840
  64 C :    0.186669
  65 O :   -0.190766
  66 C :    0.246323
  67 N :    0.290606
  68 O :   -0.253895
  69 O :   -0.230212
  70 C :   -0.079570
  71 H :   -0.009105
  72 H :   -0.005732
  73 H :   -0.001240
  74 H :    0.039967
  75 H :    0.026329
  76 H :    0.007860
  77 H :   -0.005434
  78 H :    0.021472
  79 H :    0.016475
  80 H :    0.017678
  81 H :    0.003746
  82 H :    0.006655
  83 H :    0.003396
  84 H :    0.011850
  85 H :    0.022663
  86 H :    0.025397
  87 H :   -0.017764
  88 H :   -0.019521
  89 H :    0.039643
  90 H :   -0.002684
  91 H :   -0.002567
  92 H :   -0.017418
  93 H :   -0.013465
  94 H :   -0.017162
  95 H :   -0.015543
  96 H :   -0.017765
  97 H :   -0.026925
  98 H :    0.030479
  99 H :    0.009709
Sum of atomic charges:    0.0000000

LOEWDIN ATOMIC CHARGES
----------------------
   0 C :    0.075764
   1 C :   -0.139199
   2 C :   -0.018615
   3 N :   -0.052173
   4 C :   -0.023038
   5 N :   -0.050127
   6 C :   -0.022440
   7 C :   -0.049529
   8 C :    0.021686
   9 C :   -0.031545
  10 C :   -0.144246
  11 C :   -0.009391
  12 S :    0.432423
  13 C :   -0.270950
  14 C :   -0.070443
  15 Br:    0.137557
  16 C :    0.076359
  17 O :   -0.123656
  18 C :   -0.098850
  19 C :    0.075599
  20 C :   -0.068845
  21 C :   -0.141863
  22 S :    0.437901
  23 C :   -0.176373
  24 C :   -0.028858
  25 C :   -0.013996
  26 C :   -0.030579
  27 C :   -0.047131
  28 C :   -0.010488
  29 C :   -0.031094
  30 C :   -0.054416
  31 C :   -0.037550
  32 C :   -0.059060
  33 C :   -0.169299
  34 S :    0.415244
  35 C :   -0.176749
  36 C :   -0.028448
  37 C :   -0.039228
  38 C :   -0.197375
  39 S :    0.490885
  40 C :   -0.173213
  41 C :   -0.067528
  42 C :   -0.206672
  43 S :    0.378545
  44 C :   -0.101523
  45 N :   -0.079584
  46 C :   -0.042413
  47 C :   -0.035507
  48 C :   -0.047909
  49 C :   -0.154897
  50 C :   -0.025368
  51 C :   -0.049755
  52 C :   -0.171234
  53 S :    0.406635
  54 C :   -0.190178
  55 C :   -0.028148
  56 C :   -0.043249
  57 C :   -0.139828
  58 S :    0.400451
  59 C :   -0.099947
  60 C :   -0.193250
  61 S :    0.469767
  62 C :   -0.196417
  63 C :   -0.080910
  64 C :    0.005216
  65 O :   -0.000352
  66 C :    0.023075
  67 N :    0.279894
  68 O :   -0.216701
  69 O :   -0.195584
  70 C :   -0.006133
  71 H :    0.041626
  72 H :    0.041074
  73 H :    0.039396
  74 H :    0.047790
  75 H :    0.028030
  76 H :    0.024950
  77 H :    0.026232
  78 H :    0.022577
  79 H :    0.026799
  80 H :    0.026711
  81 H :    0.026189
  82 H :    0.023142
  83 H :    0.022262
  84 H :    0.018580
  85 H :    0.025894
  86 H :    0.023335
  87 H :    0.013955
  88 H :    0.028719
  89 H :    0.018774
  90 H :    0.012457
  91 H :    0.032286
  92 H :    0.034301
  93 H :    0.032460
  94 H :    0.030182
  95 H :    0.031519
  96 H :    0.030463
  97 H :    0.031595
  98 H :    0.027488
  99 H :    0.046069

  Mayer bond orders larger than 0.100000
B(  0-C ,  1-C ) :   1.6542 B(  0-C ,  6-C ) :   1.0127 B(  0-C , 18-C ) :   1.0392
B(  1-C ,  2-C ) :   1.1333 B(  1-C ,  4-C ) :   1.1523 B(  2-C ,  3-N ) :   2.9751
B(  4-C ,  5-N ) :   2.9681 B(  6-C ,  7-C ) :   1.2718 B(  6-C , 11-C ) :   1.4022
B(  7-C ,  8-C ) :   1.4258 B(  7-C , 16-C ) :   0.9350 B(  8-C ,  9-C ) :   1.2428
B(  8-C , 71-H ) :   1.0185 B(  9-C , 10-C ) :   1.3041 B(  9-C , 14-C ) :   1.1619
B( 10-C , 11-C ) :   1.3316 B( 10-C , 12-S ) :   1.0846 B( 11-C , 72-H ) :   0.9823
B( 12-S , 13-C ) :   1.0864 B( 13-C , 14-C ) :   1.6185 B( 13-C , 15-Br) :   1.0197
B( 14-C , 73-H ) :   1.0006 B( 16-C , 17-O ) :   2.2393 B( 16-C , 18-C ) :   0.9324
B( 18-C , 19-C ) :   1.6544 B( 19-C , 20-C ) :   1.0699 B( 19-C , 74-H ) :   0.9466
B( 20-C , 21-C ) :   1.5401 B( 20-C , 24-C ) :   1.1289 B( 21-C , 22-S ) :   1.1618
B( 21-C , 75-H ) :   0.9690 B( 22-S , 23-C ) :   1.0595 B( 23-C , 24-C ) :   1.3948
B( 23-C , 35-C ) :   1.3812 B( 24-C , 25-C ) :   1.2525 B( 25-C , 26-C ) :   1.0846
B( 25-C , 28-C ) :   1.5186 B( 26-C , 27-C ) :   1.1025 B( 26-C , 76-H ) :   0.9103
B( 26-C , 77-H ) :   0.9080 B( 27-C , 78-H ) :   0.9601 B( 27-C , 79-H ) :   0.9645
B( 27-C , 80-H ) :   0.9592 B( 28-C , 29-C ) :   1.0509 B( 28-C , 31-C ) :   1.2638
B( 29-C , 30-C ) :   1.1009 B( 29-C , 81-H ) :   0.9198 B( 29-C , 82-H ) :   0.9271
B( 30-C , 83-H ) :   0.9582 B( 30-C , 84-H ) :   0.9613 B( 30-C , 85-H ) :   0.9643
B( 31-C , 32-C ) :   1.1363 B( 31-C , 35-C ) :   1.3728 B( 32-C , 33-C ) :   1.5968
B( 32-C , 36-C ) :   1.0589 B( 33-C , 34-S ) :   1.1138 B( 33-C , 86-H ) :   0.9585
B( 34-S , 35-C ) :   1.0809 B( 36-C , 37-C ) :   1.7148 B( 36-C , 87-H ) :   0.9596
B( 37-C , 38-C ) :   1.1387 B( 37-C , 88-H ) :   0.9587 B( 38-C , 39-S ) :   1.1190
B( 38-C , 40-C ) :   0.1087 B( 38-C , 42-C ) :   1.4826 B( 39-S , 40-C ) :   1.1329
B( 40-C , 41-C ) :   1.3592 B( 40-C , 46-C ) :   1.2404 B( 41-C , 42-C ) :   1.2775
B( 41-C , 45-N ) :   1.3032 B( 42-C , 43-S ) :   1.0519 B( 43-S , 44-C ) :   1.0850
B( 43-S , 45-N ) :   0.1054 B( 44-C , 45-N ) :   1.7765 B( 44-C , 89-H ) :   0.9636
B( 46-C , 47-C ) :   1.5488 B( 46-C , 90-H ) :   0.9229 B( 47-C , 48-C ) :   1.2472
B( 47-C , 91-H ) :   0.9566 B( 48-C , 49-C ) :   1.5130 B( 48-C , 92-H ) :   0.9653
B( 49-C , 50-C ) :   1.1744 B( 49-C , 53-S ) :   1.0404 B( 50-C , 51-C ) :   1.5592
B( 50-C , 93-H ) :   0.9981 B( 51-C , 52-C ) :   1.2078 B( 51-C , 94-H ) :   0.9944
B( 52-C , 53-S ) :   1.0576 B( 52-C , 54-C ) :   1.4685 B( 54-C , 55-C ) :   1.2039
B( 54-C , 58-S ) :   1.0355 B( 55-C , 56-C ) :   1.5744 B( 55-C , 95-H ) :   0.9936
B( 56-C , 57-C ) :   1.1528 B( 56-C , 96-H ) :   0.9993 B( 57-C , 58-S ) :   1.0555
B( 57-C , 59-C ) :   1.5776 B( 59-C , 60-C ) :   1.1612 B( 59-C , 97-H ) :   0.9456
B( 60-C , 61-S ) :   1.1318 B( 60-C , 62-C ) :   0.1070 B( 60-C , 64-C ) :   1.4198
B( 61-S , 62-C ) :   1.1751 B( 62-C , 63-C ) :   1.4278 B( 62-C , 98-H ) :   0.9769
B( 63-C , 64-C ) :   1.2340 B( 63-C , 70-C ) :   1.0704 B( 64-C , 65-O ) :   1.0837
B( 65-O , 66-C ) :   1.1236 B( 66-C , 67-N ) :   0.9242 B( 66-C , 70-C ) :   1.5637
B( 67-N , 68-O ) :   1.5214 B( 67-N , 69-O ) :   1.4860 B( 68-O , 69-O ) :   0.2729
B( 70-C , 99-H ) :   1.0261

-----------------------------------------------------------------------------
         ABSORPTION SPECTRUM VIA TRANSITION ELECTRIC DIPOLE MOMENTS
-----------------------------------------------------------------------------
State   Energy  Wavelength   fosc         T2         TX        TY        TZ
        (cm-1)    (nm)                  (au**2)     (au)      (au)      (au)
-----------------------------------------------------------------------------
   0    9311.0   1074.0   0.244584799   8.64791   0.03776  -2.21697   1.93171
   1   12344.3    810.1   0.606813486  16.18323  -1.17093   3.30399  -1.97377
   2   16178.5    618.1   0.000823871   0.01676  -0.11160   0.02211   0.06182
   3   18426.0    542.7   0.080959553   1.44648   1.01954  -0.31228  -0.55632
   4   20316.2    492.2   0.149288958   2.41914   1.32649  -0.56244  -0.58585
   5   21814.1    458.4   0.106834944   1.61232   0.97530  -0.81004  -0.07037
   6   22460.9    445.2   0.769910047  11.28466   2.59289  -2.09963  -0.39133
   7   22657.8    441.3   0.444063231   6.45212  -2.17432   0.90632   0.95029
   8   23069.2    433.5   0.509083905   7.26496  -1.86682  -0.59713   1.85024
   9   25780.4    387.9   0.135865139   1.73498  -1.11001   0.33249   0.62634
  10   26757.6    373.7   0.043415329   0.53416  -0.29565   0.39044  -0.54250
  11   27415.0    364.8   0.005084668   0.06106  -0.05478   0.21939   0.09963
  12   27563.5    362.8   0.007320945   0.08744  -0.22718   0.15902  -0.10266
  13   27870.6    358.8   0.061560682   0.72716   0.23181  -0.26788   0.77568
  14   28199.0    354.6   0.008960068   0.10461  -0.01306  -0.32232   0.02335
  15   28657.3    349.0   0.025709811   0.29535  -0.03892  -0.01055  -0.54196
  16   28849.3    346.6   0.433273141   4.94427   1.31332   1.79426   0.01005
  17   29064.8    344.1   0.150868870   1.70886  -0.13557  -1.21410   0.46524
  18   29643.5    337.3   0.059914526   0.66539   0.56402  -0.16215   0.56655
  19   30354.5    329.4   0.007084236   0.07683  -0.23600   0.14532   0.00433
  20   30585.4    327.0   0.007447519   0.08016  -0.20956  -0.03351   0.18741
  21   30733.9    325.4   0.067197877   0.71980   0.69710   0.31069   0.37058
  22   30838.7    324.3   0.044521119   0.47528   0.37308   0.16674  -0.55523
  23   31501.5    317.4   0.123123353   1.28672  -0.56229   0.89963  -0.40152
  24   31972.2    312.8   0.039875011   0.41059  -0.57487  -0.04181   0.27994
  25   32247.3    310.1   0.073282123   0.74813  -0.73559   0.13306   0.43513
  26   33074.4    302.3   0.005934983   0.05907   0.18525  -0.15662   0.01505
  27   33166.2    301.5   0.071784139   0.71254  -0.26763   0.62366  -0.50196
  28   33260.3    300.7   0.014741769   0.14591  -0.33133  -0.09903  -0.16226
  29   33494.1    298.6   0.037304844   0.36667   0.27347   0.31024  -0.44231
  30   34006.6    294.1   0.006928755   0.06708   0.20631  -0.11555   0.10564
  31   34127.9    293.0   0.041632514   0.40160   0.39462   0.27705   0.41125
  32   34146.4    292.9   0.443375158   4.27466   1.56163   1.04130   0.86697
  33   34236.4    292.1   0.029806271   0.28661  -0.52509   0.08344  -0.06265
  34   34342.8    291.2   0.251977529   2.41547   0.08028   1.37456  -0.72083
  35   34529.5    289.6   0.052588699   0.50139  -0.64865  -0.25497   0.12506
  36   35103.2    284.9   0.011007142   0.10323   0.04785   0.31632  -0.02967
  37   35591.5    281.0   0.079424114   0.73465  -0.19544   0.70363  -0.44872
  38   35720.6    280.0   0.240373098   2.21535   0.42224  -1.20447   0.76572
  39   36266.7    275.7   0.395759363   3.59252   0.51751   1.03464  -1.50141
  40   36856.8    271.3   0.004005395   0.03578   0.03850  -0.11196   0.14752
  41   36941.6    270.7   0.103518536   0.92253   0.32294   0.90320  -0.04969
  42   37324.2    267.9   0.037814286   0.33353  -0.10899  -0.31935   0.46869
  43   37489.0    266.7   0.005691080   0.04998   0.13280   0.03360  -0.17667
  44   37767.7    264.8   0.029123576   0.25386   0.33139  -0.36578   0.10124
  45   37771.9    264.7   0.009307329   0.08112  -0.07644   0.23369  -0.14375
  46   37980.9    263.3   0.161333779   1.39841   0.12357  -0.87329   0.78773
  47   38184.6    261.9   0.000580032   0.00500   0.03700  -0.06026   0.00085
  48   38656.4    258.7   0.002176094   0.01853   0.05239   0.04589  -0.11697
  49   38789.7    257.8   0.017716080   0.15036   0.28068  -0.25937   0.06560
  50   38931.1    256.9   0.010965703   0.09273   0.23702  -0.19105   0.00701
  51   39133.0    255.5   0.011443125   0.09627  -0.23082   0.08570   0.18880
  52   39166.0    255.3   0.002465355   0.02072   0.11068  -0.02083  -0.08966
  53   39438.4    253.6   0.301338961   2.51543  -1.05728   1.09642  -0.44209
  54   39741.8    251.6   0.018191676   0.15070  -0.06847  -0.25530   0.28431
  55   40041.6    249.7   0.124479985   1.02344  -0.54532  -0.70080   0.48472
  56   40279.8    248.3   0.002941348   0.02404   0.14371  -0.03764  -0.04438

FINAL SINGLE POINT ENERGY     -8350.127539600262

DIPOLE MOMENT
-------------
                                X             Y             Z
Electronic contribution:     20.69608    -146.87857       0.16573
Nuclear contribution   :    -22.53412     147.89735      -2.39257
                        -----------------------------------------
Total Dipole Moment    :     -1.83804       1.01877      -2.22684
                        -----------------------------------------
Magnitude (a.u.)       :      3.06188
Magnitude (Debye)      :      7.78268

Rotational constants in cm-1:     0.001351     0.000215     0.000198
Rotational constants in MHz :    40.508158     6.432000     5.932087

                             ****ORCA TERMINATED NORMALLY****
TOTAL RUN TIME: 0 days 0 hours 10 minutes 59 seconds 562 msec
