                         Program Version 4.2.0 -  RELEASE  -
|  1> # ORCA input file
|  2> # SCF done       -176.979885608740          0.000990497655
|  3> ! CAM-B3LYP def2-SVP def2/J RIJCOSX Grid4 TightSCF
|  4> %maxcore 5000
|  5> %tddft
|  6>     Mode sTDDFT
|  7>     Ethresh 5.0
|  8>     maxcore 5000
|  9> end
| 10>
| 11> %pal
| 12>   nprocs 6
| 13>   end
| 14> * xyz 0 1
| 15>    C      -13.67971         1.53680        -3.87617
| 16>    C      -14.66974         1.49550        -4.82002
| 17>    C      -15.39994         0.33258        -5.14667
| 18>    N      -16.03202        -0.57924        -5.44050
| 19>    C      -15.08847         2.58826        -5.61029
| 20>    N      -15.48681         3.42260        -6.29060
| 21>    C      -13.19085         0.40272        -3.10318
| 22>    C      -12.08750         0.82564        -2.32111
| 23>    C      -11.39645        -0.02453        -1.49075
| 24>    C      -11.81335        -1.35717        -1.42870
| 25>    C      -12.92139        -1.77031        -2.20805
| 26>    C      -13.61951        -0.91082        -3.04709
| 27>    S      -13.27198        -3.45526        -1.97649
| 28>    C      -11.94210        -3.58262        -0.85556
| 29>    C      -11.26949        -2.42327        -0.66146
| 30>   Br      -11.56895        -5.23142        -0.04553
| 31>    C      -11.82697         2.25173        -2.56429
| 32>    O      -10.97492         2.92657        -2.02003
| 33>    C      -12.86946         2.69227        -3.52679
| 34>    C      -13.11439         3.98182        -3.87950
| 35>    C      -12.25051         5.08218        -3.62217
| 36>    C      -10.86483         5.11286        -3.56910
| 37>    C      -10.04268         3.99401        -4.11827
| 38>    O      -10.43195         3.30445        -5.02217
| 39>    O       -8.81790         3.83958        -3.61192
| 40>    C      -10.36941         6.38510        -3.18532
| 41>    C      -11.38193         7.29443        -3.00988
| 42>    S      -12.93416         6.64146        -3.27721
| 43>    C       -8.97204         6.78015        -2.95117
| 44>    C       -8.24972         6.43769        -1.88345
| 45>    C       -8.72735         5.51888        -0.79951
| 46>    C       -6.92738         7.13295        -1.62255
| 47>    N       -7.20634         8.52122        -1.28572
| 48>    C       -7.39348         9.43015        -2.28161
| 49>    C       -8.44118        10.28968        -2.32844
| 50>    C       -8.64883        11.26469        -3.32574
| 51>    C       -9.88700        11.77736        -3.60688
| 52>    C      -10.24360        12.76862        -4.55195
| 53>    C      -11.58501        12.97893        -4.66585
| 54>    C      -12.36997        12.14269        -3.84018
| 55>    S      -11.34774        11.13463        -2.85318
| 56>    C      -13.74805        12.02627        -3.79522
| 57>    C      -14.71352        12.79083        -4.47863
| 58>    C      -15.99761        12.39503        -4.23605
| 59>    C      -16.10693        11.28582        -3.37002
| 60>    S      -14.52513        10.78344        -2.83356
| 61>    C      -17.27383        10.66057        -2.96974
| 62>    C      -17.30269         9.50422        -2.20312
| 63>    C      -18.41269         8.84506        -1.71139
| 64>    C      -19.77266         9.27123        -1.55048
| 65>    C      -20.22555        10.56417        -1.40369
| 66>    C      -21.57788        10.90910        -1.22470
| 67>    N      -22.66672        11.25358        -1.09599
| 68>    C      -19.38653        11.68971        -1.29712
| 69>    N      -18.75332        12.63771        -1.15273
| 70>    C      -20.58568         8.07283        -1.33984
| 71>    C      -19.71955         6.96103        -1.19246
| 72>    C      -18.32074         7.41422        -1.36484
| 73>    O      -17.31271         6.74136        -1.27997
| 74>    C      -20.18417         5.69362        -0.94476
| 75>    C      -21.56891         5.51231        -0.84500
| 76>    C      -22.42353         6.62668        -1.00358
| 77>    C      -21.95341         7.91232        -1.24879
| 78>    S      -24.09550         6.17872        -0.84697
| 79>    C      -23.62846         4.52176        -0.57129
| 80>    C      -22.29146         4.31250        -0.59603
| 81>   Br      -24.95139         3.22509        -0.27258
| 82>    H      -10.55674         0.32738        -0.91229
| 83>    H      -14.45774        -1.27362        -3.61791
| 84>    H      -10.42452        -2.32268        -0.00509
| 85>    H      -14.05666         4.23106        -4.35065
| 86>    H       -8.67276         4.40134        -2.83770
| 87>    H      -11.27931         8.32259        -2.72008
| 88>    H       -8.57014         7.49208        -3.66175
| 89>    H       -9.69651         5.07931        -1.02445
| 90>    H       -8.81660         6.06939         0.13787
| 91>    H       -8.00450         4.71961        -0.63204
| 92>    H       -6.28249         7.11440        -2.50307
| 93>    H       -6.40287         6.66670        -0.78595
| 94>    H       -7.88868         8.60045        -0.53894
| 95>    H       -6.64206         9.41850        -3.06026
| 96>    H       -9.22559        10.18048        -1.58859
| 97>    H       -7.81212        11.58595        -3.93043
| 98>    H       -9.49522        13.29553        -5.11727
| 99>    H      -12.03148        13.69061        -5.33647
|100>    H      -14.44380        13.61052        -5.12009
|101>    H      -16.86935        12.86285        -4.65714
|102>    H      -18.19747        11.09380        -3.32541
|103>    H      -16.35958         8.98930        -2.04250
|104>    H      -19.50328         4.86476        -0.83030
|105>    H      -22.64454         8.73040        -1.36620
|106>    H      -21.83122         3.35298        -0.44573
|107> *
|108>
|109>                          ****END OF INPUT****

CARTESIAN COORDINATES (ANGSTROEM)
---------------------------------
  C    -13.679710    1.536800   -3.876170
  C    -14.669740    1.495500   -4.820020
  C    -15.399940    0.332580   -5.146670
  N    -16.032020   -0.579240   -5.440500
  C    -15.088470    2.588260   -5.610290
  N    -15.486810    3.422600   -6.290600
  C    -13.190850    0.402720   -3.103180
  C    -12.087500    0.825640   -2.321110
  C    -11.396450   -0.024530   -1.490750
  C    -11.813350   -1.357170   -1.428700
  C    -12.921390   -1.770310   -2.208050
  C    -13.619510   -0.910820   -3.047090
  S    -13.271980   -3.455260   -1.976490
  C    -11.942100   -3.582620   -0.855560
  C    -11.269490   -2.423270   -0.661460
  Br   -11.568950   -5.231420   -0.045530
  C    -11.826970    2.251730   -2.564290
  O    -10.974920    2.926570   -2.020030
  C    -12.869460    2.692270   -3.526790
  C    -13.114390    3.981820   -3.879500
  C    -12.250510    5.082180   -3.622170
  C    -10.864830    5.112860   -3.569100
  C    -10.042680    3.994010   -4.118270
  O    -10.431950    3.304450   -5.022170
  O     -8.817900    3.839580   -3.611920
  C    -10.369410    6.385100   -3.185320
  C    -11.381930    7.294430   -3.009880
  S    -12.934160    6.641460   -3.277210
  C     -8.972040    6.780150   -2.951170
  C     -8.249720    6.437690   -1.883450
  C     -8.727350    5.518880   -0.799510
  C     -6.927380    7.132950   -1.622550
  N     -7.206340    8.521220   -1.285720
  C     -7.393480    9.430150   -2.281610
  C     -8.441180   10.289680   -2.328440
  C     -8.648830   11.264690   -3.325740
  C     -9.887000   11.777360   -3.606880
  C    -10.243600   12.768620   -4.551950
  C    -11.585010   12.978930   -4.665850
  C    -12.369970   12.142690   -3.840180
  S    -11.347740   11.134630   -2.853180
  C    -13.748050   12.026270   -3.795220
  C    -14.713520   12.790830   -4.478630
  C    -15.997610   12.395030   -4.236050
  C    -16.106930   11.285820   -3.370020
  S    -14.525130   10.783440   -2.833560
  C    -17.273830   10.660570   -2.969740
  C    -17.302690    9.504220   -2.203120
  C    -18.412690    8.845060   -1.711390
  C    -19.772660    9.271230   -1.550480
  C    -20.225550   10.564170   -1.403690
  C    -21.577880   10.909100   -1.224700
  N    -22.666720   11.253580   -1.095990
  C    -19.386530   11.689710   -1.297120
  N    -18.753320   12.637710   -1.152730
  C    -20.585680    8.072830   -1.339840
  C    -19.719550    6.961030   -1.192460
  C    -18.320740    7.414220   -1.364840
  O    -17.312710    6.741360   -1.279970
  C    -20.184170    5.693620   -0.944760
  C    -21.568910    5.512310   -0.845000
  C    -22.423530    6.626680   -1.003580
  C    -21.953410    7.912320   -1.248790
  S    -24.095500    6.178720   -0.846970
  C    -23.628460    4.521760   -0.571290
  C    -22.291460    4.312500   -0.596030
  Br   -24.951390    3.225090   -0.272580
  H    -10.556740    0.327380   -0.912290
  H    -14.457740   -1.273620   -3.617910
  H    -10.424520   -2.322680   -0.005090
  H    -14.056660    4.231060   -4.350650
  H     -8.672760    4.401340   -2.837700
  H    -11.279310    8.322590   -2.720080
  H     -8.570140    7.492080   -3.661750
  H     -9.696510    5.079310   -1.024450
  H     -8.816600    6.069390    0.137870
  H     -8.004500    4.719610   -0.632040
  H     -6.282490    7.114400   -2.503070
  H     -6.402870    6.666700   -0.785950
  H     -7.888680    8.600450   -0.538940
  H     -6.642060    9.418500   -3.060260
  H     -9.225590   10.180480   -1.588590
  H     -7.812120   11.585950   -3.930430
  H     -9.495220   13.295530   -5.117270
  H    -12.031480   13.690610   -5.336470
  H    -14.443800   13.610520   -5.120090
  H    -16.869350   12.862850   -4.657140
  H    -18.197470   11.093800   -3.325410
  H    -16.359580    8.989300   -2.042500
  H    -19.503280    4.864760   -0.830300
  H    -22.644540    8.730400   -1.366200
  H    -21.831220    3.352980   -0.445730

 Total Charge           Charge          ....    0
 Multiplicity           Mult            ....    1
 Number of Electrons    NEL             ....  548
 Basis Dimension        Dim             .... 1119

ORBITAL ENERGIES
----------------

  NO   OCC          E(Eh)            E(eV)
   0   2.0000    -482.887104    -13140.0261
   1   2.0000    -482.873606    -13139.6588
   2   2.0000     -88.977738     -2421.2073
   3   2.0000     -88.977226     -2421.1934
   4   2.0000     -88.967802     -2420.9370
   5   2.0000     -88.961077     -2420.7540
   6   2.0000     -88.959722     -2420.7171
   7   2.0000     -62.564826     -1702.4755
   8   2.0000     -62.551309     -1702.1077
   9   2.0000     -56.398777     -1534.6887
  10   2.0000     -56.396060     -1534.6148
  11   2.0000     -56.396026     -1534.6139
  12   2.0000     -56.385244     -1534.3205
  13   2.0000     -56.382560     -1534.2475
  14   2.0000     -56.382518     -1534.2463
  15   2.0000     -19.255283      -523.9629
  16   2.0000     -19.223590      -523.1005
  17   2.0000     -19.193116      -522.2712
  18   2.0000     -19.192174      -522.2456
  19   2.0000     -14.457633      -393.4122
  20   2.0000     -14.414697      -392.2438
  21   2.0000     -14.413504      -392.2114
  22   2.0000     -14.395858      -391.7312
  23   2.0000     -14.393183      -391.6584
  24   2.0000     -10.402671      -283.0711
  25   2.0000     -10.373879      -282.2876
  26   2.0000     -10.360626      -281.9270
  27   2.0000     -10.344419      -281.4860
  28   2.0000     -10.344206      -281.4802
  29   2.0000     -10.343491      -281.4607
  30   2.0000     -10.342512      -281.4341
  31   2.0000     -10.340302      -281.3739
  32   2.0000     -10.337603      -281.3005
  33   2.0000     -10.335592      -281.2458
  34   2.0000     -10.327638      -281.0293
  35   2.0000     -10.325315      -280.9661
  36   2.0000     -10.321929      -280.8740
  37   2.0000     -10.320491      -280.8348
  38   2.0000     -10.319928      -280.8195
  39   2.0000     -10.319035      -280.7952
  40   2.0000     -10.318906      -280.7917
  41   2.0000     -10.318818      -280.7893
  42   2.0000     -10.317308      -280.7482
  43   2.0000     -10.315814      -280.7076
  44   2.0000     -10.313139      -280.6348
  45   2.0000     -10.312484      -280.6170
  46   2.0000     -10.309787      -280.5436
  47   2.0000     -10.309447      -280.5343
  48   2.0000     -10.309321      -280.5309
  49   2.0000     -10.308809      -280.5170
  50   2.0000     -10.308142      -280.4988
  51   2.0000     -10.306515      -280.4545
  52   2.0000     -10.304603      -280.4025
  53   2.0000     -10.303749      -280.3793
  54   2.0000     -10.303436      -280.3707
  55   2.0000     -10.302897      -280.3561
  56   2.0000     -10.302155      -280.3359
  57   2.0000     -10.300389      -280.2878
  58   2.0000     -10.299874      -280.2738
  59   2.0000     -10.298517      -280.2369
  60   2.0000     -10.298275      -280.2303
  61   2.0000     -10.296970      -280.1948
  62   2.0000     -10.295291      -280.1491
  63   2.0000     -10.294443      -280.1260
  64   2.0000     -10.291575      -280.0480
  65   2.0000     -10.290832      -280.0278
  66   2.0000     -10.290075      -280.0072
  67   2.0000     -10.289206      -279.9835
  68   2.0000     -10.288599      -279.9670
  69   2.0000     -10.287824      -279.9459
  70   2.0000     -10.284397      -279.8527
  71   2.0000     -10.282984      -279.8142
  72   2.0000     -10.276154      -279.6284
  73   2.0000     -10.274179      -279.5746
  74   2.0000     -10.270020      -279.4614
  75   2.0000      -8.794261      -239.3040
  76   2.0000      -8.780717      -238.9355
  77   2.0000      -8.073499      -219.6911
  78   2.0000      -8.073188      -219.6826
  79   2.0000      -8.063479      -219.4184
  80   2.0000      -8.057086      -219.2445
  81   2.0000      -8.055870      -219.2114
  82   2.0000      -6.630567      -180.4269
  83   2.0000      -6.616948      -180.0563
  84   2.0000      -6.615987      -180.0301
  85   2.0000      -6.615803      -180.0251
  86   2.0000      -6.602462      -179.6621
  87   2.0000      -6.602330      -179.6585
  88   2.0000      -6.042872      -164.4349
  89   2.0000      -6.042544      -164.4260
  90   2.0000      -6.038599      -164.3186
  91   2.0000      -6.038244      -164.3090
  92   2.0000      -6.036190      -164.2531
  93   2.0000      -6.034423      -164.2050
  94   2.0000      -6.033148      -164.1703
  95   2.0000      -6.029164      -164.0619
  96   2.0000      -6.026783      -163.9971
  97   2.0000      -6.025459      -163.9611
  98   2.0000      -6.024626      -163.9384
  99   2.0000      -6.022518      -163.8810
 100   2.0000      -6.021508      -163.8536
 101   2.0000      -6.018297      -163.7662
 102   2.0000      -6.017047      -163.7322
 103   2.0000      -2.746442       -74.7345
 104   2.0000      -2.742360       -74.6234
 105   2.0000      -2.742182       -74.6186
 106   2.0000      -2.732859       -74.3649
 107   2.0000      -2.730612       -74.3037
 108   2.0000      -2.730603       -74.3035
 109   2.0000      -2.728748       -74.2530
 110   2.0000      -2.728632       -74.2498
 111   2.0000      -2.717135       -73.9370
 112   2.0000      -2.717130       -73.9369
 113   2.0000      -1.181488       -32.1499
 114   2.0000      -1.138092       -30.9691
 115   2.0000      -1.106402       -30.1067
 116   2.0000      -1.093195       -29.7473
 117   2.0000      -1.062766       -28.9193
 118   2.0000      -1.024011       -27.8647
 119   2.0000      -1.013336       -27.5743
 120   2.0000      -1.012758       -27.5585
 121   2.0000      -1.006332       -27.3837
 122   2.0000      -1.005561       -27.3627
 123   2.0000      -0.994504       -27.0618
 124   2.0000      -0.992578       -27.0094
 125   2.0000      -0.989978       -26.9387
 126   2.0000      -0.988943       -26.9105
 127   2.0000      -0.973558       -26.4919
 128   2.0000      -0.970322       -26.4038
 129   2.0000      -0.944866       -25.7111
 130   2.0000      -0.938091       -25.5268
 131   2.0000      -0.927367       -25.2349
 132   2.0000      -0.920533       -25.0490
 133   2.0000      -0.909629       -24.7523
 134   2.0000      -0.904974       -24.6256
 135   2.0000      -0.900306       -24.4986
 136   2.0000      -0.890920       -24.2432
 137   2.0000      -0.887434       -24.1483
 138   2.0000      -0.877279       -23.8720
 139   2.0000      -0.871174       -23.7059
 140   2.0000      -0.869035       -23.6476
 141   2.0000      -0.865857       -23.5612
 142   2.0000      -0.861477       -23.4420
 143   2.0000      -0.851740       -23.1770
 144   2.0000      -0.836991       -22.7757
 145   2.0000      -0.832368       -22.6499
 146   2.0000      -0.830168       -22.5900
 147   2.0000      -0.825376       -22.4596
 148   2.0000      -0.812980       -22.1223
 149   2.0000      -0.804104       -21.8808
 150   2.0000      -0.796598       -21.6765
 151   2.0000      -0.779166       -21.2022
 152   2.0000      -0.766544       -20.8587
 153   2.0000      -0.759568       -20.6689
 154   2.0000      -0.753246       -20.4969
 155   2.0000      -0.741015       -20.1641
 156   2.0000      -0.727954       -19.8086
 157   2.0000      -0.719600       -19.5813
 158   2.0000      -0.710045       -19.3213
 159   2.0000      -0.707298       -19.2466
 160   2.0000      -0.694897       -18.9091
 161   2.0000      -0.693329       -18.8664
 162   2.0000      -0.689235       -18.7550
 163   2.0000      -0.683480       -18.5984
 164   2.0000      -0.674880       -18.3644
 165   2.0000      -0.671765       -18.2796
 166   2.0000      -0.669343       -18.2137
 167   2.0000      -0.658927       -17.9303
 168   2.0000      -0.657836       -17.9006
 169   2.0000      -0.649678       -17.6786
 170   2.0000      -0.644538       -17.5388
 171   2.0000      -0.641422       -17.4540
 172   2.0000      -0.635889       -17.3034
 173   2.0000      -0.627265       -17.0687
 174   2.0000      -0.626083       -17.0366
 175   2.0000      -0.616950       -16.7881
 176   2.0000      -0.614572       -16.7234
 177   2.0000      -0.605606       -16.4794
 178   2.0000      -0.604097       -16.4383
 179   2.0000      -0.600070       -16.3287
 180   2.0000      -0.593468       -16.1491
 181   2.0000      -0.589477       -16.0405
 182   2.0000      -0.582796       -15.8587
 183   2.0000      -0.578242       -15.7348
 184   2.0000      -0.572653       -15.5827
 185   2.0000      -0.566814       -15.4238
 186   2.0000      -0.563742       -15.3402
 187   2.0000      -0.559992       -15.2382
 188   2.0000      -0.550163       -14.9707
 189   2.0000      -0.548170       -14.9165
 190   2.0000      -0.545435       -14.8420
 191   2.0000      -0.541518       -14.7355
 192   2.0000      -0.540196       -14.6995
 193   2.0000      -0.534884       -14.5549
 194   2.0000      -0.531782       -14.4705
 195   2.0000      -0.527792       -14.3620
 196   2.0000      -0.527266       -14.3476
 197   2.0000      -0.526386       -14.3237
 198   2.0000      -0.520408       -14.1610
 199   2.0000      -0.519482       -14.1358
 200   2.0000      -0.517294       -14.0763
 201   2.0000      -0.515091       -14.0163
 202   2.0000      -0.514155       -13.9909
 203   2.0000      -0.512153       -13.9364
 204   2.0000      -0.510960       -13.9039
 205   2.0000      -0.509734       -13.8706
 206   2.0000      -0.506598       -13.7852
 207   2.0000      -0.502634       -13.6774
 208   2.0000      -0.499342       -13.5878
 209   2.0000      -0.496393       -13.5076
 210   2.0000      -0.493353       -13.4248
 211   2.0000      -0.491862       -13.3842
 212   2.0000      -0.491136       -13.3645
 213   2.0000      -0.486903       -13.2493
 214   2.0000      -0.484343       -13.1796
 215   2.0000      -0.481940       -13.1142
 216   2.0000      -0.480073       -13.0635
 217   2.0000      -0.478897       -13.0315
 218   2.0000      -0.477789       -13.0013
 219   2.0000      -0.474752       -12.9187
 220   2.0000      -0.474147       -12.9022
 221   2.0000      -0.470939       -12.8149
 222   2.0000      -0.468297       -12.7430
 223   2.0000      -0.466937       -12.7060
 224   2.0000      -0.459675       -12.5084
 225   2.0000      -0.454324       -12.3628
 226   2.0000      -0.452521       -12.3137
 227   2.0000      -0.447718       -12.1830
 228   2.0000      -0.447312       -12.1720
 229   2.0000      -0.447043       -12.1646
 230   2.0000      -0.443759       -12.0753
 231   2.0000      -0.442625       -12.0444
 232   2.0000      -0.440510       -11.9869
 233   2.0000      -0.439856       -11.9691
 234   2.0000      -0.436124       -11.8675
 235   2.0000      -0.434045       -11.8110
 236   2.0000      -0.430266       -11.7081
 237   2.0000      -0.430062       -11.7026
 238   2.0000      -0.425581       -11.5806
 239   2.0000      -0.425384       -11.5753
 240   2.0000      -0.423654       -11.5282
 241   2.0000      -0.423148       -11.5144
 242   2.0000      -0.417930       -11.3725
 243   2.0000      -0.416307       -11.3283
 244   2.0000      -0.412868       -11.2347
 245   2.0000      -0.407566       -11.0904
 246   2.0000      -0.405950       -11.0465
 247   2.0000      -0.402006       -10.9391
 248   2.0000      -0.394628       -10.7384
 249   2.0000      -0.392740       -10.6870
 250   2.0000      -0.390434       -10.6243
 251   2.0000      -0.389464       -10.5978
 252   2.0000      -0.382673       -10.4131
 253   2.0000      -0.376441       -10.2435
 254   2.0000      -0.375308       -10.2127
 255   2.0000      -0.368722       -10.0334
 256   2.0000      -0.363257        -9.8847
 257   2.0000      -0.359340        -9.7781
 258   2.0000      -0.357034        -9.7154
 259   2.0000      -0.355059        -9.6616
 260   2.0000      -0.347800        -9.4641
 261   2.0000      -0.345703        -9.4070
 262   2.0000      -0.339230        -9.2309
 263   2.0000      -0.336332        -9.1520
 264   2.0000      -0.327081        -8.9003
 265   2.0000      -0.322542        -8.7768
 266   2.0000      -0.317302        -8.6342
 267   2.0000      -0.313871        -8.5409
 268   2.0000      -0.299384        -8.1467
 269   2.0000      -0.297053        -8.0832
 270   2.0000      -0.287839        -7.8325
 271   2.0000      -0.283028        -7.7016
 272   2.0000      -0.277075        -7.5396
 273   2.0000      -0.223820        -6.0905
 274   0.0000      -0.103544        -2.8176
 275   0.0000      -0.091806        -2.4982
 276   0.0000      -0.065379        -1.7790
 277   0.0000      -0.053953        -1.4681
 278   0.0000      -0.035806        -0.9743

MULLIKEN ATOMIC CHARGES
-----------------------
   0 C :    0.295715
   1 C :   -0.329412
   2 C :   -0.186678
   3 N :    0.149632
   4 C :   -0.195712
   5 N :    0.160836
   6 C :    0.023604
   7 C :   -0.017202
   8 C :   -0.065194
   9 C :    0.119018
  10 C :   -0.088244
  11 C :   -0.021410
  12 S :    0.189735
  13 C :   -0.122639
  14 C :    0.036800
  15 Br:    0.025175
  16 C :    0.171303
  17 O :   -0.175729
  18 C :   -0.047156
  19 C :    0.031273
  20 C :   -0.194632
  21 C :    0.075000
  22 C :    0.138129
  23 O :   -0.177192
  24 O :   -0.138000
  25 C :    0.007762
  26 C :   -0.078166
  27 S :    0.200080
  28 C :   -0.030027
  29 C :   -0.291086
  30 C :    0.079288
  31 C :    0.214248
  32 N :   -0.134643
  33 C :    0.035382
  34 C :   -0.033776
  35 C :    0.016389
  36 C :   -0.047871
  37 C :    0.058799
  38 C :    0.018770
  39 C :   -0.032359
  40 S :    0.072337
  41 C :   -0.060601
  42 C :    0.040353
  43 C :    0.035614
  44 C :   -0.012819
  45 S :    0.092432
  46 C :   -0.001673
  47 C :    0.021692
  48 C :   -0.131299
  49 C :    0.287477
  50 C :   -0.350244
  51 C :   -0.179319
  52 N :    0.133727
  53 C :   -0.223515
  54 N :    0.155408
  55 C :    0.006777
  56 C :   -0.006595
  57 C :    0.139002
  58 O :   -0.166141
  59 C :   -0.075777
  60 C :    0.111483
  61 C :   -0.089002
  62 C :   -0.025006
  63 S :    0.176755
  64 C :   -0.125102
  65 C :    0.038988
  66 Br:    0.012428
  67 H :   -0.014687
  68 H :   -0.005369
  69 H :   -0.003708
  70 H :    0.029722
  71 H :    0.167208
  72 H :    0.010364
  73 H :    0.021001
  74 H :    0.058722
  75 H :    0.026171
  76 H :    0.041896
  77 H :    0.034776
  78 H :    0.015656
  79 H :    0.118087
  80 H :    0.014366
  81 H :    0.000850
  82 H :   -0.001411
  83 H :   -0.003258
  84 H :   -0.006500
  85 H :   -0.004702
  86 H :   -0.000431
  87 H :    0.008531
  88 H :    0.006943
  89 H :   -0.015870
  90 H :   -0.008366
  91 H :   -0.007177
Sum of atomic charges:   -0.0000000

LOEWDIN ATOMIC CHARGES
----------------------
   0 C :    0.077597
   1 C :   -0.130961
   2 C :   -0.016586
   3 N :   -0.051238
   4 C :   -0.021448
   5 N :   -0.044428
   6 C :   -0.015806
   7 C :   -0.048113
   8 C :    0.024933
   9 C :   -0.032597
  10 C :   -0.141571
  11 C :   -0.008681
  12 S :    0.435607
  13 C :   -0.271305
  14 C :   -0.070519
  15 Br:    0.138137
  16 C :    0.100788
  17 O :   -0.150845
  18 C :   -0.074521
  19 C :    0.062250
  20 C :   -0.168079
  21 C :   -0.077326
  22 C :    0.076956
  23 O :   -0.164717
  24 O :   -0.013551
  25 C :   -0.068345
  26 C :   -0.166010
  27 S :    0.504410
  28 C :   -0.036212
  29 C :   -0.058838
  30 C :   -0.061306
  31 C :    0.049465
  32 N :   -0.004256
  33 C :    0.054740
  34 C :   -0.119485
  35 C :   -0.009862
  36 C :   -0.171241
  37 C :   -0.007824
  38 C :   -0.046343
  39 C :   -0.144301
  40 S :    0.386572
  41 C :   -0.201011
  42 C :   -0.006181
  43 C :   -0.040994
  44 C :   -0.098239
  45 S :    0.392164
  46 C :   -0.072340
  47 C :    0.050623
  48 C :   -0.113205
  49 C :    0.068572
  50 C :   -0.158220
  51 C :   -0.020310
  52 N :   -0.068888
  53 C :   -0.024135
  54 N :   -0.066393
  55 C :   -0.015549
  56 C :   -0.050564
  57 C :    0.078524
  58 O :   -0.166773
  59 C :    0.017140
  60 C :   -0.037547
  61 C :   -0.145449
  62 C :   -0.016592
  63 S :    0.425931
  64 C :   -0.275936
  65 C :   -0.070550
  66 Br:    0.128121
  67 H :    0.039659
  68 H :    0.041560
  69 H :    0.038540
  70 H :    0.047293
  71 H :    0.081436
  72 H :    0.010759
  73 H :    0.034409
  74 H :    0.039943
  75 H :    0.038698
  76 H :    0.039021
  77 H :    0.037624
  78 H :    0.027628
  79 H :    0.077309
  80 H :    0.028706
  81 H :    0.019923
  82 H :    0.037706
  83 H :    0.037859
  84 H :    0.034727
  85 H :    0.035745
  86 H :    0.039377
  87 H :    0.038249
  88 H :    0.031368
  89 H :    0.038398
  90 H :    0.039553
  91 H :    0.037172

  Mayer bond orders larger than 0.100000
B(  0-C ,  1-C ) :   1.6529 B(  0-C ,  6-C ) :   1.0074 B(  0-C , 18-C ) :   1.0685
B(  1-C ,  2-C ) :   1.1393 B(  1-C ,  4-C ) :   1.1370 B(  2-C ,  3-N ) :   2.9703
B(  4-C ,  5-N ) :   2.9852 B(  6-C ,  7-C ) :   1.2705 B(  6-C , 11-C ) :   1.4062
B(  7-C ,  8-C ) :   1.4150 B(  7-C , 16-C ) :   0.9601 B(  8-C ,  9-C ) :   1.2504
B(  8-C , 67-H ) :   1.0164 B(  9-C , 10-C ) :   1.3016 B(  9-C , 14-C ) :   1.1606
B( 10-C , 11-C ) :   1.3293 B( 10-C , 12-S ) :   1.0889 B( 11-C , 68-H ) :   0.9810
B( 12-S , 13-C ) :   1.0855 B( 13-C , 14-C ) :   1.6204 B( 13-C , 15-Br) :   1.0196
B( 14-C , 69-H ) :   1.0005 B( 16-C , 17-O ) :   2.1288 B( 16-C , 18-C ) :   0.9460
B( 18-C , 19-C ) :   1.6482 B( 19-C , 20-C ) :   1.1271 B( 19-C , 70-H ) :   0.9306
B( 20-C , 21-C ) :   1.4668 B( 20-C , 27-S ) :   1.1671 B( 21-C , 22-C ) :   0.8814
B( 21-C , 25-C ) :   1.3169 B( 22-C , 23-O ) :   2.1849 B( 22-C , 24-O ) :   1.2536
B( 24-O , 71-H ) :   0.9537 B( 25-C , 26-C ) :   1.5330 B( 25-C , 28-C ) :   0.9601
B( 26-C , 27-S ) :   1.2018 B( 26-C , 72-H ) :   0.9663 B( 28-C , 29-C ) :   1.9015
B( 28-C , 73-H ) :   0.9434 B( 29-C , 30-C ) :   1.0712 B( 29-C , 31-C ) :   1.0027
B( 30-C , 74-H ) :   0.9450 B( 30-C , 75-H ) :   0.9388 B( 30-C , 76-H ) :   0.9431
B( 31-C , 32-N ) :   1.0248 B( 31-C , 77-H ) :   0.9402 B( 31-C , 78-H ) :   0.9440
B( 32-N , 33-C ) :   1.2359 B( 32-N , 79-H ) :   0.9366 B( 33-C , 34-C ) :   1.6102
B( 33-C , 80-H ) :   0.9726 B( 34-C , 35-C ) :   1.1619 B( 34-C , 81-H ) :   0.9536
B( 35-C , 36-C ) :   1.5866 B( 35-C , 82-H ) :   0.9821 B( 36-C , 37-C ) :   1.1538
B( 36-C , 40-S ) :   1.0101 B( 37-C , 38-C ) :   1.5805 B( 37-C , 83-H ) :   0.9968
B( 38-C , 39-C ) :   1.2012 B( 38-C , 84-H ) :   0.9935 B( 39-C , 40-S ) :   1.0854
B( 39-C , 41-C ) :   1.4642 B( 41-C , 42-C ) :   1.2259 B( 41-C , 45-S ) :   1.0330
B( 42-C , 43-C ) :   1.5354 B( 42-C , 85-H ) :   0.9950 B( 43-C , 44-C ) :   1.1910
B( 43-C , 86-H ) :   1.0012 B( 44-C , 45-S ) :   1.0896 B( 44-C , 46-C ) :   1.4807
B( 46-C , 47-C ) :   1.2462 B( 46-C , 87-H ) :   0.9627 B( 47-C , 48-C ) :   1.4993
B( 47-C , 88-H ) :   0.9395 B( 48-C , 49-C ) :   1.1061 B( 48-C , 57-C ) :   0.9730
B( 49-C , 50-C ) :   1.5864 B( 49-C , 55-C ) :   1.0034 B( 50-C , 51-C ) :   1.1361
B( 50-C , 53-C ) :   1.1684 B( 51-C , 52-N ) :   2.9724 B( 53-C , 54-N ) :   3.0131
B( 55-C , 56-C ) :   1.2756 B( 55-C , 62-C ) :   1.4262 B( 56-C , 57-C ) :   0.9182
B( 56-C , 59-C ) :   1.4357 B( 57-C , 58-O ) :   2.2412 B( 59-C , 60-C ) :   1.2435
B( 59-C , 89-H ) :   1.0155 B( 60-C , 61-C ) :   1.3203 B( 60-C , 65-C ) :   1.1608
B( 61-C , 62-C ) :   1.3152 B( 61-C , 63-S ) :   1.0812 B( 62-C , 90-H ) :   0.9817
B( 63-S , 64-C ) :   1.0853 B( 64-C , 65-C ) :   1.6223 B( 64-C , 66-Br) :   1.0118
B( 65-C , 91-H ) :   1.0000

-----------------------------------------------------------------------------
         ABSORPTION SPECTRUM VIA TRANSITION ELECTRIC DIPOLE MOMENTS
-----------------------------------------------------------------------------
State   Energy  Wavelength   fosc         T2         TX        TY        TZ
        (cm-1)    (nm)                  (au**2)     (au)      (au)      (au)
-----------------------------------------------------------------------------
   0   12295.9    813.3   1.289674862  34.52983   5.79298   0.58547  -0.79276
   1   16796.4    595.4   0.000431423   0.00846   0.08535   0.03344  -0.00728
   2   21880.5    457.0   0.016787692   0.25259   0.34827  -0.12657   0.33952
   3   23553.5    424.6   0.261404564   3.65370  -0.90778  -1.65769   0.28581
   4   23637.1    423.1   0.153895804   2.14342   0.73937   1.06585   0.67877
   5   24010.0    416.5   0.001047642   0.01436  -0.04882  -0.10908  -0.00907
   6   24774.1    403.6   0.069846579   0.92816  -0.79126  -0.43883  -0.33090
   7   26621.0    375.6   0.579406834   7.16532   0.02259   2.37638  -1.23191
   8   27024.8    370.0   0.166826537   2.03226   0.17779   1.38920  -0.26604
   9   27469.3    364.0   0.020520599   0.24593   0.01771   0.43518  -0.23715
  10   27731.3    360.6   0.027823169   0.33030   0.21201  -0.43615   0.30842
  11   27898.6    358.4   0.167714151   1.97908  -0.85949   0.44677  -1.02017
  12   28826.5    346.9   0.001126280   0.01286   0.03455  -0.10482  -0.02610
  13   29153.9    343.0   0.013025614   0.14709   0.07644  -0.35542   0.12216
  14   29699.5    336.7   0.016200970   0.17958  -0.08982   0.39732  -0.11683
  15   30477.3    328.1   0.131964943   1.42547  -0.10735  -1.10267   0.44505
  16   30748.0    325.2   0.003790386   0.04058   0.05144  -0.19306  -0.02576
  17   31099.9    321.5   0.002595278   0.02747   0.03699   0.11273   0.11574
  18   31277.8    319.7   0.379354670   3.99287  -0.06944   1.97570  -0.29099
  19   31997.0    312.5   0.331994028   3.41583  -0.75902  -1.63256   0.41769
  20   32142.1    311.1   0.353834879   3.62411   0.36983   1.85614  -0.20512
  21   32783.5    305.0   0.625606813   6.28235  -1.31217   1.40696  -1.60656
  22   32867.8    304.2   0.046753651   0.46830  -0.41041  -0.54685  -0.02861
  23   33253.6    300.7   0.094355462   0.93412  -0.39789  -0.83882   0.26868
  24   33278.6    300.5   0.007240837   0.07163   0.22318   0.14663   0.01799
  25   33428.5    299.1   0.010193164   0.10038   0.06440  -0.19939   0.23765
  26   33914.2    294.9   0.014384890   0.13964   0.01881   0.36290  -0.08709
  27   34318.3    291.4   0.037388492   0.35866  -0.17515  -0.52950   0.21822
  28   34444.6    290.3   0.004864114   0.04649   0.06260   0.18604  -0.08922
  29   34536.3    289.6   0.065258877   0.62207  -0.45406  -0.64289   0.05098
  30   35086.3    285.0   0.002666080   0.02502  -0.03509  -0.15018   0.03508
  31   35283.1    283.4   0.107148356   0.99976   0.32699  -0.93258   0.15206
  32   35390.9    282.6   0.014533116   0.13519   0.25020   0.08093  -0.25698
  33   35912.9    278.5   0.050484271   0.46279  -0.65401   0.18156  -0.04575
  34   36105.9    277.0   0.044193364   0.40295   0.02405  -0.51599  -0.36896
  35   36294.7    275.5   0.000624162   0.00566  -0.00997   0.06142   0.04230
  36   36677.0    272.7   0.235841874   2.11691   0.77769   1.22800   0.06417
  37   36734.8    272.2   0.052443493   0.46999   0.46539   0.09557   0.49424
  38   37146.6    269.2   0.000822145   0.00729   0.08002  -0.00518  -0.02925
  39   37957.7    263.5   0.004770244   0.04137   0.07395  -0.17042  -0.08283
  40   38004.4    263.1   0.002119005   0.01836  -0.13244  -0.01230  -0.02576
  41   38135.8    262.2   0.017171937   0.14824   0.36530   0.11632  -0.03557
  42   38384.2    260.5   0.007390569   0.06339   0.25058  -0.00070   0.02444
  43   38532.6    259.5   0.068826375   0.58803   0.12521  -0.74873  -0.10847
  44   38794.2    257.8   0.040940067   0.34742  -0.25493   0.52481  -0.08371
  45   39420.5    253.7   0.063209830   0.52788   0.50489  -0.50376   0.13855
  46   39671.8    252.1   0.166357218   1.38050  -0.88610   0.76892  -0.06394
  47   39921.8    250.5   0.004093554   0.03376  -0.09765   0.14626  -0.05321
  48   40001.0    250.0   0.014723636   0.12118   0.21020  -0.27428  -0.04202

FINAL SINGLE POINT ENERGY     -9668.074763267075

DIPOLE MOMENT
-------------
                                X             Y             Z
Electronic contribution:   -124.73279    -162.82998      43.81728
Nuclear contribution   :    130.99625     163.31909     -42.70340
                        -----------------------------------------
Total Dipole Moment    :      6.26346       0.48911       1.11389
                        -----------------------------------------
Magnitude (a.u.)       :      6.38051
Magnitude (Debye)      :     16.21797

Rotational constants in cm-1:     0.000588     0.000487     0.000283
Rotational constants in MHz :    17.627310    14.593056     8.491590

                             ****ORCA TERMINATED NORMALLY****
TOTAL RUN TIME: 0 days 0 hours 9 minutes 3 seconds 850 msec
