                         Program Version 4.2.0 -  RELEASE  -
|  1> # ORCA input file
|  2> # SCF done       -192.476639688568          0.000738237681
|  3> ! CAM-B3LYP def2-SVP def2/J RIJCOSX Grid4 TightSCF
|  4> %maxcore 5000
|  5> %tddft
|  6>     Mode sTDDFT
|  7>     Ethresh 5.0
|  8>     maxcore 5000
|  9> end
| 10>
| 11> %pal
| 12>   nprocs 6
| 13>   end
| 14> * xyz 0 1
| 15>    C       -1.14990         1.49806         0.30653
| 16>    C       -0.98422         0.42895         1.14006
| 17>    C        0.20211         0.17349         1.86433
| 18>    N        1.13704        -0.08230         2.47799
| 19>    C       -1.96161        -0.54621         1.44413
| 20>    N       -2.68504        -1.37852         1.76043
| 21>    C       -0.16326         2.53912         0.05750
| 22>    C       -0.77221         3.57791        -0.68794
| 23>    C       -0.09525         4.71186        -1.06871
| 24>    C        1.25159         4.81999        -0.71060
| 25>    C        1.85539         3.77247         0.02823
| 26>    C        1.16932         2.63174         0.42177
| 27>    S        3.52649         4.10897         0.36404
| 28>    C        3.39413         5.62921        -0.47963
| 29>    C        2.16271         5.87490        -0.98799
| 30>   Br        4.89228         6.74837        -0.61002
| 31>    C       -2.18765         3.24329        -0.94367
| 32>    O       -3.02672         4.00133        -1.36412
| 33>    C       -2.34904         1.83234        -0.46780
| 34>    C       -3.35167         0.97343        -0.74149
| 35>    C       -4.47770         1.16592        -1.64224
| 36>    N       -5.47846         0.29449        -1.48293
| 37>    C       -6.50412         0.40875        -2.30719
| 38>    C       -6.55325         1.36843        -3.30504
| 39>    C       -5.45474         2.23494        -3.40211
| 40>    N       -4.42472         2.10693        -2.56671
| 41>    C       -5.38558         3.29664        -4.38528
| 42>    C       -4.50217         4.29722        -4.24340
| 43>    C       -4.31326         5.43183        -5.11929
| 44>    C       -3.59356         6.53551        -4.61526
| 45>    C       -3.34664         7.66596        -5.35722
| 46>    C       -3.82220         7.68494        -6.66483
| 47>    C       -4.53451         6.57523        -7.17639
| 48>    C       -4.79783         5.44995        -6.42892
| 49>    O       -4.85304         6.85639        -8.46460
| 50>    C       -4.33393         8.09718        -8.67993
| 51>    N       -3.72328         8.62097        -7.65497
| 52>    C       -4.47312         8.69515        -9.96133
| 53>    S       -5.20627         7.83065       -11.26169
| 54>    C       -4.96876         9.18138       -12.33952
| 55>    C       -4.33017        10.23419       -11.69453
| 56>    C       -4.05339         9.95717       -10.34692
| 57>    C       -3.36339        10.90554        -9.42371
| 58>    C       -3.28070        12.31276       -10.02057
| 59>    C       -4.60148        13.04805        -9.81647
| 60>    F       -5.68978        12.35433       -10.18010
| 61>    F       -4.78284        13.36508        -8.52301
| 62>    F       -4.65128        14.20544       -10.49752
| 63>    C       -2.87531        12.24928       -11.49569
| 64>    C       -3.90553        11.50775       -12.34644
| 65>    C       -5.36737         9.02475       -13.69040
| 66>    C       -5.58285        10.00203       -14.60800
| 67>    C       -5.94369         9.73897       -15.95547
| 68>    C       -5.64857         8.64771       -16.71531
| 69>    C       -4.70315         7.56323       -16.54860
| 70>    C       -3.49232         7.61942       -15.90593
| 71>    C       -2.57011         6.55414       -15.87394
| 72>    N       -1.79336         5.71160       -15.80650
| 73>    C       -2.99299         8.77218       -15.27124
| 74>    N       -2.51558         9.69241       -14.77701
| 75>    C       -5.13746         6.47506       -17.41856
| 76>    C       -6.16091         6.95652       -18.27370
| 77>    C       -6.45713         8.36289       -17.93255
| 78>    O       -7.22484         9.11566       -18.48533
| 79>    C       -6.75060         6.16924       -19.23245
| 80>    C       -6.32019         4.84256       -19.34288
| 81>    C       -5.30888         4.36762       -18.47329
| 82>    C       -4.70440         5.16619       -17.51028
| 83>    S       -4.94183         2.69626       -18.77212
| 84>    C       -6.13146         2.65867       -20.04658
| 85>    C       -6.77264         3.83591       -20.23915
| 86>   Br       -6.41635         1.06847       -20.99857
| 87>    H       -0.58773         5.48955        -1.63102
| 88>    H        1.67400         1.86200         0.98106
| 89>    H        1.90649         6.76332        -1.53563
| 90>    H       -3.35316        -0.00921        -0.28777
| 91>    H       -7.30750        -0.30192        -2.15929
| 92>    H       -7.39591         1.45123        -3.97229
| 93>    H       -6.10386         3.25757        -5.19176
| 94>    H       -3.88154         4.27091        -3.35687
| 95>    H       -3.23968         6.47803        -3.59671
| 96>    H       -2.80256         8.50688        -4.95992
| 97>    H       -5.33266         4.61525        -6.85040
| 98>    H       -2.35419        10.53403        -9.23049
| 99>    H       -3.87494        10.91319        -8.45861
|100>    H       -2.54246        12.90100        -9.46515
|101>    H       -1.91859        11.72863       -11.55316
|102>    H       -2.73732        13.25693       -11.88986
|103>    H       -3.47171        11.27918       -13.32321
|104>    H       -4.78031        12.14460       -12.50725
|105>    H       -5.55916         7.99961       -13.98727
|106>    H       -5.58664        11.03700       -14.30541
|107>    H       -6.58298        10.47063       -16.43980
|108>    H       -7.52097         6.56275       -19.87673
|109>    H       -3.94281         4.76058       -16.86489
|110>    H       -7.53451         3.98976       -20.98128
|111> *
|112>
|113>                          ****END OF INPUT****

CARTESIAN COORDINATES (ANGSTROEM)
---------------------------------
  C     -1.149900    1.498060    0.306530
  C     -0.984220    0.428950    1.140060
  C      0.202110    0.173490    1.864330
  N      1.137040   -0.082300    2.477990
  C     -1.961610   -0.546210    1.444130
  N     -2.685040   -1.378520    1.760430
  C     -0.163260    2.539120    0.057500
  C     -0.772210    3.577910   -0.687940
  C     -0.095250    4.711860   -1.068710
  C      1.251590    4.819990   -0.710600
  C      1.855390    3.772470    0.028230
  C      1.169320    2.631740    0.421770
  S      3.526490    4.108970    0.364040
  C      3.394130    5.629210   -0.479630
  C      2.162710    5.874900   -0.987990
  Br     4.892280    6.748370   -0.610020
  C     -2.187650    3.243290   -0.943670
  O     -3.026720    4.001330   -1.364120
  C     -2.349040    1.832340   -0.467800
  C     -3.351670    0.973430   -0.741490
  C     -4.477700    1.165920   -1.642240
  N     -5.478460    0.294490   -1.482930
  C     -6.504120    0.408750   -2.307190
  C     -6.553250    1.368430   -3.305040
  C     -5.454740    2.234940   -3.402110
  N     -4.424720    2.106930   -2.566710
  C     -5.385580    3.296640   -4.385280
  C     -4.502170    4.297220   -4.243400
  C     -4.313260    5.431830   -5.119290
  C     -3.593560    6.535510   -4.615260
  C     -3.346640    7.665960   -5.357220
  C     -3.822200    7.684940   -6.664830
  C     -4.534510    6.575230   -7.176390
  C     -4.797830    5.449950   -6.428920
  O     -4.853040    6.856390   -8.464600
  C     -4.333930    8.097180   -8.679930
  N     -3.723280    8.620970   -7.654970
  C     -4.473120    8.695150   -9.961330
  S     -5.206270    7.830650  -11.261690
  C     -4.968760    9.181380  -12.339520
  C     -4.330170   10.234190  -11.694530
  C     -4.053390    9.957170  -10.346920
  C     -3.363390   10.905540   -9.423710
  C     -3.280700   12.312760  -10.020570
  C     -4.601480   13.048050   -9.816470
  F     -5.689780   12.354330  -10.180100
  F     -4.782840   13.365080   -8.523010
  F     -4.651280   14.205440  -10.497520
  C     -2.875310   12.249280  -11.495690
  C     -3.905530   11.507750  -12.346440
  C     -5.367370    9.024750  -13.690400
  C     -5.582850   10.002030  -14.608000
  C     -5.943690    9.738970  -15.955470
  C     -5.648570    8.647710  -16.715310
  C     -4.703150    7.563230  -16.548600
  C     -3.492320    7.619420  -15.905930
  C     -2.570110    6.554140  -15.873940
  N     -1.793360    5.711600  -15.806500
  C     -2.992990    8.772180  -15.271240
  N     -2.515580    9.692410  -14.777010
  C     -5.137460    6.475060  -17.418560
  C     -6.160910    6.956520  -18.273700
  C     -6.457130    8.362890  -17.932550
  O     -7.224840    9.115660  -18.485330
  C     -6.750600    6.169240  -19.232450
  C     -6.320190    4.842560  -19.342880
  C     -5.308880    4.367620  -18.473290
  C     -4.704400    5.166190  -17.510280
  S     -4.941830    2.696260  -18.772120
  C     -6.131460    2.658670  -20.046580
  C     -6.772640    3.835910  -20.239150
  Br    -6.416350    1.068470  -20.998570
  H     -0.587730    5.489550   -1.631020
  H      1.674000    1.862000    0.981060
  H      1.906490    6.763320   -1.535630
  H     -3.353160   -0.009210   -0.287770
  H     -7.307500   -0.301920   -2.159290
  H     -7.395910    1.451230   -3.972290
  H     -6.103860    3.257570   -5.191760
  H     -3.881540    4.270910   -3.356870
  H     -3.239680    6.478030   -3.596710
  H     -2.802560    8.506880   -4.959920
  H     -5.332660    4.615250   -6.850400
  H     -2.354190   10.534030   -9.230490
  H     -3.874940   10.913190   -8.458610
  H     -2.542460   12.901000   -9.465150
  H     -1.918590   11.728630  -11.553160
  H     -2.737320   13.256930  -11.889860
  H     -3.471710   11.279180  -13.323210
  H     -4.780310   12.144600  -12.507250
  H     -5.559160    7.999610  -13.987270
  H     -5.586640   11.037000  -14.305410
  H     -6.582980   10.470630  -16.439800
  H     -7.520970    6.562750  -19.876730
  H     -3.942810    4.760580  -16.864890
  H     -7.534510    3.989760  -20.981280

 Total Charge           Charge          ....    0
 Multiplicity           Mult            ....    1
 Number of Electrons    NEL             ....  566
 Basis Dimension        Dim             .... 1176

ORBITAL ENERGIES
----------------

  NO   OCC          E(Eh)            E(eV)
   0   2.0000    -482.889441    -13140.0897
   1   2.0000    -482.888420    -13140.0619
   2   2.0000     -88.979740     -2421.2618
   3   2.0000     -88.979231     -2421.2480
   4   2.0000     -88.970712     -2421.0161
   5   2.0000     -62.567170     -1702.5393
   6   2.0000     -62.566160     -1702.5118
   7   2.0000     -56.401121     -1534.7525
   8   2.0000     -56.400113     -1534.7251
   9   2.0000     -56.398399     -1534.6784
  10   2.0000     -56.398371     -1534.6777
  11   2.0000     -56.397391     -1534.6510
  12   2.0000     -56.397356     -1534.6501
  13   2.0000     -24.799553      -674.8302
  14   2.0000     -24.795761      -674.7269
  15   2.0000     -24.792140      -674.6284
  16   2.0000     -19.306451      -525.3552
  17   2.0000     -19.221308      -523.0384
  18   2.0000     -19.217176      -522.9260
  19   2.0000     -14.421746      -392.4357
  20   2.0000     -14.420422      -392.3996
  21   2.0000     -14.418495      -392.3472
  22   2.0000     -14.418299      -392.3419
  23   2.0000     -14.415622      -392.2690
  24   2.0000     -14.412979      -392.1971
  25   2.0000     -14.409514      -392.1028
  26   2.0000     -10.506785      -285.9042
  27   2.0000     -10.384702      -282.5821
  28   2.0000     -10.373686      -282.2824
  29   2.0000     -10.368392      -282.1383
  30   2.0000     -10.363676      -282.0100
  31   2.0000     -10.362270      -281.9717
  32   2.0000     -10.349864      -281.6341
  33   2.0000     -10.349293      -281.6186
  34   2.0000     -10.347338      -281.5654
  35   2.0000     -10.347088      -281.5586
  36   2.0000     -10.345228      -281.5080
  37   2.0000     -10.340397      -281.3765
  38   2.0000     -10.330824      -281.1160
  39   2.0000     -10.330590      -281.1096
  40   2.0000     -10.329699      -281.0854
  41   2.0000     -10.324648      -280.9480
  42   2.0000     -10.323346      -280.9125
  43   2.0000     -10.322648      -280.8935
  44   2.0000     -10.321545      -280.8635
  45   2.0000     -10.319960      -280.8204
  46   2.0000     -10.317960      -280.7660
  47   2.0000     -10.317608      -280.7564
  48   2.0000     -10.314503      -280.6719
  49   2.0000     -10.313953      -280.6569
  50   2.0000     -10.313204      -280.6365
  51   2.0000     -10.312792      -280.6253
  52   2.0000     -10.312770      -280.6247
  53   2.0000     -10.311837      -280.5993
  54   2.0000     -10.311315      -280.5851
  55   2.0000     -10.310816      -280.5716
  56   2.0000     -10.310007      -280.5495
  57   2.0000     -10.309693      -280.5410
  58   2.0000     -10.309640      -280.5396
  59   2.0000     -10.306247      -280.4472
  60   2.0000     -10.304903      -280.4107
  61   2.0000     -10.301069      -280.3063
  62   2.0000     -10.299962      -280.2762
  63   2.0000     -10.299201      -280.2555
  64   2.0000     -10.297677      -280.2140
  65   2.0000     -10.297486      -280.2088
  66   2.0000     -10.296591      -280.1845
  67   2.0000     -10.296579      -280.1842
  68   2.0000     -10.294333      -280.1230
  69   2.0000     -10.293909      -280.1115
  70   2.0000     -10.290801      -280.0269
  71   2.0000     -10.289218      -279.9838
  72   2.0000     -10.288803      -279.9726
  73   2.0000     -10.282150      -279.7915
  74   2.0000     -10.281485      -279.7734
  75   2.0000     -10.279266      -279.7130
  76   2.0000     -10.278925      -279.7038
  77   2.0000     -10.278215      -279.6844
  78   2.0000     -10.274917      -279.5947
  79   2.0000     -10.274040      -279.5708
  80   2.0000      -8.796616      -239.3681
  81   2.0000      -8.795611      -239.3407
  82   2.0000      -8.075798      -219.7536
  83   2.0000      -8.075156      -219.7362
  84   2.0000      -8.066094      -219.4896
  85   2.0000      -6.632932      -180.4913
  86   2.0000      -6.631944      -180.4644
  87   2.0000      -6.618351      -180.0945
  88   2.0000      -6.618130      -180.0885
  89   2.0000      -6.617316      -180.0663
  90   2.0000      -6.617141      -180.0616
  91   2.0000      -6.045504      -164.5065
  92   2.0000      -6.044847      -164.4887
  93   2.0000      -6.041211      -164.3897
  94   2.0000      -6.040574      -164.3724
  95   2.0000      -6.036973      -164.2744
  96   2.0000      -6.036404      -164.2589
  97   2.0000      -6.035258      -164.2277
  98   2.0000      -6.031296      -164.1199
  99   2.0000      -6.028258      -164.0373
 100   2.0000      -2.748820       -74.7992
 101   2.0000      -2.747786       -74.7711
 102   2.0000      -2.744715       -74.6875
 103   2.0000      -2.744533       -74.6826
 104   2.0000      -2.743746       -74.6611
 105   2.0000      -2.743536       -74.6554
 106   2.0000      -2.732953       -74.3674
 107   2.0000      -2.732940       -74.3671
 108   2.0000      -2.731946       -74.3400
 109   2.0000      -2.731935       -74.3397
 110   2.0000      -1.386023       -37.7156
 111   2.0000      -1.289528       -35.0899
 112   2.0000      -1.285353       -34.9762
 113   2.0000      -1.235763       -33.6268
 114   2.0000      -1.137897       -30.9638
 115   2.0000      -1.132604       -30.8197
 116   2.0000      -1.087668       -29.5969
 117   2.0000      -1.029258       -28.0075
 118   2.0000      -1.027760       -27.9668
 119   2.0000      -1.027124       -27.9495
 120   2.0000      -1.017674       -27.6923
 121   2.0000      -1.017652       -27.6917
 122   2.0000      -1.006629       -27.3918
 123   2.0000      -0.998744       -27.1772
 124   2.0000      -0.997651       -27.1475
 125   2.0000      -0.994153       -27.0523
 126   2.0000      -0.993547       -27.0358
 127   2.0000      -0.985266       -26.8105
 128   2.0000      -0.962266       -26.1846
 129   2.0000      -0.949120       -25.8269
 130   2.0000      -0.947949       -25.7950
 131   2.0000      -0.940450       -25.5910
 132   2.0000      -0.927166       -25.2295
 133   2.0000      -0.919685       -25.0259
 134   2.0000      -0.913107       -24.8469
 135   2.0000      -0.912129       -24.8203
 136   2.0000      -0.900596       -24.5065
 137   2.0000      -0.891125       -24.2487
 138   2.0000      -0.889958       -24.2170
 139   2.0000      -0.889768       -24.2118
 140   2.0000      -0.881411       -23.9844
 141   2.0000      -0.871516       -23.7152
 142   2.0000      -0.859056       -23.3761
 143   2.0000      -0.855078       -23.2678
 144   2.0000      -0.849003       -23.1025
 145   2.0000      -0.838421       -22.8146
 146   2.0000      -0.834421       -22.7057
 147   2.0000      -0.833483       -22.6802
 148   2.0000      -0.831856       -22.6359
 149   2.0000      -0.806582       -21.9482
 150   2.0000      -0.787259       -21.4224
 151   2.0000      -0.783414       -21.3178
 152   2.0000      -0.778457       -21.1829
 153   2.0000      -0.765305       -20.8250
 154   2.0000      -0.764378       -20.7998
 155   2.0000      -0.751021       -20.4363
 156   2.0000      -0.742041       -20.1920
 157   2.0000      -0.737354       -20.0644
 158   2.0000      -0.730774       -19.8854
 159   2.0000      -0.727810       -19.8047
 160   2.0000      -0.712991       -19.4015
 161   2.0000      -0.705957       -19.2101
 162   2.0000      -0.702169       -19.1070
 163   2.0000      -0.700480       -19.0610
 164   2.0000      -0.694677       -18.9031
 165   2.0000      -0.691363       -18.8130
 166   2.0000      -0.685156       -18.6441
 167   2.0000      -0.675361       -18.3775
 168   2.0000      -0.671999       -18.2860
 169   2.0000      -0.669840       -18.2273
 170   2.0000      -0.667864       -18.1735
 171   2.0000      -0.665121       -18.0989
 172   2.0000      -0.661542       -18.0015
 173   2.0000      -0.651869       -17.7382
 174   2.0000      -0.645942       -17.5770
 175   2.0000      -0.634303       -17.2603
 176   2.0000      -0.631227       -17.1766
 177   2.0000      -0.627211       -17.0673
 178   2.0000      -0.625161       -17.0115
 179   2.0000      -0.614724       -16.7275
 180   2.0000      -0.608388       -16.5551
 181   2.0000      -0.604790       -16.4572
 182   2.0000      -0.603474       -16.4214
 183   2.0000      -0.598383       -16.2828
 184   2.0000      -0.593886       -16.1605
 185   2.0000      -0.591484       -16.0951
 186   2.0000      -0.587544       -15.9879
 187   2.0000      -0.585758       -15.9393
 188   2.0000      -0.579508       -15.7692
 189   2.0000      -0.573624       -15.6091
 190   2.0000      -0.572089       -15.5673
 191   2.0000      -0.555165       -15.1068
 192   2.0000      -0.553792       -15.0695
 193   2.0000      -0.551033       -14.9944
 194   2.0000      -0.550287       -14.9741
 195   2.0000      -0.547667       -14.9028
 196   2.0000      -0.545533       -14.8447
 197   2.0000      -0.545445       -14.8423
 198   2.0000      -0.543509       -14.7896
 199   2.0000      -0.541981       -14.7481
 200   2.0000      -0.538356       -14.6494
 201   2.0000      -0.535380       -14.5684
 202   2.0000      -0.534650       -14.5486
 203   2.0000      -0.530972       -14.4485
 204   2.0000      -0.529685       -14.4135
 205   2.0000      -0.528894       -14.3920
 206   2.0000      -0.524637       -14.2761
 207   2.0000      -0.523501       -14.2452
 208   2.0000      -0.518864       -14.1190
 209   2.0000      -0.516722       -14.0607
 210   2.0000      -0.513353       -13.9691
 211   2.0000      -0.512287       -13.9400
 212   2.0000      -0.511486       -13.9182
 213   2.0000      -0.511026       -13.9057
 214   2.0000      -0.504090       -13.7170
 215   2.0000      -0.503512       -13.7013
 216   2.0000      -0.502112       -13.6631
 217   2.0000      -0.501705       -13.6521
 218   2.0000      -0.499376       -13.5887
 219   2.0000      -0.497781       -13.5453
 220   2.0000      -0.493230       -13.4215
 221   2.0000      -0.492038       -13.3890
 222   2.0000      -0.490063       -13.3353
 223   2.0000      -0.488866       -13.3027
 224   2.0000      -0.487053       -13.2534
 225   2.0000      -0.482388       -13.1264
 226   2.0000      -0.480069       -13.0633
 227   2.0000      -0.476270       -12.9600
 228   2.0000      -0.473848       -12.8941
 229   2.0000      -0.469952       -12.7881
 230   2.0000      -0.468480       -12.7480
 231   2.0000      -0.462732       -12.5916
 232   2.0000      -0.462151       -12.5758
 233   2.0000      -0.460270       -12.5246
 234   2.0000      -0.457779       -12.4568
 235   2.0000      -0.453025       -12.3274
 236   2.0000      -0.451941       -12.2979
 237   2.0000      -0.451183       -12.2773
 238   2.0000      -0.449985       -12.2447
 239   2.0000      -0.446701       -12.1553
 240   2.0000      -0.446151       -12.1404
 241   2.0000      -0.443999       -12.0818
 242   2.0000      -0.443281       -12.0623
 243   2.0000      -0.440560       -11.9883
 244   2.0000      -0.439668       -11.9640
 245   2.0000      -0.437824       -11.9138
 246   2.0000      -0.431700       -11.7472
 247   2.0000      -0.430082       -11.7031
 248   2.0000      -0.429863       -11.6972
 249   2.0000      -0.427156       -11.6235
 250   2.0000      -0.426922       -11.6171
 251   2.0000      -0.423843       -11.5334
 252   2.0000      -0.421996       -11.4831
 253   2.0000      -0.417539       -11.3618
 254   2.0000      -0.414264       -11.2727
 255   2.0000      -0.413963       -11.2645
 256   2.0000      -0.412113       -11.2142
 257   2.0000      -0.410259       -11.1637
 258   2.0000      -0.406569       -11.0633
 259   2.0000      -0.395225       -10.7546
 260   2.0000      -0.395032       -10.7494
 261   2.0000      -0.390618       -10.6293
 262   2.0000      -0.389334       -10.5943
 263   2.0000      -0.383680       -10.4405
 264   2.0000      -0.378629       -10.3030
 265   2.0000      -0.377818       -10.2809
 266   2.0000      -0.372966       -10.1489
 267   2.0000      -0.369252       -10.0479
 268   2.0000      -0.366104        -9.9622
 269   2.0000      -0.356894        -9.7116
 270   2.0000      -0.344651        -9.3784
 271   2.0000      -0.341802        -9.3009
 272   2.0000      -0.331328        -9.0159
 273   2.0000      -0.324346        -8.8259
 274   2.0000      -0.322165        -8.7666
 275   2.0000      -0.321603        -8.7513
 276   2.0000      -0.320124        -8.7110
 277   2.0000      -0.318865        -8.6768
 278   2.0000      -0.314167        -8.5489
 279   2.0000      -0.298415        -8.1203
 280   2.0000      -0.297663        -8.0998
 281   2.0000      -0.291901        -7.9430
 282   2.0000      -0.260969        -7.1013
 283   0.0000      -0.099615        -2.7107
 284   0.0000      -0.093877        -2.5545
 285   0.0000      -0.066804        -1.8178
 286   0.0000      -0.061630        -1.6770
 287   0.0000      -0.048513        -1.3201

MULLIKEN ATOMIC CHARGES
-----------------------
   0 C :    0.290037
   1 C :   -0.336910
   2 C :   -0.185001
   3 N :    0.154387
   4 C :   -0.191431
   5 N :    0.170533
   6 C :    0.018613
   7 C :    0.001623
   8 C :   -0.077071
   9 C :    0.120188
  10 C :   -0.089647
  11 C :   -0.020146
  12 S :    0.190906
  13 C :   -0.123609
  14 C :    0.039899
  15 Br:    0.028679
  16 C :    0.162622
  17 O :   -0.123939
  18 C :   -0.032497
  19 C :    0.030632
  20 C :   -0.102152
  21 N :   -0.065727
  22 C :    0.077722
  23 C :   -0.035524
  24 C :    0.054969
  25 N :   -0.030011
  26 C :   -0.015284
  27 C :    0.035163
  28 C :    0.113249
  29 C :   -0.015675
  30 C :   -0.041139
  31 C :    0.028059
  32 C :    0.248125
  33 C :   -0.138833
  34 O :   -0.201427
  35 C :    0.118921
  36 N :   -0.066808
  37 C :   -0.159276
  38 S :    0.179672
  39 C :   -0.133234
  40 C :   -0.044568
  41 C :   -0.104659
  42 C :    0.188877
  43 C :   -0.152294
  44 C :    0.476335
  45 F :   -0.163561
  46 F :   -0.167080
  47 F :   -0.166386
  48 C :    0.066160
  49 C :    0.071639
  50 C :    0.056246
  51 C :   -0.012042
  52 C :    0.046365
  53 C :   -0.119907
  54 C :    0.257130
  55 C :   -0.343533
  56 C :   -0.178376
  57 N :    0.154378
  58 C :   -0.171630
  59 N :    0.164765
  60 C :   -0.001006
  61 C :    0.003287
  62 C :    0.133987
  63 O :   -0.141774
  64 C :   -0.072936
  65 C :    0.113789
  66 C :   -0.088195
  67 C :   -0.021161
  68 S :    0.186836
  69 C :   -0.124487
  70 C :    0.039116
  71 Br:    0.026124
  72 H :   -0.013936
  73 H :   -0.002979
  74 H :   -0.002697
  75 H :    0.026646
  76 H :    0.011724
  77 H :   -0.002000
  78 H :   -0.023313
  79 H :    0.014817
  80 H :   -0.010366
  81 H :   -0.022057
  82 H :   -0.020660
  83 H :    0.027091
  84 H :    0.039595
  85 H :    0.030423
  86 H :    0.022172
  87 H :    0.018014
  88 H :    0.041560
  89 H :    0.038853
  90 H :    0.011229
  91 H :    0.007453
  92 H :    0.029025
  93 H :   -0.007840
  94 H :   -0.001871
  95 H :   -0.000975
Sum of atomic charges:   -0.0000000

LOEWDIN ATOMIC CHARGES
----------------------
   0 C :    0.075015
   1 C :   -0.127143
   2 C :   -0.016797
   3 N :   -0.046452
   4 C :   -0.025335
   5 N :   -0.034646
   6 C :   -0.021825
   7 C :   -0.049229
   8 C :    0.020117
   9 C :   -0.029895
  10 C :   -0.142327
  11 C :   -0.008308
  12 S :    0.435075
  13 C :   -0.269423
  14 C :   -0.070924
  15 Br:    0.140798
  16 C :    0.089518
  17 O :   -0.115363
  18 C :   -0.058226
  19 C :    0.063235
  20 C :    0.011235
  21 N :   -0.082971
  22 C :    0.048398
  23 C :   -0.052794
  24 C :    0.041993
  25 N :   -0.060309
  26 C :   -0.055868
  27 C :    0.034346
  28 C :   -0.028643
  29 C :   -0.012828
  30 C :   -0.022621
  31 C :   -0.027146
  32 C :    0.033635
  33 C :   -0.027931
  34 O :   -0.013008
  35 C :    0.054742
  36 N :   -0.103169
  37 C :   -0.200253
  38 S :    0.465075
  39 C :   -0.172097
  40 C :   -0.026318
  41 C :   -0.026470
  42 C :   -0.016889
  43 C :   -0.067235
  44 C :    0.162672
  45 F :   -0.057030
  46 F :   -0.065813
  47 F :   -0.065278
  48 C :   -0.015890
  49 C :   -0.036468
  50 C :    0.011961
  51 C :   -0.041265
  52 C :    0.069971
  53 C :   -0.095493
  54 C :    0.068726
  55 C :   -0.146316
  56 C :   -0.021462
  57 N :   -0.053971
  58 C :   -0.002786
  59 N :   -0.049346
  60 C :   -0.019663
  61 C :   -0.052127
  62 C :    0.082941
  63 O :   -0.141410
  64 C :    0.022979
  65 C :   -0.032474
  66 C :   -0.143553
  67 C :   -0.011796
  68 S :    0.433053
  69 C :   -0.271368
  70 C :   -0.069883
  71 Br:    0.138476
  72 H :    0.039308
  73 H :    0.041600
  74 H :    0.039083
  75 H :    0.050181
  76 H :    0.028669
  77 H :    0.034737
  78 H :    0.022398
  79 H :    0.037250
  80 H :    0.032427
  81 H :    0.035565
  82 H :    0.034699
  83 H :    0.045416
  84 H :    0.040324
  85 H :    0.044961
  86 H :    0.033778
  87 H :    0.030275
  88 H :    0.039158
  89 H :    0.030392
  90 H :    0.032985
  91 H :    0.037975
  92 H :    0.048023
  93 H :    0.041996
  94 H :    0.041150
  95 H :    0.039525

  Mayer bond orders larger than 0.100000
B(  0-C ,  1-C ) :   1.6669 B(  0-C ,  6-C ) :   1.0126 B(  0-C , 18-C ) :   1.0320
B(  1-C ,  2-C ) :   1.1355 B(  1-C ,  4-C ) :   1.1314 B(  2-C ,  3-N ) :   2.9769
B(  4-C ,  5-N ) :   2.9904 B(  6-C ,  7-C ) :   1.2735 B(  6-C , 11-C ) :   1.3986
B(  7-C ,  8-C ) :   1.4128 B(  7-C , 16-C ) :   0.9319 B(  8-C ,  9-C ) :   1.2581
B(  8-C , 72-H ) :   1.0165 B(  9-C , 10-C ) :   1.2965 B(  9-C , 14-C ) :   1.1645
B( 10-C , 11-C ) :   1.3421 B( 10-C , 12-S ) :   1.0867 B( 11-C , 73-H ) :   0.9802
B( 12-S , 13-C ) :   1.0868 B( 13-C , 14-C ) :   1.6177 B( 13-C , 15-Br) :   1.0226
B( 14-C , 74-H ) :   0.9994 B( 16-C , 17-O ) :   2.1992 B( 16-C , 18-C ) :   0.9079
B( 18-C , 19-C ) :   1.7042 B( 19-C , 20-C ) :   1.0142 B( 19-C , 75-H ) :   0.9368
B( 20-C , 21-N ) :   1.5344 B( 20-C , 25-N ) :   1.5572 B( 21-N , 22-C ) :   1.5380
B( 22-C , 23-C ) :   1.3819 B( 22-C , 76-H ) :   0.9805 B( 23-C , 24-C ) :   1.3184
B( 23-C , 77-H ) :   0.9751 B( 24-C , 25-N ) :   1.5124 B( 24-C , 26-C ) :   1.0658
B( 26-C , 27-C ) :   1.7398 B( 26-C , 78-H ) :   0.9686 B( 27-C , 28-C ) :   1.0524
B( 27-C , 79-H ) :   0.9674 B( 28-C , 29-C ) :   1.3144 B( 28-C , 33-C ) :   1.3215
B( 29-C , 30-C ) :   1.3837 B( 29-C , 80-H ) :   0.9953 B( 30-C , 31-C ) :   1.2979
B( 30-C , 33-C ) :   0.1034 B( 30-C , 81-H ) :   1.0184 B( 31-C , 32-C ) :   1.2652
B( 31-C , 36-N ) :   1.2919 B( 32-C , 33-C ) :   1.3348 B( 32-C , 34-O ) :   1.0916
B( 33-C , 82-H ) :   1.0189 B( 34-O , 35-C ) :   1.1951 B( 35-C , 36-N ) :   1.7103
B( 35-C , 37-C ) :   1.0574 B( 37-C , 38-S ) :   1.1390 B( 37-C , 39-C ) :   0.1171
B( 37-C , 41-C ) :   1.5246 B( 38-S , 39-C ) :   1.1049 B( 39-C , 40-C ) :   1.4832
B( 39-C , 50-C ) :   1.1605 B( 40-C , 41-C ) :   1.3291 B( 40-C , 49-C ) :   1.0538
B( 41-C , 42-C ) :   1.0670 B( 42-C , 43-C ) :   1.0139 B( 42-C , 83-H ) :   0.8952
B( 42-C , 84-H ) :   0.8956 B( 43-C , 44-C ) :   0.9817 B( 43-C , 48-C ) :   1.0348
B( 43-C , 85-H ) :   0.9006 B( 44-C , 45-F ) :   1.1284 B( 44-C , 46-F ) :   1.1470
B( 44-C , 47-F ) :   1.1456 B( 48-C , 49-C ) :   1.0877 B( 48-C , 86-H ) :   0.9413
B( 48-C , 87-H ) :   0.9305 B( 49-C , 88-H ) :   0.8895 B( 49-C , 89-H ) :   0.8913
B( 50-C , 51-C ) :   1.6496 B( 50-C , 90-H ) :   0.9446 B( 51-C , 52-C ) :   1.1482
B( 51-C , 91-H ) :   0.9598 B( 52-C , 53-C ) :   1.6590 B( 52-C , 92-H ) :   0.9338
B( 53-C , 54-C ) :   1.0368 B( 53-C , 62-C ) :   0.9428 B( 54-C , 55-C ) :   1.6456
B( 54-C , 60-C ) :   1.0141 B( 55-C , 56-C ) :   1.1270 B( 55-C , 58-C ) :   1.1717
B( 56-C , 57-N ) :   2.9913 B( 58-C , 59-N ) :   2.9681 B( 60-C , 61-C ) :   1.2742
B( 60-C , 67-C ) :   1.4101 B( 61-C , 62-C ) :   0.9167 B( 61-C , 64-C ) :   1.4240
B( 62-C , 63-O ) :   2.2708 B( 64-C , 65-C ) :   1.2492 B( 64-C , 93-H ) :   1.0181
B( 65-C , 66-C ) :   1.3057 B( 65-C , 70-C ) :   1.1634 B( 66-C , 67-C ) :   1.3279
B( 66-C , 68-S ) :   1.0848 B( 67-C , 94-H ) :   0.9851 B( 68-S , 69-C ) :   1.0869
B( 69-C , 70-C ) :   1.6193 B( 69-C , 71-Br) :   1.0200 B( 70-C , 95-H ) :   1.0008

-----------------------------------------------------------------------------
         ABSORPTION SPECTRUM VIA TRANSITION ELECTRIC DIPOLE MOMENTS
-----------------------------------------------------------------------------
State   Energy  Wavelength   fosc         T2         TX        TY        TZ
        (cm-1)    (nm)                  (au**2)     (au)      (au)      (au)
-----------------------------------------------------------------------------
   0   18938.0    528.0   0.812212127  14.11919  -0.07480   0.18290   3.75235
   1   24049.8    415.8   0.006061852   0.08298   0.25649  -0.04698   0.12241
   2   24414.4    409.6   0.024711182   0.33321  -0.50498  -0.15416  -0.23333
   3   26316.3    380.0   0.361419981   4.52130   0.12076  -1.54726   1.45352
   4   27063.3    369.5   0.730866672   8.89063   1.22094  -0.50865   2.67230
   5   27761.3    360.2   0.277930362   3.29588  -1.04937  -1.35061   0.60873
   6   28760.6    347.7   0.187768231   2.14932  -0.06379   1.24355   0.77385
   7   29404.8    340.1   0.001062347   0.01189   0.07570  -0.00059   0.07851
   8   29531.1    338.6   0.120619428   1.34466  -0.32380  -0.40197  -1.03838
   9   30037.7    332.9   0.078190351   0.85696   0.44854  -0.15669   0.79450
  10   30162.6    331.5   0.075166373   0.82041   0.42733  -0.62712   0.49449
  11   30397.0    329.0   0.069701301   0.75489   0.48435  -0.54746   0.46967
  12   30693.1    325.8   0.157551540   1.68989  -0.60196   0.83144  -0.79765
  13   30999.6    322.6   0.009007149   0.09565  -0.16596   0.13520  -0.22323
  14   31283.7    319.7   0.233275061   2.45485   0.07425   1.28826  -0.88866
  15   32079.5    311.7   0.257591319   2.64350   1.15341   1.11241  -0.27512
  16   32937.6    303.6   0.223250660   2.23140   0.90964   0.87490   0.79907
  17   33530.4    298.2   0.092693815   0.91010   0.40860   0.12308  -0.85323
  18   33702.1    296.7   0.979003649   9.56320   1.84171   2.39758   0.65032
  19   33819.7    295.7   0.393636875   3.83179  -0.34602  -1.62002   1.04288
  20   35249.3    283.7   0.048698293   0.45482   0.16026  -0.64017   0.13900
  21   35656.0    280.5   0.025984193   0.23991  -0.18586   0.00507  -0.45315
  22   35993.3    277.8   0.029237747   0.26742  -0.03425  -0.51592  -0.00887
  23   36328.5    275.3   0.000134212   0.00122   0.02368   0.00654  -0.02475
  24   36799.9    271.7   0.218232788   1.95231   0.97124   0.98714   0.18590
  25   37128.9    269.3   0.063270296   0.56100  -0.62723  -0.13717  -0.38570
  26   37755.8    264.9   0.004557895   0.03974  -0.18736  -0.01096  -0.06722
  27   37833.6    264.3   0.155051994   1.34920  -0.98342  -0.56025  -0.26114
  28   38186.5    261.9   0.155030047   1.33654  -1.02770   0.11153  -0.51763
  29   38627.5    258.9   0.136085334   1.15982  -0.58325   0.87792  -0.22112
  30   38683.7    258.5   0.040448559   0.34423   0.42929  -0.33934   0.21164
  31   38895.7    257.1   0.143425249   1.21395  -0.98265   0.08974  -0.49019
  32   39442.2    253.5   0.058139379   0.48527  -0.64835  -0.24984  -0.04997
  33   40013.1    249.9   0.026200055   0.21556  -0.29308  -0.24886   0.26026
  34   40248.7    248.5   0.100220065   0.81974  -0.84149  -0.04222  -0.33144
  35   40312.2    248.1   0.068261277   0.55746   0.72275   0.18682   0.01353

FINAL SINGLE POINT ENERGY     -9319.068644500194

DIPOLE MOMENT
-------------
                                X             Y             Z
Electronic contribution:     56.50667     -42.22250     -41.81069
Nuclear contribution   :    -57.32749      43.22381      39.71252
                        -----------------------------------------
Total Dipole Moment    :     -0.82082       1.00132      -2.09817
                        -----------------------------------------
Magnitude (a.u.)       :      2.46550
Magnitude (Debye)      :      6.26680

Rotational constants in cm-1:     0.000790     0.000214     0.000190
Rotational constants in MHz :    23.675208     6.402633     5.708954

                             ****ORCA TERMINATED NORMALLY****
TOTAL RUN TIME: 0 days 0 hours 8 minutes 40 seconds 745 msec
