                         Program Version 4.2.0 -  RELEASE  -
|  1> # ORCA input file
|  2> # SCF done       -163.292335235687          0.000351752627
|  3> ! CAM-B3LYP def2-SVP def2/J RIJCOSX Grid4 TightSCF
|  4> %maxcore 5000
|  5> %tddft
|  6>     Mode sTDDFT
|  7>     Ethresh 5.0
|  8>     maxcore 5000
|  9> end
| 10>
| 11> %pal
| 12>   nprocs 6
| 13>   end
| 14> * xyz 0 1
| 15>    C       -2.32681         0.85180         0.36774
| 16>    C       -2.72853        -0.44983         0.57931
| 17>    C       -1.84531        -1.54006         0.69258
| 18>    N       -1.18566        -2.47618         0.79177
| 19>    C       -4.05693        -0.89294         0.72532
| 20>    N       -5.10242        -1.35325         0.85978
| 21>    C       -0.93714         1.28937         0.23783
| 22>    C       -0.91954         2.69590         0.07626
| 23>    C        0.24117         3.40711        -0.09614
| 24>    C        1.44669         2.69541        -0.11487
| 25>    C        1.41933         1.29238         0.05060
| 26>    C        0.24313         0.57257         0.22982
| 27>    S        3.01690         0.60946        -0.01351
| 28>    C        3.68898         2.19893        -0.26219
| 29>    C        2.76819         3.19045        -0.29307
| 30>   Br        5.54444         2.39824        -0.46064
| 31>    C       -2.30994         3.20377         0.09621
| 32>    O       -2.65114         4.36721        -0.00370
| 33>    C       -3.16325         2.01226         0.23946
| 34>    C       -4.54507         2.02009         0.15761
| 35>    C       -5.33891         3.14315        -0.01792
| 36>    C       -6.69986         3.04857        -0.27339
| 37>    C       -7.59439         4.09602        -0.56410
| 38>    C       -8.85173         3.67490        -0.91294
| 39>    C       -8.99914         2.27889        -0.90082
| 40>    S       -7.51869         1.50797        -0.39155
| 41>    C      -10.07347         1.49979        -1.32546
| 42>    C      -11.25877         1.90719        -1.96093
| 43>    C      -12.01001         0.85794        -2.41710
| 44>    C      -11.46009        -0.41090        -2.13841
| 45>    S       -9.98573        -0.23791        -1.22012
| 46>    C      -11.92994        -1.60907        -2.65482
| 47>    C      -11.42926        -2.88073        -2.42219
| 48>    S      -11.87395        -4.20940        -3.48659
| 49>    C      -10.56457        -3.37006        -1.42655
| 50>    N       -9.95669        -2.76386        -0.37948
| 51>    C       -9.25262        -3.58689         0.29634
| 52>    S       -9.25049        -5.25351        -0.25833
| 53>    C      -10.31112        -4.75467        -1.52866
| 54>    C      -10.89876        -5.39011        -2.62200
| 55>    C      -10.72820        -6.70420        -3.05063
| 56>    C      -11.05007        -7.13880        -4.31702
| 57>    C      -10.83828        -8.42786        -4.78752
| 58>    C      -10.90213        -8.77384        -6.12648
| 59>    C      -10.71472       -10.04914        -6.69386
| 60>    C      -10.72662       -10.06172        -8.06163
| 61>    C      -10.90557        -8.78973        -8.63787
| 62>    S      -11.12186        -7.58292        -7.39373
| 63>    C      -10.85553        -8.44126        -9.97952
| 64>    C      -10.67177        -9.28556       -11.09320
| 65>    C      -10.59205        -8.62060       -12.28057
| 66>    C      -10.69961        -7.21222       -12.16656
| 67>    S      -10.94520        -6.76871       -10.48934
| 68>    C      -10.59598        -6.31429       -13.19911
| 69>    C      -10.64488        -4.91396       -13.12228
| 70>    S      -10.89504        -4.00110       -11.64748
| 71>    C      -10.78365        -2.49373       -12.47388
| 72>    C      -10.56623        -2.67116       -13.80760
| 73>    C      -10.48856        -4.03155       -14.18287
| 74>    S      -10.20542        -4.35981       -15.86449
| 75>    C      -10.13769        -2.68020       -16.37363
| 76>    S       -9.88067        -2.25069       -17.92100
| 77>    S      -10.36847        -1.50300       -15.08973
| 78>    H        0.22217         4.47855        -0.22024
| 79>    H        0.27614        -0.49761         0.34650
| 80>    H        3.00774         4.22812        -0.43787
| 81>    H       -5.05624         1.06506         0.18549
| 82>    H       -4.88432         4.12290        -0.01157
| 83>    H       -7.28478         5.12542        -0.53134
| 84>    H       -9.65718         4.33416        -1.18317
| 85>    H      -11.51498         2.94199        -2.10004
| 86>    H      -12.93272         0.96404        -2.96022
| 87>    H      -12.73908        -1.53579        -3.37083
| 88>    H       -8.67658        -3.30836         1.15599
| 89>    H      -10.23629        -7.37774        -2.36056
| 90>    H      -11.43926        -6.40743        -5.01619
| 91>    H      -10.56506        -9.20546        -4.08642
| 92>    H      -10.56941       -10.92145        -6.08129
| 93>    H      -10.59003       -10.94518        -8.65865
| 94>    H      -10.59981       -10.35347       -10.99295
| 95>    H      -10.44664        -9.09309       -13.23565
| 96>    H      -10.43774        -6.71825       -14.19125
| 97>    H      -10.88172        -1.57463       -11.93467
| 98> *
| 99>
|100>                          ****END OF INPUT****

CARTESIAN COORDINATES (ANGSTROEM)
---------------------------------
  C     -2.326810    0.851800    0.367740
  C     -2.728530   -0.449830    0.579310
  C     -1.845310   -1.540060    0.692580
  N     -1.185660   -2.476180    0.791770
  C     -4.056930   -0.892940    0.725320
  N     -5.102420   -1.353250    0.859780
  C     -0.937140    1.289370    0.237830
  C     -0.919540    2.695900    0.076260
  C      0.241170    3.407110   -0.096140
  C      1.446690    2.695410   -0.114870
  C      1.419330    1.292380    0.050600
  C      0.243130    0.572570    0.229820
  S      3.016900    0.609460   -0.013510
  C      3.688980    2.198930   -0.262190
  C      2.768190    3.190450   -0.293070
  Br     5.544440    2.398240   -0.460640
  C     -2.309940    3.203770    0.096210
  O     -2.651140    4.367210   -0.003700
  C     -3.163250    2.012260    0.239460
  C     -4.545070    2.020090    0.157610
  C     -5.338910    3.143150   -0.017920
  C     -6.699860    3.048570   -0.273390
  C     -7.594390    4.096020   -0.564100
  C     -8.851730    3.674900   -0.912940
  C     -8.999140    2.278890   -0.900820
  S     -7.518690    1.507970   -0.391550
  C    -10.073470    1.499790   -1.325460
  C    -11.258770    1.907190   -1.960930
  C    -12.010010    0.857940   -2.417100
  C    -11.460090   -0.410900   -2.138410
  S     -9.985730   -0.237910   -1.220120
  C    -11.929940   -1.609070   -2.654820
  C    -11.429260   -2.880730   -2.422190
  S    -11.873950   -4.209400   -3.486590
  C    -10.564570   -3.370060   -1.426550
  N     -9.956690   -2.763860   -0.379480
  C     -9.252620   -3.586890    0.296340
  S     -9.250490   -5.253510   -0.258330
  C    -10.311120   -4.754670   -1.528660
  C    -10.898760   -5.390110   -2.622000
  C    -10.728200   -6.704200   -3.050630
  C    -11.050070   -7.138800   -4.317020
  C    -10.838280   -8.427860   -4.787520
  C    -10.902130   -8.773840   -6.126480
  C    -10.714720  -10.049140   -6.693860
  C    -10.726620  -10.061720   -8.061630
  C    -10.905570   -8.789730   -8.637870
  S    -11.121860   -7.582920   -7.393730
  C    -10.855530   -8.441260   -9.979520
  C    -10.671770   -9.285560  -11.093200
  C    -10.592050   -8.620600  -12.280570
  C    -10.699610   -7.212220  -12.166560
  S    -10.945200   -6.768710  -10.489340
  C    -10.595980   -6.314290  -13.199110
  C    -10.644880   -4.913960  -13.122280
  S    -10.895040   -4.001100  -11.647480
  C    -10.783650   -2.493730  -12.473880
  C    -10.566230   -2.671160  -13.807600
  C    -10.488560   -4.031550  -14.182870
  S    -10.205420   -4.359810  -15.864490
  C    -10.137690   -2.680200  -16.373630
  S     -9.880670   -2.250690  -17.921000
  S    -10.368470   -1.503000  -15.089730
  H      0.222170    4.478550   -0.220240
  H      0.276140   -0.497610    0.346500
  H      3.007740    4.228120   -0.437870
  H     -5.056240    1.065060    0.185490
  H     -4.884320    4.122900   -0.011570
  H     -7.284780    5.125420   -0.531340
  H     -9.657180    4.334160   -1.183170
  H    -11.514980    2.941990   -2.100040
  H    -12.932720    0.964040   -2.960220
  H    -12.739080   -1.535790   -3.370830
  H     -8.676580   -3.308360    1.155990
  H    -10.236290   -7.377740   -2.360560
  H    -11.439260   -6.407430   -5.016190
  H    -10.565060   -9.205460   -4.086420
  H    -10.569410  -10.921450   -6.081290
  H    -10.590030  -10.945180   -8.658650
  H    -10.599810  -10.353470  -10.992950
  H    -10.446640   -9.093090  -13.235650
  H    -10.437740   -6.718250  -14.191250
  H    -10.881720   -1.574630  -11.934670

 Total Charge           Charge          ....    0
 Multiplicity           Mult            ....    1
 Number of Electrons    NEL             ....  542
 Basis Dimension        Dim             .... 1044

ORBITAL ENERGIES
----------------

  NO   OCC          E(Eh)            E(eV)
   0   2.0000    -482.871995    -13139.6150
   1   2.0000     -88.974438     -2421.1175
   2   2.0000     -88.973549     -2421.0933
   3   2.0000     -88.972808     -2421.0732
   4   2.0000     -88.971944     -2421.0497
   5   2.0000     -88.971286     -2421.0318
   6   2.0000     -88.960226     -2420.7308
   7   2.0000     -88.958268     -2420.6775
   8   2.0000     -88.957776     -2420.6641
   9   2.0000     -88.952008     -2420.5072
  10   2.0000     -88.948653     -2420.4159
  11   2.0000     -88.894600     -2418.9450
  12   2.0000     -62.549678     -1702.0633
  13   2.0000     -56.383610     -1534.2760
  14   2.0000     -56.380932     -1534.2032
  15   2.0000     -56.380891     -1534.2020
  16   2.0000     -19.189619      -522.1761
  17   2.0000     -14.425236      -392.5306
  18   2.0000     -14.393061      -391.6551
  19   2.0000     -14.389430      -391.5563
  20   2.0000     -10.376826      -282.3678
  21   2.0000     -10.348195      -281.5887
  22   2.0000     -10.341948      -281.4187
  23   2.0000     -10.339841      -281.3614
  24   2.0000     -10.328612      -281.0558
  25   2.0000     -10.324876      -280.9542
  26   2.0000     -10.323774      -280.9242
  27   2.0000     -10.323766      -280.9240
  28   2.0000     -10.323734      -280.9231
  29   2.0000     -10.321905      -280.8733
  30   2.0000     -10.321760      -280.8694
  31   2.0000     -10.321697      -280.8676
  32   2.0000     -10.321581      -280.8645
  33   2.0000     -10.321054      -280.8502
  34   2.0000     -10.320275      -280.8290
  35   2.0000     -10.316973      -280.7391
  36   2.0000     -10.316031      -280.7135
  37   2.0000     -10.315552      -280.7004
  38   2.0000     -10.313889      -280.6552
  39   2.0000     -10.313446      -280.6431
  40   2.0000     -10.310778      -280.5705
  41   2.0000     -10.310342      -280.5587
  42   2.0000     -10.309207      -280.5278
  43   2.0000     -10.305639      -280.4307
  44   2.0000     -10.302406      -280.3427
  45   2.0000     -10.300906      -280.3019
  46   2.0000     -10.298990      -280.2498
  47   2.0000     -10.298314      -280.2314
  48   2.0000     -10.297939      -280.2212
  49   2.0000     -10.297824      -280.2180
  50   2.0000     -10.296549      -280.1833
  51   2.0000     -10.296273      -280.1758
  52   2.0000     -10.295569      -280.1567
  53   2.0000     -10.294622      -280.1309
  54   2.0000     -10.294512      -280.1279
  55   2.0000     -10.292620      -280.0764
  56   2.0000     -10.291250      -280.0392
  57   2.0000     -10.287597      -279.9397
  58   2.0000     -10.285803      -279.8909
  59   2.0000     -10.285495      -279.8825
  60   2.0000     -10.283838      -279.8375
  61   2.0000     -10.281449      -279.7725
  62   2.0000     -10.280577      -279.7487
  63   2.0000     -10.279993      -279.7328
  64   2.0000     -10.269320      -279.4424
  65   2.0000     -10.263605      -279.2869
  66   2.0000     -10.262407      -279.2543
  67   2.0000      -8.779074      -238.8907
  68   2.0000      -8.069508      -219.5825
  69   2.0000      -8.069500      -219.5823
  70   2.0000      -8.068259      -219.5485
  71   2.0000      -8.067794      -219.5358
  72   2.0000      -8.067336      -219.5234
  73   2.0000      -8.056456      -219.2273
  74   2.0000      -8.054306      -219.1688
  75   2.0000      -8.054206      -219.1661
  76   2.0000      -8.047458      -218.9825
  77   2.0000      -8.044708      -218.9076
  78   2.0000      -7.991805      -217.4681
  79   2.0000      -6.615285      -180.0111
  80   2.0000      -6.600837      -179.6179
  81   2.0000      -6.600685      -179.6138
  82   2.0000      -6.039358      -164.3393
  83   2.0000      -6.038987      -164.3292
  84   2.0000      -6.037668      -164.2933
  85   2.0000      -6.037277      -164.2827
  86   2.0000      -6.037212      -164.2809
  87   2.0000      -6.035080      -164.2229
  88   2.0000      -6.034637      -164.2108
  89   2.0000      -6.033561      -164.1815
  90   2.0000      -6.033315      -164.1748
  91   2.0000      -6.033030      -164.1671
  92   2.0000      -6.031446      -164.1240
  93   2.0000      -6.030265      -164.0918
  94   2.0000      -6.029840      -164.0803
  95   2.0000      -6.029467      -164.0701
  96   2.0000      -6.027890      -164.0272
  97   2.0000      -6.026209      -163.9815
  98   2.0000      -6.024000      -163.9214
  99   2.0000      -6.023875      -163.9180
 100   2.0000      -6.022083      -163.8692
 101   2.0000      -6.019873      -163.8091
 102   2.0000      -6.019749      -163.8057
 103   2.0000      -6.017360      -163.7407
 104   2.0000      -6.017162      -163.7353
 105   2.0000      -6.015505      -163.6902
 106   2.0000      -6.015189      -163.6816
 107   2.0000      -6.014272      -163.6567
 108   2.0000      -6.012768      -163.6157
 109   2.0000      -6.010166      -163.5449
 110   2.0000      -6.008596      -163.5022
 111   2.0000      -6.006019      -163.4321
 112   2.0000      -5.961323      -162.2159
 113   2.0000      -5.958658      -162.1433
 114   2.0000      -5.951789      -161.9564
 115   2.0000      -2.731176       -74.3191
 116   2.0000      -2.727100       -74.2082
 117   2.0000      -2.727006       -74.2056
 118   2.0000      -2.715515       -73.8929
 119   2.0000      -2.715497       -73.8924
 120   2.0000      -1.102755       -30.0075
 121   2.0000      -1.083077       -29.4720
 122   2.0000      -1.023959       -27.8634
 123   2.0000      -1.008895       -27.4534
 124   2.0000      -1.003487       -27.3063
 125   2.0000      -1.001894       -27.2629
 126   2.0000      -0.991141       -26.9703
 127   2.0000      -0.990657       -26.9571
 128   2.0000      -0.987516       -26.8717
 129   2.0000      -0.979319       -26.6486
 130   2.0000      -0.970623       -26.4120
 131   2.0000      -0.966185       -26.2912
 132   2.0000      -0.965911       -26.2838
 133   2.0000      -0.930577       -25.3223
 134   2.0000      -0.922583       -25.1048
 135   2.0000      -0.916856       -24.9489
 136   2.0000      -0.907432       -24.6925
 137   2.0000      -0.898744       -24.4561
 138   2.0000      -0.888187       -24.1688
 139   2.0000      -0.886557       -24.1244
 140   2.0000      -0.880989       -23.9729
 141   2.0000      -0.870611       -23.6905
 142   2.0000      -0.865907       -23.5625
 143   2.0000      -0.864509       -23.5245
 144   2.0000      -0.859186       -23.3796
 145   2.0000      -0.856576       -23.3086
 146   2.0000      -0.852729       -23.2039
 147   2.0000      -0.836714       -22.7682
 148   2.0000      -0.835792       -22.7431
 149   2.0000      -0.832928       -22.6651
 150   2.0000      -0.826852       -22.4998
 151   2.0000      -0.820410       -22.3245
 152   2.0000      -0.809596       -22.0302
 153   2.0000      -0.804669       -21.8962
 154   2.0000      -0.788962       -21.4687
 155   2.0000      -0.787667       -21.4335
 156   2.0000      -0.771148       -20.9840
 157   2.0000      -0.757563       -20.6143
 158   2.0000      -0.739816       -20.1314
 159   2.0000      -0.734879       -19.9971
 160   2.0000      -0.723296       -19.6819
 161   2.0000      -0.709229       -19.2991
 162   2.0000      -0.706799       -19.2330
 163   2.0000      -0.693525       -18.8718
 164   2.0000      -0.682325       -18.5670
 165   2.0000      -0.676648       -18.4125
 166   2.0000      -0.675098       -18.3704
 167   2.0000      -0.668325       -18.1860
 168   2.0000      -0.664346       -18.0778
 169   2.0000      -0.652003       -17.7419
 170   2.0000      -0.647526       -17.6201
 171   2.0000      -0.645144       -17.5553
 172   2.0000      -0.637027       -17.3344
 173   2.0000      -0.636040       -17.3075
 174   2.0000      -0.633961       -17.2510
 175   2.0000      -0.626970       -17.0607
 176   2.0000      -0.624279       -16.9875
 177   2.0000      -0.621796       -16.9199
 178   2.0000      -0.613694       -16.6995
 179   2.0000      -0.608840       -16.5674
 180   2.0000      -0.607716       -16.5368
 181   2.0000      -0.601798       -16.3758
 182   2.0000      -0.601660       -16.3720
 183   2.0000      -0.581889       -15.8340
 184   2.0000      -0.577851       -15.7241
 185   2.0000      -0.575300       -15.6547
 186   2.0000      -0.573232       -15.5984
 187   2.0000      -0.564929       -15.3725
 188   2.0000      -0.553627       -15.0650
 189   2.0000      -0.551050       -14.9948
 190   2.0000      -0.545654       -14.8480
 191   2.0000      -0.538257       -14.6467
 192   2.0000      -0.537561       -14.6278
 193   2.0000      -0.535058       -14.5597
 194   2.0000      -0.533556       -14.5188
 195   2.0000      -0.526685       -14.3318
 196   2.0000      -0.522800       -14.2261
 197   2.0000      -0.522268       -14.2116
 198   2.0000      -0.516982       -14.0678
 199   2.0000      -0.516498       -14.0546
 200   2.0000      -0.513034       -13.9604
 201   2.0000      -0.509023       -13.8512
 202   2.0000      -0.508408       -13.8345
 203   2.0000      -0.505708       -13.7610
 204   2.0000      -0.503767       -13.7082
 205   2.0000      -0.499685       -13.5971
 206   2.0000      -0.498162       -13.5557
 207   2.0000      -0.495819       -13.4919
 208   2.0000      -0.490441       -13.3456
 209   2.0000      -0.490158       -13.3379
 210   2.0000      -0.489079       -13.3085
 211   2.0000      -0.485643       -13.2150
 212   2.0000      -0.481025       -13.0894
 213   2.0000      -0.479350       -13.0438
 214   2.0000      -0.475137       -12.9291
 215   2.0000      -0.473418       -12.8824
 216   2.0000      -0.472175       -12.8485
 217   2.0000      -0.469811       -12.7842
 218   2.0000      -0.466949       -12.7063
 219   2.0000      -0.465649       -12.6709
 220   2.0000      -0.465284       -12.6610
 221   2.0000      -0.458765       -12.4836
 222   2.0000      -0.457424       -12.4471
 223   2.0000      -0.453656       -12.3446
 224   2.0000      -0.450761       -12.2658
 225   2.0000      -0.449635       -12.2352
 226   2.0000      -0.447358       -12.1732
 227   2.0000      -0.440190       -11.9782
 228   2.0000      -0.439083       -11.9481
 229   2.0000      -0.438691       -11.9374
 230   2.0000      -0.434864       -11.8333
 231   2.0000      -0.430908       -11.7256
 232   2.0000      -0.428803       -11.6683
 233   2.0000      -0.427392       -11.6299
 234   2.0000      -0.426883       -11.6161
 235   2.0000      -0.423120       -11.5137
 236   2.0000      -0.421810       -11.4780
 237   2.0000      -0.419970       -11.4280
 238   2.0000      -0.419435       -11.4134
 239   2.0000      -0.415613       -11.3094
 240   2.0000      -0.406860       -11.0712
 241   2.0000      -0.404504       -11.0071
 242   2.0000      -0.403185       -10.9712
 243   2.0000      -0.401712       -10.9311
 244   2.0000      -0.400901       -10.9091
 245   2.0000      -0.394880       -10.7452
 246   2.0000      -0.385252       -10.4832
 247   2.0000      -0.384678       -10.4676
 248   2.0000      -0.373485       -10.1630
 249   2.0000      -0.370011       -10.0685
 250   2.0000      -0.364019        -9.9055
 251   2.0000      -0.361689        -9.8421
 252   2.0000      -0.361214        -9.8291
 253   2.0000      -0.352736        -9.5984
 254   2.0000      -0.348472        -9.4824
 255   2.0000      -0.345799        -9.4097
 256   2.0000      -0.338102        -9.2002
 257   2.0000      -0.336671        -9.1613
 258   2.0000      -0.333435        -9.0732
 259   2.0000      -0.325031        -8.8445
 260   2.0000      -0.321720        -8.7544
 261   2.0000      -0.311146        -8.4667
 262   2.0000      -0.310375        -8.4457
 263   2.0000      -0.296271        -8.0620
 264   2.0000      -0.292158        -7.9500
 265   2.0000      -0.291807        -7.9405
 266   2.0000      -0.280610        -7.6358
 267   2.0000      -0.275408        -7.4942
 268   2.0000      -0.265191        -7.2162
 269   2.0000      -0.228666        -6.2223
 270   2.0000      -0.202621        -5.5136
 271   0.0000      -0.117432        -3.1955
 272   0.0000      -0.086840        -2.3630
 273   0.0000      -0.055002        -1.4967
 274   0.0000      -0.040585        -1.1044
 275   0.0000      -0.032209        -0.8765

MULLIKEN ATOMIC CHARGES
-----------------------
   0 C :    0.327398
   1 C :   -0.368574
   2 C :   -0.194582
   3 N :    0.130765
   4 C :   -0.194291
   5 N :    0.118940
   6 C :    0.013110
   7 C :   -0.008719
   8 C :   -0.081558
   9 C :    0.117246
  10 C :   -0.091153
  11 C :   -0.029332
  12 S :    0.173711
  13 C :   -0.123129
  14 C :    0.035290
  15 Br:    0.008915
  16 C :    0.132812
  17 O :   -0.168373
  18 C :   -0.093148
  19 C :   -0.047060
  20 C :   -0.020721
  21 C :    0.004670
  22 C :    0.015604
  23 C :    0.043288
  24 C :   -0.056393
  25 S :    0.101190
  26 C :   -0.019578
  27 C :    0.021233
  28 C :    0.040888
  29 C :   -0.037675
  30 S :    0.147891
  31 C :    0.017721
  32 C :   -0.159121
  33 S :    0.134644
  34 C :    0.101056
  35 N :   -0.067251
  36 C :    0.034330
  37 S :    0.113850
  38 C :   -0.018428
  39 C :   -0.136871
  40 C :   -0.005673
  41 C :   -0.000338
  42 C :   -0.005946
  43 C :   -0.022345
  44 C :    0.033815
  45 C :    0.030267
  46 C :   -0.049255
  47 S :    0.082946
  48 C :   -0.032505
  49 C :    0.025996
  50 C :    0.035249
  51 C :   -0.033934
  52 S :    0.072848
  53 C :   -0.023666
  54 C :   -0.127766
  55 S :    0.130290
  56 C :   -0.128301
  57 C :    0.009866
  58 C :   -0.018730
  59 S :    0.189062
  60 C :   -0.171426
  61 S :   -0.109725
  62 S :    0.192779
  63 H :   -0.016952
  64 H :   -0.011471
  65 H :   -0.007645
  66 H :    0.016617
  67 H :    0.012498
  68 H :   -0.004324
  69 H :   -0.009043
  70 H :   -0.011831
  71 H :   -0.007326
  72 H :   -0.009008
  73 H :    0.065732
  74 H :   -0.005352
  75 H :    0.010513
  76 H :   -0.009804
  77 H :   -0.007507
  78 H :   -0.009192
  79 H :   -0.008089
  80 H :   -0.006734
  81 H :   -0.004877
  82 H :    0.031693
Sum of atomic charges:   -0.0000000

LOEWDIN ATOMIC CHARGES
----------------------
   0 C :    0.072957
   1 C :   -0.166973
   2 C :   -0.019852
   3 N :   -0.078554
   4 C :   -0.019017
   5 N :   -0.082597
   6 C :   -0.016825
   7 C :   -0.047293
   8 C :    0.014379
   9 C :   -0.037789
  10 C :   -0.146948
  11 C :   -0.016079
  12 S :    0.423537
  13 C :   -0.276916
  14 C :   -0.071218
  15 Br:    0.125478
  16 C :    0.079928
  17 O :   -0.163218
  18 C :   -0.116902
  19 C :    0.043635
  20 C :   -0.077286
  21 C :   -0.104311
  22 C :   -0.051381
  23 C :   -0.010807
  24 C :   -0.198546
  25 S :    0.415617
  26 C :   -0.152467
  27 C :   -0.046047
  28 C :   -0.015647
  29 C :   -0.159739
  30 S :    0.456039
  31 C :   -0.044463
  32 C :   -0.182833
  33 S :    0.437703
  34 C :   -0.060473
  35 N :   -0.094167
  36 C :   -0.074466
  37 S :    0.397409
  38 C :   -0.207220
  39 C :   -0.166791
  40 C :   -0.049753
  41 C :   -0.023890
  42 C :   -0.057592
  43 C :   -0.138031
  44 C :   -0.034691
  45 C :   -0.026276
  46 C :   -0.177706
  47 S :    0.382671
  48 C :   -0.172170
  49 C :   -0.034591
  50 C :   -0.026792
  51 C :   -0.150657
  52 S :    0.374300
  53 C :   -0.070522
  54 C :   -0.192798
  55 S :    0.448295
  56 C :   -0.204712
  57 C :   -0.218440
  58 C :   -0.220315
  59 S :    0.404618
  60 C :   -0.440710
  61 S :   -0.012593
  62 S :    0.400873
  63 H :    0.037855
  64 H :    0.039317
  65 H :    0.036816
  66 H :    0.029150
  67 H :    0.037277
  68 H :    0.036426
  69 H :    0.033735
  70 H :    0.031666
  71 H :    0.034665
  72 H :    0.038253
  73 H :    0.030887
  74 H :    0.035179
  75 H :    0.018161
  76 H :    0.035340
  77 H :    0.035561
  78 H :    0.033608
  79 H :    0.034018
  80 H :    0.035888
  81 H :    0.038326
  82 H :    0.029500

  Mayer bond orders larger than 0.100000
B(  0-C ,  1-C ) :   1.5584 B(  0-C ,  6-C ) :   0.9861 B(  0-C , 18-C ) :   1.1387
B(  1-C ,  2-C ) :   1.1525 B(  1-C ,  4-C ) :   1.1588 B(  2-C ,  3-N ) :   2.9608
B(  4-C ,  5-N ) :   2.9613 B(  6-C ,  7-C ) :   1.2781 B(  6-C , 11-C ) :   1.4259
B(  7-C ,  8-C ) :   1.4356 B(  7-C , 16-C ) :   0.9312 B(  8-C ,  9-C ) :   1.2363
B(  8-C , 63-H ) :   1.0158 B(  9-C , 10-C ) :   1.3206 B(  9-C , 14-C ) :   1.1607
B( 10-C , 11-C ) :   1.3164 B( 10-C , 12-S ) :   1.0807 B( 11-C , 64-H ) :   0.9795
B( 12-S , 13-C ) :   1.0848 B( 13-C , 14-C ) :   1.6196 B( 13-C , 15-Br) :   1.0098
B( 14-C , 65-H ) :   1.0006 B( 16-C , 17-O ) :   2.1877 B( 16-C , 18-C ) :   0.9757
B( 18-C , 19-C ) :   1.4327 B( 19-C , 20-C ) :   1.3102 B( 19-C , 66-H ) :   0.9423
B( 20-C , 21-C ) :   1.3631 B( 20-C , 67-H ) :   0.9821 B( 21-C , 22-C ) :   1.2168
B( 21-C , 25-S ) :   1.0973 B( 22-C , 23-C ) :   1.4913 B( 22-C , 68-H ) :   1.0024
B( 23-C , 24-C ) :   1.2612 B( 23-C , 69-H ) :   0.9954 B( 24-C , 25-S ) :   1.0559
B( 24-C , 26-C ) :   1.3956 B( 26-C , 27-C ) :   1.2274 B( 26-C , 30-S ) :   1.0900
B( 27-C , 28-C ) :   1.5348 B( 27-C , 70-H ) :   0.9955 B( 28-C , 29-C ) :   1.1886
B( 28-C , 71-H ) :   0.9995 B( 29-C , 30-S ) :   1.0599 B( 29-C , 31-C ) :   1.4998
B( 31-C , 32-C ) :   1.2728 B( 31-C , 72-H ) :   0.9471 B( 32-C , 33-S ) :   1.0870
B( 32-C , 34-C ) :   1.3136 B( 33-S , 39-C ) :   1.1091 B( 34-C , 35-N ) :   1.3001
B( 34-C , 38-C ) :   1.2964 B( 35-N , 36-C ) :   1.7448 B( 35-N , 37-S ) :   0.1009
B( 36-C , 37-S ) :   1.1087 B( 36-C , 73-H ) :   0.9625 B( 37-S , 38-C ) :   1.0601
B( 38-C , 39-C ) :   1.4085 B( 39-C , 40-C ) :   1.2413 B( 40-C , 41-C ) :   1.5326
B( 40-C , 74-H ) :   0.9790 B( 41-C , 42-C ) :   1.2333 B( 41-C , 75-H ) :   0.9657
B( 42-C , 43-C ) :   1.4948 B( 42-C , 76-H ) :   0.9835 B( 43-C , 44-C ) :   1.1774
B( 43-C , 47-S ) :   1.0484 B( 44-C , 45-C ) :   1.5537 B( 44-C , 77-H ) :   0.9999
B( 45-C , 46-C ) :   1.2138 B( 45-C , 78-H ) :   0.9945 B( 46-C , 47-S ) :   1.0531
B( 46-C , 48-C ) :   1.4765 B( 48-C , 49-C ) :   1.1995 B( 48-C , 52-S ) :   1.0499
B( 49-C , 50-C ) :   1.5785 B( 49-C , 79-H ) :   0.9939 B( 50-C , 51-C ) :   1.1481
B( 50-C , 80-H ) :   1.0013 B( 51-C , 52-S ) :   1.0385 B( 51-C , 53-C ) :   1.5779
B( 53-C , 54-C ) :   1.1939 B( 53-C , 81-H ) :   0.9637 B( 54-C , 55-S ) :   1.1141
B( 54-C , 58-C ) :   1.5097 B( 55-S , 56-C ) :   1.1542 B( 56-C , 57-C ) :   1.5715
B( 56-C , 82-H ) :   0.9740 B( 57-C , 58-C ) :   1.2745 B( 57-C , 62-S ) :   0.9810
B( 58-C , 59-S ) :   1.0055 B( 59-S , 60-C ) :   1.0647 B( 59-S , 61-S ) :   0.1304
B( 60-C , 61-S ) :   1.7039 B( 60-C , 62-S ) :   1.0731 B( 61-S , 62-S ) :   0.1356

-----------------------------------------------------------------------------
         ABSORPTION SPECTRUM VIA TRANSITION ELECTRIC DIPOLE MOMENTS
-----------------------------------------------------------------------------
State   Energy  Wavelength   fosc         T2         TX        TY        TZ
        (cm-1)    (nm)                  (au**2)     (au)      (au)      (au)
-----------------------------------------------------------------------------
   0    6566.4   1522.9   0.948705420  47.56428   3.38844   3.68368   4.74481
   1   12482.2    801.1   0.146318021   3.85906   1.61020   0.39976  -1.05190
   2   13570.0    736.9   0.823432653  19.97669  -2.72798  -0.73980   3.46230
   3   18433.4    542.5   0.051628317   0.92206  -0.30144   0.68477  -0.60189
   4   20263.0    493.5   0.967685668  15.72195   1.11035  -3.50571   1.48293
   5   20639.2    484.5   0.362600842   5.78379  -0.72085   2.23878  -0.50204
   6   22267.3    449.1   0.417675771   6.17516  -1.12424   2.07600  -0.77552
   7   23490.2    425.7   0.118640716   1.66273  -1.25951   0.21247  -0.17670
   8   24206.1    413.1   0.081254005   1.10508  -0.84496   0.59113  -0.20418
   9   24714.9    404.6   0.051992078   0.69255  -0.67886   0.29157   0.38301
  10   26001.8    384.6   0.095491549   1.20903  -0.74233  -0.71419  -0.38459
  11   26527.6    377.0   0.002166510   0.02689  -0.14865   0.04041  -0.05619
  12   26600.0    375.9   0.005604076   0.06936   0.10997   0.06405   0.23057
  13   26837.7    372.6   0.013187845   0.16177  -0.14823  -0.26357  -0.26520
  14   27089.0    369.2   0.000073872   0.00090  -0.02578   0.01409  -0.00591
  15   27533.3    363.2   0.036310211   0.43416   0.59261  -0.14034   0.25154
  16   27646.2    361.7   0.050673880   0.60343   0.37324   0.66957   0.12569
  17   27900.0    358.4   0.010031097   0.11836   0.24851   0.20012   0.12867
  18   28905.2    346.0   0.058254195   0.66348   0.69612   0.35005   0.23742
  19   29655.2    337.2   0.000048387   0.00054  -0.01930  -0.01281  -0.00054
  20   29745.9    336.2   0.048859097   0.54075   0.62255  -0.37635  -0.10742
  21   29989.7    333.4   0.066976929   0.73524  -0.47748  -0.58178  -0.41083
  22   30569.2    327.1   0.024650694   0.26547  -0.19729  -0.23074   0.41630
  23   30942.7    323.2   0.014343404   0.15261   0.27383   0.20221   0.19166
  24   31132.6    321.2   0.375437960   3.97007  -1.71921  -0.99986  -0.12118
  25   31253.2    320.0   0.081287871   0.85626   0.71939   0.44926   0.37001
  26   31524.3    317.2   0.059889063   0.62543  -0.65268  -0.22832   0.38380
  27   31753.8    314.9   0.000861139   0.00893  -0.02971  -0.07122  -0.05453
  28   31846.2    314.0   0.034970970   0.36151  -0.42452  -0.13410  -0.40413
  29   32163.7    310.9   0.017421261   0.17832   0.35065   0.23279   0.03419
  30   32370.6    308.9   0.120561819   1.22612   1.03754  -0.16730  -0.34879
  31   33035.3    302.7   0.025664144   0.25575  -0.33699   0.28814   0.24324
  32   33358.7    299.8   0.025342581   0.25010  -0.42277  -0.10001   0.24772
  33   33554.1    298.0   0.100094194   0.98206  -0.70164  -0.48830  -0.50134
  34   33985.5    294.2   0.035355325   0.34248   0.16962   0.49929   0.25381
  35   34124.6    293.0   0.039979879   0.38570  -0.27941  -0.47823   0.28095
  36   34325.5    291.3   0.052366511   0.50224   0.43714  -0.20998  -0.51678
  37   34639.3    288.7   0.035885461   0.34106  -0.25181   0.03911   0.52547
  38   35545.1    281.3   0.003603515   0.03338  -0.04537   0.14045  -0.10766
  39   35752.2    279.7   0.098589897   0.90783  -0.51438  -0.80148   0.02941
  40   35780.3    279.5   0.145451332   1.33829   0.59039   0.99415  -0.03733
  41   35924.0    278.4   0.028718719   0.26318   0.23099   0.44781  -0.09639
  42   36207.1    276.2   0.025819378   0.23476  -0.21093  -0.42738  -0.08729
  43   36477.2    274.1   0.015378473   0.13879  -0.17650   0.30350  -0.12462
  44   36753.3    272.1   0.035842526   0.32105  -0.23481   0.47800   0.19348
  45   36871.3    271.2   0.000515713   0.00460   0.06502  -0.01051  -0.01631
  46   37065.0    269.8   0.024993395   0.22199  -0.10570   0.41636  -0.19355
  47   37159.9    269.1   0.025800427   0.22857  -0.07033   0.28187  -0.37970
  48   37285.9    268.2   0.024561548   0.21686  -0.05945  -0.39414  -0.24080
  49   37596.4    266.0   0.010601983   0.09284   0.16607   0.22252  -0.12547
  50   37873.6    264.0   0.006757004   0.05873  -0.02685   0.23503  -0.05266
  51   38364.2    260.7   0.050914826   0.43691  -0.59387   0.17844  -0.22889
  52   38592.8    259.1   0.005938259   0.05066  -0.04889   0.18194   0.12315
  53   39011.1    256.3   0.072052572   0.60805  -0.17048  -0.67324   0.35459
  54   39432.1    253.6   0.188225227   1.57146   0.20028   1.07538  -0.61229
  55   39597.3    252.5   0.173860618   1.44548   0.19338  -0.55533  -1.04866
  56   39807.6    251.2   0.151857247   1.25587  -0.15227   0.25406   1.08081
  57   40171.3    248.9   0.026972320   0.22104   0.03704   0.14729   0.44495

FINAL SINGLE POINT ENERGY     -8992.520580844590

DIPOLE MOMENT
-------------
                                X             Y             Z
Electronic contribution:    137.57814      48.81956      29.27659
Nuclear contribution   :   -141.39266     -50.66547     -30.46104
                        -----------------------------------------
Total Dipole Moment    :     -3.81451      -1.84591      -1.18445
                        -----------------------------------------
Magnitude (a.u.)       :      4.40009
Magnitude (Debye)      :     11.18415

Rotational constants in cm-1:     0.000703     0.000237     0.000210
Rotational constants in MHz :    21.065515     7.104554     6.307349

                             ****ORCA TERMINATED NORMALLY****
TOTAL RUN TIME: 0 days 0 hours 8 minutes 31 seconds 335 msec
