                         Program Version 4.2.0 -  RELEASE  -
|  1> # ORCA input file
|  2> # SCF done       -174.757362785393          0.000362938552
|  3> ! CAM-B3LYP def2-SVP def2/J RIJCOSX Grid4 TightSCF
|  4> %maxcore 5000
|  5> %tddft
|  6>     Mode sTDDFT
|  7>     Ethresh 5.0
|  8>     maxcore 5000
|  9> end
| 10>
| 11> %pal
| 12>   nprocs 6
| 13>   end
| 14> * xyz 0 1
| 15>    C       -5.71032         3.62439         1.31562
| 16>    C       -5.44789         2.32533         1.69667
| 17>    C       -4.25524         1.91072         2.31829
| 18>    N       -3.30977         1.50132         2.82830
| 19>    C       -6.31454         1.22568         1.55145
| 20>    N       -6.94728         0.26671         1.48909
| 21>    C       -4.80304         4.75436         1.51717
| 22>    C       -5.43614         5.93076         1.04879
| 23>    C       -4.83843         7.16460         1.10151
| 24>    C       -3.54942         7.24371         1.64240
| 25>    C       -2.92524         6.06413         2.10567
| 26>    C       -3.53173         4.81394         2.05292
| 27>    S       -1.33572         6.38566         2.73333
| 28>    C       -1.53196         8.07924         2.36876
| 29>    C       -2.72313         8.39000         1.80666
| 30>   Br       -0.14327         9.27810         2.76539
| 31>    C       -6.77627         5.58291         0.52226
| 32>    O       -7.58478         6.35983         0.04924
| 33>    C       -6.90023         4.12707         0.68937
| 34>    C       -7.98798         3.37541         0.27846
| 35>    C       -9.15083         3.86885        -0.29158
| 36>    C      -10.18667         3.03317        -0.68279
| 37>    C      -11.43657         3.39846        -1.22147
| 38>    C      -12.26230         2.33959        -1.49103
| 39>    C      -11.69364         1.09173        -1.18427
| 40>    S      -10.07966         1.29547        -0.54135
| 41>    C      -12.22548        -0.18336        -1.31889
| 42>    C      -13.50939        -0.58606        -1.73746
| 43>    C      -13.68706        -1.93902        -1.72484
| 44>    C      -12.55873        -2.67936        -1.29054
| 45>    S      -11.25286        -1.57061        -0.91831
| 46>    C      -12.48009        -4.05276        -1.27681
| 47>    C      -11.44287        -4.91232        -0.87498
| 48>    S      -11.42956        -6.49601        -1.62582
| 49>    C       -9.96731        -6.95102        -0.80146
| 50>    C       -9.54896        -5.92874         0.05309
| 51>    C      -10.38070        -4.80268         0.02794
| 52>    C      -10.19165        -3.68026         0.99538
| 53>    C       -9.39786        -4.14773         2.20998
| 54>    C       -8.06827        -4.74198         1.73049
| 55>    N       -7.12182        -5.05931         2.78515
| 56>    C       -8.34482        -6.02302         0.93531
| 57>    C       -9.43327        -8.22651        -1.10946
| 58>    C       -8.29758        -8.79368        -0.63263
| 59>    C       -7.80870       -10.06066        -1.02986
| 60>    S       -8.62088       -11.13894        -2.15093
| 61>    C       -7.36121       -12.31031        -2.05534
| 62>    C       -6.36113       -11.91725        -1.21646
| 63>    C       -6.62475       -10.64175        -0.63462
| 64>    S       -5.37299       -10.07661         0.44203
| 65>    C       -4.46056       -11.53530         0.12762
| 66>    C       -5.09792       -12.43702        -0.77010
| 67>    C       -4.34702       -13.55545        -0.98915
| 68>    S       -2.86478       -13.51743        -0.11017
| 69>    C       -3.22931       -11.95176         0.59307
| 70>    C       -2.39259       -11.24896         1.47993
| 71>    C       -1.16127       -11.61667         1.94178
| 72>    C       -0.35860       -10.85830         2.83942
| 73>    C        0.83130       -11.43046         3.14727
| 74>    C        1.05146       -12.68055         2.51259
| 75>    S       -0.32797       -13.09937         1.50743
| 76>    C        2.15074       -13.49510         2.61649
| 77>    C        3.32131       -13.27068         3.39700
| 78>    C        4.24880       -14.24737         3.30411
| 79>    C        3.88512       -15.33121         2.43543
| 80>    S        2.28126       -15.01498         1.75284
| 81>    C        4.60062       -16.42662         2.14906
| 82>    H       -5.34672         8.04347         0.73686
| 83>    H       -3.01152         3.94454         2.41824
| 84>    H       -3.00998         9.38493         1.51873
| 85>    H       -7.93356         2.30139         0.41207
| 86>    H       -9.26681         4.93351        -0.43061
| 87>    H      -11.69520         4.42906        -1.38807
| 88>    H      -13.25244         2.43226        -1.90070
| 89>    H      -14.26348         0.12295        -2.02802
| 90>    H      -14.60020        -2.43165        -2.00967
| 91>    H      -13.32772        -4.55609        -1.72963
| 92>    H      -11.16386        -3.28601         1.29772
| 93>    H       -9.63460        -2.86883         0.52007
| 94>    H       -9.96034        -4.90327         2.76581
| 95>    H       -9.21276        -3.29908         2.87115
| 96>    H       -7.57963        -4.01076         1.07684
| 97>    H       -7.56115        -5.63909         3.49350
| 98>    H       -6.79639        -4.21163         3.23558
| 99>    H       -8.48493        -6.84669         1.64353
|100>    H       -7.46149        -6.25091         0.33588
|101>    H      -10.00974        -8.79786        -1.82852
|102>    H       -7.67019        -8.29165         0.08610
|103>    H       -7.43789       -13.21366        -2.62591
|104>    H       -4.57047       -14.39763        -1.61189
|105>    H       -2.78684       -10.30032         1.82421
|106>    H       -0.69976        -9.91210         3.22118
|107>    H        1.55933       -10.99472         3.80762
|108>    H        3.42894       -12.38720         4.00104
|109>    H        5.19285       -14.25186         3.81961
|110>    H        5.57163       -16.57789         2.58658
|111>    H        4.23377       -17.18281         1.47967
|112> *
|113>
|114>                          ****END OF INPUT****

CARTESIAN COORDINATES (ANGSTROEM)
---------------------------------
  C     -5.710320    3.624390    1.315620
  C     -5.447890    2.325330    1.696670
  C     -4.255240    1.910720    2.318290
  N     -3.309770    1.501320    2.828300
  C     -6.314540    1.225680    1.551450
  N     -6.947280    0.266710    1.489090
  C     -4.803040    4.754360    1.517170
  C     -5.436140    5.930760    1.048790
  C     -4.838430    7.164600    1.101510
  C     -3.549420    7.243710    1.642400
  C     -2.925240    6.064130    2.105670
  C     -3.531730    4.813940    2.052920
  S     -1.335720    6.385660    2.733330
  C     -1.531960    8.079240    2.368760
  C     -2.723130    8.390000    1.806660
  Br    -0.143270    9.278100    2.765390
  C     -6.776270    5.582910    0.522260
  O     -7.584780    6.359830    0.049240
  C     -6.900230    4.127070    0.689370
  C     -7.987980    3.375410    0.278460
  C     -9.150830    3.868850   -0.291580
  C    -10.186670    3.033170   -0.682790
  C    -11.436570    3.398460   -1.221470
  C    -12.262300    2.339590   -1.491030
  C    -11.693640    1.091730   -1.184270
  S    -10.079660    1.295470   -0.541350
  C    -12.225480   -0.183360   -1.318890
  C    -13.509390   -0.586060   -1.737460
  C    -13.687060   -1.939020   -1.724840
  C    -12.558730   -2.679360   -1.290540
  S    -11.252860   -1.570610   -0.918310
  C    -12.480090   -4.052760   -1.276810
  C    -11.442870   -4.912320   -0.874980
  S    -11.429560   -6.496010   -1.625820
  C     -9.967310   -6.951020   -0.801460
  C     -9.548960   -5.928740    0.053090
  C    -10.380700   -4.802680    0.027940
  C    -10.191650   -3.680260    0.995380
  C     -9.397860   -4.147730    2.209980
  C     -8.068270   -4.741980    1.730490
  N     -7.121820   -5.059310    2.785150
  C     -8.344820   -6.023020    0.935310
  C     -9.433270   -8.226510   -1.109460
  C     -8.297580   -8.793680   -0.632630
  C     -7.808700  -10.060660   -1.029860
  S     -8.620880  -11.138940   -2.150930
  C     -7.361210  -12.310310   -2.055340
  C     -6.361130  -11.917250   -1.216460
  C     -6.624750  -10.641750   -0.634620
  S     -5.372990  -10.076610    0.442030
  C     -4.460560  -11.535300    0.127620
  C     -5.097920  -12.437020   -0.770100
  C     -4.347020  -13.555450   -0.989150
  S     -2.864780  -13.517430   -0.110170
  C     -3.229310  -11.951760    0.593070
  C     -2.392590  -11.248960    1.479930
  C     -1.161270  -11.616670    1.941780
  C     -0.358600  -10.858300    2.839420
  C      0.831300  -11.430460    3.147270
  C      1.051460  -12.680550    2.512590
  S     -0.327970  -13.099370    1.507430
  C      2.150740  -13.495100    2.616490
  C      3.321310  -13.270680    3.397000
  C      4.248800  -14.247370    3.304110
  C      3.885120  -15.331210    2.435430
  S      2.281260  -15.014980    1.752840
  C      4.600620  -16.426620    2.149060
  H     -5.346720    8.043470    0.736860
  H     -3.011520    3.944540    2.418240
  H     -3.009980    9.384930    1.518730
  H     -7.933560    2.301390    0.412070
  H     -9.266810    4.933510   -0.430610
  H    -11.695200    4.429060   -1.388070
  H    -13.252440    2.432260   -1.900700
  H    -14.263480    0.122950   -2.028020
  H    -14.600200   -2.431650   -2.009670
  H    -13.327720   -4.556090   -1.729630
  H    -11.163860   -3.286010    1.297720
  H     -9.634600   -2.868830    0.520070
  H     -9.960340   -4.903270    2.765810
  H     -9.212760   -3.299080    2.871150
  H     -7.579630   -4.010760    1.076840
  H     -7.561150   -5.639090    3.493500
  H     -6.796390   -4.211630    3.235580
  H     -8.484930   -6.846690    1.643530
  H     -7.461490   -6.250910    0.335880
  H    -10.009740   -8.797860   -1.828520
  H     -7.670190   -8.291650    0.086100
  H     -7.437890  -13.213660   -2.625910
  H     -4.570470  -14.397630   -1.611890
  H     -2.786840  -10.300320    1.824210
  H     -0.699760   -9.912100    3.221180
  H      1.559330  -10.994720    3.807620
  H      3.428940  -12.387200    4.001040
  H      5.192850  -14.251860    3.819610
  H      5.571630  -16.577890    2.586580
  H      4.233770  -17.182810    1.479670

 Total Charge           Charge          ....    0
 Multiplicity           Mult            ....    1
 Number of Electrons    NEL             ....  556
 Basis Dimension        Dim             .... 1142

ORBITAL ENERGIES
----------------

  NO   OCC          E(Eh)            E(eV)
   0   2.0000    -482.872856    -13139.6384
   1   2.0000     -88.960893     -2420.7490
   2   2.0000     -88.960297     -2420.7327
   3   2.0000     -88.959595     -2420.7137
   4   2.0000     -88.956679     -2420.6343
   5   2.0000     -88.956302     -2420.6240
   6   2.0000     -88.952189     -2420.5121
   7   2.0000     -88.949767     -2420.4462
   8   2.0000     -88.940016     -2420.1809
   9   2.0000     -88.934410     -2420.0283
  10   2.0000     -62.550574     -1702.0876
  11   2.0000     -56.384506     -1534.3004
  12   2.0000     -56.381825     -1534.2275
  13   2.0000     -56.381783     -1534.2263
  14   2.0000     -19.191248      -522.2204
  15   2.0000     -14.395744      -391.7281
  16   2.0000     -14.391276      -391.6065
  17   2.0000     -14.375622      -391.1806
  18   2.0000     -10.343248      -281.4541
  19   2.0000     -10.341565      -281.4083
  20   2.0000     -10.332423      -281.1595
  21   2.0000     -10.319794      -280.8159
  22   2.0000     -10.319747      -280.8146
  23   2.0000     -10.316192      -280.7179
  24   2.0000     -10.313296      -280.6391
  25   2.0000     -10.312875      -280.6276
  26   2.0000     -10.312182      -280.6087
  27   2.0000     -10.310657      -280.5672
  28   2.0000     -10.307487      -280.4810
  29   2.0000     -10.307013      -280.4681
  30   2.0000     -10.306141      -280.4444
  31   2.0000     -10.304829      -280.4087
  32   2.0000     -10.304803      -280.4079
  33   2.0000     -10.304064      -280.3878
  34   2.0000     -10.304021      -280.3867
  35   2.0000     -10.303736      -280.3789
  36   2.0000     -10.303282      -280.3665
  37   2.0000     -10.303022      -280.3595
  38   2.0000     -10.302339      -280.3409
  39   2.0000     -10.300549      -280.2922
  40   2.0000     -10.300078      -280.2794
  41   2.0000     -10.297438      -280.2075
  42   2.0000     -10.297175      -280.2004
  43   2.0000     -10.296431      -280.1801
  44   2.0000     -10.295937      -280.1667
  45   2.0000     -10.292020      -280.0601
  46   2.0000     -10.289327      -279.9868
  47   2.0000     -10.288983      -279.9775
  48   2.0000     -10.288903      -279.9753
  49   2.0000     -10.288384      -279.9612
  50   2.0000     -10.287870      -279.9472
  51   2.0000     -10.287853      -279.9467
  52   2.0000     -10.286977      -279.9229
  53   2.0000     -10.286142      -279.9002
  54   2.0000     -10.285362      -279.8789
  55   2.0000     -10.284597      -279.8581
  56   2.0000     -10.284160      -279.8462
  57   2.0000     -10.282416      -279.7988
  58   2.0000     -10.281950      -279.7861
  59   2.0000     -10.281845      -279.7832
  60   2.0000     -10.281806      -279.7822
  61   2.0000     -10.281432      -279.7720
  62   2.0000     -10.281345      -279.7696
  63   2.0000     -10.279901      -279.7303
  64   2.0000     -10.270822      -279.4833
  65   2.0000     -10.269355      -279.4434
  66   2.0000     -10.268050      -279.4078
  67   2.0000     -10.266548      -279.3670
  68   2.0000     -10.265558      -279.3400
  69   2.0000     -10.264625      -279.3147
  70   2.0000     -10.257893      -279.1314
  71   2.0000      -8.779995      -238.9158
  72   2.0000      -8.056324      -219.2237
  73   2.0000      -8.056086      -219.2173
  74   2.0000      -8.055548      -219.2026
  75   2.0000      -8.052716      -219.1255
  76   2.0000      -8.051303      -219.0871
  77   2.0000      -8.048213      -219.0030
  78   2.0000      -8.045106      -218.9185
  79   2.0000      -8.036127      -218.6741
  80   2.0000      -8.031136      -218.5383
  81   2.0000      -6.616224      -180.0366
  82   2.0000      -6.601745      -179.6426
  83   2.0000      -6.601603      -179.6388
  84   2.0000      -6.026046      -163.9770
  85   2.0000      -6.025507      -163.9624
  86   2.0000      -6.025256      -163.9555
  87   2.0000      -6.021912      -163.8645
  88   2.0000      -6.021777      -163.8609
  89   2.0000      -6.021244      -163.8464
  90   2.0000      -6.020974      -163.8390
  91   2.0000      -6.020741      -163.8327
  92   2.0000      -6.018179      -163.7630
  93   2.0000      -6.018050      -163.7595
  94   2.0000      -6.017785      -163.7523
  95   2.0000      -6.017386      -163.7414
  96   2.0000      -6.016779      -163.7249
  97   2.0000      -6.016380      -163.7140
  98   2.0000      -6.015057      -163.6780
  99   2.0000      -6.014657      -163.6671
 100   2.0000      -6.013729      -163.6419
 101   2.0000      -6.013399      -163.6329
 102   2.0000      -6.011207      -163.5733
 103   2.0000      -6.009475      -163.5261
 104   2.0000      -6.005959      -163.4304
 105   2.0000      -6.005564      -163.4197
 106   2.0000      -6.001900      -163.3200
 107   2.0000      -6.000995      -163.2954
 108   2.0000      -5.997049      -163.1880
 109   2.0000      -5.996858      -163.1828
 110   2.0000      -5.991617      -163.0402
 111   2.0000      -2.732085       -74.3438
 112   2.0000      -2.728037       -74.2337
 113   2.0000      -2.727943       -74.2311
 114   2.0000      -2.716430       -73.9178
 115   2.0000      -2.716407       -73.9172
 116   2.0000      -1.104153       -30.0455
 117   2.0000      -1.012087       -27.5403
 118   2.0000      -1.009111       -27.4593
 119   2.0000      -1.003444       -27.3051
 120   2.0000      -0.995894       -27.0997
 121   2.0000      -0.993072       -27.0229
 122   2.0000      -0.988937       -26.9103
 123   2.0000      -0.982991       -26.7486
 124   2.0000      -0.978588       -26.6287
 125   2.0000      -0.972721       -26.4691
 126   2.0000      -0.967710       -26.3327
 127   2.0000      -0.966843       -26.3091
 128   2.0000      -0.964047       -26.2330
 129   2.0000      -0.924546       -25.1582
 130   2.0000      -0.920661       -25.0525
 131   2.0000      -0.913420       -24.8554
 132   2.0000      -0.903839       -24.5947
 133   2.0000      -0.896088       -24.3838
 134   2.0000      -0.891488       -24.2586
 135   2.0000      -0.888823       -24.1861
 136   2.0000      -0.884019       -24.0554
 137   2.0000      -0.869148       -23.6507
 138   2.0000      -0.866786       -23.5865
 139   2.0000      -0.862275       -23.4637
 140   2.0000      -0.857869       -23.3438
 141   2.0000      -0.849314       -23.1110
 142   2.0000      -0.841107       -22.8877
 143   2.0000      -0.834630       -22.7114
 144   2.0000      -0.831031       -22.6135
 145   2.0000      -0.828971       -22.5574
 146   2.0000      -0.825761       -22.4701
 147   2.0000      -0.814686       -22.1687
 148   2.0000      -0.810946       -22.0669
 149   2.0000      -0.809383       -22.0244
 150   2.0000      -0.801177       -21.8011
 151   2.0000      -0.794604       -21.6223
 152   2.0000      -0.785998       -21.3881
 153   2.0000      -0.769276       -20.9331
 154   2.0000      -0.760762       -20.7014
 155   2.0000      -0.747532       -20.3414
 156   2.0000      -0.737159       -20.0591
 157   2.0000      -0.725105       -19.7311
 158   2.0000      -0.717309       -19.5190
 159   2.0000      -0.715475       -19.4691
 160   2.0000      -0.705694       -19.2029
 161   2.0000      -0.697140       -18.9701
 162   2.0000      -0.687577       -18.7099
 163   2.0000      -0.678903       -18.4739
 164   2.0000      -0.677539       -18.4368
 165   2.0000      -0.672929       -18.3113
 166   2.0000      -0.668187       -18.1823
 167   2.0000      -0.652645       -17.7594
 168   2.0000      -0.651732       -17.7345
 169   2.0000      -0.644300       -17.5323
 170   2.0000      -0.639752       -17.4085
 171   2.0000      -0.636953       -17.3324
 172   2.0000      -0.629211       -17.1217
 173   2.0000      -0.628373       -17.0989
 174   2.0000      -0.623425       -16.9643
 175   2.0000      -0.622578       -16.9412
 176   2.0000      -0.614078       -16.7099
 177   2.0000      -0.611886       -16.6503
 178   2.0000      -0.606796       -16.5118
 179   2.0000      -0.603326       -16.4173
 180   2.0000      -0.596940       -16.2436
 181   2.0000      -0.592469       -16.1219
 182   2.0000      -0.586328       -15.9548
 183   2.0000      -0.580030       -15.7834
 184   2.0000      -0.578360       -15.7380
 185   2.0000      -0.574671       -15.6376
 186   2.0000      -0.573097       -15.5948
 187   2.0000      -0.566859       -15.4250
 188   2.0000      -0.551747       -15.0138
 189   2.0000      -0.544648       -14.8206
 190   2.0000      -0.542199       -14.7540
 191   2.0000      -0.538938       -14.6653
 192   2.0000      -0.536092       -14.5878
 193   2.0000      -0.532161       -14.4808
 194   2.0000      -0.525976       -14.3125
 195   2.0000      -0.523549       -14.2465
 196   2.0000      -0.518134       -14.0991
 197   2.0000      -0.517006       -14.0684
 198   2.0000      -0.514797       -14.0083
 199   2.0000      -0.513040       -13.9605
 200   2.0000      -0.510972       -13.9043
 201   2.0000      -0.510426       -13.8894
 202   2.0000      -0.509667       -13.8687
 203   2.0000      -0.507493       -13.8096
 204   2.0000      -0.505480       -13.7548
 205   2.0000      -0.503113       -13.6904
 206   2.0000      -0.499067       -13.5803
 207   2.0000      -0.496353       -13.5064
 208   2.0000      -0.491439       -13.3727
 209   2.0000      -0.490839       -13.3564
 210   2.0000      -0.488670       -13.2974
 211   2.0000      -0.487077       -13.2540
 212   2.0000      -0.486179       -13.2296
 213   2.0000      -0.483972       -13.1695
 214   2.0000      -0.482240       -13.1224
 215   2.0000      -0.476306       -12.9610
 216   2.0000      -0.476132       -12.9562
 217   2.0000      -0.474171       -12.9028
 218   2.0000      -0.473376       -12.8812
 219   2.0000      -0.471747       -12.8369
 220   2.0000      -0.470935       -12.8148
 221   2.0000      -0.470307       -12.7977
 222   2.0000      -0.467410       -12.7189
 223   2.0000      -0.465245       -12.6600
 224   2.0000      -0.458393       -12.4735
 225   2.0000      -0.457525       -12.4499
 226   2.0000      -0.454504       -12.3677
 227   2.0000      -0.453434       -12.3386
 228   2.0000      -0.452518       -12.3136
 229   2.0000      -0.444590       -12.0979
 230   2.0000      -0.443893       -12.0790
 231   2.0000      -0.440307       -11.9814
 232   2.0000      -0.438594       -11.9348
 233   2.0000      -0.432778       -11.7765
 234   2.0000      -0.429783       -11.6950
 235   2.0000      -0.426982       -11.6188
 236   2.0000      -0.426022       -11.5927
 237   2.0000      -0.423542       -11.5252
 238   2.0000      -0.422474       -11.4961
 239   2.0000      -0.421292       -11.4639
 240   2.0000      -0.418927       -11.3996
 241   2.0000      -0.417555       -11.3623
 242   2.0000      -0.414592       -11.2816
 243   2.0000      -0.410256       -11.1636
 244   2.0000      -0.407092       -11.0775
 245   2.0000      -0.406291       -11.0557
 246   2.0000      -0.404706       -11.0126
 247   2.0000      -0.403160       -10.9705
 248   2.0000      -0.401737       -10.9318
 249   2.0000      -0.399558       -10.8725
 250   2.0000      -0.394079       -10.7234
 251   2.0000      -0.392956       -10.6929
 252   2.0000      -0.390778       -10.6336
 253   2.0000      -0.387361       -10.5406
 254   2.0000      -0.386600       -10.5199
 255   2.0000      -0.385439       -10.4883
 256   2.0000      -0.373704       -10.1690
 257   2.0000      -0.366729        -9.9792
 258   2.0000      -0.362596        -9.8667
 259   2.0000      -0.356039        -9.6883
 260   2.0000      -0.348503        -9.4833
 261   2.0000      -0.344780        -9.3819
 262   2.0000      -0.335451        -9.1281
 263   2.0000      -0.332875        -9.0580
 264   2.0000      -0.327238        -8.9046
 265   2.0000      -0.323886        -8.8134
 266   2.0000      -0.313870        -8.5408
 267   2.0000      -0.312536        -8.5045
 268   2.0000      -0.311943        -8.4884
 269   2.0000      -0.302870        -8.2415
 270   2.0000      -0.298512        -8.1229
 271   2.0000      -0.297510        -8.0957
 272   2.0000      -0.285336        -7.7644
 273   2.0000      -0.276017        -7.5108
 274   2.0000      -0.273674        -7.4470
 275   2.0000      -0.250747        -6.8232
 276   2.0000      -0.216495        -5.8911
 277   2.0000      -0.211660        -5.7596
 278   0.0000      -0.105265        -2.8644
 279   0.0000      -0.061817        -1.6821
 280   0.0000      -0.056557        -1.5390
 281   0.0000      -0.041716        -1.1352
 282   0.0000      -0.022947        -0.6244

MULLIKEN ATOMIC CHARGES
-----------------------
   0 C :    0.336040
   1 C :   -0.377396
   2 C :   -0.194111
   3 N :    0.131350
   4 C :   -0.189574
   5 N :    0.117517
   6 C :    0.012523
   7 C :   -0.010729
   8 C :   -0.081140
   9 C :    0.120469
  10 C :   -0.092804
  11 C :   -0.027777
  12 S :    0.175656
  13 C :   -0.123614
  14 C :    0.034928
  15 Br:    0.009760
  16 C :    0.134571
  17 O :   -0.169169
  18 C :   -0.089243
  19 C :   -0.049407
  20 C :   -0.022613
  21 C :    0.009685
  22 C :    0.015383
  23 C :    0.049987
  24 C :   -0.056489
  25 S :    0.092750
  26 C :   -0.020788
  27 C :    0.022404
  28 C :    0.047307
  29 C :   -0.041911
  30 S :    0.095730
  31 C :    0.025478
  32 C :   -0.158861
  33 S :    0.118063
  34 C :   -0.103005
  35 C :   -0.071986
  36 C :   -0.070942
  37 C :    0.100011
  38 C :    0.077270
  39 C :   -0.061215
  40 N :   -0.169911
  41 C :    0.138303
  42 C :    0.031704
  43 C :   -0.016050
  44 C :   -0.137424
  45 S :    0.115801
  46 C :   -0.136096
  47 C :    0.131143
  48 C :   -0.020362
  49 S :    0.114411
  50 C :   -0.020318
  51 C :    0.130001
  52 C :   -0.135383
  53 S :    0.120484
  54 C :   -0.138192
  55 C :   -0.037424
  56 C :   -0.029325
  57 C :    0.036663
  58 C :    0.026640
  59 C :   -0.040254
  60 S :    0.063115
  61 C :   -0.067888
  62 C :    0.029610
  63 C :    0.052813
  64 C :   -0.063218
  65 S :    0.079310
  66 C :   -0.030360
  67 H :   -0.018075
  68 H :   -0.012717
  69 H :   -0.007721
  70 H :    0.014954
  71 H :    0.012382
  72 H :   -0.003908
  73 H :   -0.008878
  74 H :   -0.008833
  75 H :   -0.002666
  76 H :    0.000797
  77 H :    0.017641
  78 H :    0.051383
  79 H :   -0.009621
  80 H :    0.002267
  81 H :    0.008519
  82 H :    0.085586
  83 H :    0.097567
  84 H :    0.009755
  85 H :    0.038314
  86 H :   -0.015355
  87 H :   -0.006708
  88 H :    0.017624
  89 H :    0.014336
  90 H :   -0.009929
  91 H :   -0.011394
  92 H :   -0.013794
  93 H :   -0.011461
  94 H :   -0.012068
  95 H :    0.018527
  96 H :    0.021580
Sum of atomic charges:   -0.0000000

LOEWDIN ATOMIC CHARGES
----------------------
   0 C :    0.074204
   1 C :   -0.167096
   2 C :   -0.019587
   3 N :   -0.077708
   4 C :   -0.018457
   5 N :   -0.083827
   6 C :   -0.017424
   7 C :   -0.047516
   8 C :    0.015094
   9 C :   -0.037303
  10 C :   -0.146855
  11 C :   -0.015173
  12 S :    0.423978
  13 C :   -0.276374
  14 C :   -0.071183
  15 Br:    0.125983
  16 C :    0.080239
  17 O :   -0.163534
  18 C :   -0.117950
  19 C :    0.046041
  20 C :   -0.080251
  21 C :   -0.101061
  22 C :   -0.052286
  23 C :   -0.006763
  24 C :   -0.204253
  25 S :    0.411251
  26 C :   -0.142295
  27 C :   -0.050579
  28 C :   -0.005498
  29 C :   -0.172370
  30 S :    0.434678
  31 C :   -0.033235
  32 C :   -0.191158
  33 S :    0.431365
  34 C :   -0.149820
  35 C :   -0.054238
  36 C :   -0.033604
  37 C :   -0.040655
  38 C :   -0.038682
  39 C :    0.013823
  40 N :   -0.101082
  41 C :   -0.028510
  42 C :   -0.058804
  43 C :   -0.024032
  44 C :   -0.201362
  45 S :    0.435554
  46 C :   -0.170911
  47 C :   -0.072766
  48 C :   -0.170299
  49 S :    0.371472
  50 C :   -0.181863
  51 C :   -0.076108
  52 C :   -0.183913
  53 S :    0.442514
  54 C :   -0.196963
  55 C :   -0.077986
  56 C :   -0.149775
  57 C :   -0.031181
  58 C :   -0.034563
  59 C :   -0.180014
  60 S :    0.358357
  61 C :   -0.176141
  62 C :   -0.026204
  63 C :   -0.030877
  64 C :   -0.138876
  65 S :    0.349738
  66 C :   -0.077536
  67 H :    0.037798
  68 H :    0.039226
  69 H :    0.036866
  70 H :    0.028863
  71 H :    0.037610
  72 H :    0.036908
  73 H :    0.034353
  74 H :    0.034016
  75 H :    0.036736
  76 H :    0.038310
  77 H :    0.029007
  78 H :    0.029224
  79 H :    0.016941
  80 H :    0.025207
  81 H :    0.025484
  82 H :    0.049399
  83 H :    0.057680
  84 H :    0.030204
  85 H :    0.038110
  86 H :    0.022508
  87 H :    0.034001
  88 H :    0.026225
  89 H :    0.024434
  90 H :    0.037325
  91 H :    0.034082
  92 H :    0.031492
  93 H :    0.032391
  94 H :    0.033347
  95 H :    0.028294
  96 H :    0.026175

  Mayer bond orders larger than 0.100000
B(  0-C ,  1-C ) :   1.5554 B(  0-C ,  6-C ) :   0.9833 B(  0-C , 18-C ) :   1.1404
B(  1-C ,  2-C ) :   1.1560 B(  1-C ,  4-C ) :   1.1596 B(  2-C ,  3-N ) :   2.9602
B(  4-C ,  5-N ) :   2.9593 B(  6-C ,  7-C ) :   1.2802 B(  6-C , 11-C ) :   1.4222
B(  7-C ,  8-C ) :   1.4349 B(  7-C , 16-C ) :   0.9294 B(  8-C ,  9-C ) :   1.2341
B(  8-C , 67-H ) :   1.0164 B(  9-C , 10-C ) :   1.3224 B(  9-C , 14-C ) :   1.1580
B( 10-C , 11-C ) :   1.3164 B( 10-C , 12-S ) :   1.0810 B( 11-C , 68-H ) :   0.9799
B( 12-S , 13-C ) :   1.0852 B( 13-C , 14-C ) :   1.6216 B( 13-C , 15-Br) :   1.0105
B( 14-C , 69-H ) :   1.0005 B( 16-C , 17-O ) :   2.1888 B( 16-C , 18-C ) :   0.9738
B( 18-C , 19-C ) :   1.4341 B( 19-C , 20-C ) :   1.3032 B( 19-C , 70-H ) :   0.9407
B( 20-C , 21-C ) :   1.3706 B( 20-C , 71-H ) :   0.9830 B( 21-C , 22-C ) :   1.2078
B( 21-C , 25-S ) :   1.0992 B( 22-C , 23-C ) :   1.5067 B( 22-C , 72-H ) :   1.0020
B( 23-C , 24-C ) :   1.2474 B( 23-C , 73-H ) :   0.9946 B( 24-C , 25-S ) :   1.0459
B( 24-C , 26-C ) :   1.4242 B( 26-C , 27-C ) :   1.2115 B( 26-C , 30-S ) :   1.0993
B( 27-C , 28-C ) :   1.5621 B( 27-C , 74-H ) :   0.9941 B( 28-C , 29-C ) :   1.1643
B( 28-C , 75-H ) :   0.9976 B( 29-C , 30-S ) :   1.0261 B( 29-C , 31-C ) :   1.5791
B( 31-C , 32-C ) :   1.1779 B( 31-C , 76-H ) :   0.9431 B( 32-C , 33-S ) :   1.0887
B( 32-C , 36-C ) :   1.4266 B( 33-S , 34-C ) :   1.1377 B( 34-C , 35-C ) :   1.4520
B( 34-C , 42-C ) :   1.1542 B( 35-C , 36-C ) :   1.3660 B( 35-C , 41-C ) :   1.0266
B( 36-C , 37-C ) :   1.0497 B( 37-C , 38-C ) :   1.0746 B( 37-C , 77-H ) :   0.9232
B( 37-C , 78-H ) :   0.8875 B( 38-C , 39-C ) :   1.0432 B( 38-C , 79-H ) :   0.9264
B( 38-C , 80-H ) :   0.9287 B( 39-C , 40-N ) :   1.1074 B( 39-C , 41-C ) :   1.0334
B( 39-C , 81-H ) :   0.9195 B( 40-N , 82-H ) :   0.9691 B( 40-N , 83-H ) :   0.9688
B( 41-C , 84-H ) :   0.9055 B( 41-C , 85-H ) :   0.9031 B( 42-C , 43-C ) :   1.6494
B( 42-C , 86-H ) :   0.9488 B( 43-C , 44-C ) :   1.1667 B( 43-C , 87-H ) :   0.9648
B( 44-C , 45-S ) :   1.1033 B( 44-C , 48-C ) :   1.5137 B( 45-S , 46-C ) :   1.1489
B( 46-C , 47-C ) :   1.5427 B( 46-C , 88-H ) :   0.9679 B( 47-C , 48-C ) :   1.2364
B( 47-C , 51-C ) :   1.0002 B( 48-C , 49-S ) :   1.0199 B( 49-S , 50-C ) :   1.0039
B( 50-C , 51-C ) :   1.2557 B( 50-C , 54-C ) :   1.5112 B( 51-C , 52-C ) :   1.5285
B( 52-C , 53-S ) :   1.1475 B( 52-C , 89-H ) :   0.9690 B( 53-S , 54-C ) :   1.1104
B( 54-C , 55-C ) :   1.1607 B( 55-C , 56-C ) :   1.6109 B( 55-C , 90-H ) :   0.9655
B( 56-C , 57-C ) :   1.1249 B( 56-C , 60-S ) :   1.0319 B( 57-C , 58-C ) :   1.6177
B( 57-C , 91-H ) :   1.0007 B( 58-C , 59-C ) :   1.1620 B( 58-C , 92-H ) :   0.9917
B( 59-C , 60-S ) :   1.0289 B( 59-C , 61-C ) :   1.5722 B( 61-C , 62-C ) :   1.1487
B( 61-C , 65-S ) :   1.0422 B( 62-C , 63-C ) :   1.6658 B( 62-C , 93-H ) :   0.9911
B( 63-C , 64-C ) :   1.0785 B( 63-C , 94-H ) :   0.9923 B( 64-C , 65-S ) :   1.0074
B( 64-C , 66-C ) :   1.8668 B( 66-C , 95-H ) :   0.9503 B( 66-C , 96-H ) :   0.9417

-----------------------------------------------------------------------------
         ABSORPTION SPECTRUM VIA TRANSITION ELECTRIC DIPOLE MOMENTS
-----------------------------------------------------------------------------
State   Energy  Wavelength   fosc         T2         TX        TY        TZ
        (cm-1)    (nm)                  (au**2)     (au)      (au)      (au)
-----------------------------------------------------------------------------
   0   10391.6    962.3   1.173321204  37.17144  -1.55732  -5.82446  -0.90659
   1   15673.7    638.0   0.188429319   3.95780   1.86285  -0.40231   0.57075
   2   19260.9    519.2   2.119073936  36.21969  -5.30230   2.39924  -1.53262
   3   19702.9    507.5   0.228598870   3.81961  -1.65693   0.90302  -0.50867
   4   20870.5    479.1   0.282929230   4.46293   1.13803  -1.73357   0.40317
   5   23336.0    428.5   0.163162896   2.30182  -1.37552   0.62087  -0.15578
   6   24625.4    406.1   0.000534954   0.00715   0.00305   0.08451   0.00072
   7   24827.6    402.8   0.203249922   2.69508   0.48635   1.56572  -0.08409
   8   25254.2    396.0   0.026096420   0.34019  -0.48957   0.29604  -0.11347
   9   26687.1    374.7   0.208341437   2.57010   1.45911  -0.52587   0.40568
  10   27227.9    367.3   0.000240793   0.00291   0.04711  -0.02470   0.00905
  11   27631.4    361.9   0.006904550   0.08226  -0.17275   0.22882  -0.00783
  12   28024.7    356.8   0.000224671   0.00264  -0.04332   0.02098  -0.01797
  13   28586.2    349.8   0.043199300   0.49750  -0.25842  -0.34167  -0.56034
  14   28691.5    348.5   0.001422475   0.01632   0.10678  -0.05211  -0.04694
  15   28867.8    346.4   0.011431916   0.13037  -0.16430  -0.06593  -0.31469
  16   29478.1    339.2   0.004871856   0.05441  -0.10259   0.03425   0.20666
  17   29522.3    338.7   0.049182426   0.54845  -0.06758  -0.63209  -0.37993
  18   30114.4    332.1   0.125711439   1.37428  -1.13103   0.19486  -0.23893
  19   30388.0    329.1   0.023057593   0.24980   0.39598  -0.27712  -0.12728
  20   30575.7    327.1   0.003642382   0.03922   0.09657   0.10655  -0.13616
  21   31522.4    317.2   0.063421173   0.66236  -0.42629  -0.56068  -0.40776
  22   32050.9    312.0   0.012876564   0.13226  -0.18487  -0.31122  -0.03506
  23   32244.7    310.1   0.526600766   5.37650  -1.22347  -1.94746  -0.29499
  24   32910.8    303.9   0.027675761   0.27685   0.16361  -0.40701  -0.29055
  25   33018.1    302.9   0.040174253   0.40056  -0.30141   0.37760   0.40882
  26   33469.7    298.8   0.238689959   2.34778   0.38939   1.27835   0.74965
  27   33624.3    297.4   0.158724700   1.55406  -0.08404   1.23702   0.12951
  28   33981.1    294.3   0.015804975   0.15312   0.35855   0.09017  -0.12819
  29   34315.7    291.4   0.061965049   0.59447  -0.64413  -0.42197  -0.03884
  30   34699.7    288.2   0.013605520   0.12908  -0.12022  -0.33815   0.01685
  31   35188.3    284.2   0.019510143   0.18253   0.21245   0.14467   0.34127
  32   35405.9    282.4   0.024114419   0.22422  -0.00889   0.47335  -0.00914
  33   35694.2    280.2   0.035798816   0.33018   0.19198  -0.49453   0.22082
  34   36111.4    276.9   0.068853867   0.62771  -0.30171  -0.72167  -0.12598
  35   36549.9    273.6   0.024611622   0.22168   0.05620  -0.42082  -0.20354
  36   37226.3    268.6   0.085974071   0.76031  -0.31742   0.64143  -0.49812
  37   37425.1    267.2   0.056758866   0.49928   0.38613   0.47320   0.35535
  38   37798.5    264.6   0.038783597   0.33779   0.50621  -0.09594   0.26895
  39   37920.1    263.7   0.007470836   0.06486  -0.23613  -0.01829  -0.09363
  40   38055.0    262.8   0.039638779   0.34291   0.26825  -0.45226   0.25772
  41   38126.4    262.3   0.016508911   0.14255   0.20007  -0.25982  -0.18711
  42   38600.2    259.1   0.014845014   0.12661   0.02979  -0.31928   0.15422
  43   39549.6    252.8   0.166589610   1.38670  -0.27065   1.12158  -0.23559
  44   39831.9    251.1   0.191432302   1.58219   0.93876  -0.81395   0.19595
  45   39923.7    250.5   0.077303776   0.63745  -0.69755   0.16309  -0.35252
  46   40294.6    248.2   0.006792694   0.05550   0.14929  -0.17234   0.05922

FINAL SINGLE POINT ENERGY     -8430.740076673532

DIPOLE MOMENT
-------------
                                X             Y             Z
Electronic contribution:     69.12836     156.76940      12.23208
Nuclear contribution   :    -71.56998    -158.70099     -12.90526
                        -----------------------------------------
Total Dipole Moment    :     -2.44161      -1.93159      -0.67319
                        -----------------------------------------
Magnitude (a.u.)       :      3.18523
Magnitude (Debye)      :      8.09622

Rotational constants in cm-1:     0.000636     0.000233     0.000173
Rotational constants in MHz :    19.057463     6.994865     5.186450

                             ****ORCA TERMINATED NORMALLY****
TOTAL RUN TIME: 0 days 0 hours 10 minutes 10 seconds 298 msec
