                         Program Version 4.2.0 -  RELEASE  -
|  1> # ORCA input file
|  2> # SCF done       -195.357608796255          0.000340168245
|  3> ! CAM-B3LYP def2-SVP def2/J RIJCOSX Grid4 TightSCF
|  4> %maxcore 5000
|  5> %tddft
|  6>     Mode sTDDFT
|  7>     Ethresh 5.0
|  8>     maxcore 5000
|  9> end
| 10>
| 11> %pal
| 12>   nprocs 6
| 13>   end
| 14> * xyz 0 1
| 15>    C       -3.16045        -2.71298        -2.83463
| 16>    C       -1.86972        -2.45620        -3.22990
| 17>    C       -0.74467        -3.17474        -2.77735
| 18>    N        0.21250        -3.71439        -2.44335
| 19>    C       -1.48109        -1.44035        -4.12552
| 20>    N       -1.08773        -0.63775        -4.84763
| 21>    C       -3.57399        -3.77356        -1.92429
| 22>    C       -4.97787        -3.70502        -1.74429
| 23>    C       -5.66696        -4.58194        -0.94366
| 24>    C       -4.93780        -5.58518        -0.29606
| 25>    C       -3.53582        -5.64617        -0.48018
| 26>    C       -2.83755        -4.75377        -1.28379
| 27>    S       -2.83063        -6.95871         0.41379
| 28>    C       -4.40696        -7.40284         1.01250
| 29>    C       -5.41087        -6.61037         0.56792
| 30>   Br       -4.57724        -8.86872         2.16915
| 31>    C       -5.51786        -2.57698        -2.52489
| 32>    O       -6.63175        -2.11184        -2.45135
| 33>    C       -4.35470        -2.02458        -3.27813
| 34>    C       -4.42720        -0.97403        -4.14338
| 35>    C       -5.62559        -0.52812        -4.75316
| 36>    O       -5.68207         0.74386        -5.24464
| 37>    C       -6.80108        -1.17320        -5.09106
| 38>    C       -7.48624        -2.47368        -5.10679
| 39>    O       -7.13186        -3.56482        -4.74558
| 40>    N       -8.69524        -2.19522        -5.73902
| 41>    C       -8.84838        -0.88560        -6.19140
| 42>    O       -9.80992        -0.46166        -6.77734
| 43>    C       -7.59745        -0.23738        -5.78955
| 44>    C       -6.87407         0.93950        -5.86194
| 45>    C       -7.19163         2.18013        -6.48083
| 46>    C       -6.34201         3.22829        -6.50236
| 47>    C       -6.66332         4.49588        -7.11434
| 48>    C       -7.94398         4.97239        -7.04179
| 49>    S       -8.18308         6.50851        -7.75614
| 50>    C       -6.51586         6.53546        -8.24513
| 51>    C       -5.79517         5.40621        -7.83145
| 52>    C       -4.43044         5.30863        -8.19737
| 53>    C       -3.63204         4.14911        -7.66400
| 54>    C       -3.14530         4.44018        -6.24088
| 55>    C       -3.83316         6.29160        -8.97812
| 56>    C       -2.38397         6.16485        -9.37375
| 57>    C       -2.18846         5.19357       -10.54486
| 58>    C       -4.56989         7.43005        -9.39509
| 59>    C       -4.18144         8.62687       -10.11305
| 60>    C       -5.18346         9.55513       -10.12384
| 61>    S       -6.65263         9.04979        -9.39932
| 62>    C       -5.90617         7.54388        -8.97094
| 63>    C       -2.97230         9.00437       -10.82789
| 64>    C       -2.35861         8.29060       -11.79749
| 65>    C       -1.26386         8.71279       -12.59335
| 66>    C       -0.74331         9.96942       -12.76722
| 67>    C        0.34951        10.28145       -13.61729
| 68>    C        0.63364        11.61058       -13.71535
| 69>    C       -0.21758        12.43385       -12.95191
| 70>    S       -1.37000        11.45787       -12.07100
| 71>    C       -0.22630        13.81898       -12.87920
| 72>    C        0.63730        14.72549       -13.51801
| 73>    C        0.33962        16.03915       -13.26995
| 74>    C       -0.76910        16.23133       -12.42902
| 75>    S       -1.42523        14.68229       -11.94229
| 76>    C       -1.31433        17.44403       -12.02959
| 77>    C       -2.42030        17.57597       -11.21503
| 78>    C       -2.98523        18.78390       -10.83221
| 79>    C       -4.11373        18.96056       -10.01122
| 80>    C       -4.45987        20.26668        -9.80350
| 81>    C       -3.61592        21.18863       -10.45480
| 82>    S       -2.36434        20.34082       -11.33953
| 83>    C       -3.69917        22.56825       -10.44735
| 84>    C       -4.66031        23.36673        -9.77523
| 85>    C       -4.49805        24.70012        -9.94829
| 86>    C       -3.38623        25.05626       -10.77830
| 87>    S       -2.56810        23.58060       -11.31670
| 88>    C       -2.97898        26.28581       -11.12797
| 89>    H       -6.73641        -4.50259        -0.83015
| 90>    H       -1.76923        -4.84176        -1.38943
| 91>    H       -6.44317        -6.74170         0.83639
| 92>    H       -3.53655        -0.43118        -4.42935
| 93>    H       -9.40026        -2.90327        -5.88723
| 94>    H       -8.15275         2.21093        -6.97150
| 95>    H       -5.39401         3.11877        -6.00035
| 96>    H       -8.76783         4.50201        -6.54127
| 97>    H       -2.76678         3.94217        -8.28607
| 98>    H       -4.25242         3.25252        -7.67960
| 99>    H       -2.42684         5.25706        -6.24935
|100>    H       -2.66093         3.56203        -5.81964
|101>    H       -3.96794         4.73502        -5.59315
|102>    H       -1.78990         5.82937        -8.52327
|103>    H       -2.01004         7.14712        -9.65622
|104>    H       -2.27899         4.15743       -10.22975
|105>    H       -1.20155         5.32908       -10.98122
|106>    H       -2.93966         5.35981       -11.31320
|107>    H       -5.13846        10.52369       -10.58387
|108>    H       -2.64162        10.01396       -10.62527
|109>    H       -2.71647         7.29429       -12.00809
|110>    H       -0.79310         7.94018       -13.18925
|111>    H        0.88593         9.50783       -14.13812
|112>    H        1.41979        12.01644       -14.32628
|113>    H        1.44990        14.39827       -14.14122
|114>    H        0.88786        16.87118       -13.67561
|115>    H       -0.83352        18.34163       -12.39793
|116>    H       -2.89660        16.67659       -10.84443
|117>    H       -4.64188        18.12035        -9.59574
|118>    H       -5.29468        20.58113        -9.20369
|119>    H       -5.44245        22.92423        -9.18425
|120>    H       -5.12779        25.45797        -9.51754
|121>    H       -3.50401        27.15710       -10.77846
|122>    H       -2.12442        26.44014       -11.76057
|123> *
|124>
|125>                          ****END OF INPUT****

CARTESIAN COORDINATES (ANGSTROEM)
---------------------------------
  C     -3.160450   -2.712980   -2.834630
  C     -1.869720   -2.456200   -3.229900
  C     -0.744670   -3.174740   -2.777350
  N      0.212500   -3.714390   -2.443350
  C     -1.481090   -1.440350   -4.125520
  N     -1.087730   -0.637750   -4.847630
  C     -3.573990   -3.773560   -1.924290
  C     -4.977870   -3.705020   -1.744290
  C     -5.666960   -4.581940   -0.943660
  C     -4.937800   -5.585180   -0.296060
  C     -3.535820   -5.646170   -0.480180
  C     -2.837550   -4.753770   -1.283790
  S     -2.830630   -6.958710    0.413790
  C     -4.406960   -7.402840    1.012500
  C     -5.410870   -6.610370    0.567920
  Br    -4.577240   -8.868720    2.169150
  C     -5.517860   -2.576980   -2.524890
  O     -6.631750   -2.111840   -2.451350
  C     -4.354700   -2.024580   -3.278130
  C     -4.427200   -0.974030   -4.143380
  C     -5.625590   -0.528120   -4.753160
  O     -5.682070    0.743860   -5.244640
  C     -6.801080   -1.173200   -5.091060
  C     -7.486240   -2.473680   -5.106790
  O     -7.131860   -3.564820   -4.745580
  N     -8.695240   -2.195220   -5.739020
  C     -8.848380   -0.885600   -6.191400
  O     -9.809920   -0.461660   -6.777340
  C     -7.597450   -0.237380   -5.789550
  C     -6.874070    0.939500   -5.861940
  C     -7.191630    2.180130   -6.480830
  C     -6.342010    3.228290   -6.502360
  C     -6.663320    4.495880   -7.114340
  C     -7.943980    4.972390   -7.041790
  S     -8.183080    6.508510   -7.756140
  C     -6.515860    6.535460   -8.245130
  C     -5.795170    5.406210   -7.831450
  C     -4.430440    5.308630   -8.197370
  C     -3.632040    4.149110   -7.664000
  C     -3.145300    4.440180   -6.240880
  C     -3.833160    6.291600   -8.978120
  C     -2.383970    6.164850   -9.373750
  C     -2.188460    5.193570  -10.544860
  C     -4.569890    7.430050   -9.395090
  C     -4.181440    8.626870  -10.113050
  C     -5.183460    9.555130  -10.123840
  S     -6.652630    9.049790   -9.399320
  C     -5.906170    7.543880   -8.970940
  C     -2.972300    9.004370  -10.827890
  C     -2.358610    8.290600  -11.797490
  C     -1.263860    8.712790  -12.593350
  C     -0.743310    9.969420  -12.767220
  C      0.349510   10.281450  -13.617290
  C      0.633640   11.610580  -13.715350
  C     -0.217580   12.433850  -12.951910
  S     -1.370000   11.457870  -12.071000
  C     -0.226300   13.818980  -12.879200
  C      0.637300   14.725490  -13.518010
  C      0.339620   16.039150  -13.269950
  C     -0.769100   16.231330  -12.429020
  S     -1.425230   14.682290  -11.942290
  C     -1.314330   17.444030  -12.029590
  C     -2.420300   17.575970  -11.215030
  C     -2.985230   18.783900  -10.832210
  C     -4.113730   18.960560  -10.011220
  C     -4.459870   20.266680   -9.803500
  C     -3.615920   21.188630  -10.454800
  S     -2.364340   20.340820  -11.339530
  C     -3.699170   22.568250  -10.447350
  C     -4.660310   23.366730   -9.775230
  C     -4.498050   24.700120   -9.948290
  C     -3.386230   25.056260  -10.778300
  S     -2.568100   23.580600  -11.316700
  C     -2.978980   26.285810  -11.127970
  H     -6.736410   -4.502590   -0.830150
  H     -1.769230   -4.841760   -1.389430
  H     -6.443170   -6.741700    0.836390
  H     -3.536550   -0.431180   -4.429350
  H     -9.400260   -2.903270   -5.887230
  H     -8.152750    2.210930   -6.971500
  H     -5.394010    3.118770   -6.000350
  H     -8.767830    4.502010   -6.541270
  H     -2.766780    3.942170   -8.286070
  H     -4.252420    3.252520   -7.679600
  H     -2.426840    5.257060   -6.249350
  H     -2.660930    3.562030   -5.819640
  H     -3.967940    4.735020   -5.593150
  H     -1.789900    5.829370   -8.523270
  H     -2.010040    7.147120   -9.656220
  H     -2.278990    4.157430  -10.229750
  H     -1.201550    5.329080  -10.981220
  H     -2.939660    5.359810  -11.313200
  H     -5.138460   10.523690  -10.583870
  H     -2.641620   10.013960  -10.625270
  H     -2.716470    7.294290  -12.008090
  H     -0.793100    7.940180  -13.189250
  H      0.885930    9.507830  -14.138120
  H      1.419790   12.016440  -14.326280
  H      1.449900   14.398270  -14.141220
  H      0.887860   16.871180  -13.675610
  H     -0.833520   18.341630  -12.397930
  H     -2.896600   16.676590  -10.844430
  H     -4.641880   18.120350   -9.595740
  H     -5.294680   20.581130   -9.203690
  H     -5.442450   22.924230   -9.184250
  H     -5.127790   25.457970   -9.517540
  H     -3.504010   27.157100  -10.778460
  H     -2.124420   26.440140  -11.760570

 Total Charge           Charge          ....    0
 Multiplicity           Mult            ....    1
 Number of Electrons    NEL             ....  588
 Basis Dimension        Dim             .... 1252

ORBITAL ENERGIES
----------------

  NO   OCC          E(Eh)            E(eV)
   0   2.0000    -482.885863    -13139.9924
   1   2.0000     -88.975714     -2421.1523
   2   2.0000     -88.956415     -2420.6271
   3   2.0000     -88.948542     -2420.4129
   4   2.0000     -88.941636     -2420.2250
   5   2.0000     -88.940994     -2420.2075
   6   2.0000     -88.940835     -2420.2032
   7   2.0000     -88.936659     -2420.0895
   8   2.0000     -62.563563     -1702.4411
   9   2.0000     -56.397516     -1534.6544
  10   2.0000     -56.394796     -1534.5804
  11   2.0000     -56.394767     -1534.5796
  12   2.0000     -19.317086      -525.6446
  13   2.0000     -19.215969      -522.8931
  14   2.0000     -19.215018      -522.8672
  15   2.0000     -19.212140      -522.7889
  16   2.0000     -14.456166      -393.3723
  17   2.0000     -14.419600      -392.3773
  18   2.0000     -14.417162      -392.3109
  19   2.0000     -10.403037      -283.0810
  20   2.0000     -10.401653      -283.0434
  21   2.0000     -10.371007      -282.2094
  22   2.0000     -10.368642      -282.1451
  23   2.0000     -10.363904      -282.0162
  24   2.0000     -10.359416      -281.8940
  25   2.0000     -10.345324      -281.5106
  26   2.0000     -10.344581      -281.4903
  27   2.0000     -10.326026      -280.9855
  28   2.0000     -10.325000      -280.9575
  29   2.0000     -10.322122      -280.8792
  30   2.0000     -10.319883      -280.8183
  31   2.0000     -10.309311      -280.5306
  32   2.0000     -10.308128      -280.4984
  33   2.0000     -10.307395      -280.4785
  34   2.0000     -10.307097      -280.4704
  35   2.0000     -10.306630      -280.4577
  36   2.0000     -10.306202      -280.4460
  37   2.0000     -10.305800      -280.4351
  38   2.0000     -10.304023      -280.3867
  39   2.0000     -10.303631      -280.3760
  40   2.0000     -10.303312      -280.3674
  41   2.0000     -10.302642      -280.3492
  42   2.0000     -10.301760      -280.3252
  43   2.0000     -10.301043      -280.3056
  44   2.0000     -10.300828      -280.2998
  45   2.0000     -10.300699      -280.2963
  46   2.0000     -10.300596      -280.2935
  47   2.0000     -10.298424      -280.2344
  48   2.0000     -10.296760      -280.1891
  49   2.0000     -10.296195      -280.1737
  50   2.0000     -10.293301      -280.0950
  51   2.0000     -10.292418      -280.0709
  52   2.0000     -10.291890      -280.0566
  53   2.0000     -10.288969      -279.9771
  54   2.0000     -10.287981      -279.9502
  55   2.0000     -10.286686      -279.9150
  56   2.0000     -10.283160      -279.8190
  57   2.0000     -10.281600      -279.7766
  58   2.0000     -10.281323      -279.7690
  59   2.0000     -10.280423      -279.7445
  60   2.0000     -10.280384      -279.7435
  61   2.0000     -10.279701      -279.7249
  62   2.0000     -10.279606      -279.7223
  63   2.0000     -10.278985      -279.7054
  64   2.0000     -10.278755      -279.6991
  65   2.0000     -10.277662      -279.6694
  66   2.0000     -10.276591      -279.6403
  67   2.0000     -10.275034      -279.5979
  68   2.0000     -10.273049      -279.5439
  69   2.0000     -10.272325      -279.5242
  70   2.0000     -10.271312      -279.4966
  71   2.0000     -10.270758      -279.4815
  72   2.0000     -10.267851      -279.4024
  73   2.0000     -10.266764      -279.3728
  74   2.0000     -10.263146      -279.2744
  75   2.0000     -10.256548      -279.0949
  76   2.0000     -10.256021      -279.0805
  77   2.0000     -10.253515      -279.0123
  78   2.0000      -8.792983      -239.2692
  79   2.0000      -8.071689      -219.6418
  80   2.0000      -8.052678      -219.1245
  81   2.0000      -8.044777      -218.9095
  82   2.0000      -8.037349      -218.7074
  83   2.0000      -8.037256      -218.7048
  84   2.0000      -8.037088      -218.7003
  85   2.0000      -8.033369      -218.5991
  86   2.0000      -6.629278      -180.3918
  87   2.0000      -6.614724      -179.9958
  88   2.0000      -6.614513      -179.9900
  89   2.0000      -6.041382      -164.3944
  90   2.0000      -6.037103      -164.2779
  91   2.0000      -6.032915      -164.1640
  92   2.0000      -6.022072      -163.8689
  93   2.0000      -6.017896      -163.7553
  94   2.0000      -6.014476      -163.6622
  95   2.0000      -6.014236      -163.6557
  96   2.0000      -6.010060      -163.5420
  97   2.0000      -6.007091      -163.4613
  98   2.0000      -6.006946      -163.4573
  99   2.0000      -6.006784      -163.4529
 100   2.0000      -6.006512      -163.4455
 101   2.0000      -6.003174      -163.3547
 102   2.0000      -6.002987      -163.3496
 103   2.0000      -6.002915      -163.3476
 104   2.0000      -6.002806      -163.3447
 105   2.0000      -5.999233      -163.2474
 106   2.0000      -5.998421      -163.2253
 107   2.0000      -5.998315      -163.2224
 108   2.0000      -5.998067      -163.2157
 109   2.0000      -5.993973      -163.1043
 110   2.0000      -2.745174       -74.7000
 111   2.0000      -2.741068       -74.5882
 112   2.0000      -2.740897       -74.5836
 113   2.0000      -2.729333       -74.2689
 114   2.0000      -2.729322       -74.2686
 115   2.0000      -1.232944       -33.5501
 116   2.0000      -1.158205       -31.5164
 117   2.0000      -1.138576       -30.9822
 118   2.0000      -1.130772       -30.7699
 119   2.0000      -1.045101       -28.4386
 120   2.0000      -1.024254       -27.8714
 121   2.0000      -1.015110       -27.6226
 122   2.0000      -1.002390       -27.2764
 123   2.0000      -0.996600       -27.1189
 124   2.0000      -0.991533       -26.9810
 125   2.0000      -0.990817       -26.9615
 126   2.0000      -0.989059       -26.9137
 127   2.0000      -0.972387       -26.4600
 128   2.0000      -0.969000       -26.3678
 129   2.0000      -0.965672       -26.2773
 130   2.0000      -0.947813       -25.7913
 131   2.0000      -0.932736       -25.3810
 132   2.0000      -0.928733       -25.2721
 133   2.0000      -0.924097       -25.1460
 134   2.0000      -0.909665       -24.7532
 135   2.0000      -0.906880       -24.6775
 136   2.0000      -0.903159       -24.5762
 137   2.0000      -0.895747       -24.3745
 138   2.0000      -0.886349       -24.1188
 139   2.0000      -0.879164       -23.9233
 140   2.0000      -0.872670       -23.7466
 141   2.0000      -0.863860       -23.5068
 142   2.0000      -0.861673       -23.4473
 143   2.0000      -0.851349       -23.1664
 144   2.0000      -0.845693       -23.0125
 145   2.0000      -0.841213       -22.8906
 146   2.0000      -0.838338       -22.8123
 147   2.0000      -0.833622       -22.6840
 148   2.0000      -0.829825       -22.5807
 149   2.0000      -0.818770       -22.2799
 150   2.0000      -0.815883       -22.2013
 151   2.0000      -0.815007       -22.1775
 152   2.0000      -0.811050       -22.0698
 153   2.0000      -0.796105       -21.6631
 154   2.0000      -0.788292       -21.4505
 155   2.0000      -0.778581       -21.1863
 156   2.0000      -0.777356       -21.1529
 157   2.0000      -0.768737       -20.9184
 158   2.0000      -0.763290       -20.7702
 159   2.0000      -0.756986       -20.5986
 160   2.0000      -0.753333       -20.4992
 161   2.0000      -0.731813       -19.9136
 162   2.0000      -0.724379       -19.7113
 163   2.0000      -0.720871       -19.6159
 164   2.0000      -0.705937       -19.2095
 165   2.0000      -0.704100       -19.1595
 166   2.0000      -0.701179       -19.0800
 167   2.0000      -0.692745       -18.8506
 168   2.0000      -0.691023       -18.8037
 169   2.0000      -0.688121       -18.7247
 170   2.0000      -0.679978       -18.5032
 171   2.0000      -0.674305       -18.3488
 172   2.0000      -0.670195       -18.2369
 173   2.0000      -0.659992       -17.9593
 174   2.0000      -0.657804       -17.8997
 175   2.0000      -0.646161       -17.5829
 176   2.0000      -0.635553       -17.2943
 177   2.0000      -0.630809       -17.1652
 178   2.0000      -0.628968       -17.1151
 179   2.0000      -0.626572       -17.0499
 180   2.0000      -0.622643       -16.9430
 181   2.0000      -0.620303       -16.8793
 182   2.0000      -0.618044       -16.8178
 183   2.0000      -0.612302       -16.6616
 184   2.0000      -0.607236       -16.5237
 185   2.0000      -0.606448       -16.5023
 186   2.0000      -0.603567       -16.4239
 187   2.0000      -0.598314       -16.2810
 188   2.0000      -0.595035       -16.1917
 189   2.0000      -0.594921       -16.1886
 190   2.0000      -0.589838       -16.0503
 191   2.0000      -0.588488       -16.0136
 192   2.0000      -0.586475       -15.9588
 193   2.0000      -0.580757       -15.8032
 194   2.0000      -0.574117       -15.6225
 195   2.0000      -0.564978       -15.3738
 196   2.0000      -0.555728       -15.1221
 197   2.0000      -0.552005       -15.0208
 198   2.0000      -0.550926       -14.9914
 199   2.0000      -0.548387       -14.9224
 200   2.0000      -0.545879       -14.8541
 201   2.0000      -0.543455       -14.7882
 202   2.0000      -0.540774       -14.7152
 203   2.0000      -0.537711       -14.6319
 204   2.0000      -0.535560       -14.5733
 205   2.0000      -0.527057       -14.3419
 206   2.0000      -0.525336       -14.2951
 207   2.0000      -0.524288       -14.2666
 208   2.0000      -0.521946       -14.2029
 209   2.0000      -0.519148       -14.1267
 210   2.0000      -0.518254       -14.1024
 211   2.0000      -0.513672       -13.9777
 212   2.0000      -0.512097       -13.9349
 213   2.0000      -0.510157       -13.8821
 214   2.0000      -0.508985       -13.8502
 215   2.0000      -0.507462       -13.8087
 216   2.0000      -0.504577       -13.7302
 217   2.0000      -0.502561       -13.6754
 218   2.0000      -0.496782       -13.5181
 219   2.0000      -0.494716       -13.4619
 220   2.0000      -0.494432       -13.4542
 221   2.0000      -0.493668       -13.4334
 222   2.0000      -0.492375       -13.3982
 223   2.0000      -0.490318       -13.3422
 224   2.0000      -0.489593       -13.3225
 225   2.0000      -0.486325       -13.2336
 226   2.0000      -0.485315       -13.2061
 227   2.0000      -0.481856       -13.1120
 228   2.0000      -0.480714       -13.0809
 229   2.0000      -0.478651       -13.0248
 230   2.0000      -0.477444       -12.9919
 231   2.0000      -0.476149       -12.9567
 232   2.0000      -0.473324       -12.8798
 233   2.0000      -0.466175       -12.6853
 234   2.0000      -0.464500       -12.6397
 235   2.0000      -0.463385       -12.6093
 236   2.0000      -0.458744       -12.4831
 237   2.0000      -0.456896       -12.4328
 238   2.0000      -0.455182       -12.3861
 239   2.0000      -0.454570       -12.3695
 240   2.0000      -0.454008       -12.3542
 241   2.0000      -0.452392       -12.3102
 242   2.0000      -0.451702       -12.2914
 243   2.0000      -0.447052       -12.1649
 244   2.0000      -0.446290       -12.1442
 245   2.0000      -0.445761       -12.1298
 246   2.0000      -0.442082       -12.0297
 247   2.0000      -0.439949       -11.9716
 248   2.0000      -0.437074       -11.8934
 249   2.0000      -0.435806       -11.8589
 250   2.0000      -0.431249       -11.7349
 251   2.0000      -0.429788       -11.6951
 252   2.0000      -0.427829       -11.6418
 253   2.0000      -0.427361       -11.6291
 254   2.0000      -0.425641       -11.5823
 255   2.0000      -0.422010       -11.4835
 256   2.0000      -0.421223       -11.4621
 257   2.0000      -0.419575       -11.4172
 258   2.0000      -0.418148       -11.3784
 259   2.0000      -0.412563       -11.2264
 260   2.0000      -0.411112       -11.1869
 261   2.0000      -0.408752       -11.1227
 262   2.0000      -0.406503       -11.0615
 263   2.0000      -0.400670       -10.9028
 264   2.0000      -0.395839       -10.7713
 265   2.0000      -0.390345       -10.6218
 266   2.0000      -0.389093       -10.5878
 267   2.0000      -0.386095       -10.5062
 268   2.0000      -0.385411       -10.4876
 269   2.0000      -0.384440       -10.4611
 270   2.0000      -0.376808       -10.2535
 271   2.0000      -0.375116       -10.2074
 272   2.0000      -0.373249       -10.1566
 273   2.0000      -0.372808       -10.1446
 274   2.0000      -0.362530        -9.8649
 275   2.0000      -0.361469        -9.8361
 276   2.0000      -0.353332        -9.6147
 277   2.0000      -0.347594        -9.4585
 278   2.0000      -0.340142        -9.2557
 279   2.0000      -0.338735        -9.2174
 280   2.0000      -0.333799        -9.0831
 281   2.0000      -0.333072        -9.0633
 282   2.0000      -0.326350        -8.8804
 283   2.0000      -0.323708        -8.8085
 284   2.0000      -0.318289        -8.6611
 285   2.0000      -0.315092        -8.5741
 286   2.0000      -0.314409        -8.5555
 287   2.0000      -0.295000        -8.0274
 288   2.0000      -0.291050        -7.9199
 289   2.0000      -0.286487        -7.7957
 290   2.0000      -0.264324        -7.1926
 291   2.0000      -0.258422        -7.0320
 292   2.0000      -0.238307        -6.4847
 293   2.0000      -0.188842        -5.1386
 294   0.0000      -0.101932        -2.7737
 295   0.0000      -0.089460        -2.4343
 296   0.0000      -0.062738        -1.7072
 297   0.0000      -0.047367        -1.2889
 298   0.0000      -0.038862        -1.0575

MULLIKEN ATOMIC CHARGES
-----------------------
   0 C :    0.308312
   1 C :   -0.346184
   2 C :   -0.184070
   3 N :    0.153884
   4 C :   -0.189098
   5 N :    0.150207
   6 C :    0.019653
   7 C :   -0.010553
   8 C :   -0.060904
   9 C :    0.114589
  10 C :   -0.090643
  11 C :   -0.022440
  12 S :    0.186732
  13 C :   -0.122685
  14 C :    0.041310
  15 Br:    0.025285
  16 C :    0.153838
  17 O :   -0.146387
  18 C :   -0.074257
  19 C :   -0.032043
  20 C :    0.121383
  21 O :   -0.204711
  22 C :   -0.020576
  23 C :    0.182920
  24 O :   -0.141975
  25 N :   -0.163258
  26 C :    0.168728
  27 O :   -0.140197
  28 C :   -0.051397
  29 C :    0.100316
  30 C :   -0.045057
  31 C :    0.003492
  32 C :    0.063925
  33 C :   -0.108015
  34 S :    0.142465
  35 C :   -0.147841
  36 C :    0.126156
  37 C :   -0.120270
  38 C :    0.018649
  39 C :    0.034592
  40 C :   -0.121337
  41 C :    0.037626
  42 C :    0.018413
  43 C :    0.120708
  44 C :    0.047527
  45 C :   -0.098431
  46 S :    0.124126
  47 C :   -0.155749
  48 C :   -0.071475
  49 C :    0.034154
  50 C :   -0.023467
  51 C :   -0.018142
  52 C :    0.033224
  53 C :    0.024776
  54 C :   -0.043545
  55 S :    0.056293
  56 C :   -0.039855
  57 C :    0.015037
  58 C :    0.032818
  59 C :   -0.028117
  60 S :    0.073953
  61 C :   -0.007944
  62 C :   -0.014959
  63 C :   -0.024893
  64 C :    0.031064
  65 C :    0.018277
  66 C :   -0.043969
  67 S :    0.076603
  68 C :   -0.066917
  69 C :    0.028184
  70 C :    0.051061
  71 C :   -0.064800
  72 S :    0.081065
  73 C :   -0.029331
  74 H :   -0.007526
  75 H :   -0.004851
  76 H :   -0.002352
  77 H :    0.029291
  78 H :    0.139878
  79 H :    0.013101
  80 H :    0.020512
  81 H :    0.027584
  82 H :   -0.000688
  83 H :    0.008399
  84 H :    0.011368
  85 H :    0.026479
  86 H :    0.013963
  87 H :    0.002795
  88 H :    0.014665
  89 H :    0.012000
  90 H :    0.015613
  91 H :    0.023800
  92 H :    0.019455
  93 H :    0.018971
  94 H :   -0.022298
  95 H :   -0.016390
  96 H :   -0.015047
  97 H :   -0.016194
  98 H :   -0.015541
  99 H :   -0.013542
 100 H :   -0.006943
 101 H :   -0.008039
 102 H :   -0.014177
 103 H :   -0.015768
 104 H :   -0.012581
 105 H :   -0.012538
 106 H :    0.019243
 107 H :    0.021505
Sum of atomic charges:   -0.0000000

LOEWDIN ATOMIC CHARGES
----------------------
   0 C :    0.075393
   1 C :   -0.137351
   2 C :   -0.018288
   3 N :   -0.050698
   4 C :   -0.019583
   5 N :   -0.051547
   6 C :   -0.020035
   7 C :   -0.044113
   8 C :    0.026580
   9 C :   -0.030397
  10 C :   -0.142783
  11 C :   -0.009638
  12 S :    0.432851
  13 C :   -0.270437
  14 C :   -0.069551
  15 Br:    0.138240
  16 C :    0.088114
  17 O :   -0.132446
  18 C :   -0.070669
  19 C :    0.046571
  20 C :    0.045536
  21 O :    0.019193
  22 C :   -0.050701
  23 C :    0.090079
  24 O :   -0.148406
  25 N :   -0.001442
  26 C :    0.086227
  27 O :   -0.157664
  28 C :   -0.104951
  29 C :    0.089910
  30 C :   -0.053720
  31 C :    0.028977
  32 C :   -0.068906
  33 C :   -0.156383
  34 S :    0.428240
  35 C :   -0.178277
  36 C :   -0.041862
  37 C :   -0.021738
  38 C :   -0.032042
  39 C :   -0.051419
  40 C :   -0.016153
  41 C :   -0.033535
  42 C :   -0.049835
  43 C :   -0.040739
  44 C :   -0.058577
  45 C :   -0.167512
  46 S :    0.412013
  47 C :   -0.178002
  48 C :   -0.031551
  49 C :   -0.034844
  50 C :   -0.066300
  51 C :   -0.141029
  52 C :   -0.034809
  53 C :   -0.038391
  54 C :   -0.184782
  55 S :    0.379925
  56 C :   -0.174437
  57 C :   -0.039444
  58 C :   -0.033989
  59 C :   -0.150070
  60 S :    0.373287
  61 C :   -0.058502
  62 C :   -0.066299
  63 C :   -0.144727
  64 C :   -0.037234
  65 C :   -0.035422
  66 C :   -0.180470
  67 S :    0.372830
  68 C :   -0.178220
  69 C :   -0.027345
  70 C :   -0.033632
  71 C :   -0.139556
  72 S :    0.354538
  73 C :   -0.076876
  74 H :    0.042553
  75 H :    0.041208
  76 H :    0.039316
  77 H :    0.051229
  78 H :    0.095757
  79 H :    0.044440
  80 H :    0.036310
  81 H :    0.025903
  82 H :    0.027483
  83 H :    0.026959
  84 H :    0.027016
  85 H :    0.027938
  86 H :    0.020735
  87 H :    0.026535
  88 H :    0.030583
  89 H :    0.021038
  90 H :    0.024957
  91 H :    0.021677
  92 H :    0.024484
  93 H :    0.014705
  94 H :    0.029418
  95 H :    0.032216
  96 H :    0.032041
  97 H :    0.030890
  98 H :    0.030861
  99 H :    0.033456
 100 H :    0.028502
 101 H :    0.027507
 102 H :    0.033229
 103 H :    0.030533
 104 H :    0.032136
 105 H :    0.032929
 106 H :    0.028327
 107 H :    0.025950

  Mayer bond orders larger than 0.100000
B(  0-C ,  1-C ) :   1.6274 B(  0-C ,  6-C ) :   1.0123 B(  0-C , 18-C ) :   1.0826
B(  1-C ,  2-C ) :   1.1432 B(  1-C ,  4-C ) :   1.1463 B(  2-C ,  3-N ) :   2.9680
B(  4-C ,  5-N ) :   2.9675 B(  6-C ,  7-C ) :   1.2717 B(  6-C , 11-C ) :   1.4031
B(  7-C ,  8-C ) :   1.4301 B(  7-C , 16-C ) :   0.9355 B(  8-C ,  9-C ) :   1.2482
B(  8-C , 74-H ) :   1.0146 B(  9-C , 10-C ) :   1.3021 B(  9-C , 14-C ) :   1.1646
B( 10-C , 11-C ) :   1.3381 B( 10-C , 12-S ) :   1.0853 B( 11-C , 75-H ) :   0.9782
B( 12-S , 13-C ) :   1.0860 B( 13-C , 14-C ) :   1.6177 B( 13-C , 15-Br) :   1.0200
B( 14-C , 76-H ) :   1.0000 B( 16-C , 17-O ) :   2.2292 B( 16-C , 18-C ) :   0.9256
B( 18-C , 19-C ) :   1.6049 B( 19-C , 20-C ) :   1.1632 B( 19-C , 77-H ) :   0.9321
B( 20-C , 21-O ) :   1.1157 B( 20-C , 22-C ) :   1.4387 B( 21-O , 29-C ) :   1.1708
B( 22-C , 23-C ) :   0.8676 B( 22-C , 28-C ) :   1.3090 B( 23-C , 24-O ) :   2.2356
B( 23-C , 25-N ) :   1.0892 B( 25-N , 26-C ) :   1.0751 B( 25-N , 78-H ) :   0.9151
B( 26-C , 27-O ) :   2.2693 B( 26-C , 28-C ) :   0.8809 B( 28-C , 29-C ) :   1.3621
B( 29-C , 30-C ) :   1.1691 B( 30-C , 31-C ) :   1.6870 B( 30-C , 79-H ) :   0.9626
B( 31-C , 32-C ) :   1.0112 B( 31-C , 80-H ) :   0.9615 B( 32-C , 33-C ) :   1.5908
B( 32-C , 36-C ) :   1.1433 B( 33-C , 34-S ) :   1.1377 B( 33-C , 81-H ) :   0.9626
B( 34-S , 35-C ) :   1.0740 B( 35-C , 36-C ) :   1.3723 B( 35-C , 47-C ) :   1.3786
B( 36-C , 37-C ) :   1.2586 B( 37-C , 38-C ) :   1.0642 B( 37-C , 40-C ) :   1.5039
B( 38-C , 39-C ) :   1.1121 B( 38-C , 82-H ) :   0.9060 B( 38-C , 83-H ) :   0.9216
B( 39-C , 84-H ) :   0.9552 B( 39-C , 85-H ) :   0.9661 B( 39-C , 86-H ) :   0.9623
B( 40-C , 41-C ) :   1.0689 B( 40-C , 43-C ) :   1.2686 B( 41-C , 42-C ) :   1.1026
B( 41-C , 87-H ) :   0.9120 B( 41-C , 88-H ) :   0.9167 B( 42-C , 89-H ) :   0.9581
B( 42-C , 90-H ) :   0.9678 B( 42-C , 91-H ) :   0.9586 B( 43-C , 44-C ) :   1.1463
B( 43-C , 47-C ) :   1.3624 B( 44-C , 45-C ) :   1.6153 B( 44-C , 48-C ) :   1.0284
B( 45-C , 46-S ) :   1.1110 B( 45-C , 92-H ) :   0.9668 B( 46-S , 47-C ) :   1.0839
B( 48-C , 49-C ) :   1.7227 B( 48-C , 93-H ) :   0.9370 B( 49-C , 50-C ) :   1.1773
B( 49-C , 94-H ) :   0.9556 B( 50-C , 51-C ) :   1.5975 B( 50-C , 95-H ) :   0.9595
B( 51-C , 52-C ) :   1.1471 B( 51-C , 55-S ) :   1.0365 B( 52-C , 53-C ) :   1.5804
B( 52-C , 96-H ) :   0.9983 B( 53-C , 54-C ) :   1.2017 B( 53-C , 97-H ) :   0.9934
B( 54-C , 55-S ) :   1.0376 B( 54-C , 56-C ) :   1.4730 B( 56-C , 57-C ) :   1.2208
B( 56-C , 60-S ) :   1.0513 B( 57-C , 58-C ) :   1.5382 B( 57-C , 98-H ) :   0.9949
B( 58-C , 59-C ) :   1.1917 B( 58-C , 99-H ) :   1.0005 B( 59-C , 60-S ) :   1.0427
B( 59-C , 61-C ) :   1.5022 B( 61-C , 62-C ) :   1.2255 B( 61-C ,100-H ) :   0.9727
B( 62-C , 63-C ) :   1.5076 B( 62-C ,101-H ) :   0.9716 B( 63-C , 64-C ) :   1.1824
B( 63-C , 67-S ) :   1.0461 B( 64-C , 65-C ) :   1.5544 B( 64-C ,102-H ) :   1.0005
B( 65-C , 66-C ) :   1.2039 B( 65-C ,103-H ) :   0.9940 B( 66-C , 67-S ) :   1.0428
B( 66-C , 68-C ) :   1.5119 B( 68-C , 69-C ) :   1.1707 B( 68-C , 72-S ) :   1.0499
B( 69-C , 70-C ) :   1.6441 B( 69-C ,104-H ) :   0.9918 B( 70-C , 71-C ) :   1.0869
B( 70-C ,105-H ) :   0.9932 B( 71-C , 72-S ) :   1.0090 B( 71-C , 73-C ) :   1.8527
B( 73-C ,106-H ) :   0.9510 B( 73-C ,107-H ) :   0.9423

-----------------------------------------------------------------------------
         ABSORPTION SPECTRUM VIA TRANSITION ELECTRIC DIPOLE MOMENTS
-----------------------------------------------------------------------------
State   Energy  Wavelength   fosc         T2         TX        TY        TZ
        (cm-1)    (nm)                  (au**2)     (au)      (au)      (au)
-----------------------------------------------------------------------------
   0   10302.9    970.6   1.636457053  52.29035   0.86407  -7.15734  -0.56236
   1   13007.0    768.8   0.000142018   0.00359  -0.04305   0.03070   0.02825
   2   17494.0    571.6   0.000931365   0.01753  -0.06863   0.05646   0.09813
   3   19004.1    526.2   0.736141089  12.75232   1.62194  -2.44150   2.03979
   4   21783.9    459.1   0.315734136   4.77157   1.89048  -0.38932  -1.02278
   5   22011.1    454.3   0.001400811   0.02095  -0.10248   0.09253   0.04344
   6   22815.0    438.3   0.001531068   0.02209   0.08028   0.11627  -0.04616
   7   23818.1    419.8   0.001187798   0.01642  -0.05167  -0.09527   0.06834
   8   24753.0    404.0   0.010282983   0.13676   0.25009  -0.09770  -0.25431
   9   24943.8    400.9   0.082485261   1.08865  -0.66138  -0.78200   0.19927
  10   25487.0    392.4   0.112913366   1.45848   0.38876   0.82396  -0.79275
  11   26380.3    379.1   0.009838827   0.12278  -0.34967  -0.02261   0.00190
  12   27073.0    369.4   0.075127653   0.91357  -0.90776  -0.27563   0.11645
  13   27336.6    365.8   0.109658214   1.32060   0.74805   0.52968  -0.69315
  14   27628.7    361.9   0.007039377   0.08388   0.22573   0.08861  -0.15834
  15   28136.9    355.4   0.028390753   0.33218   0.57296   0.04450  -0.04376
  16   28533.6    350.5   0.128726509   1.48521  -0.34142   0.48234  -1.06583
  17   28820.1    347.0   0.045655567   0.52152   0.51558  -0.44565  -0.23895
  18   29346.9    340.8   0.849671668   9.53156   0.14671   2.81350  -1.26263
  19   30625.9    326.5   0.019448147   0.20906   0.36130  -0.17295  -0.22047
  20   31182.8    320.7   0.343759668   3.62924  -1.36769  -0.89059   0.98261
  21   31422.2    318.2   0.005151078   0.05397   0.10018   0.20952   0.00568
  22   31612.8    316.3   0.003326328   0.03464   0.02633   0.18420  -0.00408
  23   31697.8    315.5   0.001867864   0.01940   0.09350   0.04925  -0.09073
  24   31827.5    314.2   0.051306114   0.53069  -0.45026  -0.47609   0.31828
  25   32446.8    308.2   0.477328582   4.84307   1.03634   1.40387  -1.34098
  26   32467.8    308.0   0.010066834   0.10207  -0.22794  -0.03316   0.22139
  27   32742.2    305.4   0.005873193   0.05905   0.06216   0.22509  -0.06726
  28   32832.3    304.6   0.002172268   0.02178  -0.05511   0.08349   0.10851
  29   32983.9    303.2   0.110515450   1.10306  -0.44269  -0.73065   0.61093
  30   33460.8    298.9   0.111561642   1.09763   0.75887   0.42831  -0.58163
  31   33927.4    294.7   0.006308005   0.06121   0.20661   0.10695  -0.08416
  32   34054.4    293.6   0.152940958   1.47852  -0.87221  -0.50248   0.68211
  33   34982.2    285.9   0.014153803   0.13320  -0.01203   0.35467   0.08523
  34   35049.1    285.3   0.064135067   0.60241   0.56775   0.41828  -0.32421
  35   35084.5    285.0   0.057152197   0.53628  -0.24291   0.61424   0.31621
  36   35397.2    282.5   0.036787369   0.34214   0.08712  -0.45105   0.36208
  37   35825.4    279.1   0.017640726   0.16211  -0.22056  -0.21047   0.26299
  38   35954.3    278.1   0.028080345   0.25711   0.32384   0.38762   0.04460
  39   36016.1    277.7   0.036989019   0.33811  -0.33237   0.37661  -0.29291
  40   36376.0    274.9   0.068042053   0.61580   0.64661   0.06390  -0.44001
  41   36773.9    271.9   0.006614964   0.05922   0.11867  -0.18755  -0.09981
  42   36930.2    270.8   0.290325753   2.58809  -1.57549   0.25703  -0.19963
  43   37145.2    269.2   0.078423662   0.69506  -0.14062   0.82160  -0.01578
  44   37405.2    267.3   0.029872256   0.26291   0.28968  -0.40187  -0.13227
  45   38243.3    261.5   0.008630290   0.07429  -0.01864  -0.27177  -0.00915
  46   38312.7    261.0   0.000474327   0.00408   0.05363  -0.00916  -0.03340
  47   38407.8    260.4   0.090334236   0.77430  -0.03190  -0.75024   0.45871
  48   38460.7    260.0   0.063986304   0.54770   0.53349   0.47689  -0.18884
  49   38762.8    258.0   0.066862620   0.56786   0.71959  -0.21088   0.07468
  50   38938.5    256.8   0.087577131   0.74044   0.82332  -0.24764  -0.03554
  51   39170.1    255.3   0.012057818   0.10134   0.11692   0.22142  -0.19659
  52   39320.3    254.3   0.021922765   0.18355  -0.33700  -0.14139   0.22359
  53   39752.7    251.6   0.072413350   0.59969   0.33886   0.43160  -0.54643
  54   39962.9    250.2   0.035482965   0.29231   0.18590  -0.48559  -0.14817
  55   40203.4    248.7   0.085035752   0.69633  -0.22340   0.78483   0.17453

FINAL SINGLE POINT ENERGY     -8090.771480426140

DIPOLE MOMENT
-------------
                                X             Y             Z
Electronic contribution:    -27.36195    -232.31972     144.37146
Nuclear contribution   :     26.33220     233.62234    -144.31575
                        -----------------------------------------
Total Dipole Moment    :     -1.02975       1.30263       0.05570
                        -----------------------------------------
Magnitude (a.u.)       :      1.66143
Magnitude (Debye)      :      4.22301

Rotational constants in cm-1:     0.001487     0.000121     0.000120
Rotational constants in MHz :    44.581621     3.636164     3.595246

                             ****ORCA TERMINATED NORMALLY****
TOTAL RUN TIME: 0 days 0 hours 11 minutes 28 seconds 161 msec
