                         Program Version 4.2.0 -  RELEASE  -
|  1> # ORCA input file
|  2> # SCF done       -174.291030152016          0.000833426402
|  3> ! CAM-B3LYP def2-SVP def2/J RIJCOSX Grid4 TightSCF
|  4> %maxcore 5000
|  5> %tddft
|  6>     Mode sTDDFT
|  7>     Ethresh 5.0
|  8>     maxcore 5000
|  9> end
| 10>
| 11> %pal
| 12>   nprocs 6
| 13>   end
| 14> * xyz 0 1
| 15>    C      -11.62488        -0.96123        -0.04100
| 16>    C      -12.59425        -1.06460         0.92278
| 17>    C      -12.93612        -2.26455         1.57867
| 18>    N      -13.25360        -3.21205         2.14364
| 19>    C      -13.36854         0.02191         1.37787
| 20>    N      -14.01854         0.88114         1.77401
| 21>    C      -10.79778        -2.05603        -0.54446
| 22>    C       -9.90585        -1.54693        -1.52402
| 23>    C       -9.00136        -2.33892        -2.18919
| 24>    C       -8.97531        -3.70162        -1.87550
| 25>    C       -9.86754        -4.20196        -0.89734
| 26>    C      -10.78146        -3.39920        -0.22318
| 27>    S       -9.66943        -5.91166        -0.66781
| 28>    C       -8.40884        -5.93232        -1.87248
| 29>    C       -8.14740        -4.72104        -2.41932
| 30>   Br       -7.55787        -7.54882        -2.29544
| 31>    C      -10.14219        -0.10812        -1.67640
| 32>    O       -9.56232         0.66742        -2.43254
| 33>    C      -11.22508         0.23250        -0.74934
| 34>    C      -11.72131         1.51277        -0.67105
| 35>    N      -11.19799         2.46887        -1.44556
| 36>    C      -11.58535         3.76169        -1.56162
| 37>    S      -12.90281         4.42691        -0.65019
| 38>    C      -12.68380         5.93205        -1.48402
| 39>    N      -13.53528         6.99539        -1.15030
| 40>    O      -13.38061         8.04679        -1.74163
| 41>    O      -14.36665         6.78153        -0.28698
| 42>    C      -11.66699         5.91616        -2.40042
| 43>    C      -11.00944         4.67243        -2.45940
| 44>    C       -9.89513         4.34369        -3.30358
| 45>    C       -9.53834         5.01460        -4.41800
| 46>    C       -8.43457         4.64246        -5.23460
| 47>    S       -7.27099         3.44172        -4.68923
| 48>    C       -6.41606         3.56380        -6.17889
| 49>    C       -7.02181         4.48403        -7.04471
| 50>    C       -8.14805         5.10292        -6.50302
| 51>    S       -6.21369         4.58837        -8.58593
| 52>    C       -5.06158         3.39072        -8.06047
| 53>    C       -3.97142         2.78212        -8.67477
| 54>    C       -3.33272         1.88706        -7.83164
| 55>    S       -4.11137         1.80943        -6.25016
| 56>    C       -5.29475         2.95797        -6.74696
| 57>    C       -2.20698         1.07008        -8.04921
| 58>    C       -1.62281         0.75169        -9.24644
| 59>    C       -0.48479        -0.08344        -9.40412
| 60>    C       -0.14984        -0.34207       -10.69584
| 61>    C       -1.00716         0.26554       -11.64306
| 62>    S       -2.22431         1.22495       -10.82713
| 63>    C       -0.98688         0.12822       -13.01477
| 64>    C       -0.08062        -0.62503       -13.79854
| 65>    C       -0.36539        -0.61924       -15.12697
| 66>    C       -1.51716         0.13619       -15.47523
| 67>    S       -2.20390         0.86994       -14.03669
| 68>    C       -2.04378         0.25487       -16.73176
| 69>    C       -3.19847         0.96198       -17.11229
| 70>    S       -4.20192         1.92794       -16.04324
| 71>    C       -5.31101         2.37018       -17.27791
| 72>    C       -4.95008         1.80775       -18.48002
| 73>    C       -3.76268         1.02255       -18.37543
| 74>    O       -3.43750         0.47652       -19.56527
| 75>    C       -4.40138         0.90224       -20.42659
| 76>    N       -4.31738         0.46817       -21.77140
| 77>    O       -5.18973         0.86241       -22.52227
| 78>    O       -3.39827        -0.25941       -22.07779
| 79>    C       -5.34258         1.70696       -19.84327
| 80>    H       -8.33672        -1.92133        -2.92910
| 81>    H      -11.44077        -3.82905         0.51216
| 82>    H       -7.40288        -4.55196        -3.17562
| 83>    H      -12.53374         1.78857        -0.01121
| 84>    H      -10.42964         2.12723        -2.05602
| 85>    H      -11.40461         6.78056        -2.98199
| 86>    H       -9.31007         3.47565        -3.02821
| 87>    H      -10.12010         5.85562        -4.76843
| 88>    H       -8.74155         5.83859        -7.01381
| 89>    H       -3.64333         3.00202        -9.67265
| 90>    H       -1.77929         0.60827        -7.16855
| 91>    H        0.04061        -0.47153        -8.54945
| 92>    H        0.67388        -0.96502       -10.99404
| 93>    H        0.74751        -1.15125       -13.35931
| 94>    H        0.20395        -1.13976       -15.87632
| 95>    H       -1.53922        -0.26239       -17.53739
| 96>    H       -6.14349         3.00173       -17.04820
| 97>    H       -6.18427         2.14921       -20.33433
| 98> *
| 99>
|100>                          ****END OF INPUT****

CARTESIAN COORDINATES (ANGSTROEM)
---------------------------------
  C    -11.624880   -0.961230   -0.041000
  C    -12.594250   -1.064600    0.922780
  C    -12.936120   -2.264550    1.578670
  N    -13.253600   -3.212050    2.143640
  C    -13.368540    0.021910    1.377870
  N    -14.018540    0.881140    1.774010
  C    -10.797780   -2.056030   -0.544460
  C     -9.905850   -1.546930   -1.524020
  C     -9.001360   -2.338920   -2.189190
  C     -8.975310   -3.701620   -1.875500
  C     -9.867540   -4.201960   -0.897340
  C    -10.781460   -3.399200   -0.223180
  S     -9.669430   -5.911660   -0.667810
  C     -8.408840   -5.932320   -1.872480
  C     -8.147400   -4.721040   -2.419320
  Br    -7.557870   -7.548820   -2.295440
  C    -10.142190   -0.108120   -1.676400
  O     -9.562320    0.667420   -2.432540
  C    -11.225080    0.232500   -0.749340
  C    -11.721310    1.512770   -0.671050
  N    -11.197990    2.468870   -1.445560
  C    -11.585350    3.761690   -1.561620
  S    -12.902810    4.426910   -0.650190
  C    -12.683800    5.932050   -1.484020
  N    -13.535280    6.995390   -1.150300
  O    -13.380610    8.046790   -1.741630
  O    -14.366650    6.781530   -0.286980
  C    -11.666990    5.916160   -2.400420
  C    -11.009440    4.672430   -2.459400
  C     -9.895130    4.343690   -3.303580
  C     -9.538340    5.014600   -4.418000
  C     -8.434570    4.642460   -5.234600
  S     -7.270990    3.441720   -4.689230
  C     -6.416060    3.563800   -6.178890
  C     -7.021810    4.484030   -7.044710
  C     -8.148050    5.102920   -6.503020
  S     -6.213690    4.588370   -8.585930
  C     -5.061580    3.390720   -8.060470
  C     -3.971420    2.782120   -8.674770
  C     -3.332720    1.887060   -7.831640
  S     -4.111370    1.809430   -6.250160
  C     -5.294750    2.957970   -6.746960
  C     -2.206980    1.070080   -8.049210
  C     -1.622810    0.751690   -9.246440
  C     -0.484790   -0.083440   -9.404120
  C     -0.149840   -0.342070  -10.695840
  C     -1.007160    0.265540  -11.643060
  S     -2.224310    1.224950  -10.827130
  C     -0.986880    0.128220  -13.014770
  C     -0.080620   -0.625030  -13.798540
  C     -0.365390   -0.619240  -15.126970
  C     -1.517160    0.136190  -15.475230
  S     -2.203900    0.869940  -14.036690
  C     -2.043780    0.254870  -16.731760
  C     -3.198470    0.961980  -17.112290
  S     -4.201920    1.927940  -16.043240
  C     -5.311010    2.370180  -17.277910
  C     -4.950080    1.807750  -18.480020
  C     -3.762680    1.022550  -18.375430
  O     -3.437500    0.476520  -19.565270
  C     -4.401380    0.902240  -20.426590
  N     -4.317380    0.468170  -21.771400
  O     -5.189730    0.862410  -22.522270
  O     -3.398270   -0.259410  -22.077790
  C     -5.342580    1.706960  -19.843270
  H     -8.336720   -1.921330   -2.929100
  H    -11.440770   -3.829050    0.512160
  H     -7.402880   -4.551960   -3.175620
  H    -12.533740    1.788570   -0.011210
  H    -10.429640    2.127230   -2.056020
  H    -11.404610    6.780560   -2.981990
  H     -9.310070    3.475650   -3.028210
  H    -10.120100    5.855620   -4.768430
  H     -8.741550    5.838590   -7.013810
  H     -3.643330    3.002020   -9.672650
  H     -1.779290    0.608270   -7.168550
  H      0.040610   -0.471530   -8.549450
  H      0.673880   -0.965020  -10.994040
  H      0.747510   -1.151250  -13.359310
  H      0.203950   -1.139760  -15.876320
  H     -1.539220   -0.262390  -17.537390
  H     -6.143490    3.001730  -17.048200
  H     -6.184270    2.149210  -20.334330

 Total Charge           Charge          ....    0
 Multiplicity           Mult            ....    1
 Number of Electrons    NEL             ....  534
 Basis Dimension        Dim             .... 1050

ORBITAL ENERGIES
----------------

  NO   OCC          E(Eh)            E(eV)
   0   2.0000    -482.891122    -13140.1355
   1   2.0000     -88.992884     -2421.6195
   2   2.0000     -88.982653     -2421.3411
   3   2.0000     -88.978783     -2421.2358
   4   2.0000     -88.965460     -2420.8732
   5   2.0000     -88.964032     -2420.8344
   6   2.0000     -88.962175     -2420.7838
   7   2.0000     -88.953806     -2420.5561
   8   2.0000     -88.953731     -2420.5541
   9   2.0000     -62.568830     -1702.5844
  10   2.0000     -56.402788     -1534.7979
  11   2.0000     -56.400059     -1534.7236
  12   2.0000     -56.400026     -1534.7227
  13   2.0000     -19.311346      -525.4884
  14   2.0000     -19.245126      -523.6865
  15   2.0000     -19.242859      -523.6248
  16   2.0000     -19.241659      -523.5922
  17   2.0000     -19.240744      -523.5673
  18   2.0000     -19.238023      -523.4932
  19   2.0000     -14.656810      -398.8321
  20   2.0000     -14.653116      -398.7316
  21   2.0000     -14.498864      -394.5342
  22   2.0000     -14.423349      -392.4793
  23   2.0000     -14.419056      -392.3624
  24   2.0000     -10.388754      -282.6924
  25   2.0000     -10.384351      -282.5726
  26   2.0000     -10.374242      -282.2975
  27   2.0000     -10.373760      -282.2844
  28   2.0000     -10.365252      -282.0529
  29   2.0000     -10.350814      -281.6600
  30   2.0000     -10.350487      -281.6511
  31   2.0000     -10.348401      -281.5943
  32   2.0000     -10.346574      -281.5446
  33   2.0000     -10.332868      -281.1716
  34   2.0000     -10.325686      -280.9762
  35   2.0000     -10.322199      -280.8813
  36   2.0000     -10.320402      -280.8324
  37   2.0000     -10.317962      -280.7660
  38   2.0000     -10.317532      -280.7543
  39   2.0000     -10.316518      -280.7267
  40   2.0000     -10.315723      -280.7051
  41   2.0000     -10.315486      -280.6986
  42   2.0000     -10.314734      -280.6782
  43   2.0000     -10.314621      -280.6751
  44   2.0000     -10.314390      -280.6688
  45   2.0000     -10.314259      -280.6652
  46   2.0000     -10.313784      -280.6523
  47   2.0000     -10.313121      -280.6343
  48   2.0000     -10.313011      -280.6313
  49   2.0000     -10.312433      -280.6156
  50   2.0000     -10.310804      -280.5712
  51   2.0000     -10.310686      -280.5680
  52   2.0000     -10.310334      -280.5584
  53   2.0000     -10.308126      -280.4984
  54   2.0000     -10.307283      -280.4754
  55   2.0000     -10.303570      -280.3744
  56   2.0000     -10.303261      -280.3660
  57   2.0000     -10.302635      -280.3490
  58   2.0000     -10.300168      -280.2818
  59   2.0000     -10.300149      -280.2813
  60   2.0000     -10.296203      -280.1739
  61   2.0000     -10.295982      -280.1679
  62   2.0000     -10.293711      -280.1061
  63   2.0000     -10.293458      -280.0992
  64   2.0000     -10.293373      -280.0969
  65   2.0000     -10.292501      -280.0732
  66   2.0000     -10.292115      -280.0627
  67   2.0000     -10.291883      -280.0564
  68   2.0000     -10.287263      -279.9307
  69   2.0000      -8.798262      -239.4129
  70   2.0000      -8.088160      -220.0900
  71   2.0000      -8.078544      -219.8284
  72   2.0000      -8.073330      -219.6865
  73   2.0000      -8.060556      -219.3389
  74   2.0000      -8.059436      -219.3084
  75   2.0000      -8.057377      -219.2524
  76   2.0000      -8.049957      -219.0505
  77   2.0000      -8.049689      -219.0432
  78   2.0000      -6.634597      -180.5366
  79   2.0000      -6.619971      -180.1386
  80   2.0000      -6.619786      -180.1335
  81   2.0000      -6.057783      -164.8406
  82   2.0000      -6.053450      -164.7227
  83   2.0000      -6.049623      -164.6186
  84   2.0000      -6.048215      -164.5803
  85   2.0000      -6.043939      -164.4639
  86   2.0000      -6.042664      -164.4292
  87   2.0000      -6.039831      -164.3522
  88   2.0000      -6.038232      -164.3086
  89   2.0000      -6.035775      -164.2418
  90   2.0000      -6.030092      -164.0872
  91   2.0000      -6.028988      -164.0571
  92   2.0000      -6.027104      -164.0058
  93   2.0000      -6.026085      -163.9781
  94   2.0000      -6.025006      -163.9487
  95   2.0000      -6.023289      -163.9020
  96   2.0000      -6.022092      -163.8695
  97   2.0000      -6.020886      -163.8366
  98   2.0000      -6.019775      -163.8064
  99   2.0000      -6.019486      -163.7985
 100   2.0000      -6.018333      -163.7672
 101   2.0000      -6.015630      -163.6936
 102   2.0000      -6.015369      -163.6865
 103   2.0000      -6.010778      -163.5616
 104   2.0000      -6.010627      -163.5575
 105   2.0000      -2.750460       -74.8438
 106   2.0000      -2.746372       -74.7326
 107   2.0000      -2.746196       -74.7278
 108   2.0000      -2.734592       -74.4120
 109   2.0000      -2.734575       -74.4116
 110   2.0000      -1.328384       -36.1472
 111   2.0000      -1.323170       -36.0053
 112   2.0000      -1.231386       -33.5077
 113   2.0000      -1.153110       -31.3777
 114   2.0000      -1.144732       -31.1497
 115   2.0000      -1.142356       -31.0851
 116   2.0000      -1.106780       -30.1170
 117   2.0000      -1.030448       -28.0399
 118   2.0000      -1.022526       -27.8243
 119   2.0000      -1.019986       -27.7552
 120   2.0000      -1.013549       -27.5801
 121   2.0000      -1.004938       -27.3458
 122   2.0000      -1.000644       -27.2289
 123   2.0000      -0.997633       -27.1470
 124   2.0000      -0.996641       -27.1200
 125   2.0000      -0.985232       -26.8095
 126   2.0000      -0.977374       -26.5957
 127   2.0000      -0.949181       -25.8285
 128   2.0000      -0.939306       -25.5598
 129   2.0000      -0.937207       -25.5027
 130   2.0000      -0.922751       -25.1093
 131   2.0000      -0.915989       -24.9253
 132   2.0000      -0.906066       -24.6553
 133   2.0000      -0.903688       -24.5906
 134   2.0000      -0.893464       -24.3124
 135   2.0000      -0.890388       -24.2287
 136   2.0000      -0.886457       -24.1217
 137   2.0000      -0.877724       -23.8841
 138   2.0000      -0.868378       -23.6298
 139   2.0000      -0.857070       -23.3221
 140   2.0000      -0.855755       -23.2863
 141   2.0000      -0.847650       -23.0657
 142   2.0000      -0.838132       -22.8067
 143   2.0000      -0.837089       -22.7783
 144   2.0000      -0.835236       -22.7279
 145   2.0000      -0.828361       -22.5408
 146   2.0000      -0.806035       -21.9333
 147   2.0000      -0.801522       -21.8105
 148   2.0000      -0.788712       -21.4619
 149   2.0000      -0.786093       -21.3907
 150   2.0000      -0.776090       -21.1185
 151   2.0000      -0.769499       -20.9391
 152   2.0000      -0.757101       -20.6018
 153   2.0000      -0.743486       -20.2313
 154   2.0000      -0.734055       -19.9746
 155   2.0000      -0.720446       -19.6043
 156   2.0000      -0.709728       -19.3127
 157   2.0000      -0.706502       -19.2249
 158   2.0000      -0.697548       -18.9812
 159   2.0000      -0.692123       -18.8336
 160   2.0000      -0.679739       -18.4966
 161   2.0000      -0.678217       -18.4552
 162   2.0000      -0.665624       -18.1125
 163   2.0000      -0.663516       -18.0552
 164   2.0000      -0.657750       -17.8983
 165   2.0000      -0.653656       -17.7869
 166   2.0000      -0.646767       -17.5994
 167   2.0000      -0.641984       -17.4693
 168   2.0000      -0.641371       -17.4526
 169   2.0000      -0.639125       -17.3915
 170   2.0000      -0.637427       -17.3453
 171   2.0000      -0.634507       -17.2658
 172   2.0000      -0.630925       -17.1683
 173   2.0000      -0.629136       -17.1197
 174   2.0000      -0.626964       -17.0606
 175   2.0000      -0.624560       -16.9951
 176   2.0000      -0.623659       -16.9706
 177   2.0000      -0.609760       -16.5924
 178   2.0000      -0.604439       -16.4476
 179   2.0000      -0.600755       -16.3474
 180   2.0000      -0.597171       -16.2498
 181   2.0000      -0.589426       -16.0391
 182   2.0000      -0.586866       -15.9694
 183   2.0000      -0.586134       -15.9495
 184   2.0000      -0.574821       -15.6417
 185   2.0000      -0.570146       -15.5145
 186   2.0000      -0.568274       -15.4635
 187   2.0000      -0.564485       -15.3604
 188   2.0000      -0.563179       -15.3249
 189   2.0000      -0.560139       -15.2422
 190   2.0000      -0.554808       -15.0971
 191   2.0000      -0.554144       -15.0790
 192   2.0000      -0.546769       -14.8784
 193   2.0000      -0.543998       -14.8029
 194   2.0000      -0.540504       -14.7079
 195   2.0000      -0.538802       -14.6616
 196   2.0000      -0.531963       -14.4755
 197   2.0000      -0.528114       -14.3707
 198   2.0000      -0.525523       -14.3002
 199   2.0000      -0.522135       -14.2080
 200   2.0000      -0.520893       -14.1742
 201   2.0000      -0.515401       -14.0248
 202   2.0000      -0.514893       -14.0109
 203   2.0000      -0.506601       -13.7853
 204   2.0000      -0.504745       -13.7348
 205   2.0000      -0.504339       -13.7238
 206   2.0000      -0.503998       -13.7145
 207   2.0000      -0.501543       -13.6477
 208   2.0000      -0.497019       -13.5246
 209   2.0000      -0.494502       -13.4561
 210   2.0000      -0.490915       -13.3585
 211   2.0000      -0.484833       -13.1930
 212   2.0000      -0.483740       -13.1632
 213   2.0000      -0.481211       -13.0944
 214   2.0000      -0.477265       -12.9870
 215   2.0000      -0.474954       -12.9242
 216   2.0000      -0.470942       -12.8150
 217   2.0000      -0.470007       -12.7896
 218   2.0000      -0.466318       -12.6892
 219   2.0000      -0.461096       -12.5471
 220   2.0000      -0.458989       -12.4897
 221   2.0000      -0.456429       -12.4201
 222   2.0000      -0.455916       -12.4061
 223   2.0000      -0.455811       -12.4032
 224   2.0000      -0.453807       -12.3487
 225   2.0000      -0.449838       -12.2407
 226   2.0000      -0.449083       -12.2202
 227   2.0000      -0.446091       -12.1387
 228   2.0000      -0.443111       -12.0577
 229   2.0000      -0.434783       -11.8311
 230   2.0000      -0.433272       -11.7899
 231   2.0000      -0.432899       -11.7798
 232   2.0000      -0.429139       -11.6775
 233   2.0000      -0.424577       -11.5533
 234   2.0000      -0.422049       -11.4845
 235   2.0000      -0.418854       -11.3976
 236   2.0000      -0.416146       -11.3239
 237   2.0000      -0.413648       -11.2559
 238   2.0000      -0.412443       -11.2231
 239   2.0000      -0.401163       -10.9162
 240   2.0000      -0.396897       -10.8001
 241   2.0000      -0.395459       -10.7610
 242   2.0000      -0.390892       -10.6367
 243   2.0000      -0.389208       -10.5909
 244   2.0000      -0.388561       -10.5733
 245   2.0000      -0.381459       -10.3800
 246   2.0000      -0.380909       -10.3650
 247   2.0000      -0.380501       -10.3540
 248   2.0000      -0.377886       -10.2828
 249   2.0000      -0.372794       -10.1442
 250   2.0000      -0.370384       -10.0787
 251   2.0000      -0.369480       -10.0541
 252   2.0000      -0.360767        -9.8170
 253   2.0000      -0.351182        -9.5562
 254   2.0000      -0.346188        -9.4202
 255   2.0000      -0.345147        -9.3919
 256   2.0000      -0.338632        -9.2146
 257   2.0000      -0.335386        -9.1263
 258   2.0000      -0.327312        -8.9066
 259   2.0000      -0.324750        -8.8369
 260   2.0000      -0.316721        -8.6184
 261   2.0000      -0.302296        -8.2259
 262   2.0000      -0.297909        -8.1065
 263   2.0000      -0.288855        -7.8601
 264   2.0000      -0.280641        -7.6366
 265   2.0000      -0.253799        -6.9062
 266   2.0000      -0.214719        -5.8428
 267   0.0000      -0.093879        -2.5546
 268   0.0000      -0.087385        -2.3779
 269   0.0000      -0.074011        -2.0139
 270   0.0000      -0.062599        -1.7034
 271   0.0000      -0.048651        -1.3239

MULLIKEN ATOMIC CHARGES
-----------------------
   0 C :    0.325769
   1 C :   -0.340794
   2 C :   -0.184847
   3 N :    0.152549
   4 C :   -0.197893
   5 N :    0.146391
   6 C :    0.010688
   7 C :   -0.007552
   8 C :   -0.067165
   9 C :    0.115783
  10 C :   -0.091010
  11 C :   -0.020375
  12 S :    0.192577
  13 C :   -0.123079
  14 C :    0.036860
  15 Br:    0.027704
  16 C :    0.168717
  17 O :   -0.222985
  18 C :   -0.135489
  19 C :    0.031777
  20 N :   -0.008136
  21 C :   -0.120061
  22 S :    0.181095
  23 C :    0.004826
  24 N :    0.273435
  25 O :   -0.247688
  26 O :   -0.255173
  27 C :    0.003387
  28 C :    0.132806
  29 C :   -0.072654
  30 C :    0.034761
  31 C :   -0.055029
  32 S :    0.135102
  33 C :   -0.076271
  34 C :   -0.020179
  35 C :   -0.040975
  36 S :    0.152169
  37 C :   -0.039232
  38 C :   -0.032740
  39 C :   -0.095527
  40 S :    0.136780
  41 C :   -0.071693
  42 C :    0.029394
  43 C :   -0.032440
  44 C :    0.036840
  45 C :    0.029122
  46 C :   -0.045247
  47 S :    0.066821
  48 C :   -0.035794
  49 C :    0.025738
  50 C :    0.041959
  51 C :   -0.028772
  52 S :    0.061751
  53 C :   -0.009549
  54 C :   -0.194559
  55 S :    0.143322
  56 C :   -0.131655
  57 C :    0.125890
  58 C :    0.194049
  59 O :   -0.184667
  60 C :    0.236490
  61 N :    0.273635
  62 O :   -0.249547
  63 O :   -0.230429
  64 C :   -0.071810
  65 H :   -0.008757
  66 H :   -0.003885
  67 H :   -0.001725
  68 H :    0.045229
  69 H :    0.183454
  70 H :    0.012458
  71 H :    0.013447
  72 H :   -0.007989
  73 H :   -0.013847
  74 H :   -0.002417
  75 H :   -0.013290
  76 H :   -0.010810
  77 H :   -0.011690
  78 H :   -0.011984
  79 H :   -0.007586
  80 H :    0.005988
  81 H :    0.033145
  82 H :    0.013088
Sum of atomic charges:   -0.0000000

LOEWDIN ATOMIC CHARGES
----------------------
   0 C :    0.078656
   1 C :   -0.147891
   2 C :   -0.020042
   3 N :   -0.052826
   4 C :   -0.020454
   5 N :   -0.052405
   6 C :   -0.017863
   7 C :   -0.051643
   8 C :    0.024743
   9 C :   -0.033883
  10 C :   -0.143684
  11 C :   -0.007238
  12 S :    0.438408
  13 C :   -0.271314
  14 C :   -0.069968
  15 Br:    0.139683
  16 C :    0.096822
  17 O :   -0.175117
  18 C :   -0.146853
  19 C :    0.112283
  20 N :    0.080742
  21 C :   -0.117661
  22 S :    0.472193
  23 C :   -0.199787
  24 N :    0.272986
  25 O :   -0.213392
  26 O :   -0.221974
  27 C :    0.001559
  28 C :   -0.082230
  29 C :   -0.048115
  30 C :   -0.021418
  31 C :   -0.162861
  32 S :    0.427228
  33 C :   -0.212950
  34 C :   -0.194994
  35 C :   -0.059099
  36 S :    0.403642
  37 C :   -0.186046
  38 C :   -0.076609
  39 C :   -0.158827
  40 S :    0.417833
  41 C :   -0.219584
  42 C :   -0.077620
  43 C :   -0.144182
  44 C :   -0.029503
  45 C :   -0.035042
  46 C :   -0.177069
  47 S :    0.380009
  48 C :   -0.175916
  49 C :   -0.034910
  50 C :   -0.027648
  51 C :   -0.152002
  52 S :    0.361423
  53 C :   -0.068036
  54 C :   -0.204713
  55 S :    0.474188
  56 C :   -0.190073
  57 C :   -0.084253
  58 C :    0.020117
  59 O :    0.001339
  60 C :    0.025614
  61 N :    0.271977
  62 O :   -0.210470
  63 O :   -0.191958
  64 C :   -0.008853
  65 H :    0.041973
  66 H :    0.042271
  67 H :    0.039310
  68 H :    0.037083
  69 H :    0.084361
  70 H :    0.045550
  71 H :    0.022497
  72 H :    0.035602
  73 H :    0.034449
  74 H :    0.022879
  75 H :    0.033635
  76 H :    0.034127
  77 H :    0.032546
  78 H :    0.032731
  79 H :    0.035606
  80 H :    0.046726
  81 H :    0.029054
  82 H :    0.047131

  Mayer bond orders larger than 0.100000
B(  0-C ,  1-C ) :   1.6292 B(  0-C ,  6-C ) :   1.0025 B(  0-C , 18-C ) :   1.0989
B(  1-C ,  2-C ) :   1.1418 B(  1-C ,  4-C ) :   1.1472 B(  2-C ,  3-N ) :   2.9690
B(  4-C ,  5-N ) :   2.9562 B(  6-C ,  7-C ) :   1.2728 B(  6-C , 11-C ) :   1.4244
B(  7-C ,  8-C ) :   1.4236 B(  7-C , 16-C ) :   0.9844 B(  8-C ,  9-C ) :   1.2407
B(  8-C , 65-H ) :   1.0190 B(  9-C , 10-C ) :   1.3096 B(  9-C , 14-C ) :   1.1623
B( 10-C , 11-C ) :   1.3182 B( 10-C , 12-S ) :   1.0909 B( 11-C , 66-H ) :   0.9807
B( 12-S , 13-C ) :   1.0883 B( 13-C , 14-C ) :   1.6169 B( 13-C , 15-Br) :   1.0210
B( 14-C , 67-H ) :   1.0011 B( 16-C , 17-O ) :   2.0220 B( 16-C , 18-C ) :   1.0077
B( 17-O , 69-H ) :   0.1496 B( 18-C , 19-C ) :   1.4469 B( 19-C , 20-N ) :   1.3452
B( 19-C , 68-H ) :   0.9330 B( 20-N , 21-C ) :   1.1931 B( 20-N , 69-H ) :   0.8167
B( 21-C , 22-S ) :   1.1323 B( 21-C , 28-C ) :   1.3769 B( 22-S , 23-C ) :   1.0851
B( 23-C , 24-N ) :   0.9625 B( 23-C , 27-C ) :   1.4967 B( 24-N , 25-O ) :   1.5364
B( 24-N , 26-O ) :   1.5193 B( 25-O , 26-O ) :   0.2623 B( 27-C , 28-C ) :   1.2261
B( 27-C , 70-H ) :   1.0015 B( 28-C , 29-C ) :   1.0752 B( 29-C , 30-C ) :   1.7038
B( 29-C , 71-H ) :   0.9550 B( 30-C , 31-C ) :   1.1500 B( 30-C , 72-H ) :   0.9793
B( 31-C , 32-S ) :   1.0867 B( 31-C , 35-C ) :   1.4893 B( 32-S , 33-C ) :   1.0744
B( 33-C , 34-C ) :   1.4540 B( 33-C , 41-C ) :   1.3166 B( 34-C , 35-C ) :   1.2608
B( 34-C , 36-S ) :   1.0457 B( 35-C , 73-H ) :   1.0077 B( 36-S , 37-C ) :   1.0528
B( 37-C , 38-C ) :   1.2974 B( 37-C , 41-C ) :   1.4464 B( 38-C , 39-C ) :   1.4830
B( 38-C , 74-H ) :   0.9794 B( 39-C , 40-S ) :   1.0769 B( 39-C , 42-C ) :   1.1561
B( 40-S , 41-C ) :   1.0697 B( 42-C , 43-C ) :   1.6166 B( 42-C , 75-H ) :   0.9519
B( 43-C , 44-C ) :   1.1394 B( 43-C , 47-S ) :   1.0360 B( 44-C , 45-C ) :   1.5974
B( 44-C , 76-H ) :   0.9988 B( 45-C , 46-C ) :   1.1798 B( 45-C , 77-H ) :   0.9930
B( 46-C , 47-S ) :   1.0375 B( 46-C , 48-C ) :   1.5282 B( 48-C , 49-C ) :   1.1776
B( 48-C , 52-S ) :   1.0376 B( 49-C , 50-C ) :   1.6021 B( 49-C , 78-H ) :   0.9927
B( 50-C , 51-C ) :   1.1334 B( 50-C , 79-H ) :   1.0007 B( 51-C , 52-S ) :   1.0328
B( 51-C , 53-C ) :   1.5779 B( 53-C , 54-C ) :   1.1700 B( 53-C , 80-H ) :   0.9735
B( 54-C , 55-S ) :   1.1086 B( 54-C , 56-C ) :   0.1090 B( 54-C , 58-C ) :   1.4436
B( 55-S , 56-C ) :   1.1883 B( 56-C , 57-C ) :   1.4162 B( 56-C , 81-H ) :   0.9755
B( 57-C , 58-C ) :   1.2301 B( 57-C , 64-C ) :   1.0602 B( 58-C , 59-O ) :   1.1239
B( 59-O , 60-C ) :   1.1208 B( 60-C , 61-N ) :   0.9155 B( 60-C , 64-C ) :   1.5780
B( 61-N , 62-O ) :   1.5333 B( 61-N , 63-O ) :   1.5150 B( 62-O , 63-O ) :   0.2799
B( 64-C , 82-H ) :   1.0264

-----------------------------------------------------------------------------
         ABSORPTION SPECTRUM VIA TRANSITION ELECTRIC DIPOLE MOMENTS
-----------------------------------------------------------------------------
State   Energy  Wavelength   fosc         T2         TX        TY        TZ
        (cm-1)    (nm)                  (au**2)     (au)      (au)      (au)
-----------------------------------------------------------------------------
   0   14252.3    701.6   1.521266441  35.13942  -1.42524   0.50620   5.73166
   1   17343.7    576.6   0.138972267   2.63792  -0.94564  -1.31059   0.16136
   2   19672.7    508.3   0.259078741   4.33555  -1.30298   1.01474   1.26811
   3   20910.3    478.2   0.056142871   0.88391  -0.04987  -0.92124  -0.18095
   4   21933.2    455.9   0.271065400   4.06862  -0.99090  -1.60360   0.71778
   5   23227.3    430.5   0.299400006   4.24355  -0.78358   1.85221  -0.44594
   6   24708.9    404.7   0.749538652   9.98657  -2.94762   1.13554  -0.09301
   7   25613.8    390.4   0.137163954   1.76296   0.77590  -1.07634  -0.04922
   8   27554.9    362.9   0.400786564   4.78839  -0.88504   1.98289  -0.27062
   9   27814.9    359.5   0.183944706   2.17714   0.97635  -0.74830   0.81481
  10   28617.4    349.4   0.024775956   0.28502  -0.49502   0.00470   0.19989
  11   29430.5    339.8   0.509096568   5.69479   1.44993  -1.75681  -0.71141
  12   29526.5    338.7   0.068171065   0.76009  -0.06225   0.77896  -0.38657
  13   30202.1    331.1   0.146805716   1.60023   0.72686  -1.03467   0.03692
  14   30469.2    328.2   0.131110967   1.41662  -0.90290   0.44527   0.63493
  15   31021.2    322.4   0.147019076   1.56024   0.42584  -0.64268   0.98278
  16   31229.7    320.2   0.028774324   0.30333  -0.37684   0.10987   0.38632
  17   31451.8    317.9   0.266825227   2.79291   0.88530  -1.09736  -0.89719
  18   31565.6    316.8   0.055504821   0.57888  -0.33059   0.32707   0.60218
  19   32363.0    309.0   0.060151105   0.61189   0.62523  -0.46736  -0.05049
  20   32714.2    305.7   0.055765515   0.56118   0.12416   0.20913   0.70854
  21   33002.7    303.0   0.000015566   0.00016  -0.00911   0.00465  -0.00712
  22   33565.6    297.9   0.012105695   0.11873  -0.33339   0.04957   0.07160
  23   33818.6    295.7   0.000699460   0.00681   0.04882  -0.00940  -0.06586
  24   34077.3    293.5   0.393279793   3.79937  -1.34879   0.68509   1.22914
  25   34397.0    290.7   0.007803761   0.07469  -0.24619  -0.10287  -0.05913
  26   34485.6    290.0   0.275868628   2.63354   0.94046  -0.34631  -1.27638
  27   34732.3    287.9   0.051660142   0.48966   0.42140  -0.37268  -0.41617
  28   35127.6    284.7   0.000454412   0.00426   0.00890   0.00845   0.06409
  29   35757.1    279.7   0.014334996   0.13198  -0.00699   0.13940  -0.33541
  30   36118.9    276.9   0.001237334   0.01128   0.02741  -0.00921   0.10219
  31   36196.8    276.3   0.128052753   1.16465   0.24001   0.22677   1.02743
  32   36781.7    271.9   0.038532308   0.34488  -0.44568   0.09128  -0.37137
  33   36973.5    270.5   0.104136320   0.92723  -0.15389   0.45445  -0.83488
  34   37209.6    268.7   0.050502098   0.44682  -0.07356  -0.27185  -0.60622
  35   37673.9    265.4   0.124665169   1.08938  -0.56656   0.70190  -0.52509
  36   37777.2    264.7   0.155138506   1.35197  -0.39445   0.37192   1.02861
  37   37962.6    263.4   0.027149149   0.23544   0.06501   0.35342   0.32605
  38   38473.7    259.9   0.147420293   1.26145  -0.27640  -0.93837   0.55183
  39   38685.0    258.5   0.068176382   0.58019  -0.26710   0.36075   0.61539
  40   39110.5    255.7   0.036924964   0.31082   0.03459   0.55640   0.00582
  41   39290.9    254.5   0.084889547   0.71128   0.06846   0.57094   0.61694
  42   39793.9    251.3   0.023520909   0.19459  -0.07911  -0.40998   0.14230
  43   39903.2    250.6   0.179028582   1.47703  -0.46890  -0.02511   1.12095

FINAL SINGLE POINT ENERGY     -8205.925860505407

DIPOLE MOMENT
-------------
                                X             Y             Z
Electronic contribution:    -20.21412     -85.76612      61.34595
Nuclear contribution   :     23.39661      84.59696     -62.02300
                        -----------------------------------------
Total Dipole Moment    :      3.18250      -1.16915      -0.67704
                        -----------------------------------------
Magnitude (a.u.)       :      3.45740
Magnitude (Debye)      :      8.78801

Rotational constants in cm-1:     0.000833     0.000250     0.000214
Rotational constants in MHz :    24.959384     7.498920     6.418612

                             ****ORCA TERMINATED NORMALLY****
TOTAL RUN TIME: 0 days 0 hours 7 minutes 38 seconds 458 msec
