                         Program Version 4.2.0 -  RELEASE  -
|  1> # ORCA input file
|  2> # SCF done       -161.628580330681          0.000443249084
|  3> ! CAM-B3LYP def2-SVP def2/J RIJCOSX Grid4 TightSCF
|  4> %maxcore 5000
|  5> %tddft
|  6>     Mode sTDDFT
|  7>     Ethresh 5.0
|  8>     maxcore 5000
|  9> end
| 10>
| 11> %pal
| 12>   nprocs 6
| 13>   end
| 14> * xyz 0 1
| 15>    C      -19.35123        -8.34694         5.12593
| 16>    C      -19.22513        -8.42729         3.75632
| 17>    C      -20.21254        -8.95382         2.90107
| 18>    N      -20.97636        -9.36647         2.14856
| 19>    C      -18.09916        -8.03307         3.01210
| 20>    N      -17.22321        -7.75521         2.31982
| 21>    C      -20.49282        -8.83854         5.89486
| 22>    C      -20.21666        -8.66776         7.27337
| 23>    C      -21.09742        -9.04250         8.25675
| 24>    C      -22.31363        -9.61224         7.86198
| 25>    C      -22.58190        -9.77547         6.48361
| 26>    C      -21.68851        -9.39750         5.48769
| 27>    S      -24.14128       -10.49549         6.21637
| 28>    C      -24.40634       -10.56691         7.93808
| 29>    C      -23.38247       -10.07757         8.67639
| 30>   Br      -26.01059       -11.28142         8.59854
| 31>    C      -18.88519        -8.04110         7.42859
| 32>    O      -18.33972        -7.76163         8.47858
| 33>    C      -18.38913        -7.82296         6.05744
| 34>    C      -17.21147        -7.17483         5.74160
| 35>    C      -16.26206        -6.73067         6.65376
| 36>    C      -15.10867        -6.07915         6.25832
| 37>    C      -14.02803        -5.68053         7.07752
| 38>    C      -12.99343        -5.10787         6.39694
| 39>    C      -13.21112        -5.02165         5.00567
| 40>    S      -14.78686        -5.65804         4.59464
| 41>    C      -12.36466        -4.54463         4.02313
| 42>    C      -11.08739        -3.95042         4.17767
| 43>    C      -10.51005        -3.58085         3.00566
| 44>    C      -11.28643        -3.88120         1.84972
| 45>    S      -12.80256        -4.63062         2.33976
| 46>    C      -10.96741        -3.60181         0.55727
| 47>    C      -11.73629        -3.94949        -0.60954
| 48>    C      -12.27930        -5.16860        -0.83929
| 49>    C      -13.15937        -5.39076        -2.04436
| 50>    C      -12.63263        -4.62457        -3.21569
| 51>    C      -12.65128        -4.98280        -4.52525
| 52>    S      -11.89266        -3.80500        -5.52421
| 53>    C      -11.53575        -2.82296        -4.15572
| 54>    C      -11.99342        -3.37528        -3.00309
| 55>    C      -11.89142        -2.83240        -1.61760
| 56>    C      -12.01527        -6.34170         0.00321
| 57>    C      -10.78118        -6.69802         0.39590
| 58>    C      -10.51075        -7.84566         1.33085
| 59>    C      -11.70059        -8.11392         2.19295
| 60>    C      -11.71188        -8.63380         3.44641
| 61>    S      -13.31465        -8.80434         4.05547
| 62>    C      -13.97374        -8.14695         2.60685
| 63>    C      -13.00616        -7.82452         1.71219
| 64>    C      -13.19904        -7.20790         0.36501
| 65>    N       -9.62692        -6.02315        -0.04095
| 66>    C       -9.34785        -5.74538        -1.33427
| 67>    S      -10.13798        -6.62478        -2.60029
| 68>    C       -9.21256        -5.74177        -3.77602
| 69>    N       -9.43656        -6.03037        -5.11752
| 70>    O       -8.79089        -5.41909        -5.95143
| 71>    O      -10.27226        -6.88915        -5.36225
| 72>    C       -8.34975        -4.83871        -3.21444
| 73>    C       -8.40897        -4.82413        -1.81121
| 74>    C       -7.62780        -3.96465        -0.94484
| 75>    C       -6.79338        -3.01283        -1.34994
| 76>    H      -20.85799        -8.90141         9.29910
| 77>    H      -21.94144        -9.54147         4.45066
| 78>    H      -23.37899       -10.04493         9.75062
| 79>    H      -16.99627        -6.99393         4.69525
| 80>    H      -16.41202        -6.91851         7.70668
| 81>    H      -14.04272        -5.84568         8.14002
| 82>    H      -12.08398        -4.76292         6.85551
| 83>    H      -10.64459        -3.80419         5.14647
| 84>    H       -9.54765        -3.10622         2.92279
| 85>    H      -10.09507        -2.98007         0.38986
| 86>    H      -14.16843        -5.03052        -1.80834
| 87>    H      -13.23067        -6.45049        -2.28720
| 88>    H      -13.04137        -5.87622        -4.96945
| 89>    H      -11.01646        -1.89535        -4.29071
| 90>    H      -12.80906        -2.28061        -1.37744
| 91>    H      -11.05952        -2.12999        -1.53585
| 92>    H       -9.62980        -7.63001         1.94246
| 93>    H      -10.27992        -8.74044         0.73864
| 94>    H      -10.88161        -8.93973         4.05138
| 95>    H      -15.03606        -8.03728         2.50764
| 96>    H      -14.11972        -6.62475         0.35150
| 97>    H      -13.29756        -8.00441        -0.38205
| 98>    H       -8.94066        -5.77004         0.65565
| 99>    H       -7.70876        -4.21795        -3.81214
|100>    H       -7.75731        -4.12858         0.11831
|101>    H       -6.62446        -2.79879        -2.39007
|102>    H       -6.24536        -2.41309        -0.64464
|103> *
|104>
|105>                          ****END OF INPUT****

CARTESIAN COORDINATES (ANGSTROEM)
---------------------------------
  C    -19.351230   -8.346940    5.125930
  C    -19.225130   -8.427290    3.756320
  C    -20.212540   -8.953820    2.901070
  N    -20.976360   -9.366470    2.148560
  C    -18.099160   -8.033070    3.012100
  N    -17.223210   -7.755210    2.319820
  C    -20.492820   -8.838540    5.894860
  C    -20.216660   -8.667760    7.273370
  C    -21.097420   -9.042500    8.256750
  C    -22.313630   -9.612240    7.861980
  C    -22.581900   -9.775470    6.483610
  C    -21.688510   -9.397500    5.487690
  S    -24.141280  -10.495490    6.216370
  C    -24.406340  -10.566910    7.938080
  C    -23.382470  -10.077570    8.676390
  Br   -26.010590  -11.281420    8.598540
  C    -18.885190   -8.041100    7.428590
  O    -18.339720   -7.761630    8.478580
  C    -18.389130   -7.822960    6.057440
  C    -17.211470   -7.174830    5.741600
  C    -16.262060   -6.730670    6.653760
  C    -15.108670   -6.079150    6.258320
  C    -14.028030   -5.680530    7.077520
  C    -12.993430   -5.107870    6.396940
  C    -13.211120   -5.021650    5.005670
  S    -14.786860   -5.658040    4.594640
  C    -12.364660   -4.544630    4.023130
  C    -11.087390   -3.950420    4.177670
  C    -10.510050   -3.580850    3.005660
  C    -11.286430   -3.881200    1.849720
  S    -12.802560   -4.630620    2.339760
  C    -10.967410   -3.601810    0.557270
  C    -11.736290   -3.949490   -0.609540
  C    -12.279300   -5.168600   -0.839290
  C    -13.159370   -5.390760   -2.044360
  C    -12.632630   -4.624570   -3.215690
  C    -12.651280   -4.982800   -4.525250
  S    -11.892660   -3.805000   -5.524210
  C    -11.535750   -2.822960   -4.155720
  C    -11.993420   -3.375280   -3.003090
  C    -11.891420   -2.832400   -1.617600
  C    -12.015270   -6.341700    0.003210
  C    -10.781180   -6.698020    0.395900
  C    -10.510750   -7.845660    1.330850
  C    -11.700590   -8.113920    2.192950
  C    -11.711880   -8.633800    3.446410
  S    -13.314650   -8.804340    4.055470
  C    -13.973740   -8.146950    2.606850
  C    -13.006160   -7.824520    1.712190
  C    -13.199040   -7.207900    0.365010
  N     -9.626920   -6.023150   -0.040950
  C     -9.347850   -5.745380   -1.334270
  S    -10.137980   -6.624780   -2.600290
  C     -9.212560   -5.741770   -3.776020
  N     -9.436560   -6.030370   -5.117520
  O     -8.790890   -5.419090   -5.951430
  O    -10.272260   -6.889150   -5.362250
  C     -8.349750   -4.838710   -3.214440
  C     -8.408970   -4.824130   -1.811210
  C     -7.627800   -3.964650   -0.944840
  C     -6.793380   -3.012830   -1.349940
  H    -20.857990   -8.901410    9.299100
  H    -21.941440   -9.541470    4.450660
  H    -23.378990  -10.044930    9.750620
  H    -16.996270   -6.993930    4.695250
  H    -16.412020   -6.918510    7.706680
  H    -14.042720   -5.845680    8.140020
  H    -12.083980   -4.762920    6.855510
  H    -10.644590   -3.804190    5.146470
  H     -9.547650   -3.106220    2.922790
  H    -10.095070   -2.980070    0.389860
  H    -14.168430   -5.030520   -1.808340
  H    -13.230670   -6.450490   -2.287200
  H    -13.041370   -5.876220   -4.969450
  H    -11.016460   -1.895350   -4.290710
  H    -12.809060   -2.280610   -1.377440
  H    -11.059520   -2.129990   -1.535850
  H     -9.629800   -7.630010    1.942460
  H    -10.279920   -8.740440    0.738640
  H    -10.881610   -8.939730    4.051380
  H    -15.036060   -8.037280    2.507640
  H    -14.119720   -6.624750    0.351500
  H    -13.297560   -8.004410   -0.382050
  H     -8.940660   -5.770040    0.655650
  H     -7.708760   -4.217950   -3.812140
  H     -7.757310   -4.128580    0.118310
  H     -6.624460   -2.798790   -2.390070
  H     -6.245360   -2.413090   -0.644640

 Total Charge           Charge          ....    0
 Multiplicity           Mult            ....    1
 Number of Electrons    NEL             ....  492
 Basis Dimension        Dim             .... 1031

ORBITAL ENERGIES
----------------

  NO   OCC          E(Eh)            E(eV)
   0   2.0000    -482.877994    -13139.7782
   1   2.0000     -88.969552     -2420.9846
   2   2.0000     -88.965842     -2420.8836
   3   2.0000     -88.964203     -2420.8390
   4   2.0000     -88.959571     -2420.7130
   5   2.0000     -88.940366     -2420.1904
   6   2.0000     -88.940289     -2420.1883
   7   2.0000     -62.555707     -1702.2273
   8   2.0000     -56.389644     -1534.4402
   9   2.0000     -56.386951     -1534.3670
  10   2.0000     -56.386914     -1534.3659
  11   2.0000     -19.223474      -523.0973
  12   2.0000     -19.222972      -523.0836
  13   2.0000     -19.200844      -522.4815
  14   2.0000     -14.634030      -398.2122
  15   2.0000     -14.461591      -393.5199
  16   2.0000     -14.409871      -392.1125
  17   2.0000     -14.399957      -391.8428
  18   2.0000     -10.358565      -281.8709
  19   2.0000     -10.351073      -281.6670
  20   2.0000     -10.349542      -281.6254
  21   2.0000     -10.338634      -281.3285
  22   2.0000     -10.328119      -281.0424
  23   2.0000     -10.326810      -281.0068
  24   2.0000     -10.325429      -280.9692
  25   2.0000     -10.324451      -280.9426
  26   2.0000     -10.323491      -280.9165
  27   2.0000     -10.321778      -280.8699
  28   2.0000     -10.321720      -280.8683
  29   2.0000     -10.316111      -280.7157
  30   2.0000     -10.314102      -280.6610
  31   2.0000     -10.312149      -280.6078
  32   2.0000     -10.308314      -280.5035
  33   2.0000     -10.307824      -280.4901
  34   2.0000     -10.306403      -280.4515
  35   2.0000     -10.304682      -280.4047
  36   2.0000     -10.299686      -280.2687
  37   2.0000     -10.297710      -280.2149
  38   2.0000     -10.296291      -280.1763
  39   2.0000     -10.295100      -280.1439
  40   2.0000     -10.294854      -280.1372
  41   2.0000     -10.293532      -280.1012
  42   2.0000     -10.293420      -280.0982
  43   2.0000     -10.292634      -280.0768
  44   2.0000     -10.289894      -280.0022
  45   2.0000     -10.289375      -279.9881
  46   2.0000     -10.288980      -279.9774
  47   2.0000     -10.288103      -279.9535
  48   2.0000     -10.287750      -279.9439
  49   2.0000     -10.285696      -279.8880
  50   2.0000     -10.282712      -279.8068
  51   2.0000     -10.280607      -279.7495
  52   2.0000     -10.280279      -279.7406
  53   2.0000     -10.279047      -279.7071
  54   2.0000     -10.278713      -279.6980
  55   2.0000     -10.278654      -279.6964
  56   2.0000     -10.276429      -279.6359
  57   2.0000     -10.276262      -279.6313
  58   2.0000     -10.274355      -279.5794
  59   2.0000     -10.273677      -279.5610
  60   2.0000     -10.270372      -279.4710
  61   2.0000     -10.268847      -279.4295
  62   2.0000     -10.266179      -279.3569
  63   2.0000     -10.265882      -279.3489
  64   2.0000     -10.264503      -279.3113
  65   2.0000      -8.785137      -239.0557
  66   2.0000      -8.063873      -219.4292
  67   2.0000      -8.061844      -219.3739
  68   2.0000      -8.059339      -219.3058
  69   2.0000      -8.054989      -219.1874
  70   2.0000      -8.036117      -218.6739
  71   2.0000      -8.036029      -218.6715
  72   2.0000      -6.621370      -180.1766
  73   2.0000      -6.606892      -179.7827
  74   2.0000      -6.606727      -179.7782
  75   2.0000      -6.033666      -164.1844
  76   2.0000      -6.031508      -164.1257
  77   2.0000      -6.029281      -164.0651
  78   2.0000      -6.029153      -164.0616
  79   2.0000      -6.027292      -164.0110
  80   2.0000      -6.025254      -163.9555
  81   2.0000      -6.024956      -163.9474
  82   2.0000      -6.024607      -163.9379
  83   2.0000      -6.023068      -163.8960
  84   2.0000      -6.020581      -163.8283
  85   2.0000      -6.020341      -163.8218
  86   2.0000      -6.016210      -163.7094
  87   2.0000      -6.005486      -163.4176
  88   2.0000      -6.005378      -163.4146
  89   2.0000      -6.001008      -163.2957
  90   2.0000      -6.000888      -163.2925
  91   2.0000      -5.998451      -163.2262
  92   2.0000      -5.998419      -163.2253
  93   2.0000      -2.737288       -74.4854
  94   2.0000      -2.733171       -74.3734
  95   2.0000      -2.733042       -74.3699
  96   2.0000      -2.721549       -74.0571
  97   2.0000      -2.721525       -74.0565
  98   2.0000      -1.302400       -35.4401
  99   2.0000      -1.121305       -30.5122
 100   2.0000      -1.114139       -30.3173
 101   2.0000      -1.074500       -29.2386
 102   2.0000      -1.014611       -27.6090
 103   2.0000      -1.011396       -27.5215
 104   2.0000      -1.003960       -27.3191
 105   2.0000      -0.992996       -27.0208
 106   2.0000      -0.990268       -26.9466
 107   2.0000      -0.984393       -26.7867
 108   2.0000      -0.979811       -26.6620
 109   2.0000      -0.976217       -26.5642
 110   2.0000      -0.973880       -26.5006
 111   2.0000      -0.945719       -25.7343
 112   2.0000      -0.932292       -25.3690
 113   2.0000      -0.919007       -25.0075
 114   2.0000      -0.909518       -24.7493
 115   2.0000      -0.901448       -24.5296
 116   2.0000      -0.897085       -24.4109
 117   2.0000      -0.890422       -24.2296
 118   2.0000      -0.874951       -23.8086
 119   2.0000      -0.874224       -23.7888
 120   2.0000      -0.868712       -23.6388
 121   2.0000      -0.865271       -23.5452
 122   2.0000      -0.861312       -23.4375
 123   2.0000      -0.849093       -23.1050
 124   2.0000      -0.840031       -22.8584
 125   2.0000      -0.838641       -22.8206
 126   2.0000      -0.828256       -22.5380
 127   2.0000      -0.827440       -22.5158
 128   2.0000      -0.818370       -22.2690
 129   2.0000      -0.812538       -22.1103
 130   2.0000      -0.795673       -21.6514
 131   2.0000      -0.783708       -21.3258
 132   2.0000      -0.771978       -21.0066
 133   2.0000      -0.759125       -20.6568
 134   2.0000      -0.758265       -20.6334
 135   2.0000      -0.747014       -20.3273
 136   2.0000      -0.745692       -20.2913
 137   2.0000      -0.729572       -19.8527
 138   2.0000      -0.718156       -19.5420
 139   2.0000      -0.704899       -19.1813
 140   2.0000      -0.701652       -19.0929
 141   2.0000      -0.684757       -18.6332
 142   2.0000      -0.679277       -18.4841
 143   2.0000      -0.674590       -18.3565
 144   2.0000      -0.665548       -18.1105
 145   2.0000      -0.660610       -17.9761
 146   2.0000      -0.657201       -17.8833
 147   2.0000      -0.655353       -17.8331
 148   2.0000      -0.647450       -17.6180
 149   2.0000      -0.641903       -17.4671
 150   2.0000      -0.636660       -17.3244
 151   2.0000      -0.633909       -17.2495
 152   2.0000      -0.627404       -17.0725
 153   2.0000      -0.620953       -16.8970
 154   2.0000      -0.618798       -16.8384
 155   2.0000      -0.617044       -16.7906
 156   2.0000      -0.613225       -16.6867
 157   2.0000      -0.611628       -16.6432
 158   2.0000      -0.596585       -16.2339
 159   2.0000      -0.588697       -16.0193
 160   2.0000      -0.586816       -15.9681
 161   2.0000      -0.583112       -15.8673
 162   2.0000      -0.580237       -15.7891
 163   2.0000      -0.577001       -15.7010
 164   2.0000      -0.567695       -15.4478
 165   2.0000      -0.564663       -15.3653
 166   2.0000      -0.560146       -15.2423
 167   2.0000      -0.558683       -15.2025
 168   2.0000      -0.554585       -15.0910
 169   2.0000      -0.547321       -14.8933
 170   2.0000      -0.543780       -14.7970
 171   2.0000      -0.539030       -14.6677
 172   2.0000      -0.533497       -14.5172
 173   2.0000      -0.530259       -14.4291
 174   2.0000      -0.527005       -14.3405
 175   2.0000      -0.525983       -14.3127
 176   2.0000      -0.522642       -14.2218
 177   2.0000      -0.518909       -14.1202
 178   2.0000      -0.517669       -14.0865
 179   2.0000      -0.514781       -14.0079
 180   2.0000      -0.512632       -13.9494
 181   2.0000      -0.508128       -13.8269
 182   2.0000      -0.504658       -13.7324
 183   2.0000      -0.501831       -13.6555
 184   2.0000      -0.498434       -13.5631
 185   2.0000      -0.496977       -13.5234
 186   2.0000      -0.496741       -13.5170
 187   2.0000      -0.493070       -13.4171
 188   2.0000      -0.488910       -13.3039
 189   2.0000      -0.484913       -13.1952
 190   2.0000      -0.484727       -13.1901
 191   2.0000      -0.482347       -13.1253
 192   2.0000      -0.481047       -13.0899
 193   2.0000      -0.479411       -13.0454
 194   2.0000      -0.476251       -12.9594
 195   2.0000      -0.474739       -12.9183
 196   2.0000      -0.470886       -12.8135
 197   2.0000      -0.464211       -12.6318
 198   2.0000      -0.459904       -12.5146
 199   2.0000      -0.454264       -12.3612
 200   2.0000      -0.450732       -12.2650
 201   2.0000      -0.447976       -12.1901
 202   2.0000      -0.447342       -12.1728
 203   2.0000      -0.443605       -12.0711
 204   2.0000      -0.441912       -12.0250
 205   2.0000      -0.437925       -11.9166
 206   2.0000      -0.437599       -11.9077
 207   2.0000      -0.435138       -11.8407
 208   2.0000      -0.433209       -11.7882
 209   2.0000      -0.431793       -11.7497
 210   2.0000      -0.431300       -11.7363
 211   2.0000      -0.429902       -11.6982
 212   2.0000      -0.427461       -11.6318
 213   2.0000      -0.421072       -11.4580
 214   2.0000      -0.417733       -11.3671
 215   2.0000      -0.417043       -11.3483
 216   2.0000      -0.414628       -11.2826
 217   2.0000      -0.411174       -11.1886
 218   2.0000      -0.406141       -11.0517
 219   2.0000      -0.404712       -11.0128
 220   2.0000      -0.401954       -10.9377
 221   2.0000      -0.397352       -10.8125
 222   2.0000      -0.395586       -10.7644
 223   2.0000      -0.391275       -10.6471
 224   2.0000      -0.379013       -10.3135
 225   2.0000      -0.373191       -10.1550
 226   2.0000      -0.371153       -10.0996
 227   2.0000      -0.367502       -10.0002
 228   2.0000      -0.364881        -9.9289
 229   2.0000      -0.363679        -9.8962
 230   2.0000      -0.355329        -9.6690
 231   2.0000      -0.351843        -9.5741
 232   2.0000      -0.347824        -9.4648
 233   2.0000      -0.338967        -9.2238
 234   2.0000      -0.321677        -8.7533
 235   2.0000      -0.320757        -8.7283
 236   2.0000      -0.311034        -8.4637
 237   2.0000      -0.304751        -8.2927
 238   2.0000      -0.296660        -8.0725
 239   2.0000      -0.295326        -8.0362
 240   2.0000      -0.290208        -7.8970
 241   2.0000      -0.288329        -7.8458
 242   2.0000      -0.286318        -7.7911
 243   2.0000      -0.282244        -7.6803
 244   2.0000      -0.261552        -7.1172
 245   2.0000      -0.230299        -6.2668
 246   0.0000      -0.107266        -2.9189
 247   0.0000      -0.059893        -1.6298
 248   0.0000      -0.045738        -1.2446
 249   0.0000      -0.037427        -1.0184
 250   0.0000      -0.011198        -0.3047

MULLIKEN ATOMIC CHARGES
-----------------------
   0 C :    0.330957
   1 C :   -0.373725
   2 C :   -0.190597
   3 N :    0.137387
   4 C :   -0.154346
   5 N :    0.122209
   6 C :    0.013219
   7 C :   -0.005497
   8 C :   -0.084514
   9 C :    0.120329
  10 C :   -0.089470
  11 C :   -0.030890
  12 S :    0.180035
  13 C :   -0.123320
  14 C :    0.035092
  15 Br:    0.015653
  16 C :    0.138945
  17 O :   -0.166120
  18 C :   -0.085323
  19 C :   -0.050004
  20 C :   -0.021754
  21 C :    0.006058
  22 C :    0.028883
  23 C :    0.043524
  24 C :   -0.048413
  25 S :    0.104479
  26 C :   -0.020567
  27 C :    0.020636
  28 C :    0.043962
  29 C :   -0.026428
  30 S :    0.134697
  31 C :   -0.049456
  32 C :   -0.109913
  33 C :   -0.162845
  34 C :    0.320185
  35 C :   -0.051288
  36 C :   -0.169438
  37 S :    0.111545
  38 C :   -0.159488
  39 C :   -0.047770
  40 C :    0.281187
  41 C :   -0.180993
  42 C :   -0.125988
  43 C :    0.311472
  44 C :   -0.068357
  45 C :   -0.161407
  46 S :    0.096317
  47 C :   -0.140291
  48 C :   -0.044130
  49 C :    0.306774
  50 N :   -0.063961
  51 C :   -0.100451
  52 S :    0.161094
  53 C :   -0.010072
  54 N :    0.285369
  55 O :   -0.258020
  56 O :   -0.276520
  57 C :    0.009944
  58 C :    0.107755
  59 C :   -0.036673
  60 C :   -0.024353
  61 H :   -0.015306
  62 H :   -0.008924
  63 H :   -0.005668
  64 H :    0.010908
  65 H :    0.015032
  66 H :   -0.001845
  67 H :   -0.008900
  68 H :   -0.008238
  69 H :   -0.007778
  70 H :    0.007767
  71 H :    0.031549
  72 H :    0.003369
  73 H :    0.020064
  74 H :    0.005169
  75 H :    0.029577
  76 H :   -0.004193
  77 H :   -0.015781
  78 H :    0.033438
  79 H :    0.000611
  80 H :   -0.011670
  81 H :    0.012247
  82 H :    0.032906
  83 H :    0.132907
  84 H :   -0.001448
  85 H :   -0.039328
  86 H :    0.017007
  87 H :    0.021210
Sum of atomic charges:   -0.0000000

LOEWDIN ATOMIC CHARGES
----------------------
   0 C :    0.077872
   1 C :   -0.165840
   2 C :   -0.020368
   3 N :   -0.069464
   4 C :   -0.000150
   5 N :   -0.076299
   6 C :   -0.019211
   7 C :   -0.047640
   8 C :    0.016720
   9 C :   -0.035373
  10 C :   -0.146323
  11 C :   -0.013007
  12 S :    0.427941
  13 C :   -0.274615
  14 C :   -0.071198
  15 Br:    0.130411
  16 C :    0.081921
  17 O :   -0.158824
  18 C :   -0.114000
  19 C :    0.047595
  20 C :   -0.077896
  21 C :   -0.100421
  22 C :   -0.044395
  23 C :   -0.005475
  24 C :   -0.194705
  25 S :    0.429482
  26 C :   -0.141750
  27 C :   -0.038480
  28 C :   -0.015800
  29 C :   -0.154032
  30 S :    0.440512
  31 C :   -0.015087
  32 C :   -0.045412
  33 C :   -0.020839
  34 C :   -0.014339
  35 C :   -0.074781
  36 C :   -0.192825
  37 S :    0.440635
  38 C :   -0.200489
  39 C :   -0.070054
  40 C :   -0.008852
  41 C :   -0.061780
  42 C :   -0.004552
  43 C :   -0.019449
  44 C :   -0.072800
  45 C :   -0.203561
  46 S :    0.423624
  47 C :   -0.189829
  48 C :   -0.075196
  49 C :   -0.011936
  50 N :    0.015799
  51 C :   -0.087657
  52 S :    0.479945
  53 C :   -0.213867
  54 N :    0.276168
  55 O :   -0.223970
  56 O :   -0.242821
  57 C :    0.010098
  58 C :   -0.122844
  59 C :   -0.030281
  60 C :   -0.052117
  61 H :    0.038832
  62 H :    0.040180
  63 H :    0.037664
  64 H :    0.028311
  65 H :    0.038593
  66 H :    0.038237
  67 H :    0.034286
  68 H :    0.034141
  69 H :    0.034832
  70 H :    0.035011
  71 H :    0.048796
  72 H :    0.033384
  73 H :    0.023001
  74 H :    0.018360
  75 H :    0.046586
  76 H :    0.034328
  77 H :    0.030627
  78 H :    0.048831
  79 H :    0.016297
  80 H :    0.011069
  81 H :    0.037530
  82 H :    0.045654
  83 H :    0.081099
  84 H :    0.041037
  85 H :    0.016877
  86 H :    0.022827
  87 H :    0.025493

  Mayer bond orders larger than 0.100000
B(  0-C ,  1-C ) :   1.5628 B(  0-C ,  6-C ) :   0.9895 B(  0-C , 18-C ) :   1.1276
B(  1-C ,  2-C ) :   1.1471 B(  1-C ,  4-C ) :   1.1725 B(  2-C ,  3-N ) :   2.9638
B(  4-C ,  5-N ) :   2.8770 B(  5-N , 80-H ) :   0.1078 B(  6-C ,  7-C ) :   1.2778
B(  6-C , 11-C ) :   1.4187 B(  7-C ,  8-C ) :   1.4298 B(  7-C , 16-C ) :   0.9317
B(  8-C ,  9-C ) :   1.2354 B(  8-C , 61-H ) :   1.0180 B(  9-C , 10-C ) :   1.3173
B(  9-C , 14-C ) :   1.1611 B( 10-C , 11-C ) :   1.3169 B( 10-C , 12-S ) :   1.0830
B( 11-C , 62-H ) :   0.9810 B( 12-S , 13-C ) :   1.0864 B( 13-C , 14-C ) :   1.6189
B( 13-C , 15-Br) :   1.0145 B( 14-C , 63-H ) :   1.0011 B( 16-C , 17-O ) :   2.1901
B( 16-C , 18-C ) :   0.9690 B( 18-C , 19-C ) :   1.4549 B( 19-C , 20-C ) :   1.2804
B( 19-C , 64-H ) :   0.9435 B( 20-C , 21-C ) :   1.3950 B( 20-C , 65-H ) :   0.9812
B( 21-C , 22-C ) :   1.1817 B( 21-C , 25-S ) :   1.1032 B( 22-C , 23-C ) :   1.5403
B( 22-C , 66-H ) :   1.0012 B( 23-C , 24-C ) :   1.2178 B( 23-C , 67-H ) :   0.9927
B( 24-C , 25-S ) :   1.0460 B( 24-C , 26-C ) :   1.4715 B( 26-C , 27-C ) :   1.1735
B( 26-C , 30-S ) :   1.0980 B( 27-C , 28-C ) :   1.6028 B( 27-C , 68-H ) :   0.9948
B( 28-C , 29-C ) :   1.1177 B( 28-C , 69-H ) :   1.0001 B( 29-C , 30-S ) :   1.0291
B( 29-C , 31-C ) :   1.6825 B( 31-C , 32-C ) :   1.0630 B( 31-C , 70-H ) :   0.9496
B( 32-C , 33-C ) :   1.7781 B( 32-C , 40-C ) :   1.0172 B( 33-C , 34-C ) :   1.0190
B( 33-C , 41-C ) :   1.0269 B( 34-C , 35-C ) :   1.0292 B( 34-C , 71-H ) :   0.8631
B( 34-C , 72-H ) :   0.9099 B( 35-C , 36-C ) :   1.5706 B( 35-C , 39-C ) :   1.2881
B( 36-C , 37-S ) :   1.1736 B( 36-C , 73-H ) :   0.9743 B( 37-S , 38-C ) :   1.1668
B( 38-C , 39-C ) :   1.5745 B( 38-C , 74-H ) :   0.9716 B( 39-C , 40-C ) :   1.0476
B( 40-C , 75-H ) :   0.8732 B( 40-C , 76-H ) :   0.9048 B( 41-C , 42-C ) :   1.8352
B( 41-C , 49-C ) :   1.0203 B( 42-C , 43-C ) :   1.0280 B( 42-C , 50-N ) :   1.0301
B( 43-C , 44-C ) :   1.0294 B( 43-C , 77-H ) :   0.9001 B( 43-C , 78-H ) :   0.8639
B( 44-C , 45-C ) :   1.5798 B( 44-C , 48-C ) :   1.2735 B( 45-C , 46-S ) :   1.1639
B( 45-C , 79-H ) :   0.9708 B( 46-S , 47-C ) :   1.1614 B( 47-C , 48-C ) :   1.5993
B( 47-C , 80-H ) :   0.9461 B( 48-C , 49-C ) :   1.0317 B( 49-C , 81-H ) :   0.9078
B( 49-C , 82-H ) :   0.8681 B( 50-N , 51-C ) :   1.2347 B( 50-N , 83-H ) :   0.9062
B( 51-C , 52-S ) :   1.1450 B( 51-C , 58-C ) :   1.3766 B( 52-S , 53-C ) :   1.0681
B( 53-C , 54-N ) :   0.9895 B( 53-C , 57-C ) :   1.4939 B( 54-N , 55-O ) :   1.5231
B( 54-N , 56-O ) :   1.4967 B( 55-O , 56-O ) :   0.2446 B( 57-C , 58-C ) :   1.2289
B( 57-C , 84-H ) :   0.9988 B( 58-C , 59-C ) :   1.0643 B( 59-C , 60-C ) :   1.9572
B( 59-C , 85-H ) :   0.9595 B( 60-C , 86-H ) :   0.9511 B( 60-C , 87-H ) :   0.9486

-----------------------------------------------------------------------------
         ABSORPTION SPECTRUM VIA TRANSITION ELECTRIC DIPOLE MOMENTS
-----------------------------------------------------------------------------
State   Energy  Wavelength   fosc         T2         TX        TY        TZ
        (cm-1)    (nm)                  (au**2)     (au)      (au)      (au)
-----------------------------------------------------------------------------
   0   12329.2    811.1   1.069125815  28.54763   4.26271   2.14872  -2.39999
   1   17789.4    562.1   0.004380836   0.08107   0.27519   0.07077  -0.01829
   2   21590.5    463.2   0.043906007   0.66948  -0.24664  -0.26773  -0.73278
   3   22092.7    452.6   0.116613012   1.73769   0.35455   0.28918  -1.23627
   4   22258.9    449.3   0.144023320   2.13012   0.78537   0.78328   0.94857
   5   24113.7    414.7   0.077597837   1.05940  -0.03523   0.14642   1.01820
   6   25069.8    398.9   0.101251756   1.32962   0.07250   0.22789   1.12802
   7   25552.2    391.4   0.182452282   2.35070   1.03654   0.55531  -0.98382
   8   26060.4    383.7   0.148217250   1.87238  -1.16625  -0.66207   0.27187
   9   27131.6    368.6   0.253583440   3.07696   0.19375  -0.34465  -1.70899
  10   27360.6    365.5   0.010733251   0.12915   0.08645   0.09037   0.33691
  11   27773.8    360.1   0.165169417   1.95781  -0.49107  -0.49489  -1.21315
  12   28040.1    356.6   0.008301206   0.09746  -0.24606   0.07682   0.17611
  13   28787.7    347.4   0.017782740   0.20336  -0.21420  -0.04705  -0.39403
  14   29667.8    337.1   0.116145308   1.28882   0.78383   0.25584   0.78037
  15   31172.1    320.8   0.023640037   0.24967   0.48099   0.13505   0.00884
  16   31491.3    317.5   0.046538394   0.48652  -0.13867   0.03530   0.68267
  17   31670.0    315.8   0.057928571   0.60217   0.59782   0.26783   0.41599
  18   31722.1    315.2   0.037921988   0.39355   0.57619   0.23332  -0.08440
  19   32081.9    311.7   0.516317145   5.29825   1.60847   0.76463  -1.45822
  20   32646.2    306.3   0.094664065   0.95461  -0.71079  -0.25383   0.62045
  21   33077.4    302.3   0.024453905   0.24338  -0.41662   0.09821   0.24529
  22   33493.8    298.6   0.014290541   0.14046  -0.00697  -0.01109  -0.37455
  23   33834.7    295.6   0.019149110   0.18632  -0.16844  -0.00338  -0.39741
  24   34354.4    291.1   0.011023592   0.10564  -0.18296   0.25982   0.06826
  25   35014.4    285.6   0.068414506   0.64325  -0.67562  -0.23003   0.36588
  26   35543.4    281.3   0.125473471   1.16217  -1.01074  -0.33999  -0.15807
  27   35548.6    281.3   0.006507916   0.06027  -0.08278  -0.09719   0.20969
  28   35986.1    277.9   0.027463310   0.25124   0.00285   0.15653  -0.47617
  29   36142.3    276.7   0.070331187   0.64063   0.11649  -0.15804  -0.77594
  30   36502.7    274.0   0.041344542   0.37288   0.53304   0.29769  -0.01168
  31   36667.1    272.7   0.166476943   1.49469   0.16453   0.03047  -1.21107
  32   37869.7    264.1   0.012790899   0.11119   0.05673   0.17424   0.27860
  33   37941.7    263.6   0.024966948   0.21663  -0.34422  -0.31057   0.04115
  34   38146.5    262.1   0.020979655   0.18106  -0.29480  -0.22771   0.20566
  35   38453.0    260.1   0.010753570   0.09207  -0.05928  -0.08156   0.28618
  36   38570.9    259.3   0.075279241   0.64253  -0.09812  -0.13170  -0.78457
  37   38929.5    256.9   0.095314888   0.80604   0.58122   0.36200   0.58067
  38   39181.8    255.2   0.002743326   0.02305   0.08280  -0.08109  -0.09808
  39   39315.8    254.4   0.031217422   0.26140  -0.34510  -0.12061   0.35744
  40   39643.6    252.2   0.071705966   0.59547  -0.29202   0.07377  -0.71046
  41   40038.9    249.8   0.011795086   0.09698  -0.24577  -0.19124  -0.00290
  42   40225.9    248.6   0.012821936   0.10494   0.07112   0.19300  -0.25026

FINAL SINGLE POINT ENERGY     -7211.250907470310

DIPOLE MOMENT
-------------
                                X             Y             Z
Electronic contribution:   -162.88785     -69.53065      78.90453
Nuclear contribution   :    165.81979      71.55953     -75.78819
                        -----------------------------------------
Total Dipole Moment    :      2.93194       2.02888       3.11634
                        -----------------------------------------
Magnitude (a.u.)       :      4.73542
Magnitude (Debye)      :     12.03649

Rotational constants in cm-1:     0.002572     0.000347     0.000323
Rotational constants in MHz :    77.115168    10.400814     9.674530

                             ****ORCA TERMINATED NORMALLY****
TOTAL RUN TIME: 0 days 0 hours 9 minutes 33 seconds 138 msec
