                         Program Version 4.2.0 -  RELEASE  -
|  1> # ORCA input file
|  2> # SCF done       -165.710679234715          0.000671892620
|  3> ! CAM-B3LYP def2-SVP def2/J RIJCOSX Grid4 TightSCF
|  4> %maxcore 5000
|  5> %tddft
|  6>     Mode sTDDFT
|  7>     Ethresh 5.0
|  8>     maxcore 5000
|  9> end
| 10>
| 11> %pal
| 12>   nprocs 6
| 13>   end
| 14> * xyz 0 1
| 15>    C       -1.43866        -0.50137         4.04333
| 16>    C       -1.74881        -1.84530         4.04797
| 17>    C       -0.88235        -2.85397         4.50816
| 18>    N       -0.22833        -3.72937         4.86594
| 19>    C       -2.95876        -2.41894         3.61437
| 20>    N       -3.90746        -2.98307         3.28945
| 21>    C       -0.17795         0.06614         4.52314
| 22>    C       -0.23837         1.47420         4.39184
| 23>    C        0.79651         2.29756         4.75671
| 24>    C        1.95264         1.70263         5.27611
| 25>    C        2.00428         0.29674         5.40210
| 26>    C        0.95416        -0.53725         5.03385
| 27>    S        3.52432        -0.23078         6.06212
| 28>    C        4.06032         1.42566         6.15708
| 29>    C        3.15148         2.32746         5.71910
| 30>   Br        5.77209         1.80769         6.82584
| 31>    C       -1.54922         1.85064         3.81379
| 32>    O       -1.92702         2.98290         3.57467
| 33>    C       -2.26350         0.58453         3.59628
| 34>    C       -3.52193         0.47762         3.02616
| 35>    C       -4.31317         1.53303         2.60402
| 36>    C       -5.55612         1.33470         2.01942
| 37>    C       -6.45927         2.31455         1.56331
| 38>    C       -7.61307         1.80724         1.02659
| 39>    C       -7.66609         0.40375         1.03485
| 40>    S       -6.21228        -0.26038         1.74597
| 41>    C       -8.66162        -0.44559         0.56995
| 42>    C       -9.91091        -0.13440        -0.00158
| 43>    C      -10.63908        -1.23448        -0.35288
| 44>    C      -10.01157        -2.47154        -0.06790
| 45>    S       -8.44253        -2.17037         0.65479
| 46>    C      -10.50639        -3.70690        -0.41948
| 47>    C       -9.99702        -4.99281        -0.17865
| 48>    S      -10.45618        -6.22507        -1.33774
| 49>    C       -9.50916        -7.44420        -0.53036
| 50>    C       -8.91130        -6.90494         0.61441
| 51>    C       -9.19796        -5.55107         0.82064
| 52>    C       -8.80057        -4.85302         2.07944
| 53>    C       -8.56382        -5.86555         3.19496
| 54>    C       -7.51995        -6.86459         2.71898
| 55>    C       -8.06935        -7.69927         1.56270
| 56>    C       -9.41208        -8.75360        -1.06285
| 57>    S       -8.34658        -9.93607        -0.34083
| 58>    C       -8.73456       -11.12807        -1.54181
| 59>    C       -9.64905       -10.62540        -2.45126
| 60>    C      -10.04403        -9.30528        -2.17699
| 61>    C      -11.04444        -8.58629        -3.02349
| 62>    C      -11.76203        -9.52846        -3.98668
| 63>    C      -10.75262       -10.43574        -4.67589
| 64>    C      -10.13962       -11.38047        -3.64696
| 65>    C       -8.09293       -12.40295        -1.46457
| 66>    C       -6.94307       -12.64122        -0.64045
| 67>    C       -6.54995       -13.95924        -0.78099
| 68>    C       -5.48648       -14.68452        -0.20372
| 69>    C       -5.35847       -16.00317        -0.54961
| 70>    C       -4.41098       -17.00218        -0.15818
| 71>    C       -4.72353       -18.18630        -0.80004
| 72>    C       -5.87883       -17.95619        -1.61054
| 73>    C       -6.28005       -16.63471        -1.47218
| 74>    C       -7.34086       -15.91249        -2.04709
| 75>    C       -7.47006       -14.58825        -1.70408
| 76>    C       -8.41156       -13.59323        -2.10267
| 77>    C       -4.05054       -19.46162        -0.71626
| 78>    C       -2.97795       -19.72131         0.02581
| 79>    H        0.72017         3.36781         4.64476
| 80>    H        1.04482        -1.60421         5.14934
| 81>    H        3.31648         3.38944         5.70707
| 82>    H       -3.92816        -0.51749         2.88911
| 83>    H       -3.96059         2.54622         2.72782
| 84>    H       -6.23599         3.36350         1.64414
| 85>    H       -8.41155         2.40836         0.62925
| 86>    H      -10.23918         0.88011        -0.13847
| 87>    H      -11.61450        -1.19516        -0.80545
| 88>    H      -11.38421        -3.68002        -1.05632
| 89>    H       -9.57329        -4.13462         2.36041
| 90>    H       -7.87173        -4.29940         1.91959
| 91>    H       -9.49397        -6.38412         3.43832
| 92>    H       -8.21549        -5.34727         4.08846
| 93>    H       -6.63337        -6.31734         2.39426
| 94>    H       -7.22247        -7.53067         3.52957
| 95>    H       -8.67381        -8.52334         1.95638
| 96>    H       -7.23428        -8.14736         1.01773
| 97>    H      -10.53149        -7.80239        -3.59104
| 98>    H      -11.77939        -8.08941        -2.38437
| 99>    H      -12.31518        -8.93992        -4.71992
|100>    H      -12.47918       -10.14148        -3.43635
|101>    H      -11.23383       -11.01560        -5.46506
|102>    H       -9.96878        -9.82755        -5.13225
|103>    H       -9.30855       -11.93444        -4.08985
|104>    H      -10.89447       -12.10728        -3.32892
|105>    H       -6.47159       -11.89475        -0.02656
|106>    H       -4.80619       -14.20382         0.48506
|107>    H       -3.59794       -16.83541         0.52301
|108>    H       -6.35146       -18.70129        -2.22636
|109>    H       -8.02313       -16.39135        -2.73554
|110>    H       -9.23856       -13.77652        -2.75990
|111>    H       -4.48417       -20.24861        -1.32125
|112>    H       -2.51546       -18.97148         0.64429
|113>    H       -2.52704       -20.69822         0.04262
|114> *
|115>
|116>                          ****END OF INPUT****

CARTESIAN COORDINATES (ANGSTROEM)
---------------------------------
  C     -1.438660   -0.501370    4.043330
  C     -1.748810   -1.845300    4.047970
  C     -0.882350   -2.853970    4.508160
  N     -0.228330   -3.729370    4.865940
  C     -2.958760   -2.418940    3.614370
  N     -3.907460   -2.983070    3.289450
  C     -0.177950    0.066140    4.523140
  C     -0.238370    1.474200    4.391840
  C      0.796510    2.297560    4.756710
  C      1.952640    1.702630    5.276110
  C      2.004280    0.296740    5.402100
  C      0.954160   -0.537250    5.033850
  S      3.524320   -0.230780    6.062120
  C      4.060320    1.425660    6.157080
  C      3.151480    2.327460    5.719100
  Br     5.772090    1.807690    6.825840
  C     -1.549220    1.850640    3.813790
  O     -1.927020    2.982900    3.574670
  C     -2.263500    0.584530    3.596280
  C     -3.521930    0.477620    3.026160
  C     -4.313170    1.533030    2.604020
  C     -5.556120    1.334700    2.019420
  C     -6.459270    2.314550    1.563310
  C     -7.613070    1.807240    1.026590
  C     -7.666090    0.403750    1.034850
  S     -6.212280   -0.260380    1.745970
  C     -8.661620   -0.445590    0.569950
  C     -9.910910   -0.134400   -0.001580
  C    -10.639080   -1.234480   -0.352880
  C    -10.011570   -2.471540   -0.067900
  S     -8.442530   -2.170370    0.654790
  C    -10.506390   -3.706900   -0.419480
  C     -9.997020   -4.992810   -0.178650
  S    -10.456180   -6.225070   -1.337740
  C     -9.509160   -7.444200   -0.530360
  C     -8.911300   -6.904940    0.614410
  C     -9.197960   -5.551070    0.820640
  C     -8.800570   -4.853020    2.079440
  C     -8.563820   -5.865550    3.194960
  C     -7.519950   -6.864590    2.718980
  C     -8.069350   -7.699270    1.562700
  C     -9.412080   -8.753600   -1.062850
  S     -8.346580   -9.936070   -0.340830
  C     -8.734560  -11.128070   -1.541810
  C     -9.649050  -10.625400   -2.451260
  C    -10.044030   -9.305280   -2.176990
  C    -11.044440   -8.586290   -3.023490
  C    -11.762030   -9.528460   -3.986680
  C    -10.752620  -10.435740   -4.675890
  C    -10.139620  -11.380470   -3.646960
  C     -8.092930  -12.402950   -1.464570
  C     -6.943070  -12.641220   -0.640450
  C     -6.549950  -13.959240   -0.780990
  C     -5.486480  -14.684520   -0.203720
  C     -5.358470  -16.003170   -0.549610
  C     -4.410980  -17.002180   -0.158180
  C     -4.723530  -18.186300   -0.800040
  C     -5.878830  -17.956190   -1.610540
  C     -6.280050  -16.634710   -1.472180
  C     -7.340860  -15.912490   -2.047090
  C     -7.470060  -14.588250   -1.704080
  C     -8.411560  -13.593230   -2.102670
  C     -4.050540  -19.461620   -0.716260
  C     -2.977950  -19.721310    0.025810
  H      0.720170    3.367810    4.644760
  H      1.044820   -1.604210    5.149340
  H      3.316480    3.389440    5.707070
  H     -3.928160   -0.517490    2.889110
  H     -3.960590    2.546220    2.727820
  H     -6.235990    3.363500    1.644140
  H     -8.411550    2.408360    0.629250
  H    -10.239180    0.880110   -0.138470
  H    -11.614500   -1.195160   -0.805450
  H    -11.384210   -3.680020   -1.056320
  H     -9.573290   -4.134620    2.360410
  H     -7.871730   -4.299400    1.919590
  H     -9.493970   -6.384120    3.438320
  H     -8.215490   -5.347270    4.088460
  H     -6.633370   -6.317340    2.394260
  H     -7.222470   -7.530670    3.529570
  H     -8.673810   -8.523340    1.956380
  H     -7.234280   -8.147360    1.017730
  H    -10.531490   -7.802390   -3.591040
  H    -11.779390   -8.089410   -2.384370
  H    -12.315180   -8.939920   -4.719920
  H    -12.479180  -10.141480   -3.436350
  H    -11.233830  -11.015600   -5.465060
  H     -9.968780   -9.827550   -5.132250
  H     -9.308550  -11.934440   -4.089850
  H    -10.894470  -12.107280   -3.328920
  H     -6.471590  -11.894750   -0.026560
  H     -4.806190  -14.203820    0.485060
  H     -3.597940  -16.835410    0.523010
  H     -6.351460  -18.701290   -2.226360
  H     -8.023130  -16.391350   -2.735540
  H     -9.238560  -13.776520   -2.759900
  H     -4.484170  -20.248610   -1.321250
  H     -2.515460  -18.971480    0.644290
  H     -2.527040  -20.698220    0.042620

 Total Charge           Charge          ....    0
 Multiplicity           Mult            ....    1
 Number of Electrons    NEL             ....  502
 Basis Dimension        Dim             .... 1109

ORBITAL ENERGIES
----------------

  NO   OCC          E(Eh)            E(eV)
   0   2.0000    -482.870866    -13139.5843
   1   2.0000     -88.957785     -2420.6644
   2   2.0000     -88.957446     -2420.6552
   3   2.0000     -88.956990     -2420.6428
   4   2.0000     -88.952297     -2420.5151
   5   2.0000     -88.949087     -2420.4277
   6   2.0000     -62.548556     -1702.0327
   7   2.0000     -56.382486     -1534.2454
   8   2.0000     -56.379811     -1534.1726
   9   2.0000     -56.379769     -1534.1715
  10   2.0000     -19.187795      -522.1264
  11   2.0000     -14.391386      -391.6095
  12   2.0000     -14.387808      -391.5122
  13   2.0000     -10.340816      -281.3879
  14   2.0000     -10.338002      -281.3113
  15   2.0000     -10.329688      -281.0851
  16   2.0000     -10.316226      -280.7188
  17   2.0000     -10.316089      -280.7151
  18   2.0000     -10.316030      -280.7135
  19   2.0000     -10.312456      -280.6162
  20   2.0000     -10.309769      -280.5431
  21   2.0000     -10.309599      -280.5385
  22   2.0000     -10.308977      -280.5215
  23   2.0000     -10.304262      -280.3932
  24   2.0000     -10.303408      -280.3700
  25   2.0000     -10.302043      -280.3328
  26   2.0000     -10.301937      -280.3300
  27   2.0000     -10.300960      -280.3034
  28   2.0000     -10.300471      -280.2901
  29   2.0000     -10.297265      -280.2028
  30   2.0000     -10.296583      -280.1843
  31   2.0000     -10.296154      -280.1726
  32   2.0000     -10.294156      -280.1182
  33   2.0000     -10.293107      -280.0897
  34   2.0000     -10.286652      -279.9140
  35   2.0000     -10.286147      -279.9003
  36   2.0000     -10.285059      -279.8707
  37   2.0000     -10.285040      -279.8702
  38   2.0000     -10.284881      -279.8658
  39   2.0000     -10.283829      -279.8372
  40   2.0000     -10.282330      -279.7964
  41   2.0000     -10.280662      -279.7510
  42   2.0000     -10.280056      -279.7345
  43   2.0000     -10.279465      -279.7185
  44   2.0000     -10.279251      -279.7126
  45   2.0000     -10.278477      -279.6916
  46   2.0000     -10.277566      -279.6668
  47   2.0000     -10.275479      -279.6100
  48   2.0000     -10.273837      -279.5653
  49   2.0000     -10.272550      -279.5303
  50   2.0000     -10.272052      -279.5167
  51   2.0000     -10.269854      -279.4569
  52   2.0000     -10.268268      -279.4138
  53   2.0000     -10.267644      -279.3968
  54   2.0000     -10.267405      -279.3903
  55   2.0000     -10.267234      -279.3857
  56   2.0000     -10.265887      -279.3490
  57   2.0000     -10.265809      -279.3469
  58   2.0000     -10.265684      -279.3435
  59   2.0000     -10.265531      -279.3393
  60   2.0000     -10.264449      -279.3099
  61   2.0000     -10.264377      -279.3079
  62   2.0000     -10.263783      -279.2917
  63   2.0000     -10.261518      -279.2301
  64   2.0000     -10.260365      -279.1987
  65   2.0000     -10.258072      -279.1363
  66   2.0000     -10.257300      -279.1153
  67   2.0000     -10.257097      -279.1098
  68   2.0000      -8.777962      -238.8605
  69   2.0000      -8.053747      -219.1536
  70   2.0000      -8.052984      -219.1328
  71   2.0000      -8.052418      -219.1174
  72   2.0000      -8.046920      -218.9678
  73   2.0000      -8.045073      -218.9176
  74   2.0000      -6.614153      -179.9803
  75   2.0000      -6.599734      -179.5879
  76   2.0000      -6.599586      -179.5839
  77   2.0000      -6.023451      -163.9064
  78   2.0000      -6.022695      -163.8859
  79   2.0000      -6.021825      -163.8622
  80   2.0000      -6.019200      -163.7908
  81   2.0000      -6.018416      -163.7694
  82   2.0000      -6.017661      -163.7489
  83   2.0000      -6.016280      -163.7113
  84   2.0000      -6.014857      -163.6726
  85   2.0000      -6.014627      -163.6663
  86   2.0000      -6.014344      -163.6586
  87   2.0000      -6.014196      -163.6546
  88   2.0000      -6.012073      -163.5968
  89   2.0000      -6.010597      -163.5567
  90   2.0000      -6.009048      -163.5145
  91   2.0000      -6.006354      -163.4412
  92   2.0000      -2.730059       -74.2887
  93   2.0000      -2.725979       -74.1777
  94   2.0000      -2.725877       -74.1749
  95   2.0000      -2.714402       -73.8626
  96   2.0000      -2.714397       -73.8625
  97   2.0000      -1.100576       -29.9482
  98   2.0000      -1.006406       -27.3857
  99   2.0000      -1.000580       -27.2272
 100   2.0000      -1.000047       -27.2127
 101   2.0000      -0.989508       -26.9259
 102   2.0000      -0.989112       -26.9151
 103   2.0000      -0.981766       -26.7152
 104   2.0000      -0.976937       -26.5838
 105   2.0000      -0.968855       -26.3639
 106   2.0000      -0.964383       -26.2422
 107   2.0000      -0.959296       -26.1038
 108   2.0000      -0.921494       -25.0751
 109   2.0000      -0.917641       -24.9703
 110   2.0000      -0.914074       -24.8732
 111   2.0000      -0.907477       -24.6937
 112   2.0000      -0.896986       -24.4082
 113   2.0000      -0.889291       -24.1988
 114   2.0000      -0.885248       -24.0888
 115   2.0000      -0.870997       -23.7010
 116   2.0000      -0.864168       -23.5152
 117   2.0000      -0.863872       -23.5071
 118   2.0000      -0.859734       -23.3945
 119   2.0000      -0.854737       -23.2586
 120   2.0000      -0.847549       -23.0630
 121   2.0000      -0.844780       -22.9876
 122   2.0000      -0.830682       -22.6040
 123   2.0000      -0.827314       -22.5124
 124   2.0000      -0.826089       -22.4790
 125   2.0000      -0.817356       -22.2414
 126   2.0000      -0.811439       -22.0804
 127   2.0000      -0.808014       -21.9872
 128   2.0000      -0.798169       -21.7193
 129   2.0000      -0.796075       -21.6623
 130   2.0000      -0.777428       -21.1549
 131   2.0000      -0.760875       -20.7045
 132   2.0000      -0.747844       -20.3499
 133   2.0000      -0.743098       -20.2207
 134   2.0000      -0.733797       -19.9676
 135   2.0000      -0.724519       -19.7152
 136   2.0000      -0.719004       -19.5651
 137   2.0000      -0.711903       -19.3719
 138   2.0000      -0.710005       -19.3202
 139   2.0000      -0.696377       -18.9494
 140   2.0000      -0.683830       -18.6079
 141   2.0000      -0.676366       -18.4049
 142   2.0000      -0.673264       -18.3204
 143   2.0000      -0.669464       -18.2170
 144   2.0000      -0.666169       -18.1274
 145   2.0000      -0.662506       -18.0277
 146   2.0000      -0.647868       -17.6294
 147   2.0000      -0.644837       -17.5469
 148   2.0000      -0.636317       -17.3151
 149   2.0000      -0.636055       -17.3079
 150   2.0000      -0.632887       -17.2217
 151   2.0000      -0.624155       -16.9841
 152   2.0000      -0.623034       -16.9536
 153   2.0000      -0.620815       -16.8932
 154   2.0000      -0.619724       -16.8635
 155   2.0000      -0.608502       -16.5582
 156   2.0000      -0.600281       -16.3345
 157   2.0000      -0.591518       -16.0960
 158   2.0000      -0.587629       -15.9902
 159   2.0000      -0.580582       -15.7984
 160   2.0000      -0.579492       -15.7688
 161   2.0000      -0.576833       -15.6964
 162   2.0000      -0.572178       -15.5698
 163   2.0000      -0.570649       -15.5282
 164   2.0000      -0.554554       -15.0902
 165   2.0000      -0.551291       -15.0014
 166   2.0000      -0.545123       -14.8335
 167   2.0000      -0.542939       -14.7741
 168   2.0000      -0.538135       -14.6434
 169   2.0000      -0.532600       -14.4928
 170   2.0000      -0.526637       -14.3305
 171   2.0000      -0.522482       -14.2175
 172   2.0000      -0.518667       -14.1136
 173   2.0000      -0.517636       -14.0856
 174   2.0000      -0.514892       -14.0109
 175   2.0000      -0.513533       -13.9739
 176   2.0000      -0.512963       -13.9584
 177   2.0000      -0.508679       -13.8419
 178   2.0000      -0.507590       -13.8122
 179   2.0000      -0.505598       -13.7580
 180   2.0000      -0.503831       -13.7099
 181   2.0000      -0.503119       -13.6906
 182   2.0000      -0.500533       -13.6202
 183   2.0000      -0.499548       -13.5934
 184   2.0000      -0.497089       -13.5265
 185   2.0000      -0.494347       -13.4519
 186   2.0000      -0.492233       -13.3943
 187   2.0000      -0.488094       -13.2817
 188   2.0000      -0.487551       -13.2669
 189   2.0000      -0.484776       -13.1914
 190   2.0000      -0.483189       -13.1482
 191   2.0000      -0.479151       -13.0384
 192   2.0000      -0.474577       -12.9139
 193   2.0000      -0.474386       -12.9087
 194   2.0000      -0.472754       -12.8643
 195   2.0000      -0.471903       -12.8411
 196   2.0000      -0.470090       -12.7918
 197   2.0000      -0.468675       -12.7533
 198   2.0000      -0.467307       -12.7161
 199   2.0000      -0.464058       -12.6277
 200   2.0000      -0.463070       -12.6008
 201   2.0000      -0.456293       -12.4164
 202   2.0000      -0.451125       -12.2757
 203   2.0000      -0.449405       -12.2289
 204   2.0000      -0.447917       -12.1885
 205   2.0000      -0.441143       -12.0041
 206   2.0000      -0.439775       -11.9669
 207   2.0000      -0.437449       -11.9036
 208   2.0000      -0.436707       -11.8834
 209   2.0000      -0.431885       -11.7522
 210   2.0000      -0.429234       -11.6800
 211   2.0000      -0.426699       -11.6111
 212   2.0000      -0.425058       -11.5664
 213   2.0000      -0.421844       -11.4790
 214   2.0000      -0.420672       -11.4471
 215   2.0000      -0.420133       -11.4324
 216   2.0000      -0.418401       -11.3853
 217   2.0000      -0.415002       -11.2928
 218   2.0000      -0.409007       -11.1296
 219   2.0000      -0.408757       -11.1228
 220   2.0000      -0.405780       -11.0418
 221   2.0000      -0.403973       -10.9927
 222   2.0000      -0.402437       -10.9509
 223   2.0000      -0.399372       -10.8675
 224   2.0000      -0.397197       -10.8083
 225   2.0000      -0.395121       -10.7518
 226   2.0000      -0.391936       -10.6651
 227   2.0000      -0.390968       -10.6388
 228   2.0000      -0.384886       -10.4733
 229   2.0000      -0.383753       -10.4425
 230   2.0000      -0.382823       -10.4171
 231   2.0000      -0.378271       -10.2933
 232   2.0000      -0.372149       -10.1267
 233   2.0000      -0.366326        -9.9682
 234   2.0000      -0.364739        -9.9251
 235   2.0000      -0.360508        -9.8099
 236   2.0000      -0.351514        -9.5652
 237   2.0000      -0.342976        -9.3329
 238   2.0000      -0.337853        -9.1934
 239   2.0000      -0.325730        -8.8636
 240   2.0000      -0.316109        -8.6018
 241   2.0000      -0.314652        -8.5621
 242   2.0000      -0.308843        -8.4041
 243   2.0000      -0.305146        -8.3034
 244   2.0000      -0.295045        -8.0286
 245   2.0000      -0.292174        -7.9505
 246   2.0000      -0.273937        -7.4542
 247   2.0000      -0.268180        -7.2976
 248   2.0000      -0.263963        -7.1828
 249   2.0000      -0.234224        -6.3736
 250   2.0000      -0.209636        -5.7045
 251   0.0000      -0.102562        -2.7909
 252   0.0000      -0.096291        -2.6202
 253   0.0000      -0.051697        -1.4068
 254   0.0000      -0.036328        -0.9885
 255   0.0000      -0.018824        -0.5122

MULLIKEN ATOMIC CHARGES
-----------------------
   0 C :    0.333432
   1 C :   -0.375853
   2 C :   -0.191266
   3 N :    0.126073
   4 C :   -0.189447
   5 N :    0.119196
   6 C :    0.012712
   7 C :   -0.005053
   8 C :   -0.085534
   9 C :    0.119898
  10 C :   -0.091272
  11 C :   -0.032760
  12 S :    0.173859
  13 C :   -0.122497
  14 C :    0.033485
  15 Br:    0.007948
  16 C :    0.133117
  17 O :   -0.171932
  18 C :   -0.089227
  19 C :   -0.047828
  20 C :   -0.026283
  21 C :    0.011443
  22 C :    0.013430
  23 C :    0.044660
  24 C :   -0.054410
  25 S :    0.095652
  26 C :   -0.021706
  27 C :    0.013891
  28 C :    0.053891
  29 C :   -0.049046
  30 S :    0.102158
  31 C :    0.022088
  32 C :   -0.135776
  33 S :    0.080742
  34 C :   -0.079588
  35 C :   -0.120553
  36 C :   -0.054714
  37 C :    0.084483
  38 C :    0.026519
  39 C :    0.045576
  40 C :    0.084956
  41 C :   -0.093635
  42 S :    0.063724
  43 C :   -0.056757
  44 C :   -0.097960
  45 C :   -0.101268
  46 C :    0.082121
  47 C :    0.041097
  48 C :    0.028692
  49 C :    0.102594
  50 C :    0.056948
  51 C :   -0.046807
  52 C :    0.059981
  53 C :   -0.002356
  54 C :    0.049296
  55 C :   -0.026687
  56 C :    0.061747
  57 C :   -0.024216
  58 C :    0.053215
  59 C :   -0.005484
  60 C :    0.061347
  61 C :   -0.064896
  62 C :    0.008594
  63 C :   -0.016595
  64 H :   -0.017818
  65 H :   -0.011651
  66 H :   -0.007733
  67 H :    0.013502
  68 H :    0.011312
  69 H :   -0.004765
  70 H :   -0.009554
  71 H :   -0.010443
  72 H :   -0.005346
  73 H :    0.000400
  74 H :    0.018193
  75 H :    0.049636
  76 H :    0.003236
  77 H :    0.009979
  78 H :    0.016630
  79 H :    0.002673
  80 H :    0.020543
  81 H :    0.034435
  82 H :    0.023617
  83 H :    0.028288
  84 H :    0.000849
  85 H :    0.002734
  86 H :   -0.000965
  87 H :    0.006965
  88 H :    0.018109
  89 H :    0.015975
  90 H :   -0.011013
  91 H :   -0.022643
  92 H :   -0.027684
  93 H :   -0.023452
  94 H :   -0.027292
  95 H :   -0.032197
  96 H :   -0.021821
  97 H :    0.010236
  98 H :    0.019905
Sum of atomic charges:   -0.0000000

LOEWDIN ATOMIC CHARGES
----------------------
   0 C :    0.073556
   1 C :   -0.167863
   2 C :   -0.019176
   3 N :   -0.079583
   4 C :   -0.019510
   5 N :   -0.081846
   6 C :   -0.016987
   7 C :   -0.047212
   8 C :    0.014027
   9 C :   -0.037958
  10 C :   -0.147016
  11 C :   -0.016227
  12 S :    0.422941
  13 C :   -0.276907
  14 C :   -0.071468
  15 Br:    0.124698
  16 C :    0.080084
  17 O :   -0.165286
  18 C :   -0.119526
  19 C :    0.045636
  20 C :   -0.081957
  21 C :   -0.101533
  22 C :   -0.054391
  23 C :   -0.007809
  24 C :   -0.206188
  25 S :    0.412080
  26 C :   -0.141706
  27 C :   -0.053122
  28 C :   -0.005871
  29 C :   -0.175792
  30 S :    0.434939
  31 C :   -0.032099
  32 C :   -0.198711
  33 S :    0.451283
  34 C :   -0.156558
  35 C :   -0.064892
  36 C :   -0.031143
  37 C :   -0.040408
  38 C :   -0.024817
  39 C :   -0.025645
  40 C :   -0.045244
  41 C :   -0.196960
  42 S :    0.460104
  43 C :   -0.160170
  44 C :   -0.062194
  45 C :   -0.047886
  46 C :   -0.045052
  47 C :   -0.027053
  48 C :   -0.028267
  49 C :   -0.027366
  50 C :   -0.076184
  51 C :    0.029223
  52 C :   -0.062942
  53 C :    0.074480
  54 C :   -0.056427
  55 C :    0.022374
  56 C :   -0.062665
  57 C :    0.043945
  58 C :   -0.070740
  59 C :    0.071513
  60 C :   -0.062285
  61 C :    0.003932
  62 C :   -0.025866
  63 C :   -0.045233
  64 H :    0.037655
  65 H :    0.039286
  66 H :    0.036776
  67 H :    0.028957
  68 H :    0.037063
  69 H :    0.036448
  70 H :    0.033837
  71 H :    0.033229
  72 H :    0.036001
  73 H :    0.037367
  74 H :    0.028959
  75 H :    0.029114
  76 H :    0.020240
  77 H :    0.028386
  78 H :    0.028214
  79 H :    0.026504
  80 H :    0.026741
  81 H :    0.024470
  82 H :    0.028296
  83 H :    0.022760
  84 H :    0.024490
  85 H :    0.022029
  86 H :    0.023459
  87 H :    0.023086
  88 H :    0.032195
  89 H :    0.029413
  90 H :    0.020666
  91 H :    0.035803
  92 H :    0.023669
  93 H :    0.024979
  94 H :    0.033973
  95 H :    0.022277
  96 H :    0.026879
  97 H :    0.019467
  98 H :    0.024241

  Mayer bond orders larger than 0.100000
B(  0-C ,  1-C ) :   1.5550 B(  0-C ,  6-C ) :   0.9810 B(  0-C , 18-C ) :   1.1423
B(  1-C ,  2-C ) :   1.1553 B(  1-C ,  4-C ) :   1.1580 B(  2-C ,  3-N ) :   2.9567
B(  4-C ,  5-N ) :   2.9568 B(  6-C ,  7-C ) :   1.2801 B(  6-C , 11-C ) :   1.4235
B(  7-C ,  8-C ) :   1.4322 B(  7-C , 16-C ) :   0.9298 B(  8-C ,  9-C ) :   1.2334
B(  8-C , 64-H ) :   1.0173 B(  9-C , 10-C ) :   1.3233 B(  9-C , 14-C ) :   1.1583
B( 10-C , 11-C ) :   1.3132 B( 10-C , 12-S ) :   1.0808 B( 11-C , 65-H ) :   0.9805
B( 12-S , 13-C ) :   1.0846 B( 13-C , 14-C ) :   1.6217 B( 13-C , 15-Br) :   1.0093
B( 14-C , 66-H ) :   1.0008 B( 16-C , 17-O ) :   2.1852 B( 16-C , 18-C ) :   0.9765
B( 18-C , 19-C ) :   1.4269 B( 19-C , 20-C ) :   1.3089 B( 19-C , 67-H ) :   0.9412
B( 20-C , 21-C ) :   1.3636 B( 20-C , 68-H ) :   0.9824 B( 21-C , 22-C ) :   1.2122
B( 21-C , 25-S ) :   1.1009 B( 22-C , 23-C ) :   1.4985 B( 22-C , 69-H ) :   1.0027
B( 23-C , 24-C ) :   1.2537 B( 23-C , 70-H ) :   0.9952 B( 24-C , 25-S ) :   1.0462
B( 24-C , 26-C ) :   1.4158 B( 26-C , 27-C ) :   1.2170 B( 26-C , 30-S ) :   1.1028
B( 27-C , 28-C ) :   1.5539 B( 27-C , 71-H ) :   0.9957 B( 28-C , 29-C ) :   1.1701
B( 28-C , 72-H ) :   0.9978 B( 29-C , 30-S ) :   1.0279 B( 29-C , 31-C ) :   1.5664
B( 31-C , 32-C ) :   1.1852 B( 31-C , 73-H ) :   0.9439 B( 32-C , 33-S ) :   1.0626
B( 32-C , 36-C ) :   1.4249 B( 33-S , 34-C ) :   1.1392 B( 34-C , 35-C ) :   1.4370
B( 34-C , 41-C ) :   1.1762 B( 35-C , 36-C ) :   1.3727 B( 35-C , 40-C ) :   1.0580
B( 36-C , 37-C ) :   1.0511 B( 37-C , 38-C ) :   1.0842 B( 37-C , 74-H ) :   0.9260
B( 37-C , 75-H ) :   0.8921 B( 38-C , 39-C ) :   1.0773 B( 38-C , 76-H ) :   0.9472
B( 38-C , 77-H ) :   0.9341 B( 39-C , 40-C ) :   1.0803 B( 39-C , 78-H ) :   0.9404
B( 39-C , 79-H ) :   0.9323 B( 40-C , 80-H ) :   0.9095 B( 40-C , 81-H ) :   0.9029
B( 41-C , 42-S ) :   1.0984 B( 41-C , 43-C ) :   0.1062 B( 41-C , 45-C ) :   1.4687
B( 42-S , 43-C ) :   1.1167 B( 43-C , 44-C ) :   1.5163 B( 43-C , 50-C ) :   1.0722
B( 44-C , 45-C ) :   1.3322 B( 44-C , 49-C ) :   1.0588 B( 45-C , 46-C ) :   1.0573
B( 46-C , 47-C ) :   1.0841 B( 46-C , 82-H ) :   0.9039 B( 46-C , 83-H ) :   0.9064
B( 47-C , 48-C ) :   1.0701 B( 47-C , 84-H ) :   0.9332 B( 47-C , 85-H ) :   0.9431
B( 48-C , 49-C ) :   1.0862 B( 48-C , 86-H ) :   0.9344 B( 48-C , 87-H ) :   0.9457
B( 49-C , 88-H ) :   0.9131 B( 49-C , 89-H ) :   0.9047 B( 50-C , 51-C ) :   1.1449
B( 50-C , 61-C ) :   1.4879 B( 51-C , 52-C ) :   1.4316 B( 51-C , 90-H ) :   1.0016
B( 52-C , 53-C ) :   1.1247 B( 52-C , 60-C ) :   1.1430 B( 53-C , 54-C ) :   1.4521
B( 53-C , 91-H ) :   1.0060 B( 54-C , 55-C ) :   1.1011 B( 54-C , 58-C ) :   1.1344
B( 55-C , 56-C ) :   1.5060 B( 55-C , 92-H ) :   1.0117 B( 56-C , 57-C ) :   1.1561
B( 56-C , 62-C ) :   1.0737 B( 57-C , 58-C ) :   1.3997 B( 57-C , 93-H ) :   1.0128
B( 58-C , 59-C ) :   1.1455 B( 59-C , 60-C ) :   1.4255 B( 59-C , 94-H ) :   1.0057
B( 60-C , 61-C ) :   1.0972 B( 61-C , 95-H ) :   1.0147 B( 62-C , 63-C ) :   1.9471
B( 62-C , 96-H ) :   0.9656 B( 63-C , 97-H ) :   0.9530 B( 63-C , 98-H ) :   0.9490

-----------------------------------------------------------------------------
         ABSORPTION SPECTRUM VIA TRANSITION ELECTRIC DIPOLE MOMENTS
-----------------------------------------------------------------------------
State   Energy  Wavelength   fosc         T2         TX        TY        TZ
        (cm-1)    (nm)                  (au**2)     (au)      (au)      (au)
-----------------------------------------------------------------------------
   0    7951.0   1257.7   0.045655722   1.89038  -0.43941  -1.22973  -0.43020
   1   10080.1    992.1   1.188231155  38.80721  -3.80413  -4.32486  -2.37305
   2   16528.3    605.0   0.006582440   0.13111   0.25132   0.14924   0.21371
   3   18169.7    550.4   0.896147195  16.23710   2.48638  -3.12808   0.51976
   4   20497.4    487.9   0.537856700   8.63861   0.97239  -2.76973   0.14716
   5   22582.6    442.8   0.050029560   0.72934  -0.63246  -0.52463  -0.23257
   6   22735.4    439.8   0.354344168   5.13095   1.18544  -1.90355   0.31966
   7   23354.1    428.2   0.318856631   4.49478  -1.14601   1.78272   0.05786
   8   24270.6    412.0   0.225915198   3.06436  -0.03507   1.75017  -0.00522
   9   25781.8    387.9   0.222531742   2.84154  -1.56620   0.35345  -0.51345
  10   26995.9    370.4   0.001728715   0.02108   0.07016  -0.12676   0.00958
  11   27225.2    367.3   0.000177262   0.00214  -0.02017   0.04111   0.00684
  12   27439.4    364.4   0.406348740   4.87528   1.14100  -1.88805  -0.09318
  13   28631.7    349.3   0.035721961   0.41074   0.53228  -0.35432  -0.04318
  14   28979.8    345.1   0.005383167   0.06115   0.20591   0.06400   0.12107
  15   29164.6    342.9   0.010072243   0.11370  -0.01208  -0.17413  -0.28849
  16   29576.5    338.1   0.011677550   0.12998  -0.19135   0.28898  -0.09927
  17   29901.5    334.4   0.010688087   0.11767  -0.18369  -0.08232  -0.27777
  18   30074.8    332.5   0.105287043   1.15252  -0.29044  -0.73758  -0.72397
  19   30947.2    323.1   0.036826514   0.39176  -0.48073   0.30715  -0.25751
  20   31504.3    317.4   0.001922702   0.02009   0.09418   0.10373   0.02150
  21   31821.3    314.3   0.408215244   4.22325  -0.93414  -1.78422  -0.40890
  22   32234.6    310.2   0.098717344   1.00820  -0.09572  -0.99171  -0.12466
  23   32340.3    309.2   0.129891220   1.32224  -1.01414  -0.19708  -0.50490
  24   32760.8    305.2   0.014753621   0.14826   0.11003  -0.36886  -0.00988
  25   33113.4    302.0   0.314341561   3.12517   1.63653  -0.37820   0.55128
  26   33666.7    297.0   0.177976959   1.74036  -1.20699   0.36479  -0.38788
  27   34038.7    293.8   0.036159572   0.34972   0.56748  -0.10301   0.13069
  28   34283.2    291.7   0.029490902   0.28319   0.21832  -0.47967   0.07382
  29   34917.5    286.4   0.067080505   0.63245  -0.38780   0.63208  -0.28730
  30   35077.4    285.1   0.017442352   0.16370  -0.13271   0.35764  -0.13485
  31   35618.0    280.8   0.173589202   1.60446  -0.10054  -1.26197   0.04227
  32   35693.5    280.2   0.006107729   0.05633   0.17512   0.15704   0.03169
  33   35868.3    278.8   0.072966409   0.66971  -0.45240   0.65498  -0.18985
  34   36350.7    275.1   0.029919968   0.27097  -0.04642  -0.50141  -0.13194
  35   36457.8    274.3   0.096517018   0.87154   0.38502   0.84659   0.08121
  36   37297.9    268.1   0.000085570   0.00076  -0.02209  -0.00154   0.01627
  37   38114.6    262.4   0.154442792   1.33399   0.38357  -1.07531   0.17484
  38   38615.0    259.0   0.139485367   1.18918  -0.74527   0.48604  -0.63049
  39   39122.2    255.6   0.159765465   1.34442   0.26138   1.12907  -0.03610
  40   39616.1    252.4   0.100837967   0.83797  -0.64506   0.55686  -0.33432
  41   39678.4    252.0   0.040436802   0.33550   0.46987  -0.24510   0.23378
  42   39734.6    251.7   0.000853629   0.00707  -0.05626   0.04758  -0.04054
  43   40075.1    249.5   0.005892202   0.04840   0.08405  -0.18245   0.08973
  44   40208.6    248.7   0.116080772   0.95042  -0.17094   0.95978   0.00426

FINAL SINGLE POINT ENERGY     -6862.885722994261

DIPOLE MOMENT
-------------
                                X             Y             Z
Electronic contribution:    173.57498     152.39906      95.14469
Nuclear contribution   :   -177.52785    -153.77757     -97.64107
                        -----------------------------------------
Total Dipole Moment    :     -3.95287      -1.37851      -2.49638
                        -----------------------------------------
Magnitude (a.u.)       :      4.87415
Magnitude (Debye)      :     12.38912

Rotational constants in cm-1:     0.000951     0.000281     0.000221
Rotational constants in MHz :    28.521782     8.431573     6.621942

                             ****ORCA TERMINATED NORMALLY****
TOTAL RUN TIME: 0 days 0 hours 10 minutes 59 seconds 900 msec
