                         Program Version 4.2.0 -  RELEASE  -
|  1> # ORCA input file
|  2> # SCF done       -147.444631042086          0.000799933933
|  3> ! CAM-B3LYP def2-SVP def2/J RIJCOSX Grid4 TightSCF
|  4> %maxcore 5000
|  5> %tddft
|  6>     Mode sTDDFT
|  7>     Ethresh 5.0
|  8>     maxcore 5000
|  9> end
| 10>
| 11> %pal
| 12>   nprocs 6
| 13>   end
| 14> * xyz 0 1
| 15>    C       -3.06120         2.23377         2.70757
| 16>    C       -2.06590         1.30036         2.75655
| 17>    C       -1.05816         1.26233         3.74581
| 18>    N       -0.21641         1.18321         4.52151
| 19>    C       -1.89255         0.25613         1.82079
| 20>    N       -1.68018        -0.61037         1.09946
| 21>    C       -3.25287         3.33901         3.63440
| 22>    C       -4.36027         4.11953         3.21343
| 23>    C       -4.77911         5.23687         3.89572
| 24>    C       -4.07681         5.60211         5.04819
| 25>    C       -2.97254         4.81650         5.46226
| 26>    C       -2.54739         3.68902         4.77360
| 27>    S       -2.24803         5.44571         6.91015
| 28>    C       -3.41985         6.73687         6.94050
| 29>    C       -4.30943         6.70063         5.91927
| 30>   Br       -3.35698         8.01010         8.31431
| 31>    C       -4.93378         3.54148         1.98455
| 32>    O       -5.85156         3.96938         1.32676
| 33>    C       -4.12262         2.31751         1.70506
| 34>    C       -4.41093         1.48167         0.69838
| 35>    C       -5.56938         1.71111        -0.18733
| 36>    N       -6.74156         1.25849         0.24497
| 37>    C       -7.77881         1.46984        -0.55113
| 38>    C       -7.66189         2.11042        -1.76933
| 39>    C       -6.37787         2.52316        -2.14818
| 40>    N       -5.33403         2.30812        -1.33911
| 41>    C       -6.13466         3.18176        -3.41062
| 42>    C       -4.92870         3.66541        -3.75685
| 43>    C       -4.67600         4.31649        -5.00819
| 44>    C       -3.52172         4.88613        -5.38632
| 45>    C       -2.28930         4.96977        -4.54307
| 46>    C       -3.36661         5.51794        -6.75577
| 47>    N       -4.29309         5.05924        -7.75363
| 48>    C       -5.53527         5.58624        -7.90788
| 49>    C       -6.52668         4.98103        -8.59503
| 50>    C       -7.82620         5.52023        -8.85813
| 51>    C       -8.74207         4.73736        -9.61450
| 52>    N       -8.53339         3.50899       -10.08605
| 53>    S       -9.86194         3.00996       -10.84549
| 54>    N      -10.76688         4.31422       -10.61073
| 55>    C      -10.05826         5.21650        -9.93670
| 56>    C      -10.47667         6.50145        -9.51177
| 57>    C       -9.57403         7.22281        -8.74582
| 58>    C       -8.30090         6.75504        -8.43261
| 59>    C      -11.76950         7.01366        -9.86951
| 60>    S      -12.53045         8.30562        -8.96717
| 61>    C      -13.93754         8.34120        -9.94897
| 62>    C      -13.84502         7.40356       -10.94514
| 63>    C      -12.61790         6.65917       -10.89078
| 64>    O      -12.55311         5.78092       -11.91466
| 65>    C      -13.71409         5.93815       -12.59872
| 66>    N      -13.92077         5.12689       -13.73974
| 67>    O      -14.97624         5.28038       -14.32848
| 68>    O      -13.04919         4.34590       -14.05404
| 69>    C      -14.54131         6.89479       -12.07553
| 70>    H       -5.62477         5.81048         3.55008
| 71>    H       -1.70292         3.12271         5.12937
| 72>    H       -5.09790         7.41844         5.78516
| 73>    H       -3.82610         0.59573         0.49422
| 74>    H       -8.72939         1.10323        -0.18500
| 75>    H       -8.51554         2.28420        -2.40410
| 76>    H       -6.98427         3.28138        -4.07296
| 77>    H       -4.11985         3.54269        -3.05210
| 78>    H       -5.51492         4.33531        -5.69405
| 79>    H       -2.51489         4.87602        -3.48606
| 80>    H       -1.78533         5.92026        -4.71032
| 81>    H       -1.59505         4.17418        -4.81776
| 82>    H       -2.35010         5.32538        -7.11659
| 83>    H       -3.47881         6.60445        -6.65760
| 84>    H       -4.18503         4.09698        -8.04193
| 85>    H       -5.65951         6.56985        -7.47723
| 86>    H       -6.35323         3.99631        -9.00694
| 87>    H       -9.86974         8.20089        -8.39271
| 88>    H       -7.66097         7.39250        -7.84268
| 89>    H      -14.72151         9.03828        -9.73898
| 90>    H      -15.49896         7.18041       -12.45841
| 91> *
| 92>
| 93>                          ****END OF INPUT****

CARTESIAN COORDINATES (ANGSTROEM)
---------------------------------
  C     -3.061200    2.233770    2.707570
  C     -2.065900    1.300360    2.756550
  C     -1.058160    1.262330    3.745810
  N     -0.216410    1.183210    4.521510
  C     -1.892550    0.256130    1.820790
  N     -1.680180   -0.610370    1.099460
  C     -3.252870    3.339010    3.634400
  C     -4.360270    4.119530    3.213430
  C     -4.779110    5.236870    3.895720
  C     -4.076810    5.602110    5.048190
  C     -2.972540    4.816500    5.462260
  C     -2.547390    3.689020    4.773600
  S     -2.248030    5.445710    6.910150
  C     -3.419850    6.736870    6.940500
  C     -4.309430    6.700630    5.919270
  Br    -3.356980    8.010100    8.314310
  C     -4.933780    3.541480    1.984550
  O     -5.851560    3.969380    1.326760
  C     -4.122620    2.317510    1.705060
  C     -4.410930    1.481670    0.698380
  C     -5.569380    1.711110   -0.187330
  N     -6.741560    1.258490    0.244970
  C     -7.778810    1.469840   -0.551130
  C     -7.661890    2.110420   -1.769330
  C     -6.377870    2.523160   -2.148180
  N     -5.334030    2.308120   -1.339110
  C     -6.134660    3.181760   -3.410620
  C     -4.928700    3.665410   -3.756850
  C     -4.676000    4.316490   -5.008190
  C     -3.521720    4.886130   -5.386320
  C     -2.289300    4.969770   -4.543070
  C     -3.366610    5.517940   -6.755770
  N     -4.293090    5.059240   -7.753630
  C     -5.535270    5.586240   -7.907880
  C     -6.526680    4.981030   -8.595030
  C     -7.826200    5.520230   -8.858130
  C     -8.742070    4.737360   -9.614500
  N     -8.533390    3.508990  -10.086050
  S     -9.861940    3.009960  -10.845490
  N    -10.766880    4.314220  -10.610730
  C    -10.058260    5.216500   -9.936700
  C    -10.476670    6.501450   -9.511770
  C     -9.574030    7.222810   -8.745820
  C     -8.300900    6.755040   -8.432610
  C    -11.769500    7.013660   -9.869510
  S    -12.530450    8.305620   -8.967170
  C    -13.937540    8.341200   -9.948970
  C    -13.845020    7.403560  -10.945140
  C    -12.617900    6.659170  -10.890780
  O    -12.553110    5.780920  -11.914660
  C    -13.714090    5.938150  -12.598720
  N    -13.920770    5.126890  -13.739740
  O    -14.976240    5.280380  -14.328480
  O    -13.049190    4.345900  -14.054040
  C    -14.541310    6.894790  -12.075530
  H     -5.624770    5.810480    3.550080
  H     -1.702920    3.122710    5.129370
  H     -5.097900    7.418440    5.785160
  H     -3.826100    0.595730    0.494220
  H     -8.729390    1.103230   -0.185000
  H     -8.515540    2.284200   -2.404100
  H     -6.984270    3.281380   -4.072960
  H     -4.119850    3.542690   -3.052100
  H     -5.514920    4.335310   -5.694050
  H     -2.514890    4.876020   -3.486060
  H     -1.785330    5.920260   -4.710320
  H     -1.595050    4.174180   -4.817760
  H     -2.350100    5.325380   -7.116590
  H     -3.478810    6.604450   -6.657600
  H     -4.185030    4.096980   -8.041930
  H     -5.659510    6.569850   -7.477230
  H     -6.353230    3.996310   -9.006940
  H     -9.869740    8.200890   -8.392710
  H     -7.660970    7.392500   -7.842680
  H    -14.721510    9.038280   -9.738980
  H    -15.498960    7.180410  -12.458410

 Total Charge           Charge          ....    0
 Multiplicity           Mult            ....    1
 Number of Electrons    NEL             ....  426
 Basis Dimension        Dim             ....  905

ORBITAL ENERGIES
----------------

  NO   OCC          E(Eh)            E(eV)
   0   2.0000    -482.891056    -13140.1337
   1   2.0000     -89.008442     -2422.0428
   2   2.0000     -88.981716     -2421.3156
   3   2.0000     -88.967377     -2420.9254
   4   2.0000     -62.568761     -1702.5826
   5   2.0000     -56.402714     -1534.7959
   6   2.0000     -56.399989     -1534.7217
   7   2.0000     -56.399963     -1534.7210
   8   2.0000     -19.291369      -524.9448
   9   2.0000     -19.235485      -523.4242
  10   2.0000     -19.232877      -523.3532
  11   2.0000     -19.223010      -523.0847
  12   2.0000     -14.646402      -398.5489
  13   2.0000     -14.435655      -392.8141
  14   2.0000     -14.423971      -392.4962
  15   2.0000     -14.423086      -392.4721
  16   2.0000     -14.422298      -392.4507
  17   2.0000     -14.419734      -392.3809
  18   2.0000     -14.407103      -392.0372
  19   2.0000     -14.404555      -391.9679
  20   2.0000     -10.376337      -282.3545
  21   2.0000     -10.372337      -282.2456
  22   2.0000     -10.365387      -282.0565
  23   2.0000     -10.351816      -281.6872
  24   2.0000     -10.348620      -281.6003
  25   2.0000     -10.346965      -281.5552
  26   2.0000     -10.335821      -281.2520
  27   2.0000     -10.332474      -281.1609
  28   2.0000     -10.325707      -280.9768
  29   2.0000     -10.325185      -280.9626
  30   2.0000     -10.324113      -280.9334
  31   2.0000     -10.320382      -280.8319
  32   2.0000     -10.317786      -280.7612
  33   2.0000     -10.316053      -280.7141
  34   2.0000     -10.316047      -280.7139
  35   2.0000     -10.315691      -280.7042
  36   2.0000     -10.314673      -280.6765
  37   2.0000     -10.312599      -280.6201
  38   2.0000     -10.308643      -280.5124
  39   2.0000     -10.307871      -280.4914
  40   2.0000     -10.307596      -280.4839
  41   2.0000     -10.306301      -280.4487
  42   2.0000     -10.305319      -280.4220
  43   2.0000     -10.304046      -280.3873
  44   2.0000     -10.302479      -280.3447
  45   2.0000     -10.301485      -280.3177
  46   2.0000     -10.299408      -280.2611
  47   2.0000     -10.290298      -280.0132
  48   2.0000     -10.289039      -279.9790
  49   2.0000     -10.285651      -279.8868
  50   2.0000     -10.285463      -279.8817
  51   2.0000     -10.280982      -279.7598
  52   2.0000     -10.279798      -279.7275
  53   2.0000     -10.278884      -279.7027
  54   2.0000     -10.275342      -279.6063
  55   2.0000     -10.271980      -279.5148
  56   2.0000     -10.270269      -279.4682
  57   2.0000     -10.269059      -279.4353
  58   2.0000     -10.250736      -278.9367
  59   2.0000      -8.798206      -239.4114
  60   2.0000      -8.100283      -220.4199
  61   2.0000      -8.077669      -219.8045
  62   2.0000      -8.062294      -219.3862
  63   2.0000      -6.634498      -180.5339
  64   2.0000      -6.619956      -180.1381
  65   2.0000      -6.619719      -180.1317
  66   2.0000      -6.071505      -165.2140
  67   2.0000      -6.063742      -165.0028
  68   2.0000      -6.062674      -164.9737
  69   2.0000      -6.047356      -164.5569
  70   2.0000      -6.043079      -164.4405
  71   2.0000      -6.038908      -164.3270
  72   2.0000      -6.031602      -164.1282
  73   2.0000      -6.027262      -164.0101
  74   2.0000      -6.024723      -163.9410
  75   2.0000      -2.750414       -74.8426
  76   2.0000      -2.746277       -74.7300
  77   2.0000      -2.746108       -74.7254
  78   2.0000      -2.734531       -74.4104
  79   2.0000      -2.734530       -74.4103
  80   2.0000      -1.317742       -35.8576
  81   2.0000      -1.214981       -33.0613
  82   2.0000      -1.138966       -30.9928
  83   2.0000      -1.133852       -30.8537
  84   2.0000      -1.108805       -30.1721
  85   2.0000      -1.081452       -29.4278
  86   2.0000      -1.039282       -28.2803
  87   2.0000      -1.029300       -28.0087
  88   2.0000      -1.019981       -27.7551
  89   2.0000      -1.001075       -27.2406
  90   2.0000      -0.995537       -27.0899
  91   2.0000      -0.989855       -26.9353
  92   2.0000      -0.978904       -26.6373
  93   2.0000      -0.963946       -26.2303
  94   2.0000      -0.949785       -25.8450
  95   2.0000      -0.949191       -25.8288
  96   2.0000      -0.923688       -25.1348
  97   2.0000      -0.922138       -25.0926
  98   2.0000      -0.915699       -24.9174
  99   2.0000      -0.914008       -24.8714
 100   2.0000      -0.892625       -24.2896
 101   2.0000      -0.890253       -24.2250
 102   2.0000      -0.885161       -24.0865
 103   2.0000      -0.873331       -23.7645
 104   2.0000      -0.863696       -23.5024
 105   2.0000      -0.847231       -23.0543
 106   2.0000      -0.845454       -23.0060
 107   2.0000      -0.835664       -22.7396
 108   2.0000      -0.834682       -22.7129
 109   2.0000      -0.804992       -21.9049
 110   2.0000      -0.791743       -21.5444
 111   2.0000      -0.785134       -21.3646
 112   2.0000      -0.778228       -21.1767
 113   2.0000      -0.765332       -20.8258
 114   2.0000      -0.762406       -20.7461
 115   2.0000      -0.740131       -20.1400
 116   2.0000      -0.733741       -19.9661
 117   2.0000      -0.728391       -19.8205
 118   2.0000      -0.706358       -19.2210
 119   2.0000      -0.703100       -19.1323
 120   2.0000      -0.697147       -18.9703
 121   2.0000      -0.696975       -18.9656
 122   2.0000      -0.691243       -18.8097
 123   2.0000      -0.680448       -18.5159
 124   2.0000      -0.677420       -18.4335
 125   2.0000      -0.667152       -18.1541
 126   2.0000      -0.659751       -17.9528
 127   2.0000      -0.645509       -17.5652
 128   2.0000      -0.632027       -17.1983
 129   2.0000      -0.631203       -17.1759
 130   2.0000      -0.630718       -17.1627
 131   2.0000      -0.626330       -17.0433
 132   2.0000      -0.615978       -16.7616
 133   2.0000      -0.611113       -16.6292
 134   2.0000      -0.607498       -16.5308
 135   2.0000      -0.605029       -16.4637
 136   2.0000      -0.601324       -16.3629
 137   2.0000      -0.597448       -16.2574
 138   2.0000      -0.585959       -15.9448
 139   2.0000      -0.580707       -15.8018
 140   2.0000      -0.578014       -15.7285
 141   2.0000      -0.571604       -15.5541
 142   2.0000      -0.567802       -15.4507
 143   2.0000      -0.556096       -15.1321
 144   2.0000      -0.555354       -15.1119
 145   2.0000      -0.552594       -15.0369
 146   2.0000      -0.550087       -14.9686
 147   2.0000      -0.546063       -14.8591
 148   2.0000      -0.545828       -14.8527
 149   2.0000      -0.544663       -14.8210
 150   2.0000      -0.535669       -14.5763
 151   2.0000      -0.534238       -14.5373
 152   2.0000      -0.532516       -14.4905
 153   2.0000      -0.529302       -14.4030
 154   2.0000      -0.523348       -14.2410
 155   2.0000      -0.515583       -14.0297
 156   2.0000      -0.514796       -14.0083
 157   2.0000      -0.511271       -13.9124
 158   2.0000      -0.504858       -13.7379
 159   2.0000      -0.501988       -13.6598
 160   2.0000      -0.500171       -13.6104
 161   2.0000      -0.498999       -13.5784
 162   2.0000      -0.496671       -13.5151
 163   2.0000      -0.492986       -13.4148
 164   2.0000      -0.486615       -13.2415
 165   2.0000      -0.481265       -13.0959
 166   2.0000      -0.478945       -13.0328
 167   2.0000      -0.475877       -12.9493
 168   2.0000      -0.473143       -12.8749
 169   2.0000      -0.468149       -12.7390
 170   2.0000      -0.464444       -12.6382
 171   2.0000      -0.462928       -12.5969
 172   2.0000      -0.460005       -12.5174
 173   2.0000      -0.455177       -12.3860
 174   2.0000      -0.453477       -12.3397
 175   2.0000      -0.450840       -12.2680
 176   2.0000      -0.450178       -12.2500
 177   2.0000      -0.445565       -12.1244
 178   2.0000      -0.442933       -12.0528
 179   2.0000      -0.440804       -11.9949
 180   2.0000      -0.433930       -11.8078
 181   2.0000      -0.433795       -11.8042
 182   2.0000      -0.430350       -11.7104
 183   2.0000      -0.425878       -11.5887
 184   2.0000      -0.422923       -11.5083
 185   2.0000      -0.422507       -11.4970
 186   2.0000      -0.419650       -11.4193
 187   2.0000      -0.418906       -11.3990
 188   2.0000      -0.416116       -11.3231
 189   2.0000      -0.398392       -10.8408
 190   2.0000      -0.394324       -10.7301
 191   2.0000      -0.384220       -10.4552
 192   2.0000      -0.381612       -10.3842
 193   2.0000      -0.380221       -10.3463
 194   2.0000      -0.379561       -10.3284
 195   2.0000      -0.379382       -10.3235
 196   2.0000      -0.377941       -10.2843
 197   2.0000      -0.376003       -10.2316
 198   2.0000      -0.370777       -10.0893
 199   2.0000      -0.362564        -9.8659
 200   2.0000      -0.361834        -9.8460
 201   2.0000      -0.350575        -9.5396
 202   2.0000      -0.338351        -9.2070
 203   2.0000      -0.333726        -9.0812
 204   2.0000      -0.329560        -8.9678
 205   2.0000      -0.322189        -8.7672
 206   2.0000      -0.321933        -8.7602
 207   2.0000      -0.320823        -8.7300
 208   2.0000      -0.312385        -8.5004
 209   2.0000      -0.299516        -8.1502
 210   2.0000      -0.287933        -7.8351
 211   2.0000      -0.281057        -7.6479
 212   2.0000      -0.230681        -6.2771
 213   0.0000      -0.089307        -2.4302
 214   0.0000      -0.060361        -1.6425
 215   0.0000      -0.056284        -1.5316
 216   0.0000      -0.046266        -1.2590
 217   0.0000      -0.039141        -1.0651

MULLIKEN ATOMIC CHARGES
-----------------------
   0 C :    0.328400
   1 C :   -0.343683
   2 C :   -0.187480
   3 N :    0.161659
   4 C :   -0.193646
   5 N :    0.166666
   6 C :    0.010205
   7 C :   -0.014477
   8 C :   -0.065240
   9 C :    0.118661
  10 C :   -0.089161
  11 C :   -0.019118
  12 S :    0.190066
  13 C :   -0.123306
  14 C :    0.038859
  15 Br:    0.029508
  16 C :    0.154985
  17 O :   -0.131746
  18 C :   -0.058156
  19 C :    0.002322
  20 C :   -0.031244
  21 N :   -0.092159
  22 C :    0.089730
  23 C :   -0.038600
  24 C :    0.063902
  25 N :   -0.070184
  26 C :   -0.023516
  27 C :    0.052172
  28 C :   -0.001611
  29 C :   -0.203272
  30 C :    0.082572
  31 C :    0.194709
  32 N :   -0.153309
  33 C :    0.078267
  34 C :   -0.051369
  35 C :    0.092865
  36 C :    0.005845
  37 N :   -0.285255
  38 S :    0.502106
  39 N :   -0.269810
  40 C :   -0.005080
  41 C :    0.128101
  42 C :   -0.041667
  43 C :   -0.074446
  44 C :   -0.254693
  45 S :    0.138611
  46 C :   -0.146349
  47 C :    0.125003
  48 C :    0.214808
  49 O :   -0.163539
  50 C :    0.235129
  51 N :    0.273003
  52 O :   -0.254864
  53 O :   -0.230511
  54 C :   -0.079953
  55 H :   -0.008418
  56 H :   -0.005455
  57 H :   -0.000214
  58 H :    0.052129
  59 H :    0.005366
  60 H :   -0.006518
  61 H :   -0.020221
  62 H :    0.003184
  63 H :   -0.009618
  64 H :    0.030591
  65 H :    0.018518
  66 H :    0.038847
  67 H :    0.018463
  68 H :    0.032516
  69 H :    0.119596
  70 H :   -0.000600
  71 H :   -0.022554
  72 H :   -0.022968
  73 H :   -0.038158
  74 H :    0.027676
  75 H :    0.007131
Sum of atomic charges:   -0.0000000

LOEWDIN ATOMIC CHARGES
----------------------
   0 C :    0.075907
   1 C :   -0.127826
   2 C :   -0.017611
   3 N :   -0.045524
   4 C :   -0.019377
   5 N :   -0.040962
   6 C :   -0.021793
   7 C :   -0.051040
   8 C :    0.024169
   9 C :   -0.029934
  10 C :   -0.142635
  11 C :   -0.007639
  12 S :    0.435451
  13 C :   -0.269505
  14 C :   -0.070540
  15 Br:    0.141496
  16 C :    0.087869
  17 O :   -0.124174
  18 C :   -0.070531
  19 C :    0.088249
  20 C :    0.023319
  21 N :   -0.094555
  22 C :    0.057296
  23 C :   -0.062240
  24 C :    0.044893
  25 N :   -0.086305
  26 C :   -0.049921
  27 C :    0.022952
  28 C :   -0.059917
  29 C :   -0.028244
  30 C :   -0.048172
  31 C :    0.037588
  32 N :   -0.002651
  33 C :    0.052586
  34 C :   -0.120017
  35 C :   -0.007893
  36 C :   -0.049296
  37 N :   -0.290508
  38 S :    0.638146
  39 N :   -0.279143
  40 C :   -0.046764
  41 C :   -0.069049
  42 C :   -0.014654
  43 C :   -0.046618
  44 C :   -0.191514
  45 S :    0.471271
  46 C :   -0.193624
  47 C :   -0.081320
  48 C :    0.021770
  49 O :    0.016122
  50 C :    0.026071
  51 N :    0.272583
  52 O :   -0.215727
  53 O :   -0.192221
  54 C :   -0.016491
  55 H :    0.042048
  56 H :    0.041436
  57 H :    0.039776
  58 H :    0.051848
  59 H :    0.026611
  60 H :    0.033859
  61 H :    0.027495
  62 H :    0.029380
  63 H :    0.028761
  64 H :    0.034871
  65 H :    0.032696
  66 H :    0.042700
  67 H :    0.030301
  68 H :    0.037991
  69 H :    0.080323
  70 H :    0.023799
  71 H :    0.026738
  72 H :    0.022899
  73 H :    0.023203
  74 H :    0.027047
  75 H :    0.044413

  Mayer bond orders larger than 0.100000
B(  0-C ,  1-C ) :   1.6723 B(  0-C ,  6-C ) :   1.0198 B(  0-C , 18-C ) :   1.0020
B(  1-C ,  2-C ) :   1.1337 B(  1-C ,  4-C ) :   1.1488 B(  2-C ,  3-N ) :   2.9771
B(  4-C ,  5-N ) :   2.9796 B(  6-C ,  7-C ) :   1.2723 B(  6-C , 11-C ) :   1.4000
B(  7-C ,  8-C ) :   1.4212 B(  7-C , 16-C ) :   0.9426 B(  8-C ,  9-C ) :   1.2526
B(  8-C , 55-H ) :   1.0163 B(  9-C , 10-C ) :   1.2972 B(  9-C , 14-C ) :   1.1634
B( 10-C , 11-C ) :   1.3416 B( 10-C , 12-S ) :   1.0861 B( 11-C , 56-H ) :   0.9797
B( 12-S , 13-C ) :   1.0868 B( 13-C , 14-C ) :   1.6159 B( 13-C , 15-Br) :   1.0232
B( 14-C , 57-H ) :   1.0003 B( 16-C , 17-O ) :   2.2362 B( 16-C , 18-C ) :   0.9145
B( 18-C , 19-C ) :   1.8862 B( 19-C , 20-C ) :   0.9082 B( 19-C , 58-H ) :   0.9319
B( 20-C , 21-N ) :   1.5025 B( 20-C , 25-N ) :   1.5358 B( 21-N , 22-C ) :   1.5237
B( 22-C , 23-C ) :   1.3877 B( 22-C , 59-H ) :   0.9792 B( 23-C , 24-C ) :   1.3334
B( 23-C , 60-H ) :   0.9749 B( 24-C , 25-N ) :   1.4923 B( 24-C , 26-C ) :   1.0614
B( 26-C , 27-C ) :   1.7233 B( 26-C , 61-H ) :   0.9834 B( 27-C , 28-C ) :   1.0809
B( 27-C , 62-H ) :   0.9660 B( 28-C , 29-C ) :   1.7836 B( 28-C , 63-H ) :   0.9661
B( 29-C , 30-C ) :   1.0805 B( 29-C , 31-C ) :   0.9915 B( 30-C , 64-H ) :   0.9517
B( 30-C , 65-H ) :   0.9536 B( 30-C , 66-H ) :   0.9453 B( 31-C , 32-N ) :   1.0525
B( 31-C , 67-H ) :   0.9460 B( 31-C , 68-H ) :   0.9191 B( 32-N , 33-C ) :   1.2157
B( 32-N , 69-H ) :   0.9410 B( 33-C , 34-C ) :   1.5895 B( 33-C , 70-H ) :   0.9600
B( 34-C , 35-C ) :   1.1713 B( 34-C , 71-H ) :   0.9683 B( 35-C , 36-C ) :   1.1592
B( 35-C , 41-C ) :   0.1094 B( 35-C , 43-C ) :   1.4237 B( 36-C , 37-N ) :   1.5470
B( 36-C , 40-C ) :   1.1616 B( 37-N , 38-S ) :   1.2633 B( 37-N , 39-N ) :   0.1486
B( 38-S , 39-N ) :   1.2644 B( 39-N , 40-C ) :   1.5460 B( 40-C , 41-C ) :   1.2001
B( 41-C , 42-C ) :   1.4480 B( 41-C , 44-C ) :   1.0532 B( 42-C , 43-C ) :   1.2583
B( 42-C , 72-H ) :   0.9877 B( 43-C , 73-H ) :   0.9879 B( 44-C , 45-S ) :   1.1458
B( 44-C , 46-C ) :   0.1252 B( 44-C , 48-C ) :   1.5092 B( 45-S , 46-C ) :   1.1773
B( 46-C , 47-C ) :   1.4410 B( 46-C , 74-H ) :   0.9777 B( 47-C , 48-C ) :   1.2026
B( 47-C , 54-C ) :   1.0590 B( 48-C , 49-O ) :   1.1137 B( 49-O , 50-C ) :   1.1424
B( 50-C , 51-N ) :   0.9145 B( 50-C , 54-C ) :   1.5737 B( 51-N , 52-O ) :   1.5285
B( 51-N , 53-O ) :   1.5190 B( 52-O , 53-O ) :   0.2792 B( 54-C , 75-H ) :   1.0248

-----------------------------------------------------------------------------
         ABSORPTION SPECTRUM VIA TRANSITION ELECTRIC DIPOLE MOMENTS
-----------------------------------------------------------------------------
State   Energy  Wavelength   fosc         T2         TX        TY        TZ
        (cm-1)    (nm)                  (au**2)     (au)      (au)      (au)
-----------------------------------------------------------------------------
   0   20843.7    479.8   0.505487710   7.98382   2.54751  -0.84323   0.88485
   1   22663.3    441.2   0.000057385   0.00083   0.01593   0.00094   0.02406
   2   22885.6    437.0   0.063922470   0.91953  -0.68100  -0.14862  -0.65855
   3   26723.3    374.2   0.019160221   0.23604   0.12230   0.12883  -0.45220
   4   27601.7    362.3   0.002259019   0.02694  -0.08916  -0.01460  -0.13705
   5   28826.1    346.9   0.458081285   5.23158   0.49056  -1.76989  -1.36324
   6   29186.3    342.6   0.000070818   0.00080  -0.01167   0.01944   0.01688
   7   30357.4    329.4   0.001568313   0.01701   0.02466  -0.08594  -0.09494
   8   30727.1    325.4   0.109036044   1.16822   0.06770   0.52457   0.94259
   9   31006.0    322.5   0.078029308   0.82849  -0.60626   0.65226  -0.18842
  10   31639.4    316.1   0.000341081   0.00355  -0.05054   0.02953   0.01105
  11   31899.6    313.5   0.129376761   1.33520  -0.47940  -0.41821  -0.96461
  12   33684.8    296.9   0.231996184   2.26737  -1.13155   0.02112  -0.99324
  13   33857.1    295.4   0.001006590   0.00979  -0.05010   0.08127   0.02593
  14   34626.0    288.8   0.502327613   4.77596   1.00168  -1.77526  -0.78807
  15   35413.3    282.4   0.060721987   0.56449  -0.53312   0.45887  -0.26402
  16   35653.2    280.5   0.182807025   1.68799  -0.71134   1.02124  -0.37289
  17   35736.6    279.8   0.000834050   0.00768   0.05348  -0.06903  -0.00762
  18   36107.2    277.0   0.377429342   3.44126   1.53958  -0.45978   0.92712
  19   36318.3    275.3   0.188089154   1.70496   0.26092  -0.70541  -1.06737
  20   37315.2    268.0   0.194953986   1.71997  -0.01113   0.23938  -1.28940
  21   38011.6    263.1   0.068209386   0.59075  -0.11486   0.07945   0.75581
  22   38384.9    260.5   0.438628795   3.76195  -0.71603   0.13898   1.79720
  23   38692.7    258.4   0.711059147   6.04996  -1.61693  -1.33539   1.28540
  24   39802.3    251.2   0.097939296   0.81007   0.04684   0.59218   0.67616

FINAL SINGLE POINT ENERGY     -6002.871583182423

DIPOLE MOMENT
-------------
                                X             Y             Z
Electronic contribution:     17.28529      28.86090     134.42197
Nuclear contribution   :    -16.89323     -25.82124    -132.50265
                        -----------------------------------------
Total Dipole Moment    :      0.39206       3.03966       1.91932
                        -----------------------------------------
Magnitude (a.u.)       :      3.61622
Magnitude (Debye)      :      9.19169

Rotational constants in cm-1:     0.002208     0.000294     0.000277
Rotational constants in MHz :    66.199921     8.818238     8.292620

                             ****ORCA TERMINATED NORMALLY****
TOTAL RUN TIME: 0 days 0 hours 5 minutes 22 seconds 938 msec
