                         Program Version 4.2.0 -  RELEASE  -
|  1> # ORCA input file
|  2> # SCF done       -188.767219393669          0.000726619640
|  3> ! CAM-B3LYP def2-SVP def2/J RIJCOSX Grid4 TightSCF
|  4> %maxcore 5000
|  5> %tddft
|  6>     Mode sTDDFT
|  7>     Ethresh 5.0
|  8>     maxcore 5000
|  9> end
| 10>
| 11> %pal
| 12>   nprocs 6
| 13>   end
| 14> * xyz 0 1
| 15>    C      -18.52749        -8.76179         6.18548
| 16>    C      -17.49069        -9.42885         5.57265
| 17>    C      -17.27628       -10.81728         5.67159
| 18>    N      -17.04365       -11.94210         5.70759
| 19>    C      -16.50043        -8.84682         4.75743
| 20>    N      -15.65349        -8.46343         4.08107
| 21>    C      -19.54820        -9.38945         7.02358
| 22>    C      -20.45711        -8.39269         7.45347
| 23>    C      -21.53141        -8.66788         8.26212
| 24>    C      -21.71919        -9.99357         8.66988
| 25>    C      -20.80621       -10.98183         8.23657
| 26>    C      -19.71892       -10.70271         7.41647
| 27>    S      -21.22063       -12.55176         8.85801
| 28>    C      -22.59659       -11.86589         9.68018
| 29>    C      -22.74061       -10.53203         9.50032
| 30>   Br      -23.71385       -12.97688        10.69936
| 31>    C      -20.04116        -7.08489         6.90119
| 32>    O      -20.60647        -6.02161         7.07268
| 33>    C      -18.81910        -7.35369         6.12196
| 34>    C      -18.08052        -6.39036         5.46313
| 35>    C      -18.38535        -5.03480         5.41645
| 36>    C      -17.58633        -4.11431         4.76430
| 37>    C      -17.80224        -2.72037         4.66855
| 38>    C      -16.83252        -2.05083         3.98113
| 39>    C      -15.80249        -2.88591         3.49863
| 40>    S      -16.11024        -4.55281         3.93779
| 41>    C      -14.66718        -2.53245         2.79346
| 42>    C      -14.24557        -1.23931         2.39992
| 43>    C      -13.05600        -1.22835         1.74522
| 44>    C      -12.45946        -2.51127         1.57143
| 45>    S      -13.51285        -3.73249         2.27856
| 46>    C      -11.23728        -2.72502         1.00316
| 47>    C      -10.52649        -3.94811         0.78665
| 48>    C       -9.15039        -3.86681         0.48949
| 49>    C       -8.42162        -5.01333         0.31261
| 50>    C       -9.04181        -6.27376         0.38899
| 51>    C      -10.40240        -6.36992         0.64781
| 52>    C      -11.12837        -5.21596         0.84976
| 53>    C       -8.04194        -7.29485         0.16375
| 54>    C       -6.79817        -6.66948        -0.02603
| 55>    C       -6.94530        -5.16344         0.01589
| 56>    C       -6.59980        -4.55012        -1.34574
| 57>    C       -6.08558        -4.53452         1.11556
| 58>    C       -5.66428        -7.41884        -0.23480
| 59>    C       -5.76991        -8.81293        -0.27743
| 60>    C       -7.01643        -9.42444        -0.13009
| 61>    C       -8.15340        -8.67655         0.10375
| 62>    C       -4.58790        -9.62812        -0.50347
| 63>    S       -4.61406       -10.91437        -1.65743
| 64>    C       -2.97050       -11.29508        -1.35289
| 65>    C       -2.42519       -10.49402        -0.39677
| 66>    N       -1.13176       -10.66535         0.12305
| 67>    O       -0.44908        -9.46634         0.36656
| 68>    O       -0.35163       -11.49386        -0.69673
| 69>    C       -3.35855        -9.53247         0.10566
| 70>    N       -3.17691        -8.62612         1.17026
| 71>    O       -2.46286        -9.09893         2.24089
| 72>    O       -2.52163        -7.41771         0.64202
| 73>    N       -2.72499        -6.35264         1.48678
| 74>    C       -1.81378        -6.16905         2.49227
| 75>    S       -0.21642        -6.78695         2.28705
| 76>    C        0.24369        -6.03377         3.78157
| 77>    N        1.55557        -6.20192         4.21791
| 78>    O        1.88170        -5.67436         5.26735
| 79>    O        2.29153        -6.87180         3.50870
| 80>    C       -0.78081        -5.34774         4.37957
| 81>    C       -1.98061        -5.40823         3.64880
| 82>    C       -3.23409        -4.78990         4.03468
| 83>    C       -3.39309        -3.95087         5.05199
| 84>    H      -22.20622        -7.88567         8.57281
| 85>    H      -19.05157       -11.49280         7.11601
| 86>    H      -23.53280        -9.94968         9.93432
| 87>    H      -17.18342        -6.70332         4.94271
| 88>    H      -19.27543        -4.67709         5.91311
| 89>    H      -18.66521        -2.25780         5.11341
| 90>    H      -16.83330        -0.98883         3.81230
| 91>    H      -14.82534        -0.36141         2.62096
| 92>    H      -12.57412        -0.33914         1.37810
| 93>    H      -10.70832        -1.82644         0.70533
| 94>    H       -8.68058        -2.89539         0.42677
| 95>    H      -10.88829        -7.33220         0.69394
| 96>    H      -12.18736        -5.29461         1.03288
| 97>    H       -7.22445        -4.98449        -2.12307
| 98>    H       -5.55775        -4.73931        -1.59154
| 99>    H       -6.76432        -3.47550        -1.32744
|100>    H       -6.27912        -5.02387         2.06845
|101>    H       -6.31933        -3.47773         1.21911
|102>    H       -5.03058        -4.62555         0.86595
|103>    H       -4.70672        -6.95349        -0.40749
|104>    H       -7.07887       -10.50112        -0.18492
|105>    H       -9.10953        -9.15940         0.23355
|106>    H       -2.48965       -12.09232        -1.88049
|107>    H       -0.34619        -8.93364        -0.44223
|108>    H        0.23208       -11.98861        -0.10319
|109>    H       -1.58180        -9.42657         1.96298
|110>    H       -3.70723        -6.23700         1.72607
|111>    H       -0.65622        -4.83979         5.31769
|112>    H       -4.09315        -5.05200         3.43222
|113>    H       -2.57700        -3.64343         5.68106
|114>    H       -4.35824        -3.53817         5.28701
|115> *
|116>
|117>                          ****END OF INPUT****

CARTESIAN COORDINATES (ANGSTROEM)
---------------------------------
  C    -18.527490   -8.761790    6.185480
  C    -17.490690   -9.428850    5.572650
  C    -17.276280  -10.817280    5.671590
  N    -17.043650  -11.942100    5.707590
  C    -16.500430   -8.846820    4.757430
  N    -15.653490   -8.463430    4.081070
  C    -19.548200   -9.389450    7.023580
  C    -20.457110   -8.392690    7.453470
  C    -21.531410   -8.667880    8.262120
  C    -21.719190   -9.993570    8.669880
  C    -20.806210  -10.981830    8.236570
  C    -19.718920  -10.702710    7.416470
  S    -21.220630  -12.551760    8.858010
  C    -22.596590  -11.865890    9.680180
  C    -22.740610  -10.532030    9.500320
  Br   -23.713850  -12.976880   10.699360
  C    -20.041160   -7.084890    6.901190
  O    -20.606470   -6.021610    7.072680
  C    -18.819100   -7.353690    6.121960
  C    -18.080520   -6.390360    5.463130
  C    -18.385350   -5.034800    5.416450
  C    -17.586330   -4.114310    4.764300
  C    -17.802240   -2.720370    4.668550
  C    -16.832520   -2.050830    3.981130
  C    -15.802490   -2.885910    3.498630
  S    -16.110240   -4.552810    3.937790
  C    -14.667180   -2.532450    2.793460
  C    -14.245570   -1.239310    2.399920
  C    -13.056000   -1.228350    1.745220
  C    -12.459460   -2.511270    1.571430
  S    -13.512850   -3.732490    2.278560
  C    -11.237280   -2.725020    1.003160
  C    -10.526490   -3.948110    0.786650
  C     -9.150390   -3.866810    0.489490
  C     -8.421620   -5.013330    0.312610
  C     -9.041810   -6.273760    0.388990
  C    -10.402400   -6.369920    0.647810
  C    -11.128370   -5.215960    0.849760
  C     -8.041940   -7.294850    0.163750
  C     -6.798170   -6.669480   -0.026030
  C     -6.945300   -5.163440    0.015890
  C     -6.599800   -4.550120   -1.345740
  C     -6.085580   -4.534520    1.115560
  C     -5.664280   -7.418840   -0.234800
  C     -5.769910   -8.812930   -0.277430
  C     -7.016430   -9.424440   -0.130090
  C     -8.153400   -8.676550    0.103750
  C     -4.587900   -9.628120   -0.503470
  S     -4.614060  -10.914370   -1.657430
  C     -2.970500  -11.295080   -1.352890
  C     -2.425190  -10.494020   -0.396770
  N     -1.131760  -10.665350    0.123050
  O     -0.449080   -9.466340    0.366560
  O     -0.351630  -11.493860   -0.696730
  C     -3.358550   -9.532470    0.105660
  N     -3.176910   -8.626120    1.170260
  O     -2.462860   -9.098930    2.240890
  O     -2.521630   -7.417710    0.642020
  N     -2.724990   -6.352640    1.486780
  C     -1.813780   -6.169050    2.492270
  S     -0.216420   -6.786950    2.287050
  C      0.243690   -6.033770    3.781570
  N      1.555570   -6.201920    4.217910
  O      1.881700   -5.674360    5.267350
  O      2.291530   -6.871800    3.508700
  C     -0.780810   -5.347740    4.379570
  C     -1.980610   -5.408230    3.648800
  C     -3.234090   -4.789900    4.034680
  C     -3.393090   -3.950870    5.051990
  H    -22.206220   -7.885670    8.572810
  H    -19.051570  -11.492800    7.116010
  H    -23.532800   -9.949680    9.934320
  H    -17.183420   -6.703320    4.942710
  H    -19.275430   -4.677090    5.913110
  H    -18.665210   -2.257800    5.113410
  H    -16.833300   -0.988830    3.812300
  H    -14.825340   -0.361410    2.620960
  H    -12.574120   -0.339140    1.378100
  H    -10.708320   -1.826440    0.705330
  H     -8.680580   -2.895390    0.426770
  H    -10.888290   -7.332200    0.693940
  H    -12.187360   -5.294610    1.032880
  H     -7.224450   -4.984490   -2.123070
  H     -5.557750   -4.739310   -1.591540
  H     -6.764320   -3.475500   -1.327440
  H     -6.279120   -5.023870    2.068450
  H     -6.319330   -3.477730    1.219110
  H     -5.030580   -4.625550    0.865950
  H     -4.706720   -6.953490   -0.407490
  H     -7.078870  -10.501120   -0.184920
  H     -9.109530   -9.159400    0.233550
  H     -2.489650  -12.092320   -1.880490
  H     -0.346190   -8.933640   -0.442230
  H      0.232080  -11.988610   -0.103190
  H     -1.581800   -9.426570    1.962980
  H     -3.707230   -6.237000    1.726070
  H     -0.656220   -4.839790    5.317690
  H     -4.093150   -5.052000    3.432220
  H     -2.577000   -3.643430    5.681060
  H     -4.358240   -3.538170    5.287010

 Total Charge           Charge          ....    0
 Multiplicity           Mult            ....    1
 Number of Electrons    NEL             ....  544
 Basis Dimension        Dim             .... 1159

ORBITAL ENERGIES
----------------

  NO   OCC          E(Eh)            E(eV)
   0   2.0000    -482.877071    -13139.7531
   1   2.0000     -88.970588     -2421.0128
   2   2.0000     -88.967748     -2420.9355
   3   2.0000     -88.964644     -2420.8510
   4   2.0000     -88.964253     -2420.8404
   5   2.0000     -88.958226     -2420.6764
   6   2.0000     -62.554752     -1702.2013
   7   2.0000     -56.388689     -1534.4142
   8   2.0000     -56.385999     -1534.3410
   9   2.0000     -56.385961     -1534.3400
  10   2.0000     -19.304707      -525.3078
  11   2.0000     -19.278669      -524.5992
  12   2.0000     -19.275356      -524.5091
  13   2.0000     -19.255143      -523.9591
  14   2.0000     -19.221458      -523.0425
  15   2.0000     -19.220716      -523.0223
  16   2.0000     -19.199699      -522.4504
  17   2.0000     -14.633024      -398.1848
  18   2.0000     -14.538381      -395.6095
  19   2.0000     -14.521195      -395.1418
  20   2.0000     -14.497688      -394.5021
  21   2.0000     -14.401177      -391.8759
  22   2.0000     -14.398298      -391.7976
  23   2.0000     -10.352727      -281.7120
  24   2.0000     -10.349928      -281.6359
  25   2.0000     -10.348291      -281.5913
  26   2.0000     -10.335754      -281.2502
  27   2.0000     -10.328326      -281.0480
  28   2.0000     -10.326679      -281.0032
  29   2.0000     -10.323837      -280.9259
  30   2.0000     -10.323775      -280.9242
  31   2.0000     -10.323513      -280.9171
  32   2.0000     -10.321776      -280.8698
  33   2.0000     -10.321560      -280.8639
  34   2.0000     -10.321080      -280.8509
  35   2.0000     -10.317885      -280.7639
  36   2.0000     -10.312869      -280.6274
  37   2.0000     -10.307767      -280.4886
  38   2.0000     -10.306385      -280.4510
  39   2.0000     -10.305183      -280.4183
  40   2.0000     -10.304754      -280.4066
  41   2.0000     -10.303240      -280.3654
  42   2.0000     -10.302726      -280.3514
  43   2.0000     -10.301700      -280.3235
  44   2.0000     -10.297568      -280.2111
  45   2.0000     -10.296481      -280.1815
  46   2.0000     -10.295778      -280.1624
  47   2.0000     -10.294864      -280.1375
  48   2.0000     -10.294780      -280.1352
  49   2.0000     -10.294734      -280.1340
  50   2.0000     -10.293512      -280.1007
  51   2.0000     -10.292879      -280.0835
  52   2.0000     -10.291471      -280.0452
  53   2.0000     -10.287554      -279.9386
  54   2.0000     -10.286530      -279.9107
  55   2.0000     -10.285924      -279.8942
  56   2.0000     -10.285371      -279.8792
  57   2.0000     -10.283870      -279.8383
  58   2.0000     -10.283444      -279.8267
  59   2.0000     -10.283438      -279.8266
  60   2.0000     -10.282747      -279.8078
  61   2.0000     -10.282442      -279.7995
  62   2.0000     -10.281953      -279.7862
  63   2.0000     -10.281737      -279.7803
  64   2.0000     -10.281477      -279.7732
  65   2.0000     -10.281312      -279.7687
  66   2.0000     -10.280671      -279.7513
  67   2.0000     -10.277429      -279.6631
  68   2.0000     -10.275908      -279.6217
  69   2.0000     -10.275853      -279.6202
  70   2.0000     -10.272932      -279.5407
  71   2.0000     -10.270666      -279.4790
  72   2.0000     -10.266113      -279.3551
  73   2.0000      -8.784161      -239.0292
  74   2.0000      -8.066285      -219.4948
  75   2.0000      -8.063313      -219.4139
  76   2.0000      -8.060593      -219.3399
  77   2.0000      -8.060232      -219.3301
  78   2.0000      -8.054209      -219.1662
  79   2.0000      -6.620375      -180.1496
  80   2.0000      -6.605924      -179.7563
  81   2.0000      -6.605759      -179.7519
  82   2.0000      -6.035505      -164.2344
  83   2.0000      -6.033044      -164.1675
  84   2.0000      -6.031327      -164.1207
  85   2.0000      -6.030302      -164.0929
  86   2.0000      -6.029968      -164.0838
  87   2.0000      -6.028592      -164.0463
  88   2.0000      -6.028570      -164.0457
  89   2.0000      -6.026016      -163.9762
  90   2.0000      -6.025808      -163.9706
  91   2.0000      -6.024595      -163.9376
  92   2.0000      -6.023826      -163.9166
  93   2.0000      -6.021817      -163.8620
  94   2.0000      -6.021198      -163.8451
  95   2.0000      -6.019769      -163.8062
  96   2.0000      -6.015370      -163.6865
  97   2.0000      -2.736310       -74.4588
  98   2.0000      -2.732169       -74.3461
  99   2.0000      -2.732060       -74.3431
 100   2.0000      -2.720568       -74.0304
 101   2.0000      -2.720564       -74.0303
 102   2.0000      -1.301444       -35.4141
 103   2.0000      -1.243876       -33.8476
 104   2.0000      -1.232000       -33.5244
 105   2.0000      -1.153243       -31.3813
 106   2.0000      -1.119886       -30.4737
 107   2.0000      -1.117139       -30.3989
 108   2.0000      -1.112870       -30.2827
 109   2.0000      -1.022388       -27.8206
 110   2.0000      -1.012491       -27.5513
 111   2.0000      -1.009620       -27.4731
 112   2.0000      -1.009285       -27.4640
 113   2.0000      -0.999197       -27.1895
 114   2.0000      -0.998449       -27.1692
 115   2.0000      -0.989083       -26.9143
 116   2.0000      -0.978877       -26.6366
 117   2.0000      -0.974353       -26.5135
 118   2.0000      -0.966684       -26.3048
 119   2.0000      -0.958015       -26.0689
 120   2.0000      -0.933826       -25.4107
 121   2.0000      -0.930327       -25.3155
 122   2.0000      -0.917214       -24.9587
 123   2.0000      -0.909804       -24.7570
 124   2.0000      -0.909390       -24.7458
 125   2.0000      -0.896750       -24.4018
 126   2.0000      -0.894459       -24.3395
 127   2.0000      -0.888732       -24.1836
 128   2.0000      -0.879558       -23.9340
 129   2.0000      -0.872850       -23.7515
 130   2.0000      -0.865811       -23.5599
 131   2.0000      -0.862965       -23.4825
 132   2.0000      -0.858436       -23.3592
 133   2.0000      -0.847580       -23.0638
 134   2.0000      -0.839816       -22.8525
 135   2.0000      -0.837655       -22.7937
 136   2.0000      -0.833105       -22.6699
 137   2.0000      -0.824012       -22.4225
 138   2.0000      -0.823660       -22.4129
 139   2.0000      -0.816446       -22.2166
 140   2.0000      -0.799113       -21.7450
 141   2.0000      -0.797411       -21.6987
 142   2.0000      -0.785637       -21.3783
 143   2.0000      -0.782752       -21.2998
 144   2.0000      -0.760465       -20.6933
 145   2.0000      -0.751500       -20.4493
 146   2.0000      -0.745964       -20.2987
 147   2.0000      -0.744096       -20.2479
 148   2.0000      -0.733757       -19.9665
 149   2.0000      -0.717087       -19.5129
 150   2.0000      -0.704378       -19.1671
 151   2.0000      -0.702188       -19.1075
 152   2.0000      -0.693927       -18.8827
 153   2.0000      -0.691298       -18.8112
 154   2.0000      -0.683699       -18.6044
 155   2.0000      -0.679945       -18.5022
 156   2.0000      -0.676955       -18.4209
 157   2.0000      -0.676230       -18.4011
 158   2.0000      -0.672824       -18.3085
 159   2.0000      -0.668413       -18.1884
 160   2.0000      -0.662061       -18.0156
 161   2.0000      -0.656404       -17.8617
 162   2.0000      -0.651852       -17.7378
 163   2.0000      -0.646300       -17.5867
 164   2.0000      -0.644825       -17.5466
 165   2.0000      -0.632395       -17.2083
 166   2.0000      -0.628890       -17.1130
 167   2.0000      -0.626918       -17.0593
 168   2.0000      -0.619037       -16.8448
 169   2.0000      -0.614575       -16.7234
 170   2.0000      -0.613968       -16.7069
 171   2.0000      -0.609832       -16.5944
 172   2.0000      -0.608910       -16.5693
 173   2.0000      -0.605931       -16.4882
 174   2.0000      -0.587455       -15.9855
 175   2.0000      -0.586953       -15.9718
 176   2.0000      -0.581289       -15.8177
 177   2.0000      -0.578838       -15.7510
 178   2.0000      -0.575213       -15.6523
 179   2.0000      -0.572383       -15.5753
 180   2.0000      -0.568667       -15.4742
 181   2.0000      -0.558295       -15.1920
 182   2.0000      -0.556975       -15.1561
 183   2.0000      -0.554858       -15.0984
 184   2.0000      -0.548448       -14.9240
 185   2.0000      -0.546612       -14.8741
 186   2.0000      -0.539881       -14.6909
 187   2.0000      -0.538905       -14.6643
 188   2.0000      -0.532902       -14.5010
 189   2.0000      -0.531797       -14.4709
 190   2.0000      -0.530695       -14.4409
 191   2.0000      -0.529593       -14.4110
 192   2.0000      -0.528089       -14.3700
 193   2.0000      -0.525037       -14.2870
 194   2.0000      -0.523011       -14.2319
 195   2.0000      -0.521401       -14.1880
 196   2.0000      -0.520562       -14.1652
 197   2.0000      -0.517056       -14.0698
 198   2.0000      -0.515534       -14.0284
 199   2.0000      -0.514094       -13.9892
 200   2.0000      -0.511940       -13.9306
 201   2.0000      -0.506561       -13.7842
 202   2.0000      -0.502085       -13.6624
 203   2.0000      -0.498645       -13.5688
 204   2.0000      -0.497368       -13.5341
 205   2.0000      -0.496432       -13.5086
 206   2.0000      -0.494156       -13.4467
 207   2.0000      -0.492294       -13.3960
 208   2.0000      -0.485494       -13.2110
 209   2.0000      -0.484203       -13.1758
 210   2.0000      -0.482767       -13.1368
 211   2.0000      -0.481166       -13.0932
 212   2.0000      -0.480084       -13.0638
 213   2.0000      -0.478146       -13.0110
 214   2.0000      -0.477606       -12.9963
 215   2.0000      -0.475745       -12.9457
 216   2.0000      -0.474019       -12.8987
 217   2.0000      -0.468234       -12.7413
 218   2.0000      -0.465263       -12.6605
 219   2.0000      -0.458694       -12.4817
 220   2.0000      -0.455460       -12.3937
 221   2.0000      -0.450252       -12.2520
 222   2.0000      -0.448941       -12.2163
 223   2.0000      -0.446318       -12.1449
 224   2.0000      -0.446176       -12.1411
 225   2.0000      -0.443791       -12.0762
 226   2.0000      -0.439103       -11.9486
 227   2.0000      -0.437059       -11.8930
 228   2.0000      -0.435997       -11.8641
 229   2.0000      -0.435425       -11.8485
 230   2.0000      -0.432683       -11.7739
 231   2.0000      -0.431200       -11.7335
 232   2.0000      -0.430146       -11.7049
 233   2.0000      -0.429184       -11.6787
 234   2.0000      -0.426689       -11.6108
 235   2.0000      -0.423956       -11.5364
 236   2.0000      -0.418542       -11.3891
 237   2.0000      -0.414042       -11.2667
 238   2.0000      -0.412152       -11.2152
 239   2.0000      -0.410642       -11.1741
 240   2.0000      -0.408885       -11.1263
 241   2.0000      -0.408343       -11.1116
 242   2.0000      -0.405161       -11.0250
 243   2.0000      -0.403034       -10.9671
 244   2.0000      -0.400141       -10.8884
 245   2.0000      -0.392684       -10.6855
 246   2.0000      -0.386574       -10.5192
 247   2.0000      -0.384984       -10.4760
 248   2.0000      -0.379511       -10.3270
 249   2.0000      -0.377290       -10.2666
 250   2.0000      -0.374064       -10.1788
 251   2.0000      -0.370174       -10.0730
 252   2.0000      -0.366549        -9.9743
 253   2.0000      -0.364215        -9.9108
 254   2.0000      -0.361812        -9.8454
 255   2.0000      -0.354304        -9.6411
 256   2.0000      -0.351306        -9.5595
 257   2.0000      -0.349866        -9.5203
 258   2.0000      -0.343150        -9.3376
 259   2.0000      -0.334894        -9.1129
 260   2.0000      -0.332585        -9.0501
 261   2.0000      -0.327697        -8.9171
 262   2.0000      -0.320086        -8.7100
 263   2.0000      -0.317461        -8.6385
 264   2.0000      -0.313221        -8.5232
 265   2.0000      -0.308724        -8.4008
 266   2.0000      -0.303228        -8.2512
 267   2.0000      -0.296286        -8.0623
 268   2.0000      -0.282144        -7.6775
 269   2.0000      -0.274543        -7.4707
 270   2.0000      -0.267765        -7.2863
 271   2.0000      -0.228114        -6.2073
 272   0.0000      -0.106946        -2.9101
 273   0.0000      -0.058938        -1.6038
 274   0.0000      -0.042971        -1.1693
 275   0.0000      -0.038931        -1.0594
 276   0.0000      -0.022167        -0.6032

MULLIKEN ATOMIC CHARGES
-----------------------
   0 C :    0.329936
   1 C :   -0.365986
   2 C :   -0.188525
   3 N :    0.136120
   4 C :   -0.190828
   5 N :    0.128864
   6 C :    0.013688
   7 C :   -0.009996
   8 C :   -0.077207
   9 C :    0.118676
  10 C :   -0.095185
  11 C :   -0.023974
  12 S :    0.179130
  13 C :   -0.122330
  14 C :    0.035951
  15 Br:    0.014370
  16 C :    0.137560
  17 O :   -0.167628
  18 C :   -0.087531
  19 C :   -0.042288
  20 C :   -0.024812
  21 C :    0.007658
  22 C :    0.023649
  23 C :    0.046076
  24 C :   -0.057560
  25 S :    0.105923
  26 C :   -0.023210
  27 C :    0.025995
  28 C :    0.051410
  29 C :   -0.021300
  30 S :    0.097604
  31 C :   -0.019204
  32 C :    0.106044
  33 C :   -0.109902
  34 C :    0.036852
  35 C :    0.100962
  36 C :   -0.044206
  37 C :   -0.018819
  38 C :    0.100089
  39 C :    0.020530
  40 C :   -0.140716
  41 C :    0.110160
  42 C :    0.070477
  43 C :   -0.090130
  44 C :    0.074559
  45 C :   -0.004497
  46 C :   -0.046561
  47 C :   -0.179138
  48 S :    0.161970
  49 C :   -0.156770
  50 C :    0.152987
  51 N :    0.000858
  52 O :   -0.233500
  53 O :   -0.207272
  54 C :    0.169262
  55 N :    0.009369
  56 O :   -0.198968
  57 O :   -0.247885
  58 N :    0.051635
  59 C :   -0.082345
  60 S :    0.175281
  61 C :   -0.028431
  62 N :    0.279512
  63 O :   -0.261053
  64 O :   -0.277859
  65 C :    0.004632
  66 C :    0.103332
  67 C :   -0.021429
  68 C :   -0.017332
  69 H :   -0.015815
  70 H :   -0.010139
  71 H :   -0.005997
  72 H :    0.015740
  73 H :    0.015564
  74 H :   -0.000425
  75 H :   -0.004947
  76 H :   -0.007126
  77 H :   -0.003482
  78 H :   -0.011219
  79 H :   -0.038308
  80 H :   -0.021759
  81 H :   -0.000899
  82 H :    0.021244
  83 H :    0.016251
  84 H :    0.008496
  85 H :    0.036632
  86 H :    0.011906
  87 H :    0.009976
  88 H :   -0.030306
  89 H :   -0.016380
  90 H :   -0.024627
  91 H :    0.020749
  92 H :    0.186196
  93 H :    0.201766
  94 H :    0.201292
  95 H :    0.149265
  96 H :    0.003421
  97 H :   -0.040754
  98 H :    0.015990
  99 H :    0.020951
Sum of atomic charges:   -0.0000000

LOEWDIN ATOMIC CHARGES
----------------------
   0 C :    0.073679
   1 C :   -0.157623
   2 C :   -0.018832
   3 N :   -0.069845
   4 C :   -0.020628
   5 N :   -0.069774
   6 C :   -0.018165
   7 C :   -0.048501
   8 C :    0.016949
   9 C :   -0.035904
  10 C :   -0.145788
  11 C :   -0.013670
  12 S :    0.426945
  13 C :   -0.274697
  14 C :   -0.071247
  15 Br:    0.129478
  16 C :    0.081983
  17 O :   -0.159466
  18 C :   -0.109545
  19 C :    0.050082
  20 C :   -0.075143
  21 C :   -0.102123
  22 C :   -0.042892
  23 C :   -0.006840
  24 C :   -0.195080
  25 S :    0.410631
  26 C :   -0.147747
  27 C :   -0.042327
  28 C :   -0.006422
  29 C :   -0.154793
  30 S :    0.408904
  31 C :   -0.015492
  32 C :   -0.035587
  33 C :   -0.011493
  34 C :   -0.000014
  35 C :   -0.006484
  36 C :   -0.010685
  37 C :   -0.014733
  38 C :   -0.015655
  39 C :    0.001566
  40 C :   -0.036750
  41 C :   -0.024655
  42 C :   -0.032446
  43 C :   -0.016975
  44 C :   -0.036015
  45 C :   -0.015771
  46 C :   -0.011314
  47 C :   -0.145841
  48 S :    0.469178
  49 C :   -0.209549
  50 C :   -0.065558
  51 N :    0.075118
  52 O :   -0.086625
  53 O :   -0.082470
  54 C :   -0.087107
  55 N :    0.066517
  56 O :   -0.071810
  57 O :   -0.110078
  58 N :    0.058037
  59 C :   -0.112421
  60 S :    0.468034
  61 C :   -0.219695
  62 N :    0.274572
  63 O :   -0.226993
  64 O :   -0.242886
  65 C :    0.008235
  66 C :   -0.112348
  67 C :   -0.026627
  68 C :   -0.045141
  69 H :    0.038709
  70 H :    0.039971
  71 H :    0.037528
  72 H :    0.031015
  73 H :    0.038319
  74 H :    0.038602
  75 H :    0.035273
  76 H :    0.034486
  77 H :    0.037028
  78 H :    0.037068
  79 H :    0.024322
  80 H :    0.033055
  81 H :    0.016605
  82 H :    0.030191
  83 H :    0.025117
  84 H :    0.022761
  85 H :    0.027720
  86 H :    0.026583
  87 H :    0.019285
  88 H :    0.023564
  89 H :    0.026884
  90 H :    0.031143
  91 H :    0.027848
  92 H :    0.073272
  93 H :    0.091642
  94 H :    0.051431
  95 H :    0.063862
  96 H :    0.042266
  97 H :    0.022492
  98 H :    0.022159
  99 H :    0.026153

  Mayer bond orders larger than 0.100000
B(  0-C ,  1-C ) :   1.5791 B(  0-C ,  6-C ) :   0.9884 B(  0-C , 18-C ) :   1.1172
B(  1-C ,  2-C ) :   1.1502 B(  1-C ,  4-C ) :   1.1550 B(  2-C ,  3-N ) :   2.9610
B(  4-C ,  5-N ) :   2.9562 B(  6-C ,  7-C ) :   1.2780 B(  6-C , 11-C ) :   1.4207
B(  7-C ,  8-C ) :   1.4324 B(  7-C , 16-C ) :   0.9341 B(  8-C ,  9-C ) :   1.2388
B(  8-C , 69-H ) :   1.0154 B(  9-C , 10-C ) :   1.3170 B(  9-C , 14-C ) :   1.1602
B( 10-C , 11-C ) :   1.3211 B( 10-C , 12-S ) :   1.0830 B( 11-C , 70-H ) :   0.9782
B( 12-S , 13-C ) :   1.0848 B( 13-C , 14-C ) :   1.6211 B( 13-C , 15-Br) :   1.0134
B( 14-C , 71-H ) :   0.9998 B( 16-C , 17-O ) :   2.1855 B( 16-C , 18-C ) :   0.9662
B( 18-C , 19-C ) :   1.4769 B( 19-C , 20-C ) :   1.2635 B( 19-C , 72-H ) :   0.9416
B( 20-C , 21-C ) :   1.4131 B( 20-C , 73-H ) :   0.9795 B( 21-C , 22-C ) :   1.1778
B( 21-C , 25-S ) :   1.0892 B( 22-C , 23-C ) :   1.5452 B( 22-C , 74-H ) :   1.0018
B( 23-C , 24-C ) :   1.2109 B( 23-C , 75-H ) :   0.9946 B( 24-C , 25-S ) :   1.0424
B( 24-C , 26-C ) :   1.4800 B( 26-C , 27-C ) :   1.1798 B( 26-C , 30-S ) :   1.0764
B( 27-C , 28-C ) :   1.5998 B( 27-C , 76-H ) :   0.9938 B( 28-C , 29-C ) :   1.1293
B( 28-C , 77-H ) :   0.9988 B( 29-C , 30-S ) :   1.0179 B( 29-C , 31-C ) :   1.6044
B( 31-C , 32-C ) :   1.0990 B( 31-C , 78-H ) :   0.9710 B( 32-C , 33-C ) :   1.2656
B( 32-C , 37-C ) :   1.3202 B( 33-C , 34-C ) :   1.3972 B( 33-C , 79-H ) :   1.0100
B( 34-C , 35-C ) :   1.3741 B( 34-C , 40-C ) :   0.9300 B( 35-C , 36-C ) :   1.3284
B( 35-C , 38-C ) :   0.9979 B( 36-C , 37-C ) :   1.4187 B( 36-C , 80-H ) :   0.9942
B( 37-C , 81-H ) :   0.9692 B( 38-C , 39-C ) :   1.3865 B( 38-C , 46-C ) :   1.3405
B( 39-C , 40-C ) :   0.9334 B( 39-C , 43-C ) :   1.3855 B( 40-C , 41-C ) :   1.0313
B( 40-C , 42-C ) :   1.0289 B( 41-C , 82-H ) :   0.9633 B( 41-C , 83-H ) :   0.9635
B( 41-C , 84-H ) :   0.9626 B( 42-C , 85-H ) :   0.9626 B( 42-C , 86-H ) :   0.9567
B( 42-C , 87-H ) :   0.9581 B( 43-C , 44-C ) :   1.3451 B( 43-C , 88-H ) :   0.9982
B( 44-C , 45-C ) :   1.3670 B( 44-C , 47-C ) :   0.9897 B( 45-C , 46-C ) :   1.3794
B( 45-C , 89-H ) :   0.9903 B( 46-C , 90-H ) :   0.9946 B( 47-C , 48-S ) :   1.1954
B( 47-C , 54-C ) :   1.5580 B( 48-S , 49-C ) :   1.1206 B( 49-C , 50-C ) :   1.5520
B( 49-C , 91-H ) :   0.9679 B( 50-C , 51-N ) :   0.9985 B( 50-C , 54-C ) :   1.2314
B( 51-N , 52-O ) :   0.9363 B( 51-N , 53-O ) :   1.0083 B( 52-O , 92-H ) :   0.9375
B( 53-O , 93-H ) :   0.9629 B( 54-C , 55-N ) :   1.0302 B( 55-N , 56-O ) :   1.0176
B( 55-N , 57-O ) :   0.8348 B( 56-O , 94-H ) :   0.9254 B( 57-O , 58-N ) :   0.9614
B( 58-N , 59-C ) :   1.1908 B( 58-N , 95-H ) :   0.8881 B( 59-C , 60-S ) :   1.1383
B( 59-C , 66-C ) :   1.4005 B( 60-S , 61-C ) :   1.0691 B( 61-C , 62-N ) :   0.9843
B( 61-C , 65-C ) :   1.4889 B( 62-N , 63-O ) :   1.5270 B( 62-N , 64-O ) :   1.5030
B( 63-O , 64-O ) :   0.2505 B( 65-C , 66-C ) :   1.2325 B( 65-C , 96-H ) :   0.9992
B( 66-C , 67-C ) :   1.0656 B( 67-C , 68-C ) :   1.9733 B( 67-C , 97-H ) :   0.9611
B( 68-C , 98-H ) :   0.9520 B( 68-C , 99-H ) :   0.9479

-----------------------------------------------------------------------------
         ABSORPTION SPECTRUM VIA TRANSITION ELECTRIC DIPOLE MOMENTS
-----------------------------------------------------------------------------
State   Energy  Wavelength   fosc         T2         TX        TY        TZ
        (cm-1)    (nm)                  (au**2)     (au)      (au)      (au)
-----------------------------------------------------------------------------
   0   12420.4    805.1   1.283289971  34.01447   4.49691   2.33993  -2.88392
   1   22084.3    452.8   0.149726995   2.23199  -1.19768   0.75247   0.48099
   2   23422.5    426.9   0.591886380   8.31918  -1.76322   2.22917   0.49097
   3   25038.1    399.4   0.395717987   5.20307   1.83944  -1.12729  -0.74078
   4   25974.6    385.0   0.464223902   5.88376   0.33931  -2.32075   0.61867
   5   26647.5    375.3   0.034594749   0.42739  -0.09480   0.64668  -0.01473
   6   27128.8    368.6   0.000025037   0.00030   0.00795  -0.01499   0.00398
   7   28639.1    349.2   0.027286429   0.31366   0.31998  -0.45681  -0.05101
   8   29417.5    339.9   0.038612119   0.43211   0.36658  -0.54540   0.01645
   9   30280.4    330.2   0.485958438   5.28339   2.07996   0.02817   0.97793
  10   31254.7    320.0   0.147449932   1.55312   0.06905   1.21539  -0.26680
  11   31686.9    315.6   0.062976062   0.65429  -0.16536  -0.66605   0.42816
  12   32415.1    308.5   0.013804145   0.14020  -0.27047  -0.11600   0.23149
  13   32452.5    308.1   0.192884451   1.95670   0.99147   0.48528  -0.85918
  14   32626.8    306.5   0.412178511   4.15898   1.63901   0.46594  -1.12050
  15   33544.9    298.1   0.000771658   0.00757  -0.08260  -0.01908  -0.01964
  16   33685.5    296.9   0.004633209   0.04528   0.18392   0.10363  -0.02675
  17   33943.1    294.6   0.030298420   0.29386  -0.38964  -0.28560   0.24593
  18   34476.6    290.1   0.137971347   1.31747   0.86258  -0.75705  -0.01732
  19   34932.8    286.3   0.004717547   0.04446  -0.00516   0.19753   0.07358
  20   35159.1    284.4   0.002736696   0.02563  -0.02885   0.04681   0.15034
  21   35814.6    279.2   0.130381921   1.19848  -0.51045   0.95325   0.17098
  22   35958.8    278.1   0.032501621   0.29756  -0.10462   0.51092   0.15991
  23   36005.7    277.7   0.029658382   0.27118   0.26606  -0.44756  -0.00902
  24   36601.1    273.2   0.128717315   1.15776  -0.84727   0.14625   0.64692
  25   36829.2    271.5   0.002188953   0.01957  -0.01879   0.13770  -0.01589
  26   37035.5    270.0   0.000610591   0.00543   0.07161  -0.00338  -0.01697
  27   37303.6    268.1   0.375595311   3.31471   1.47583  -0.95129  -0.48134
  28   38349.6    260.8   0.009843059   0.08450  -0.26728  -0.10751   0.03876
  29   38541.0    259.5   0.056190897   0.47997   0.05834  -0.68962  -0.03160
  30   38913.9    257.0   0.003310885   0.02801  -0.10895  -0.12098   0.03877
  31   39633.9    252.3   0.004656698   0.03868   0.12789  -0.13802   0.05724
  32   39890.1    250.7   0.021452281   0.17704  -0.39711  -0.09946  -0.09723
  33   40088.1    249.5   0.117060749   0.96133  -0.77937   0.30807   0.50892

FINAL SINGLE POINT ENERGY     -7339.502367940107

DIPOLE MOMENT
-------------
                                X             Y             Z
Electronic contribution:   -177.16149     -97.84786     101.95234
Nuclear contribution   :    176.30687     100.54224    -104.46097
                        -----------------------------------------
Total Dipole Moment    :     -0.85463       2.69438      -2.50863
                        -----------------------------------------
Magnitude (a.u.)       :      3.77932
Magnitude (Debye)      :      9.60628

Rotational constants in cm-1:     0.001100     0.000199     0.000184
Rotational constants in MHz :    32.969380     5.960620     5.514260

                             ****ORCA TERMINATED NORMALLY****
TOTAL RUN TIME: 0 days 0 hours 13 minutes 5 seconds 701 msec
