                         Program Version 4.2.0 -  RELEASE  -
|  1> # ORCA input file
|  2> # SCF done       -176.888195680367          0.000646039820
|  3> ! CAM-B3LYP def2-SVP def2/J RIJCOSX Grid4 TightSCF
|  4> %maxcore 5000
|  5> %tddft
|  6>     Mode sTDDFT
|  7>     Ethresh 5.0
|  8>     maxcore 5000
|  9> end
| 10>
| 11> %pal
| 12>   nprocs 6
| 13>   end
| 14> * xyz 0 1
| 15>    C      -11.29771         1.28223         2.24446
| 16>    C      -12.48395         0.87232         1.69112
| 17>    C      -13.48296         0.16504         2.39233
| 18>    N      -14.33589        -0.40283         2.90983
| 19>    C      -12.87286         1.08997         0.35284
| 20>    N      -13.25535         1.22270        -0.72174
| 21>    C      -10.85778         1.01904         3.60783
| 22>    C       -9.55655         1.55268         3.78287
| 23>    C       -8.87161         1.45978         4.97005
| 24>    C       -9.49665         0.80283         6.03511
| 25>    C      -10.79758         0.27429         5.85191
| 26>    C      -11.49207         0.37197         4.65306
| 27>    S      -11.38716        -0.48852         7.29675
| 28>    C       -9.89934        -0.09457         8.11645
| 29>    C       -9.00526         0.57372         7.34917
| 30>   Br       -9.66935        -0.59875         9.90723
| 31>    C       -9.11550         2.20191         2.53546
| 32>    O       -8.12353         2.87628         2.38192
| 33>    C      -10.22964         1.99047         1.56446
| 34>    C      -10.27453         2.53274         0.31747
| 35>    C       -9.14506         3.02594        -0.38571
| 36>    O       -9.33551         3.96077        -1.35893
| 37>    C       -7.80620         2.68175        -0.37702
| 38>    C       -6.81739         1.74857         0.18541
| 39>    O       -6.93030         0.84027         0.96239
| 40>    N       -5.63328         2.10459        -0.46159
| 41>    C       -5.75208         3.11063        -1.41088
| 42>    O       -4.85215         3.54172        -2.08910
| 43>    C       -7.17270         3.46465        -1.36823
| 44>    C       -8.15347         4.25174        -1.95101
| 45>    C       -8.10587         5.22268        -2.98697
| 46>    C       -6.95640         5.56479        -3.61122
| 47>    C       -6.91235         6.53569        -4.65751
| 48>    C       -5.81611         6.95000        -5.31812
| 49>    C       -4.42582         6.45809        -5.09456
| 50>    C       -5.95540         7.97461        -6.42024
| 51>    N       -5.79047         7.34916        -7.71060
| 52>    C       -4.76634         7.56763        -8.54959
| 53>    C       -4.53582         6.84347        -9.68181
| 54>    C       -3.51586         7.14656       -10.59452
| 55>    C       -3.26092         6.43396       -11.74000
| 56>    C       -2.28120         6.70553       -12.72174
| 57>    C       -2.26549         5.82035       -13.75824
| 58>    C       -3.22627         4.79123       -13.64598
| 59>    S       -4.16542         4.99101       -12.19176
| 60>    C       -3.43993         3.73112       -14.51230
| 61>    C       -2.77481         3.45330       -15.72229
| 62>    C       -3.20104         2.30940       -16.33386
| 63>    C       -4.21943         1.62309       -15.63569
| 64>    S       -4.63533         2.49437       -14.17745
| 65>    C       -4.80653         0.42893       -16.00576
| 66>    C       -5.78635        -0.22032       -15.26184
| 67>    C       -6.35008        -1.43521       -15.58531
| 68>    C       -7.36260        -2.08015       -14.74963
| 69>    O       -7.85267        -1.65877       -13.72414
| 70>    C       -7.66954        -3.37913       -15.42526
| 71>    C       -6.89685        -3.48912       -16.58930
| 72>    C       -6.04131        -2.27045       -16.74259
| 73>    O       -5.26285        -2.05179       -17.64797
| 74>    C       -7.00488        -4.61685       -17.38145
| 75>    C       -7.87771        -5.64147       -17.02477
| 76>    C       -8.63888        -5.53317       -15.87830
| 77>    C       -8.53484        -4.39908       -15.07677
| 78>    F       -9.28634        -4.32868       -13.97192
| 79>    F       -6.28125        -4.75593       -18.49857
| 80>    H       -7.88176         1.87590         5.07060
| 81>    H      -12.48241        -0.04245         4.56529
| 82>    H       -8.03904         0.89327         7.69443
| 83>    H      -11.21393         2.61738        -0.21273
| 84>    H       -4.75710         1.63874        -0.27206
| 85>    H       -9.04930         5.67830        -3.25361
| 86>    H       -6.03822         5.08611        -3.30551
| 87>    H       -7.86648         6.97759        -4.92116
| 88>    H       -4.39379         5.57598        -4.46475
| 89>    H       -3.83327         7.23999        -4.61771
| 90>    H       -3.95238         6.22568        -6.04848
| 91>    H       -5.19337         8.75103        -6.31646
| 92>    H       -6.94353         8.44620        -6.37492
| 93>    H       -6.38923         6.55776        -7.90038
| 94>    H       -4.12580         8.40256        -8.29689
| 95>    H       -5.17520         6.00050        -9.90747
| 96>    H       -2.88815         8.00563       -10.39546
| 97>    H       -1.61958         7.54953       -12.63422
| 98>    H       -1.58843         5.87598       -14.59123
| 99>    H       -2.00568         4.09590       -16.11199
|100>    H       -2.81177         1.93245       -17.26268
|101>    H       -4.46884        -0.03341       -16.92249
|102>    H       -6.13691         0.24634       -14.34590
|103>    H       -7.94706        -6.51435       -17.65474
|104>    H       -9.31839        -6.31940       -15.58903
|105> *
|106>
|107>                          ****END OF INPUT****

CARTESIAN COORDINATES (ANGSTROEM)
---------------------------------
  C    -11.297710    1.282230    2.244460
  C    -12.483950    0.872320    1.691120
  C    -13.482960    0.165040    2.392330
  N    -14.335890   -0.402830    2.909830
  C    -12.872860    1.089970    0.352840
  N    -13.255350    1.222700   -0.721740
  C    -10.857780    1.019040    3.607830
  C     -9.556550    1.552680    3.782870
  C     -8.871610    1.459780    4.970050
  C     -9.496650    0.802830    6.035110
  C    -10.797580    0.274290    5.851910
  C    -11.492070    0.371970    4.653060
  S    -11.387160   -0.488520    7.296750
  C     -9.899340   -0.094570    8.116450
  C     -9.005260    0.573720    7.349170
  Br    -9.669350   -0.598750    9.907230
  C     -9.115500    2.201910    2.535460
  O     -8.123530    2.876280    2.381920
  C    -10.229640    1.990470    1.564460
  C    -10.274530    2.532740    0.317470
  C     -9.145060    3.025940   -0.385710
  O     -9.335510    3.960770   -1.358930
  C     -7.806200    2.681750   -0.377020
  C     -6.817390    1.748570    0.185410
  O     -6.930300    0.840270    0.962390
  N     -5.633280    2.104590   -0.461590
  C     -5.752080    3.110630   -1.410880
  O     -4.852150    3.541720   -2.089100
  C     -7.172700    3.464650   -1.368230
  C     -8.153470    4.251740   -1.951010
  C     -8.105870    5.222680   -2.986970
  C     -6.956400    5.564790   -3.611220
  C     -6.912350    6.535690   -4.657510
  C     -5.816110    6.950000   -5.318120
  C     -4.425820    6.458090   -5.094560
  C     -5.955400    7.974610   -6.420240
  N     -5.790470    7.349160   -7.710600
  C     -4.766340    7.567630   -8.549590
  C     -4.535820    6.843470   -9.681810
  C     -3.515860    7.146560  -10.594520
  C     -3.260920    6.433960  -11.740000
  C     -2.281200    6.705530  -12.721740
  C     -2.265490    5.820350  -13.758240
  C     -3.226270    4.791230  -13.645980
  S     -4.165420    4.991010  -12.191760
  C     -3.439930    3.731120  -14.512300
  C     -2.774810    3.453300  -15.722290
  C     -3.201040    2.309400  -16.333860
  C     -4.219430    1.623090  -15.635690
  S     -4.635330    2.494370  -14.177450
  C     -4.806530    0.428930  -16.005760
  C     -5.786350   -0.220320  -15.261840
  C     -6.350080   -1.435210  -15.585310
  C     -7.362600   -2.080150  -14.749630
  O     -7.852670   -1.658770  -13.724140
  C     -7.669540   -3.379130  -15.425260
  C     -6.896850   -3.489120  -16.589300
  C     -6.041310   -2.270450  -16.742590
  O     -5.262850   -2.051790  -17.647970
  C     -7.004880   -4.616850  -17.381450
  C     -7.877710   -5.641470  -17.024770
  C     -8.638880   -5.533170  -15.878300
  C     -8.534840   -4.399080  -15.076770
  F     -9.286340   -4.328680  -13.971920
  F     -6.281250   -4.755930  -18.498570
  H     -7.881760    1.875900    5.070600
  H    -12.482410   -0.042450    4.565290
  H     -8.039040    0.893270    7.694430
  H    -11.213930    2.617380   -0.212730
  H     -4.757100    1.638740   -0.272060
  H     -9.049300    5.678300   -3.253610
  H     -6.038220    5.086110   -3.305510
  H     -7.866480    6.977590   -4.921160
  H     -4.393790    5.575980   -4.464750
  H     -3.833270    7.239990   -4.617710
  H     -3.952380    6.225680   -6.048480
  H     -5.193370    8.751030   -6.316460
  H     -6.943530    8.446200   -6.374920
  H     -6.389230    6.557760   -7.900380
  H     -4.125800    8.402560   -8.296890
  H     -5.175200    6.000500   -9.907470
  H     -2.888150    8.005630  -10.395460
  H     -1.619580    7.549530  -12.634220
  H     -1.588430    5.875980  -14.591230
  H     -2.005680    4.095900  -16.111990
  H     -2.811770    1.932450  -17.262680
  H     -4.468840   -0.033410  -16.922490
  H     -6.136910    0.246340  -14.345900
  H     -7.947060   -6.514350  -17.654740
  H     -9.318390   -6.319400  -15.589030

 Total Charge           Charge          ....    0
 Multiplicity           Mult            ....    1
 Number of Electrons    NEL             ....  496
 Basis Dimension        Dim             .... 1065

ORBITAL ENERGIES
----------------

  NO   OCC          E(Eh)            E(eV)
   0   2.0000    -482.889205    -13140.0833
   1   2.0000     -88.979721     -2421.2613
   2   2.0000     -88.948295     -2420.4062
   3   2.0000     -88.940021     -2420.1810
   4   2.0000     -62.566910     -1702.5322
   5   2.0000     -56.400867     -1534.7456
   6   2.0000     -56.398140     -1534.6714
   7   2.0000     -56.398112     -1534.6706
   8   2.0000     -24.764807      -673.8846
   9   2.0000     -24.764689      -673.8815
  10   2.0000     -19.324679      -525.8512
  11   2.0000     -19.225559      -523.1541
  12   2.0000     -19.222788      -523.0787
  13   2.0000     -19.221957      -523.0560
  14   2.0000     -19.177783      -521.8540
  15   2.0000     -19.174632      -521.7683
  16   2.0000     -14.465622      -393.6296
  17   2.0000     -14.465309      -393.6211
  18   2.0000     -14.422464      -392.4552
  19   2.0000     -14.421381      -392.4257
  20   2.0000     -10.413281      -283.3598
  21   2.0000     -10.409923      -283.2684
  22   2.0000     -10.379329      -282.4359
  23   2.0000     -10.374569      -282.3064
  24   2.0000     -10.369959      -282.1809
  25   2.0000     -10.363209      -281.9973
  26   2.0000     -10.350473      -281.6507
  27   2.0000     -10.350066      -281.6396
  28   2.0000     -10.349950      -281.6365
  29   2.0000     -10.348524      -281.5976
  30   2.0000     -10.344409      -281.4857
  31   2.0000     -10.337936      -281.3095
  32   2.0000     -10.333663      -281.1933
  33   2.0000     -10.330801      -281.1154
  34   2.0000     -10.330438      -281.1055
  35   2.0000     -10.330276      -281.1011
  36   2.0000     -10.324676      -280.9487
  37   2.0000     -10.323691      -280.9219
  38   2.0000     -10.319799      -280.8160
  39   2.0000     -10.313897      -280.6554
  40   2.0000     -10.313202      -280.6365
  41   2.0000     -10.312501      -280.6174
  42   2.0000     -10.310550      -280.5643
  43   2.0000     -10.310529      -280.5638
  44   2.0000     -10.310168      -280.5539
  45   2.0000     -10.306559      -280.4557
  46   2.0000     -10.305551      -280.4283
  47   2.0000     -10.304929      -280.4114
  48   2.0000     -10.303901      -280.3834
  49   2.0000     -10.302020      -280.3322
  50   2.0000     -10.301375      -280.3147
  51   2.0000     -10.300610      -280.2939
  52   2.0000     -10.300023      -280.2779
  53   2.0000     -10.299587      -280.2660
  54   2.0000     -10.297634      -280.2129
  55   2.0000     -10.294562      -280.1293
  56   2.0000     -10.292711      -280.0789
  57   2.0000     -10.286760      -279.9170
  58   2.0000     -10.284743      -279.8621
  59   2.0000     -10.284243      -279.8485
  60   2.0000     -10.279154      -279.7100
  61   2.0000     -10.278678      -279.6971
  62   2.0000     -10.276090      -279.6266
  63   2.0000     -10.275888      -279.6211
  64   2.0000     -10.272090      -279.5178
  65   2.0000     -10.271580      -279.5039
  66   2.0000     -10.271198      -279.4935
  67   2.0000     -10.249715      -278.9089
  68   2.0000     -10.238478      -278.6032
  69   2.0000      -8.796335      -239.3604
  70   2.0000      -8.075709      -219.7512
  71   2.0000      -8.044563      -218.9037
  72   2.0000      -8.036209      -218.6764
  73   2.0000      -6.632658      -180.4838
  74   2.0000      -6.618067      -180.0868
  75   2.0000      -6.617841      -180.0806
  76   2.0000      -6.045391      -164.5035
  77   2.0000      -6.041113      -164.3870
  78   2.0000      -6.036941      -164.2735
  79   2.0000      -6.014199      -163.6547
  80   2.0000      -6.010251      -163.5473
  81   2.0000      -6.005797      -163.4260
  82   2.0000      -6.005598      -163.4206
  83   2.0000      -6.001866      -163.3191
  84   2.0000      -5.997348      -163.1961
  85   2.0000      -2.748525       -74.7912
  86   2.0000      -2.744434       -74.6798
  87   2.0000      -2.744276       -74.6755
  88   2.0000      -2.732670       -74.3597
  89   2.0000      -2.732655       -74.3593
  90   2.0000      -1.281409       -34.8689
  91   2.0000      -1.281184       -34.8628
  92   2.0000      -1.241419       -33.7807
  93   2.0000      -1.167753       -31.7762
  94   2.0000      -1.148080       -31.2409
  95   2.0000      -1.137762       -30.9601
  96   2.0000      -1.094452       -29.7815
  97   2.0000      -1.088060       -29.6076
  98   2.0000      -1.066048       -29.0086
  99   2.0000      -1.054556       -28.6959
 100   2.0000      -1.028544       -27.9881
 101   2.0000      -1.018946       -27.7269
 102   2.0000      -1.000250       -27.2182
 103   2.0000      -0.995974       -27.1018
 104   2.0000      -0.994485       -27.0613
 105   2.0000      -0.970803       -26.4169
 106   2.0000      -0.962475       -26.1903
 107   2.0000      -0.954234       -25.9660
 108   2.0000      -0.948796       -25.8181
 109   2.0000      -0.935817       -25.4649
 110   2.0000      -0.932028       -25.3618
 111   2.0000      -0.913887       -24.8681
 112   2.0000      -0.911781       -24.8108
 113   2.0000      -0.903232       -24.5782
 114   2.0000      -0.899221       -24.4690
 115   2.0000      -0.890705       -24.2373
 116   2.0000      -0.880998       -23.9732
 117   2.0000      -0.875851       -23.8331
 118   2.0000      -0.856599       -23.3092
 119   2.0000      -0.846585       -23.0367
 120   2.0000      -0.838624       -22.8201
 121   2.0000      -0.833800       -22.6888
 122   2.0000      -0.826870       -22.5003
 123   2.0000      -0.826314       -22.4852
 124   2.0000      -0.817765       -22.2525
 125   2.0000      -0.804312       -21.8864
 126   2.0000      -0.800259       -21.7761
 127   2.0000      -0.784843       -21.3567
 128   2.0000      -0.778518       -21.1845
 129   2.0000      -0.774138       -21.0654
 130   2.0000      -0.769583       -20.9414
 131   2.0000      -0.762289       -20.7429
 132   2.0000      -0.748380       -20.3644
 133   2.0000      -0.728998       -19.8370
 134   2.0000      -0.726049       -19.7568
 135   2.0000      -0.722037       -19.6476
 136   2.0000      -0.715517       -19.4702
 137   2.0000      -0.702579       -19.1182
 138   2.0000      -0.696311       -18.9476
 139   2.0000      -0.694979       -18.9113
 140   2.0000      -0.680134       -18.5074
 141   2.0000      -0.673892       -18.3375
 142   2.0000      -0.664348       -18.0778
 143   2.0000      -0.661345       -17.9961
 144   2.0000      -0.646450       -17.5908
 145   2.0000      -0.645369       -17.5614
 146   2.0000      -0.641057       -17.4440
 147   2.0000      -0.634501       -17.2656
 148   2.0000      -0.629705       -17.1351
 149   2.0000      -0.626498       -17.0479
 150   2.0000      -0.623151       -16.9568
 151   2.0000      -0.616032       -16.7631
 152   2.0000      -0.610313       -16.6075
 153   2.0000      -0.607871       -16.5410
 154   2.0000      -0.607168       -16.5219
 155   2.0000      -0.604653       -16.4534
 156   2.0000      -0.600566       -16.3422
 157   2.0000      -0.598185       -16.2775
 158   2.0000      -0.594932       -16.1889
 159   2.0000      -0.593425       -16.1479
 160   2.0000      -0.590555       -16.0698
 161   2.0000      -0.589868       -16.0511
 162   2.0000      -0.585958       -15.9447
 163   2.0000      -0.575098       -15.6492
 164   2.0000      -0.560543       -15.2531
 165   2.0000      -0.558776       -15.2051
 166   2.0000      -0.556338       -15.1387
 167   2.0000      -0.554983       -15.1019
 168   2.0000      -0.549994       -14.9661
 169   2.0000      -0.549002       -14.9391
 170   2.0000      -0.547171       -14.8893
 171   2.0000      -0.544745       -14.8233
 172   2.0000      -0.540821       -14.7165
 173   2.0000      -0.535583       -14.5740
 174   2.0000      -0.531868       -14.4729
 175   2.0000      -0.531045       -14.4505
 176   2.0000      -0.529174       -14.3996
 177   2.0000      -0.527449       -14.3526
 178   2.0000      -0.524618       -14.2756
 179   2.0000      -0.518607       -14.1120
 180   2.0000      -0.516209       -14.0468
 181   2.0000      -0.515846       -14.0369
 182   2.0000      -0.513558       -13.9746
 183   2.0000      -0.512241       -13.9388
 184   2.0000      -0.505286       -13.7495
 185   2.0000      -0.501870       -13.6566
 186   2.0000      -0.501596       -13.6491
 187   2.0000      -0.500539       -13.6204
 188   2.0000      -0.497582       -13.5399
 189   2.0000      -0.496317       -13.5055
 190   2.0000      -0.495092       -13.4721
 191   2.0000      -0.491553       -13.3758
 192   2.0000      -0.489860       -13.3298
 193   2.0000      -0.489502       -13.3200
 194   2.0000      -0.489200       -13.3118
 195   2.0000      -0.482992       -13.1429
 196   2.0000      -0.479508       -13.0481
 197   2.0000      -0.478752       -13.0275
 198   2.0000      -0.477004       -12.9799
 199   2.0000      -0.476030       -12.9534
 200   2.0000      -0.469524       -12.7764
 201   2.0000      -0.466099       -12.6832
 202   2.0000      -0.462943       -12.5973
 203   2.0000      -0.462895       -12.5960
 204   2.0000      -0.458825       -12.4853
 205   2.0000      -0.456372       -12.4185
 206   2.0000      -0.454527       -12.3683
 207   2.0000      -0.451837       -12.2951
 208   2.0000      -0.450456       -12.2575
 209   2.0000      -0.449556       -12.2330
 210   2.0000      -0.444027       -12.0826
 211   2.0000      -0.441231       -12.0065
 212   2.0000      -0.440687       -11.9917
 213   2.0000      -0.436079       -11.8663
 214   2.0000      -0.435566       -11.8524
 215   2.0000      -0.433005       -11.7827
 216   2.0000      -0.431327       -11.7370
 217   2.0000      -0.430555       -11.7160
 218   2.0000      -0.429914       -11.6985
 219   2.0000      -0.422379       -11.4935
 220   2.0000      -0.419517       -11.4156
 221   2.0000      -0.418054       -11.3758
 222   2.0000      -0.414561       -11.2808
 223   2.0000      -0.398564       -10.8455
 224   2.0000      -0.397151       -10.8070
 225   2.0000      -0.395237       -10.7549
 226   2.0000      -0.390285       -10.6202
 227   2.0000      -0.387461       -10.5433
 228   2.0000      -0.381667       -10.3857
 229   2.0000      -0.378452       -10.2982
 230   2.0000      -0.371762       -10.1161
 231   2.0000      -0.366066        -9.9612
 232   2.0000      -0.364150        -9.9090
 233   2.0000      -0.357498        -9.7280
 234   2.0000      -0.346142        -9.4190
 235   2.0000      -0.338103        -9.2002
 236   2.0000      -0.331489        -9.0203
 237   2.0000      -0.325808        -8.8657
 238   2.0000      -0.320774        -8.7287
 239   2.0000      -0.319560        -8.6957
 240   2.0000      -0.316773        -8.6198
 241   2.0000      -0.316427        -8.6104
 242   2.0000      -0.298469        -8.1218
 243   2.0000      -0.297056        -8.0833
 244   2.0000      -0.287970        -7.8361
 245   2.0000      -0.279274        -7.5994
 246   2.0000      -0.268566        -7.3081
 247   2.0000      -0.205467        -5.5910
 248   0.0000      -0.106024        -2.8851
 249   0.0000      -0.082151        -2.2354
 250   0.0000      -0.068493        -1.8638
 251   0.0000      -0.061777        -1.6810
 252   0.0000      -0.022716        -0.6181

MULLIKEN ATOMIC CHARGES
-----------------------
   0 C :    0.308223
   1 C :   -0.343870
   2 C :   -0.183634
   3 N :    0.155351
   4 C :   -0.197251
   5 N :    0.165345
   6 C :    0.018023
   7 C :   -0.020302
   8 C :   -0.060673
   9 C :    0.116957
  10 C :   -0.092202
  11 C :   -0.017199
  12 S :    0.189926
  13 C :   -0.123788
  14 C :    0.042148
  15 Br:    0.027794
  16 C :    0.162679
  17 O :   -0.145379
  18 C :   -0.071097
  19 C :   -0.040838
  20 C :    0.107155
  21 O :   -0.189239
  22 C :   -0.005440
  23 C :    0.183496
  24 O :   -0.132069
  25 N :   -0.157282
  26 C :    0.193091
  27 O :   -0.160926
  28 C :   -0.103585
  29 C :    0.147262
  30 C :   -0.015149
  31 C :    0.013754
  32 C :    0.009533
  33 C :   -0.192411
  34 C :    0.091515
  35 C :    0.215206
  36 N :   -0.138707
  37 C :    0.063272
  38 C :   -0.034751
  39 C :    0.009761
  40 C :   -0.049529
  41 C :    0.052188
  42 C :    0.006471
  43 C :   -0.025359
  44 S :    0.080426
  45 C :   -0.067278
  46 C :    0.038175
  47 C :    0.018443
  48 C :    0.015636
  49 S :    0.088557
  50 C :   -0.039948
  51 C :   -0.007957
  52 C :   -0.161167
  53 C :    0.144935
  54 O :   -0.148966
  55 C :   -0.045444
  56 C :   -0.052582
  57 C :    0.156072
  58 O :   -0.156232
  59 C :    0.197488
  60 C :   -0.037932
  61 C :   -0.037434
  62 C :    0.196731
  63 F :   -0.169270
  64 F :   -0.169411
  65 H :   -0.009665
  66 H :   -0.006332
  67 H :   -0.002313
  68 H :    0.036002
  69 H :    0.141877
  70 H :   -0.007715
  71 H :    0.022653
  72 H :   -0.022492
  73 H :    0.041134
  74 H :    0.031832
  75 H :    0.028896
  76 H :    0.019990
  77 H :    0.018827
  78 H :    0.129416
  79 H :    0.008937
  80 H :   -0.004623
  81 H :   -0.014821
  82 H :   -0.012117
  83 H :   -0.013846
  84 H :   -0.012590
  85 H :   -0.008030
  86 H :    0.010441
  87 H :    0.002978
  88 H :    0.000338
  89 H :   -0.000084
Sum of atomic charges:   -0.0000000

LOEWDIN ATOMIC CHARGES
----------------------
   0 C :    0.073246
   1 C :   -0.132416
   2 C :   -0.017973
   3 N :   -0.046964
   4 C :   -0.022471
   5 N :   -0.045036
   6 C :   -0.020304
   7 C :   -0.046646
   8 C :    0.026352
   9 C :   -0.030415
  10 C :   -0.142391
  11 C :   -0.008669
  12 S :    0.435335
  13 C :   -0.269953
  14 C :   -0.069802
  15 Br:    0.140211
  16 C :    0.088803
  17 O :   -0.130752
  18 C :   -0.067897
  19 C :    0.045936
  20 C :    0.045047
  21 O :    0.026993
  22 C :   -0.050051
  23 C :    0.091677
  24 O :   -0.140390
  25 N :    0.002270
  26 C :    0.090904
  27 O :   -0.166427
  28 C :   -0.106326
  29 C :    0.085076
  30 C :   -0.049624
  31 C :    0.024658
  32 C :   -0.052095
  33 C :   -0.018542
  34 C :   -0.049213
  35 C :    0.051252
  36 N :    0.018907
  37 C :    0.059229
  38 C :   -0.126412
  39 C :   -0.010288
  40 C :   -0.184859
  41 C :   -0.012594
  42 C :   -0.056707
  43 C :   -0.145475
  44 S :    0.379051
  45 C :   -0.209414
  46 C :   -0.011264
  47 C :   -0.054199
  48 C :   -0.104318
  49 S :    0.385122
  50 C :   -0.089600
  51 C :    0.063909
  52 C :   -0.156798
  53 C :    0.069600
  54 O :   -0.159436
  55 C :   -0.065046
  56 C :   -0.063078
  57 C :    0.073950
  58 O :   -0.157893
  59 C :    0.087862
  60 C :   -0.031629
  61 C :   -0.031945
  62 C :    0.088285
  63 F :   -0.051717
  64 F :   -0.051972
  65 H :    0.042077
  66 H :    0.041363
  67 H :    0.039380
  68 H :    0.053019
  69 H :    0.097306
  70 H :    0.038458
  71 H :    0.033592
  72 H :    0.026724
  73 H :    0.040026
  74 H :    0.042393
  75 H :    0.037123
  76 H :    0.033593
  77 H :    0.027644
  78 H :    0.086361
  79 H :    0.030800
  80 H :    0.021343
  81 H :    0.033556
  82 H :    0.033791
  83 H :    0.031175
  84 H :    0.032296
  85 H :    0.035515
  86 H :    0.036900
  87 H :    0.029892
  88 H :    0.040503
  89 H :    0.040492

  Mayer bond orders larger than 0.100000
B(  0-C ,  1-C ) :   1.6406 B(  0-C ,  6-C ) :   1.0116 B(  0-C , 18-C ) :   1.0694
B(  1-C ,  2-C ) :   1.1419 B(  1-C ,  4-C ) :   1.1449 B(  2-C ,  3-N ) :   2.9691
B(  4-C ,  5-N ) :   2.9815 B(  6-C ,  7-C ) :   1.2736 B(  6-C , 11-C ) :   1.4039
B(  7-C ,  8-C ) :   1.4251 B(  7-C , 16-C ) :   0.9433 B(  8-C ,  9-C ) :   1.2484
B(  8-C , 65-H ) :   1.0152 B(  9-C , 10-C ) :   1.3030 B(  9-C , 14-C ) :   1.1641
B( 10-C , 11-C ) :   1.3365 B( 10-C , 12-S ) :   1.0876 B( 11-C , 66-H ) :   0.9783
B( 12-S , 13-C ) :   1.0869 B( 13-C , 14-C ) :   1.6158 B( 13-C , 15-Br) :   1.0216
B( 14-C , 67-H ) :   1.0000 B( 16-C , 17-O ) :   2.2195 B( 16-C , 18-C ) :   0.9265
B( 18-C , 19-C ) :   1.6194 B( 19-C , 20-C ) :   1.1567 B( 19-C , 68-H ) :   0.9339
B( 20-C , 21-O ) :   1.1226 B( 20-C , 22-C ) :   1.4365 B( 21-O , 29-C ) :   1.1724
B( 22-C , 23-C ) :   0.8644 B( 22-C , 28-C ) :   1.3187 B( 23-C , 24-O ) :   2.2532
B( 23-C , 25-N ) :   1.0761 B( 25-N , 26-C ) :   1.1092 B( 25-N , 69-H ) :   0.9152
B( 26-C , 27-O ) :   2.1689 B( 26-C , 28-C ) :   0.8876 B( 28-C , 29-C ) :   1.3900
B( 29-C , 30-C ) :   1.1341 B( 30-C , 31-C ) :   1.6564 B( 30-C , 70-H ) :   0.9769
B( 31-C , 32-C ) :   1.1119 B( 31-C , 71-H ) :   0.9550 B( 32-C , 33-C ) :   1.7417
B( 32-C , 72-H ) :   0.9768 B( 33-C , 34-C ) :   1.0766 B( 33-C , 35-C ) :   1.0409
B( 34-C , 73-H ) :   0.9515 B( 34-C , 74-H ) :   0.9414 B( 34-C , 75-H ) :   0.9458
B( 35-C , 36-N ) :   0.9952 B( 35-C , 76-H ) :   0.9296 B( 35-C , 77-H ) :   0.9377
B( 36-N , 37-C ) :   1.2598 B( 36-N , 78-H ) :   0.9346 B( 37-C , 38-C ) :   1.5530
B( 37-C , 79-H ) :   0.9688 B( 38-C , 39-C ) :   1.2023 B( 38-C , 80-H ) :   0.9648
B( 39-C , 40-C ) :   1.5529 B( 39-C , 81-H ) :   0.9794 B( 40-C , 41-C ) :   1.1653
B( 40-C , 44-S ) :   1.0103 B( 41-C , 42-C ) :   1.5648 B( 41-C , 82-H ) :   0.9982
B( 42-C , 43-C ) :   1.2090 B( 42-C , 83-H ) :   0.9943 B( 43-C , 44-S ) :   1.0857
B( 43-C , 45-C ) :   1.4555 B( 45-C , 46-C ) :   1.2323 B( 45-C , 49-S ) :   1.0315
B( 46-C , 47-C ) :   1.5293 B( 46-C , 84-H ) :   0.9941 B( 47-C , 48-C ) :   1.1894
B( 47-C , 85-H ) :   1.0024 B( 48-C , 49-S ) :   1.0762 B( 48-C , 50-C ) :   1.4322
B( 50-C , 51-C ) :   1.2291 B( 50-C , 86-H ) :   0.9751 B( 51-C , 52-C ) :   1.5118
B( 51-C , 87-H ) :   0.9651 B( 52-C , 53-C ) :   1.0042 B( 52-C , 57-C ) :   1.0099
B( 53-C , 54-O ) :   2.2772 B( 53-C , 55-C ) :   0.8695 B( 55-C , 56-C ) :   1.3915
B( 55-C , 62-C ) :   1.3142 B( 56-C , 57-C ) :   0.8911 B( 56-C , 59-C ) :   1.3149
B( 57-C , 58-O ) :   2.2147 B( 59-C , 60-C ) :   1.3483 B( 59-C , 64-F ) :   1.1900
B( 60-C , 61-C ) :   1.3448 B( 60-C , 88-H ) :   0.9902 B( 61-C , 62-C ) :   1.3455
B( 61-C , 89-H ) :   0.9911 B( 62-C , 63-F ) :   1.1910

-----------------------------------------------------------------------------
         ABSORPTION SPECTRUM VIA TRANSITION ELECTRIC DIPOLE MOMENTS
-----------------------------------------------------------------------------
State   Energy  Wavelength   fosc         T2         TX        TY        TZ
        (cm-1)    (nm)                  (au**2)     (au)      (au)      (au)
-----------------------------------------------------------------------------
   0   13316.2    751.0   1.189711722  29.41287   0.50596   3.89255   3.74231
   1   14526.6    688.4   0.262486340   5.94867   0.77021   2.16815   0.80905
   2   20654.2    484.2   0.956885237  15.25203  -2.33507  -1.92802   2.46622
   3   20952.4    477.3   0.030209461   0.47466  -0.51013  -0.11639   0.44820
   4   23710.5    421.8   0.002916958   0.04050   0.09545   0.10888  -0.13977
   5   24532.0    407.6   0.012605577   0.16916   0.17935   0.36276  -0.07350
   6   25140.0    397.8   0.005917991   0.07750  -0.05431   0.19882   0.18713
   7   25398.3    393.7   0.000004507   0.00006  -0.00014  -0.00328  -0.00690
   8   25516.2    391.9   0.216666264   2.79544   0.37883  -0.35683   1.58890
   9   26520.6    377.1   0.191424723   2.37624   1.07243   0.74050  -0.82329
  10   27460.2    364.2   0.605657039   7.26103  -1.49322  -0.94438   2.03457
  11   28096.3    355.9   0.241802617   2.83327   1.13436   0.68908  -1.03521
  12   28287.3    353.5   0.032711373   0.38070  -0.57845  -0.20885  -0.04974
  13   28613.5    349.5   0.149600094   1.72122   0.02447   0.11655  -1.30654
  14   29064.0    344.1   0.000134946   0.00153   0.03839   0.00635  -0.00382
  15   30152.3    331.6   0.486688646   5.31381   0.10069  -1.51024   1.73864
  16   32063.3    311.9   0.024850108   0.25515  -0.47277  -0.14180  -0.10738
  17   32094.2    311.6   0.248038269   2.54429   0.73986  -0.13883   1.40628
  18   32485.4    307.8   0.314739161   3.18961   0.79548   0.01180   1.59896
  19   33043.6    302.6   0.004620805   0.04604  -0.21196   0.00835  -0.03224
  20   33273.4    300.5   0.000782402   0.00774  -0.05750  -0.06186  -0.02466
  21   33359.4    299.8   0.000086242   0.00085   0.01278  -0.01872   0.01836
  22   33423.7    299.2   0.000577399   0.00569  -0.02869   0.04538  -0.05296
  23   33458.2    298.9   0.000888390   0.00874   0.02005  -0.07731  -0.04861
  24   33517.8    298.3   0.004088550   0.04016  -0.18262   0.03547  -0.07449
  25   33572.2    297.9   0.028797164   0.28239  -0.22419  -0.33368   0.34754
  26   34243.7    292.0   0.016155246   0.15531   0.12329   0.33864  -0.15949
  27   34450.3    290.3   0.084704876   0.80945  -0.65620  -0.56203   0.25095
  28   34550.3    289.4   0.018357663   0.17492   0.23600  -0.23077  -0.25685
  29   35839.2    279.0   0.000043487   0.00040   0.01393   0.00304  -0.01401
  30   36125.1    276.8   0.042892703   0.39089  -0.08302  -0.53337  -0.31546
  31   36449.3    274.4   0.000031155   0.00028   0.00076   0.00850   0.01444
  32   36988.9    270.4   0.217872517   1.93913  -1.19886  -0.50888   0.49285
  33   37401.5    267.4   0.008256072   0.07267  -0.23946  -0.10451  -0.06638
  34   38314.3    261.0   0.029295082   0.25171  -0.38476  -0.31514   0.06599
  35   38370.3    260.6   0.000031695   0.00027   0.01470   0.00692   0.00284
  36   38620.8    258.9   0.001597809   0.01362   0.01113   0.11441  -0.02016
  37   38665.4    258.6   0.013366037   0.11380  -0.22818  -0.24835  -0.00781
  38   39311.1    254.4   0.035161199   0.29446  -0.52137  -0.08044  -0.12712
  39   39426.8    253.6   0.045232773   0.37769   0.32646   0.39865  -0.33495
  40   39659.9    252.1   0.134447200   1.11603  -0.88303  -0.31632   0.48603
  41   39666.5    252.1   0.002713771   0.02252   0.12899   0.04857  -0.05938
  42   39745.9    251.6   0.030431233   0.25206  -0.44445  -0.13538  -0.19025
  43   40078.5    249.5   0.080272022   0.65937   0.13085   0.69233   0.40364
  44   40246.6    248.5   0.002580854   0.02111   0.01243  -0.11166  -0.09213

FINAL SINGLE POINT ENERGY     -6517.005750977482

DIPOLE MOMENT
-------------
                                X             Y             Z
Electronic contribution:    -57.13933     -80.29790     178.22699
Nuclear contribution   :     59.77395      85.46608    -174.44607
                        -----------------------------------------
Total Dipole Moment    :      2.63462       5.16819       3.78092
                        -----------------------------------------
Magnitude (a.u.)       :      6.92436
Magnitude (Debye)      :     17.60032

Rotational constants in cm-1:     0.001068     0.000192     0.000170
Rotational constants in MHz :    32.013007     5.767305     5.086478

                             ****ORCA TERMINATED NORMALLY****
TOTAL RUN TIME: 0 days 0 hours 7 minutes 27 seconds 973 msec
