                         Program Version 4.2.0 -  RELEASE  -
|  1> # ORCA input file
|  2> # SCF done       -170.666940053274          0.000860664327
|  3> ! CAM-B3LYP def2-SVP def2/J RIJCOSX Grid4 TightSCF
|  4> %maxcore 5000
|  5> %tddft
|  6>     Mode sTDDFT
|  7>     Ethresh 5.0
|  8>     maxcore 5000
|  9> end
| 10>
| 11> %pal
| 12>   nprocs 6
| 13>   end
| 14> * xyz 0 1
| 15>    C       -5.92503         4.30669         4.76457
| 16>    C       -7.21910         3.88717         4.95153
| 17>    C       -7.80790         3.67204         6.21406
| 18>    N       -8.34775         3.49047         7.21119
| 19>    C       -8.13773         3.61317         3.91804
| 20>    N       -8.94002         3.36489         3.13446
| 21>    C       -4.94826         4.54228         5.82247
| 22>    C       -3.71881         4.92367         5.23224
| 23>    C       -2.59668         5.20740         5.97074
| 24>    C       -2.68886         5.10184         7.36257
| 25>    C       -3.92192         4.72400         7.94504
| 26>    C       -5.05863         4.44233         7.19723
| 27>    S       -3.81755         4.66484         9.67876
| 28>    C       -2.14156         5.14006         9.59746
| 29>    C       -1.68154         5.33328         8.33908
| 30>   Br       -1.15886         5.33866        11.18201
| 31>    C       -3.86883         4.97178         3.76598
| 32>    O       -3.07160         5.42573         2.97725
| 33>    C       -5.26484         4.52459         3.49680
| 34>    C       -5.83126         4.50171         2.25354
| 35>    C       -5.07947         4.46187         1.05915
| 36>    O       -5.63810         4.89445        -0.11036
| 37>    C       -3.81959         3.95738         0.77746
| 38>    C       -2.67673         3.20414         1.33737
| 39>    O       -2.51014         2.74118         2.43555
| 40>    N       -1.81653         3.06247         0.26176
| 41>    C       -2.28405         3.57716        -0.94047
| 42>    O       -1.69237         3.55011        -1.99124
| 43>    C       -3.60555         4.12250        -0.60010
| 44>    C       -4.75223         4.71568        -1.12540
| 45>    C       -5.02369         5.08060        -2.45490
| 46>    C       -6.19658         5.64345        -2.88500
| 47>    C       -6.52195         6.01520        -4.19790
| 48>    C       -5.76197         5.89314        -5.34327
| 49>    C       -6.16664         6.29687        -6.64309
| 50>    C       -5.24692         6.07246        -7.62384
| 51>    C       -4.05668         5.47703        -7.15456
| 52>    S       -4.15607         5.21263        -5.42588
| 53>    C       -2.90859         5.10813        -7.82413
| 54>    C       -2.58023         5.22545        -9.19872
| 55>    C       -1.34062         4.76774        -9.50747
| 56>    C       -0.60267         4.26540        -8.39266
| 57>    S       -1.58857         4.38882        -6.93716
| 58>    C        0.62778         3.69093        -8.39994
| 59>    C        1.31853         3.19017        -7.23704
| 60>    C        1.49779         3.81939        -6.06717
| 61>    C        1.14932         5.25078        -5.81430
| 62>    C        2.11316         3.15452        -4.86274
| 63>    N        2.62399         1.82990        -5.09952
| 64>    C        2.59559         0.82360        -4.20225
| 65>    C        2.02560         0.84187        -2.97335
| 66>    C        2.00963        -0.28614        -2.11700
| 67>    O        2.52862        -1.48797        -2.49242
| 68>    C        1.51651        -0.41253        -0.83268
| 69>    C        0.86624         0.29387         0.25088
| 70>    O        0.50827         1.44775         0.35225
| 71>    N        0.72313        -0.66790         1.24771
| 72>    C        1.23008        -1.92823         0.93080
| 73>    O        1.20880        -2.88546         1.66106
| 74>    C        1.74940        -1.75750        -0.42830
| 75>    C        2.37459        -2.38841        -1.47403
| 76>    C        2.83783        -3.73926        -1.60611
| 77>    C        3.44066        -4.22211        -2.69107
| 78>    H       -1.67560         5.49361         5.48759
| 79>    H       -5.97525         4.16275         7.68899
| 80>    H       -0.67448         5.62775         8.10581
| 81>    H       -6.90635         4.51288         2.13420
| 82>    H       -0.92290         2.57692         0.33869
| 83>    H       -4.20787         4.87300        -3.12752
| 84>    H       -6.95863         5.82199        -2.13743
| 85>    H       -7.50080         6.45459        -4.34327
| 86>    H       -7.13070         6.74448        -6.81061
| 87>    H       -5.39240         6.31839        -8.66061
| 88>    H       -3.27128         5.64132        -9.91021
| 89>    H       -0.91592         4.77479       -10.49603
| 90>    H        1.08863         3.50398        -9.36232
| 91>    H        1.72819         2.19520        -7.36849
| 92>    H        0.89969         5.76937        -6.73477
| 93>    H        1.99163         5.75814        -5.34528
| 94>    H        0.30340         5.32072        -5.13095
| 95>    H        1.32824         3.09012        -4.10341
| 96>    H        2.90502         3.80333        -4.45801
| 97>    H        3.24233         1.73237        -5.88891
| 98>    H        3.07119        -0.08904        -4.53635
| 99>    H        1.54797         1.71598        -2.56314
|100>    H        0.29035        -0.46426         2.13771
|101>    H        2.65633        -4.35258        -0.73521
|102>    H        3.61659        -3.60406        -3.55522
|103>    H        3.77218        -5.24324        -2.74300
|104> *
|105>
|106>                          ****END OF INPUT****

CARTESIAN COORDINATES (ANGSTROEM)
---------------------------------
  C     -5.925030    4.306690    4.764570
  C     -7.219100    3.887170    4.951530
  C     -7.807900    3.672040    6.214060
  N     -8.347750    3.490470    7.211190
  C     -8.137730    3.613170    3.918040
  N     -8.940020    3.364890    3.134460
  C     -4.948260    4.542280    5.822470
  C     -3.718810    4.923670    5.232240
  C     -2.596680    5.207400    5.970740
  C     -2.688860    5.101840    7.362570
  C     -3.921920    4.724000    7.945040
  C     -5.058630    4.442330    7.197230
  S     -3.817550    4.664840    9.678760
  C     -2.141560    5.140060    9.597460
  C     -1.681540    5.333280    8.339080
  Br    -1.158860    5.338660   11.182010
  C     -3.868830    4.971780    3.765980
  O     -3.071600    5.425730    2.977250
  C     -5.264840    4.524590    3.496800
  C     -5.831260    4.501710    2.253540
  C     -5.079470    4.461870    1.059150
  O     -5.638100    4.894450   -0.110360
  C     -3.819590    3.957380    0.777460
  C     -2.676730    3.204140    1.337370
  O     -2.510140    2.741180    2.435550
  N     -1.816530    3.062470    0.261760
  C     -2.284050    3.577160   -0.940470
  O     -1.692370    3.550110   -1.991240
  C     -3.605550    4.122500   -0.600100
  C     -4.752230    4.715680   -1.125400
  C     -5.023690    5.080600   -2.454900
  C     -6.196580    5.643450   -2.885000
  C     -6.521950    6.015200   -4.197900
  C     -5.761970    5.893140   -5.343270
  C     -6.166640    6.296870   -6.643090
  C     -5.246920    6.072460   -7.623840
  C     -4.056680    5.477030   -7.154560
  S     -4.156070    5.212630   -5.425880
  C     -2.908590    5.108130   -7.824130
  C     -2.580230    5.225450   -9.198720
  C     -1.340620    4.767740   -9.507470
  C     -0.602670    4.265400   -8.392660
  S     -1.588570    4.388820   -6.937160
  C      0.627780    3.690930   -8.399940
  C      1.318530    3.190170   -7.237040
  C      1.497790    3.819390   -6.067170
  C      1.149320    5.250780   -5.814300
  C      2.113160    3.154520   -4.862740
  N      2.623990    1.829900   -5.099520
  C      2.595590    0.823600   -4.202250
  C      2.025600    0.841870   -2.973350
  C      2.009630   -0.286140   -2.117000
  O      2.528620   -1.487970   -2.492420
  C      1.516510   -0.412530   -0.832680
  C      0.866240    0.293870    0.250880
  O      0.508270    1.447750    0.352250
  N      0.723130   -0.667900    1.247710
  C      1.230080   -1.928230    0.930800
  O      1.208800   -2.885460    1.661060
  C      1.749400   -1.757500   -0.428300
  C      2.374590   -2.388410   -1.474030
  C      2.837830   -3.739260   -1.606110
  C      3.440660   -4.222110   -2.691070
  H     -1.675600    5.493610    5.487590
  H     -5.975250    4.162750    7.688990
  H     -0.674480    5.627750    8.105810
  H     -6.906350    4.512880    2.134200
  H     -0.922900    2.576920    0.338690
  H     -4.207870    4.873000   -3.127520
  H     -6.958630    5.821990   -2.137430
  H     -7.500800    6.454590   -4.343270
  H     -7.130700    6.744480   -6.810610
  H     -5.392400    6.318390   -8.660610
  H     -3.271280    5.641320   -9.910210
  H     -0.915920    4.774790  -10.496030
  H      1.088630    3.503980   -9.362320
  H      1.728190    2.195200   -7.368490
  H      0.899690    5.769370   -6.734770
  H      1.991630    5.758140   -5.345280
  H      0.303400    5.320720   -5.130950
  H      1.328240    3.090120   -4.103410
  H      2.905020    3.803330   -4.458010
  H      3.242330    1.732370   -5.888910
  H      3.071190   -0.089040   -4.536350
  H      1.547970    1.715980   -2.563140
  H      0.290350   -0.464260    2.137710
  H      2.656330   -4.352580   -0.735210
  H      3.616590   -3.604060   -3.555220
  H      3.772180   -5.243240   -2.743000

 Total Charge           Charge          ....    0
 Multiplicity           Mult            ....    1
 Number of Electrons    NEL             ....  482
 Basis Dimension        Dim             .... 1042

ORBITAL ENERGIES
----------------

  NO   OCC          E(Eh)            E(eV)
   0   2.0000    -482.878552    -13139.7934
   1   2.0000     -88.967060     -2420.9168
   2   2.0000     -88.953652     -2420.5519
   3   2.0000     -88.951141     -2420.4836
   4   2.0000     -62.556298     -1702.2434
   5   2.0000     -56.390239     -1534.4564
   6   2.0000     -56.387537     -1534.3829
   7   2.0000     -56.387502     -1534.3819
   8   2.0000     -19.300556      -525.1948
   9   2.0000     -19.296741      -525.0910
  10   2.0000     -19.204233      -522.5737
  11   2.0000     -19.203112      -522.5432
  12   2.0000     -19.198462      -522.4167
  13   2.0000     -19.196052      -522.3511
  14   2.0000     -19.195576      -522.3382
  15   2.0000     -14.451580      -393.2475
  16   2.0000     -14.444166      -393.0457
  17   2.0000     -14.426918      -392.5764
  18   2.0000     -14.406345      -392.0166
  19   2.0000     -14.405696      -391.9989
  20   2.0000     -10.392589      -282.7967
  21   2.0000     -10.387781      -282.6659
  22   2.0000     -10.383644      -282.5533
  23   2.0000     -10.382911      -282.5334
  24   2.0000     -10.356382      -281.8115
  25   2.0000     -10.355974      -281.8004
  26   2.0000     -10.353305      -281.7278
  27   2.0000     -10.350775      -281.6589
  28   2.0000     -10.346952      -281.5549
  29   2.0000     -10.343747      -281.4677
  30   2.0000     -10.331991      -281.1478
  31   2.0000     -10.331417      -281.1322
  32   2.0000     -10.331385      -281.1313
  33   2.0000     -10.323960      -280.9292
  34   2.0000     -10.320161      -280.8259
  35   2.0000     -10.317010      -280.7401
  36   2.0000     -10.316515      -280.7267
  37   2.0000     -10.316453      -280.7250
  38   2.0000     -10.315229      -280.6916
  39   2.0000     -10.311386      -280.5871
  40   2.0000     -10.309332      -280.5312
  41   2.0000     -10.308919      -280.5200
  42   2.0000     -10.299509      -280.2639
  43   2.0000     -10.298952      -280.2487
  44   2.0000     -10.298424      -280.2344
  45   2.0000     -10.298255      -280.2298
  46   2.0000     -10.296464      -280.1810
  47   2.0000     -10.296381      -280.1788
  48   2.0000     -10.295833      -280.1639
  49   2.0000     -10.293773      -280.1078
  50   2.0000     -10.291489      -280.0456
  51   2.0000     -10.290449      -280.0173
  52   2.0000     -10.290385      -280.0156
  53   2.0000     -10.288524      -279.9650
  54   2.0000     -10.288415      -279.9620
  55   2.0000     -10.288026      -279.9514
  56   2.0000     -10.283060      -279.8163
  57   2.0000     -10.281369      -279.7703
  58   2.0000     -10.280546      -279.7479
  59   2.0000     -10.280507      -279.7468
  60   2.0000     -10.279462      -279.7184
  61   2.0000     -10.277597      -279.6676
  62   2.0000     -10.275328      -279.6059
  63   2.0000     -10.272226      -279.5215
  64   2.0000     -10.267989      -279.4062
  65   2.0000     -10.266295      -279.3601
  66   2.0000     -10.265565      -279.3402
  67   2.0000      -8.785751      -239.0724
  68   2.0000      -8.063046      -219.4066
  69   2.0000      -8.049479      -219.0375
  70   2.0000      -8.047225      -218.9761
  71   2.0000      -6.622027      -180.1945
  72   2.0000      -6.607496      -179.7991
  73   2.0000      -6.607305      -179.7939
  74   2.0000      -6.032736      -164.1591
  75   2.0000      -6.028481      -164.0433
  76   2.0000      -6.024259      -163.9284
  77   2.0000      -6.019131      -163.7889
  78   2.0000      -6.017068      -163.7328
  79   2.0000      -6.015043      -163.6776
  80   2.0000      -6.012895      -163.6192
  81   2.0000      -6.010619      -163.5573
  82   2.0000      -6.007983      -163.4855
  83   2.0000      -2.737881       -74.5015
  84   2.0000      -2.733847       -74.3918
  85   2.0000      -2.733679       -74.3872
  86   2.0000      -2.722136       -74.0731
  87   2.0000      -2.722122       -74.0727
  88   2.0000      -1.215357       -33.0715
  89   2.0000      -1.210646       -32.9433
  90   2.0000      -1.144800       -31.1516
  91   2.0000      -1.138449       -30.9788
  92   2.0000      -1.123852       -30.5816
  93   2.0000      -1.121821       -30.5263
  94   2.0000      -1.115665       -30.3588
  95   2.0000      -1.049416       -28.5561
  96   2.0000      -1.031638       -28.0723
  97   2.0000      -1.024542       -27.8792
  98   2.0000      -1.013446       -27.5773
  99   2.0000      -1.004753       -27.3407
 100   2.0000      -1.004219       -27.3262
 101   2.0000      -0.984712       -26.7954
 102   2.0000      -0.981834       -26.7171
 103   2.0000      -0.980045       -26.6684
 104   2.0000      -0.936722       -25.4895
 105   2.0000      -0.929320       -25.2881
 106   2.0000      -0.922261       -25.0960
 107   2.0000      -0.912546       -24.8316
 108   2.0000      -0.911186       -24.7946
 109   2.0000      -0.907897       -24.7051
 110   2.0000      -0.900190       -24.4954
 111   2.0000      -0.899368       -24.4730
 112   2.0000      -0.885075       -24.0841
 113   2.0000      -0.876467       -23.8499
 114   2.0000      -0.871604       -23.7175
 115   2.0000      -0.865004       -23.5380
 116   2.0000      -0.857144       -23.3241
 117   2.0000      -0.847681       -23.0666
 118   2.0000      -0.829887       -22.5824
 119   2.0000      -0.824568       -22.4376
 120   2.0000      -0.819878       -22.3100
 121   2.0000      -0.811583       -22.0843
 122   2.0000      -0.800771       -21.7901
 123   2.0000      -0.784774       -21.3548
 124   2.0000      -0.779644       -21.2152
 125   2.0000      -0.761538       -20.7225
 126   2.0000      -0.756749       -20.5922
 127   2.0000      -0.752828       -20.4855
 128   2.0000      -0.749930       -20.4066
 129   2.0000      -0.747422       -20.3384
 130   2.0000      -0.741619       -20.1805
 131   2.0000      -0.729962       -19.8633
 132   2.0000      -0.705600       -19.2003
 133   2.0000      -0.703961       -19.1558
 134   2.0000      -0.691603       -18.8195
 135   2.0000      -0.689654       -18.7664
 136   2.0000      -0.688868       -18.7450
 137   2.0000      -0.680844       -18.5267
 138   2.0000      -0.673469       -18.3260
 139   2.0000      -0.665655       -18.1134
 140   2.0000      -0.663845       -18.0641
 141   2.0000      -0.655972       -17.8499
 142   2.0000      -0.647676       -17.6241
 143   2.0000      -0.638416       -17.3722
 144   2.0000      -0.631773       -17.1914
 145   2.0000      -0.626867       -17.0579
 146   2.0000      -0.622333       -16.9345
 147   2.0000      -0.614003       -16.7079
 148   2.0000      -0.602475       -16.3942
 149   2.0000      -0.599875       -16.3234
 150   2.0000      -0.595396       -16.2016
 151   2.0000      -0.592004       -16.1093
 152   2.0000      -0.585489       -15.9320
 153   2.0000      -0.583678       -15.8827
 154   2.0000      -0.581690       -15.8286
 155   2.0000      -0.575097       -15.6492
 156   2.0000      -0.571388       -15.5483
 157   2.0000      -0.571195       -15.5430
 158   2.0000      -0.569519       -15.4974
 159   2.0000      -0.567790       -15.4504
 160   2.0000      -0.564907       -15.3719
 161   2.0000      -0.563778       -15.3412
 162   2.0000      -0.555050       -15.1037
 163   2.0000      -0.545331       -14.8392
 164   2.0000      -0.543698       -14.7948
 165   2.0000      -0.541744       -14.7416
 166   2.0000      -0.538553       -14.6548
 167   2.0000      -0.535079       -14.5602
 168   2.0000      -0.531655       -14.4671
 169   2.0000      -0.530497       -14.4355
 170   2.0000      -0.527484       -14.3536
 171   2.0000      -0.525088       -14.2884
 172   2.0000      -0.524016       -14.2592
 173   2.0000      -0.517585       -14.0842
 174   2.0000      -0.515833       -14.0365
 175   2.0000      -0.513052       -13.9609
 176   2.0000      -0.511688       -13.9237
 177   2.0000      -0.507236       -13.8026
 178   2.0000      -0.506011       -13.7693
 179   2.0000      -0.503482       -13.7004
 180   2.0000      -0.502276       -13.6676
 181   2.0000      -0.501019       -13.6334
 182   2.0000      -0.499692       -13.5973
 183   2.0000      -0.497380       -13.5344
 184   2.0000      -0.494585       -13.4583
 185   2.0000      -0.492719       -13.4076
 186   2.0000      -0.491052       -13.3622
 187   2.0000      -0.488100       -13.2819
 188   2.0000      -0.484189       -13.1754
 189   2.0000      -0.480014       -13.0618
 190   2.0000      -0.474054       -12.8997
 191   2.0000      -0.472442       -12.8558
 192   2.0000      -0.470404       -12.8003
 193   2.0000      -0.467573       -12.7233
 194   2.0000      -0.465544       -12.6681
 195   2.0000      -0.462627       -12.5887
 196   2.0000      -0.462049       -12.5730
 197   2.0000      -0.457640       -12.4530
 198   2.0000      -0.451309       -12.2807
 199   2.0000      -0.449524       -12.2322
 200   2.0000      -0.447358       -12.1732
 201   2.0000      -0.443636       -12.0719
 202   2.0000      -0.439986       -11.9726
 203   2.0000      -0.439165       -11.9503
 204   2.0000      -0.436564       -11.8795
 205   2.0000      -0.434887       -11.8339
 206   2.0000      -0.433051       -11.7839
 207   2.0000      -0.432822       -11.7777
 208   2.0000      -0.430307       -11.7093
 209   2.0000      -0.424748       -11.5580
 210   2.0000      -0.420857       -11.4521
 211   2.0000      -0.417813       -11.3693
 212   2.0000      -0.415220       -11.2987
 213   2.0000      -0.406580       -11.0636
 214   2.0000      -0.399652       -10.8751
 215   2.0000      -0.399062       -10.8590
 216   2.0000      -0.392455       -10.6793
 217   2.0000      -0.389542       -10.6000
 218   2.0000      -0.379598       -10.3294
 219   2.0000      -0.373392       -10.1605
 220   2.0000      -0.368052       -10.0152
 221   2.0000      -0.366796        -9.9810
 222   2.0000      -0.364953        -9.9309
 223   2.0000      -0.361397        -9.8341
 224   2.0000      -0.355448        -9.6722
 225   2.0000      -0.354205        -9.6384
 226   2.0000      -0.351599        -9.5675
 227   2.0000      -0.346157        -9.4194
 228   2.0000      -0.340703        -9.2710
 229   2.0000      -0.337019        -9.1707
 230   2.0000      -0.331050        -9.0083
 231   2.0000      -0.329455        -8.9649
 232   2.0000      -0.329335        -8.9617
 233   2.0000      -0.326184        -8.8759
 234   2.0000      -0.322382        -8.7725
 235   2.0000      -0.307108        -8.3568
 236   2.0000      -0.305038        -8.3005
 237   2.0000      -0.285286        -7.7630
 238   2.0000      -0.270069        -7.3490
 239   2.0000      -0.247262        -6.7283
 240   2.0000      -0.221882        -6.0377
 241   0.0000      -0.099428        -2.7056
 242   0.0000      -0.076341        -2.0773
 243   0.0000      -0.050627        -1.3776
 244   0.0000      -0.029245        -0.7958
 245   0.0000      -0.026435        -0.7193

MULLIKEN ATOMIC CHARGES
-----------------------
   0 C :    0.310448
   1 C :   -0.350361
   2 C :   -0.183366
   3 N :    0.142836
   4 C :   -0.197093
   5 N :    0.154323
   6 C :    0.020710
   7 C :   -0.014080
   8 C :   -0.064439
   9 C :    0.116179
  10 C :   -0.089731
  11 C :   -0.024532
  12 S :    0.181842
  13 C :   -0.124918
  14 C :    0.041523
  15 Br:    0.018914
  16 C :    0.160587
  17 O :   -0.150442
  18 C :   -0.088926
  19 C :   -0.027856
  20 C :    0.110332
  21 O :   -0.207536
  22 C :   -0.007317
  23 C :    0.179179
  24 O :   -0.154666
  25 N :   -0.159122
  26 C :    0.168191
  27 O :   -0.165145
  28 C :   -0.058295
  29 C :    0.107754
  30 C :   -0.060039
  31 C :    0.041621
  32 C :   -0.007801
  33 C :   -0.012045
  34 C :    0.036116
  35 C :    0.034667
  36 C :   -0.038812
  37 S :    0.060425
  38 C :   -0.046223
  39 C :    0.031648
  40 C :    0.050699
  41 C :   -0.038017
  42 S :    0.093420
  43 C :   -0.021949
  44 C :   -0.009536
  45 C :   -0.231036
  46 C :    0.087247
  47 C :    0.209391
  48 N :   -0.147303
  49 C :    0.088711
  50 C :   -0.106187
  51 C :    0.105253
  52 O :   -0.230020
  53 C :   -0.047529
  54 C :    0.191852
  55 O :   -0.205737
  56 N :   -0.162322
  57 C :    0.159819
  58 O :   -0.145614
  59 C :   -0.024440
  60 C :    0.051070
  61 C :   -0.021752
  62 C :    0.010339
  63 H :   -0.010527
  64 H :   -0.008004
  65 H :   -0.004391
  66 H :    0.031090
  67 H :    0.143447
  68 H :    0.020047
  69 H :    0.005210
  70 H :   -0.013560
  71 H :   -0.009910
  72 H :   -0.011135
  73 H :   -0.009016
  74 H :   -0.006846
  75 H :   -0.000312
  76 H :   -0.017968
  77 H :    0.028649
  78 H :    0.019603
  79 H :    0.052369
  80 H :    0.066054
  81 H :    0.024259
  82 H :    0.133758
  83 H :    0.016197
  84 H :    0.007803
  85 H :    0.140382
  86 H :    0.013938
  87 H :    0.021055
  88 H :    0.026899
Sum of atomic charges:   -0.0000000

LOEWDIN ATOMIC CHARGES
----------------------
   0 C :    0.074976
   1 C :   -0.142491
   2 C :   -0.017823
   3 N :   -0.057860
   4 C :   -0.021512
   5 N :   -0.054894
   6 C :   -0.018502
   7 C :   -0.043126
   8 C :    0.024662
   9 C :   -0.032589
  10 C :   -0.143800
  11 C :   -0.011671
  12 S :    0.429167
  13 C :   -0.272836
  14 C :   -0.069777
  15 Br:    0.133319
  16 C :    0.088988
  17 O :   -0.135329
  18 C :   -0.080507
  19 C :    0.047617
  20 C :    0.038288
  21 O :    0.012235
  22 C :   -0.042047
  23 C :    0.087387
  24 O :   -0.156470
  25 N :    0.003817
  26 C :    0.086475
  27 O :   -0.176125
  28 C :   -0.101819
  29 C :    0.086460
  30 C :   -0.071057
  31 C :    0.002585
  32 C :   -0.075559
  33 C :   -0.127104
  34 C :   -0.034748
  35 C :   -0.028006
  36 C :   -0.188410
  37 S :    0.410213
  38 C :   -0.162407
  39 C :   -0.033848
  40 C :   -0.019166
  41 C :   -0.147905
  42 S :    0.403524
  43 C :   -0.044794
  44 C :   -0.073702
  45 C :   -0.022190
  46 C :   -0.057655
  47 C :    0.044775
  48 N :    0.009351
  49 C :    0.066701
  50 C :   -0.145759
  51 C :    0.098011
  52 O :   -0.001152
  53 C :   -0.135882
  54 C :    0.107086
  55 O :   -0.188927
  56 N :   -0.002695
  57 C :    0.085486
  58 O :   -0.162370
  59 C :   -0.094669
  60 C :    0.058485
  61 C :   -0.035864
  62 C :   -0.027954
  63 H :    0.041519
  64 H :    0.040364
  65 H :    0.038503
  66 H :    0.050641
  67 H :    0.074409
  68 H :    0.022378
  69 H :    0.037653
  70 H :    0.035313
  71 H :    0.034474
  72 H :    0.033251
  73 H :    0.033889
  74 H :    0.035220
  75 H :    0.033496
  76 H :    0.021972
  77 H :    0.031220
  78 H :    0.032705
  79 H :    0.036862
  80 H :    0.052174
  81 H :    0.028185
  82 H :    0.079556
  83 H :    0.032650
  84 H :    0.040211
  85 H :    0.095714
  86 H :    0.046471
  87 H :    0.023849
  88 H :    0.028711

  Mayer bond orders larger than 0.100000
B(  0-C ,  1-C ) :   1.6207 B(  0-C ,  6-C ) :   1.0060 B(  0-C , 18-C ) :   1.0947
B(  1-C ,  2-C ) :   1.1431 B(  1-C ,  4-C ) :   1.1468 B(  2-C ,  3-N ) :   2.9659
B(  4-C ,  5-N ) :   2.9804 B(  6-C ,  7-C ) :   1.2758 B(  6-C , 11-C ) :   1.4062
B(  7-C ,  8-C ) :   1.4309 B(  7-C , 16-C ) :   0.9388 B(  8-C ,  9-C ) :   1.2448
B(  8-C , 63-H ) :   1.0152 B(  9-C , 10-C ) :   1.3067 B(  9-C , 14-C ) :   1.1623
B( 10-C , 11-C ) :   1.3335 B( 10-C , 12-S ) :   1.0832 B( 11-C , 64-H ) :   0.9789
B( 12-S , 13-C ) :   1.0854 B( 13-C , 14-C ) :   1.6194 B( 13-C , 15-Br) :   1.0162
B( 14-C , 65-H ) :   0.9998 B( 16-C , 17-O ) :   2.2158 B( 16-C , 18-C ) :   0.9339
B( 18-C , 19-C ) :   1.5625 B( 19-C , 20-C ) :   1.1950 B( 19-C , 66-H ) :   0.9376
B( 20-C , 21-O ) :   1.1103 B( 20-C , 22-C ) :   1.4051 B( 21-O , 29-C ) :   1.1739
B( 22-C , 23-C ) :   0.8564 B( 22-C , 28-C ) :   1.3421 B( 23-C , 24-O ) :   2.2207
B( 23-C , 25-N ) :   1.1216 B( 25-N , 26-C ) :   1.1101 B( 25-N , 67-H ) :   0.8614
B( 26-C , 27-O ) :   2.2231 B( 26-C , 28-C ) :   0.8801 B( 28-C , 29-C ) :   1.3118
B( 29-C , 30-C ) :   1.2659 B( 30-C , 31-C ) :   1.5250 B( 30-C , 68-H ) :   0.9265
B( 31-C , 32-C ) :   1.2256 B( 31-C , 69-H ) :   0.9769 B( 32-C , 33-C ) :   1.5250
B( 32-C , 70-H ) :   0.9647 B( 33-C , 34-C ) :   1.1582 B( 33-C , 37-S ) :   1.0661
B( 34-C , 35-C ) :   1.5836 B( 34-C , 71-H ) :   0.9986 B( 35-C , 36-C ) :   1.1908
B( 35-C , 72-H ) :   0.9934 B( 36-C , 37-S ) :   1.0349 B( 36-C , 38-C ) :   1.5124
B( 38-C , 39-C ) :   1.1656 B( 38-C , 42-S ) :   1.0670 B( 39-C , 40-C ) :   1.6286
B( 39-C , 73-H ) :   0.9943 B( 40-C , 41-C ) :   1.1045 B( 40-C , 74-H ) :   0.9972
B( 41-C , 42-S ) :   1.0279 B( 41-C , 43-C ) :   1.7128 B( 43-C , 44-C ) :   1.0389
B( 43-C , 75-H ) :   0.9534 B( 44-C , 45-C ) :   1.8533 B( 44-C , 76-H ) :   0.9293
B( 45-C , 46-C ) :   1.0888 B( 45-C , 47-C ) :   1.0086 B( 46-C , 77-H ) :   0.9476
B( 46-C , 78-H ) :   0.9450 B( 46-C , 79-H ) :   0.9404 B( 47-C , 48-N ) :   0.9979
B( 47-C , 80-H ) :   0.9178 B( 47-C , 81-H ) :   0.9335 B( 48-N , 49-C ) :   1.2563
B( 48-N , 82-H ) :   0.9287 B( 49-C , 50-C ) :   1.5760 B( 49-C , 83-H ) :   0.9649
B( 50-C , 51-C ) :   1.2360 B( 50-C , 84-H ) :   0.9391 B( 51-C , 52-O ) :   1.1531
B( 51-C , 53-C ) :   1.3844 B( 52-O , 60-C ) :   1.1186 B( 53-C , 54-C ) :   0.9329
B( 53-C , 59-C ) :   1.2326 B( 54-C , 55-O ) :   2.0620 B( 54-C , 56-N ) :   1.1044
B( 55-O , 67-H ) :   0.1151 B( 56-N , 57-C ) :   1.0726 B( 56-N , 85-H ) :   0.9130
B( 57-C , 58-O ) :   2.2665 B( 57-C , 59-C ) :   0.8805 B( 59-C , 60-C ) :   1.4702
B( 60-C , 61-C ) :   1.1490 B( 61-C , 62-C ) :   1.8984 B( 61-C , 86-H ) :   0.9514
B( 62-C , 87-H ) :   0.9584 B( 62-C , 88-H ) :   0.9444

-----------------------------------------------------------------------------
         ABSORPTION SPECTRUM VIA TRANSITION ELECTRIC DIPOLE MOMENTS
-----------------------------------------------------------------------------
State   Energy  Wavelength   fosc         T2         TX        TY        TZ
        (cm-1)    (nm)                  (au**2)     (au)      (au)      (au)
-----------------------------------------------------------------------------
   0   12776.0    782.7   1.206879837  31.09894  -2.10474   0.12148   5.16278
   1   18518.0    540.0   0.075593533   1.34390  -1.10964   0.33384   0.03395
   2   21034.5    475.4   0.009393374   0.14702  -0.06512   0.16890  -0.33801
   3   22134.8    451.8   0.133556398   1.98639  -0.29184   0.31105  -1.34330
   4   23591.4    423.9   0.017743698   0.24761  -0.10875  -0.24835   0.41726
   5   25455.4    392.8   0.003275688   0.04236   0.10179   0.15600  -0.08756
   6   26029.9    384.2   0.001900278   0.02403  -0.00172  -0.12090   0.09702
   7   26125.1    382.8   0.117257070   1.47760  -0.90119  -0.44568  -0.68324
   8   27630.5    361.9   0.796555178   9.49080   1.86339  -0.75960   2.33272
   9   28497.5    350.9   0.042292229   0.48857  -0.46410   0.51116  -0.10910
  10   28662.9    348.9   0.475436152   5.46069  -2.10927   0.89136  -0.46601
  11   29613.8    337.7   0.320530035   3.56328   0.83953  -0.80629  -1.48606
  12   30106.2    332.2   0.000465204   0.00509  -0.02978   0.05082   0.04022
  13   30500.5    327.9   0.068969487   0.74443   0.57413  -0.51361   0.38860
  14   31305.1    319.4   0.002775464   0.02919  -0.03168  -0.16260  -0.04177
  15   31399.7    318.5   0.030042413   0.31498   0.34468   0.26827   0.35243
  16   31943.9    313.0   0.170006638   1.75208   0.43490  -1.00513   0.74340
  17   32340.7    309.2   0.532888347   5.42453   0.54896   1.42236  -1.76070
  18   32590.3    306.8   0.605441813   6.11589   1.98322   0.60709   1.34692
  19   32957.5    303.4   0.026637382   0.26608  -0.04861  -0.35578   0.37032
  20   33008.3    303.0   0.001241895   0.01239   0.07394   0.08182  -0.01498
  21   33770.1    296.1   0.030264247   0.29503  -0.25348   0.31663   0.36129
  22   34088.6    293.4   0.045343724   0.43791  -0.29810  -0.13724  -0.57464
  23   34477.7    290.0   0.002157306   0.02060  -0.07868   0.04246   0.11228
  24   34598.4    289.0   0.019687943   0.18734   0.29636  -0.29878   0.10117
  25   34886.6    286.6   0.018319409   0.17287  -0.06181  -0.05161   0.40791
  26   34952.0    286.1   0.002121814   0.01999  -0.01708   0.07274  -0.12001
  27   35260.5    283.6   0.002882340   0.02691   0.05393   0.08953   0.12644
  28   35453.2    282.1   0.020465477   0.19004  -0.23261   0.00219   0.36868
  29   35996.1    277.8   0.007090247   0.06485  -0.19732  -0.05093   0.15270
  30   36770.9    272.0   0.044659435   0.39984   0.46527   0.12902   0.40831
  31   37444.3    267.1   0.134386088   1.18153   0.80909   0.37267  -0.62291
  32   37628.8    265.8   0.001347635   0.01179  -0.09095  -0.04080  -0.04307
  33   37659.4    265.5   0.006944608   0.06071   0.18958   0.11537  -0.10703
  34   38041.3    262.9   0.089598496   0.77539   0.77450  -0.22175  -0.35548
  35   38378.7    260.6   0.059351381   0.50912  -0.47286  -0.11111   0.52266
  36   38613.7    259.0   0.098930751   0.84346   0.75604  -0.37562  -0.36162
  37   39328.1    254.3   0.085653413   0.71700   0.08374  -0.17541  -0.82415
  38   39794.5    251.3   0.002962265   0.02451  -0.11995  -0.10059   0.00074

FINAL SINGLE POINT ENERGY     -6371.845231492776

DIPOLE MOMENT
-------------
                                X             Y             Z
Electronic contribution:    -19.95539      26.08327     183.07370
Nuclear contribution   :     23.14107     -24.58819    -188.49039
                        -----------------------------------------
Total Dipole Moment    :      3.18569       1.49508      -5.41669
                        -----------------------------------------
Magnitude (a.u.)       :      6.45944
Magnitude (Debye)      :     16.41859

Rotational constants in cm-1:     0.001153     0.000449     0.000359
Rotational constants in MHz :    34.556666    13.471755    10.753417

                             ****ORCA TERMINATED NORMALLY****
TOTAL RUN TIME: 0 days 0 hours 7 minutes 45 seconds 421 msec
