                         Program Version 4.2.0 -  RELEASE  -
|  1> # ORCA input file
|  2> # SCF done       -173.905589212751          0.000721683850
|  3> ! CAM-B3LYP def2-SVP def2/J RIJCOSX Grid4 TightSCF
|  4> %maxcore 5000
|  5> %tddft
|  6>     Mode sTDDFT
|  7>     Ethresh 5.0
|  8>     maxcore 5000
|  9> end
| 10>
| 11> %pal
| 12>   nprocs 6
| 13>   end
| 14> * xyz 0 1
| 15>    C      -16.69451        -9.90148         5.70434
| 16>    C      -15.74532       -10.44222         4.86830
| 17>    C      -15.31423       -11.78242         4.92424
| 18>    N      -14.92234       -12.86226         4.91347
| 19>    C      -15.07090        -9.76051         3.83599
| 20>    N      -14.47431        -9.28976         2.97379
| 21>    C      -17.39763       -10.63041         6.75852
| 22>    C      -18.31656        -9.75190         7.38199
| 23>    C      -19.13100       -10.14136         8.41610
| 24>    C      -19.03361       -11.46448         8.86079
| 25>    C      -18.11170       -12.33455         8.23416
| 26>    C      -17.28855       -11.93974         7.18582
| 27>    S      -18.15032       -13.92241         8.93989
| 28>    C      -19.38831       -13.40146        10.05184
| 29>    C      -19.75516       -12.10662         9.90439
| 30>   Br      -20.07986       -14.61695        11.30258
| 31>    C      -18.22541        -8.42071         6.74695
| 32>    O      -18.87996        -7.43952         7.04191
| 33>    C      -17.18504        -8.54610         5.70613
| 34>    C      -16.75345        -7.51087         4.90273
| 35>    C      -17.24782        -6.20984         4.94977
| 36>    C      -16.75841        -5.18478         4.16590
| 37>    C      -17.19027        -3.83684         4.19025
| 38>    C      -16.50604        -3.01805         3.34373
| 39>    C      -15.50086        -3.68002         2.60188
| 40>    S      -15.46373        -5.38174         3.00570
| 41>    C      -14.61456        -3.12517         1.69762
| 42>    C      -14.49185        -1.75458         1.35368
| 43>    C      -13.48342        -1.49925         0.48161
| 44>    C      -12.75936        -2.65587         0.07890
| 45>    S      -13.43019        -4.08431         0.84419
| 46>    C      -11.67722        -2.68337        -0.75340
| 47>    C      -11.00249        -3.86419        -1.13506
| 48>    O      -11.49095        -5.08742        -0.75658
| 49>    C      -10.63448        -5.98226        -1.29530
| 50>    C       -9.62424        -5.24256        -1.98454
| 51>    N       -9.91471        -3.91763        -1.85308
| 52>    C       -8.57558        -5.86950        -2.64180
| 53>    C       -8.60591        -7.25228        -2.59219
| 54>    C       -9.64626        -7.96676        -1.92443
| 55>    C      -10.68590        -7.36017        -1.24468
| 56>    O       -9.40378        -9.28283        -2.09256
| 57>    C       -8.24845        -9.33567        -2.82666
| 58>    N       -7.75266        -8.17668        -3.12962
| 59>    C       -7.69540       -10.59649        -3.22022
| 60>    C       -8.34663       -11.76277        -3.10515
| 61>    C       -7.77912       -13.02017        -3.56016
| 62>    N       -6.47341       -13.05980        -3.83911
| 63>    C       -5.98213       -14.21530        -4.24505
| 64>    C       -6.77062       -15.34340        -4.40922
| 65>    C       -8.13488       -15.20232        -4.12295
| 66>    N       -8.61890       -14.04020        -3.68085
| 67>    C       -9.05435       -16.30183        -4.32863
| 68>    C      -10.38076       -16.16758        -4.14401
| 69>    C      -11.34398       -17.18964        -4.38660
| 70>    S      -13.03490       -16.83324        -4.11637
| 71>    C      -13.56665       -18.41676        -4.62361
| 72>    C      -12.46880       -19.16810        -4.97591
| 73>    C      -11.22907       -18.48449        -4.84353
| 74>    C      -10.15327       -19.39792        -5.25637
| 75>    O       -8.95751       -19.24782        -5.30902
| 76>    N      -10.81211       -20.56659        -5.60823
| 77>    C      -12.19435       -20.52435        -5.47485
| 78>    O      -12.92905       -21.44307        -5.73575
| 79>    C      -14.97420       -18.70374        -4.61384
| 80>    C      -15.51491       -19.86332        -4.98498
| 81>    H      -19.82104        -9.44736         8.86992
| 82>    H      -16.60210       -12.64214         6.74390
| 83>    H      -20.50311       -11.62248        10.50541
| 84>    H      -15.96315        -7.70620         4.18826
| 85>    H      -18.04328        -5.97916         5.64384
| 86>    H      -17.98683        -3.51854         4.83884
| 87>    H      -16.69627        -1.96563         3.23506
| 88>    H      -15.13873        -1.00279         1.76823
| 89>    H      -13.22407        -0.52429         0.10953
| 90>    H      -11.28010        -1.76518        -1.15599
| 91>    H       -7.80405        -5.32346        -3.15398
| 92>    H      -11.45846        -7.90486        -0.73034
| 93>    H       -6.71097       -10.55644        -3.66089
| 94>    H       -9.34830       -11.81625        -2.70461
| 95>    H       -4.91884       -14.22909        -4.45030
| 96>    H       -6.36580       -16.28192        -4.74996
| 97>    H       -8.62799       -17.23426        -4.66813
| 98>    H      -10.76233       -15.21499        -3.80138
| 99>    H      -10.32420       -21.38810        -5.93615
|100>    H      -15.59780       -17.88675        -4.27347
|101>    H      -14.91380       -20.68970        -5.32301
|102>    H      -16.58043       -20.01042        -4.95133
|103> *
|104>
|105>                          ****END OF INPUT****

CARTESIAN COORDINATES (ANGSTROEM)
---------------------------------
  C    -16.694510   -9.901480    5.704340
  C    -15.745320  -10.442220    4.868300
  C    -15.314230  -11.782420    4.924240
  N    -14.922340  -12.862260    4.913470
  C    -15.070900   -9.760510    3.835990
  N    -14.474310   -9.289760    2.973790
  C    -17.397630  -10.630410    6.758520
  C    -18.316560   -9.751900    7.381990
  C    -19.131000  -10.141360    8.416100
  C    -19.033610  -11.464480    8.860790
  C    -18.111700  -12.334550    8.234160
  C    -17.288550  -11.939740    7.185820
  S    -18.150320  -13.922410    8.939890
  C    -19.388310  -13.401460   10.051840
  C    -19.755160  -12.106620    9.904390
  Br   -20.079860  -14.616950   11.302580
  C    -18.225410   -8.420710    6.746950
  O    -18.879960   -7.439520    7.041910
  C    -17.185040   -8.546100    5.706130
  C    -16.753450   -7.510870    4.902730
  C    -17.247820   -6.209840    4.949770
  C    -16.758410   -5.184780    4.165900
  C    -17.190270   -3.836840    4.190250
  C    -16.506040   -3.018050    3.343730
  C    -15.500860   -3.680020    2.601880
  S    -15.463730   -5.381740    3.005700
  C    -14.614560   -3.125170    1.697620
  C    -14.491850   -1.754580    1.353680
  C    -13.483420   -1.499250    0.481610
  C    -12.759360   -2.655870    0.078900
  S    -13.430190   -4.084310    0.844190
  C    -11.677220   -2.683370   -0.753400
  C    -11.002490   -3.864190   -1.135060
  O    -11.490950   -5.087420   -0.756580
  C    -10.634480   -5.982260   -1.295300
  C     -9.624240   -5.242560   -1.984540
  N     -9.914710   -3.917630   -1.853080
  C     -8.575580   -5.869500   -2.641800
  C     -8.605910   -7.252280   -2.592190
  C     -9.646260   -7.966760   -1.924430
  C    -10.685900   -7.360170   -1.244680
  O     -9.403780   -9.282830   -2.092560
  C     -8.248450   -9.335670   -2.826660
  N     -7.752660   -8.176680   -3.129620
  C     -7.695400  -10.596490   -3.220220
  C     -8.346630  -11.762770   -3.105150
  C     -7.779120  -13.020170   -3.560160
  N     -6.473410  -13.059800   -3.839110
  C     -5.982130  -14.215300   -4.245050
  C     -6.770620  -15.343400   -4.409220
  C     -8.134880  -15.202320   -4.122950
  N     -8.618900  -14.040200   -3.680850
  C     -9.054350  -16.301830   -4.328630
  C    -10.380760  -16.167580   -4.144010
  C    -11.343980  -17.189640   -4.386600
  S    -13.034900  -16.833240   -4.116370
  C    -13.566650  -18.416760   -4.623610
  C    -12.468800  -19.168100   -4.975910
  C    -11.229070  -18.484490   -4.843530
  C    -10.153270  -19.397920   -5.256370
  O     -8.957510  -19.247820   -5.309020
  N    -10.812110  -20.566590   -5.608230
  C    -12.194350  -20.524350   -5.474850
  O    -12.929050  -21.443070   -5.735750
  C    -14.974200  -18.703740   -4.613840
  C    -15.514910  -19.863320   -4.984980
  H    -19.821040   -9.447360    8.869920
  H    -16.602100  -12.642140    6.743900
  H    -20.503110  -11.622480   10.505410
  H    -15.963150   -7.706200    4.188260
  H    -18.043280   -5.979160    5.643840
  H    -17.986830   -3.518540    4.838840
  H    -16.696270   -1.965630    3.235060
  H    -15.138730   -1.002790    1.768230
  H    -13.224070   -0.524290    0.109530
  H    -11.280100   -1.765180   -1.155990
  H     -7.804050   -5.323460   -3.153980
  H    -11.458460   -7.904860   -0.730340
  H     -6.710970  -10.556440   -3.660890
  H     -9.348300  -11.816250   -2.704610
  H     -4.918840  -14.229090   -4.450300
  H     -6.365800  -16.281920   -4.749960
  H     -8.627990  -17.234260   -4.668130
  H    -10.762330  -15.214990   -3.801380
  H    -10.324200  -21.388100   -5.936150
  H    -15.597800  -17.886750   -4.273470
  H    -14.913800  -20.689700   -5.323010
  H    -16.580430  -20.010420   -4.951330

 Total Charge           Charge          ....    0
 Multiplicity           Mult            ....    1
 Number of Electrons    NEL             ....  504
 Basis Dimension        Dim             .... 1068

ORBITAL ENERGIES
----------------

  NO   OCC          E(Eh)            E(eV)
   0   2.0000    -482.880026    -13139.8335
   1   2.0000     -88.974181     -2421.1106
   2   2.0000     -88.968228     -2420.9486
   3   2.0000     -88.963721     -2420.8259
   4   2.0000     -88.962988     -2420.8060
   5   2.0000     -62.557747     -1702.2828
   6   2.0000     -56.391690     -1534.4959
   7   2.0000     -56.388988     -1534.4224
   8   2.0000     -56.388951     -1534.4214
   9   2.0000     -19.301773      -525.2280
  10   2.0000     -19.292516      -524.9761
  11   2.0000     -19.213613      -522.8290
  12   2.0000     -19.212168      -522.7897
  13   2.0000     -19.205699      -522.6136
  14   2.0000     -14.454807      -393.3353
  15   2.0000     -14.409015      -392.0892
  16   2.0000     -14.407122      -392.0377
  17   2.0000     -14.406216      -392.0131
  18   2.0000     -14.406044      -392.0084
  19   2.0000     -14.403513      -391.9395
  20   2.0000     -14.401552      -391.8862
  21   2.0000     -10.399202      -282.9767
  22   2.0000     -10.398012      -282.9443
  23   2.0000     -10.371680      -282.2278
  24   2.0000     -10.363689      -282.0103
  25   2.0000     -10.355977      -281.8005
  26   2.0000     -10.351921      -281.6901
  27   2.0000     -10.341858      -281.4163
  28   2.0000     -10.340709      -281.3850
  29   2.0000     -10.338909      -281.3360
  30   2.0000     -10.335048      -281.2310
  31   2.0000     -10.331876      -281.1447
  32   2.0000     -10.331340      -281.1300
  33   2.0000     -10.329453      -281.0787
  34   2.0000     -10.328817      -281.0614
  35   2.0000     -10.328060      -281.0408
  36   2.0000     -10.328049      -281.0405
  37   2.0000     -10.327950      -281.0378
  38   2.0000     -10.325351      -280.9671
  39   2.0000     -10.318874      -280.7908
  40   2.0000     -10.317123      -280.7432
  41   2.0000     -10.309868      -280.5458
  42   2.0000     -10.309859      -280.5455
  43   2.0000     -10.308726      -280.5147
  44   2.0000     -10.308053      -280.4964
  45   2.0000     -10.307600      -280.4841
  46   2.0000     -10.304473      -280.3990
  47   2.0000     -10.304092      -280.3886
  48   2.0000     -10.303782      -280.3802
  49   2.0000     -10.301267      -280.3117
  50   2.0000     -10.299233      -280.2564
  51   2.0000     -10.298508      -280.2366
  52   2.0000     -10.298409      -280.2340
  53   2.0000     -10.296184      -280.1734
  54   2.0000     -10.293145      -280.0907
  55   2.0000     -10.292186      -280.0646
  56   2.0000     -10.291348      -280.0418
  57   2.0000     -10.290685      -280.0238
  58   2.0000     -10.290133      -280.0087
  59   2.0000     -10.289123      -279.9813
  60   2.0000     -10.287583      -279.9394
  61   2.0000     -10.283420      -279.8261
  62   2.0000     -10.282998      -279.8146
  63   2.0000     -10.282476      -279.8004
  64   2.0000     -10.282314      -279.7960
  65   2.0000     -10.279550      -279.7208
  66   2.0000     -10.278594      -279.6948
  67   2.0000     -10.278339      -279.6878
  68   2.0000     -10.276994      -279.6512
  69   2.0000     -10.272330      -279.5243
  70   2.0000      -8.787171      -239.1111
  71   2.0000      -8.069813      -219.5908
  72   2.0000      -8.064301      -219.4408
  73   2.0000      -8.059613      -219.3132
  74   2.0000      -8.058980      -219.2960
  75   2.0000      -6.623451      -180.2333
  76   2.0000      -6.608909      -179.8376
  77   2.0000      -6.608735      -179.8328
  78   2.0000      -6.038967      -164.3287
  79   2.0000      -6.034803      -164.2153
  80   2.0000      -6.033992      -164.1933
  81   2.0000      -6.032156      -164.1433
  82   2.0000      -6.029722      -164.0771
  83   2.0000      -6.029395      -164.0682
  84   2.0000      -6.028598      -164.0465
  85   2.0000      -6.025499      -163.9622
  86   2.0000      -6.025169      -163.9532
  87   2.0000      -6.024564      -163.9367
  88   2.0000      -6.020470      -163.8253
  89   2.0000      -6.020108      -163.8155
  90   2.0000      -2.739308       -74.5404
  91   2.0000      -2.735246       -74.4298
  92   2.0000      -2.735113       -74.4262
  93   2.0000      -2.723570       -74.1121
  94   2.0000      -2.723545       -74.1114
  95   2.0000      -1.229850       -33.4659
  96   2.0000      -1.221731       -33.2450
  97   2.0000      -1.158099       -31.5135
  98   2.0000      -1.136785       -30.9335
  99   2.0000      -1.119252       -30.4564
 100   2.0000      -1.080390       -29.3989
 101   2.0000      -1.045591       -28.4520
 102   2.0000      -1.022073       -27.8120
 103   2.0000      -1.015465       -27.6322
 104   2.0000      -1.013726       -27.5849
 105   2.0000      -1.013617       -27.5819
 106   2.0000      -1.003979       -27.3197
 107   2.0000      -0.997472       -27.1426
 108   2.0000      -0.993432       -27.0327
 109   2.0000      -0.983920       -26.7738
 110   2.0000      -0.979371       -26.6500
 111   2.0000      -0.979018       -26.6404
 112   2.0000      -0.954321       -25.9684
 113   2.0000      -0.935209       -25.4483
 114   2.0000      -0.920489       -25.0478
 115   2.0000      -0.916271       -24.9330
 116   2.0000      -0.906577       -24.6692
 117   2.0000      -0.900681       -24.5088
 118   2.0000      -0.899029       -24.4638
 119   2.0000      -0.882850       -24.0236
 120   2.0000      -0.877447       -23.8766
 121   2.0000      -0.876034       -23.8381
 122   2.0000      -0.870931       -23.6992
 123   2.0000      -0.866527       -23.5794
 124   2.0000      -0.856932       -23.3183
 125   2.0000      -0.848308       -23.0836
 126   2.0000      -0.844262       -22.9735
 127   2.0000      -0.840419       -22.8690
 128   2.0000      -0.824623       -22.4391
 129   2.0000      -0.820567       -22.3288
 130   2.0000      -0.812093       -22.0982
 131   2.0000      -0.801019       -21.7968
 132   2.0000      -0.778970       -21.1969
 133   2.0000      -0.763757       -20.7829
 134   2.0000      -0.760601       -20.6970
 135   2.0000      -0.749251       -20.3882
 136   2.0000      -0.740885       -20.1605
 137   2.0000      -0.737339       -20.0640
 138   2.0000      -0.734423       -19.9847
 139   2.0000      -0.724192       -19.7063
 140   2.0000      -0.716778       -19.5045
 141   2.0000      -0.704294       -19.1648
 142   2.0000      -0.699832       -19.0434
 143   2.0000      -0.698932       -19.0189
 144   2.0000      -0.696825       -18.9616
 145   2.0000      -0.687462       -18.7068
 146   2.0000      -0.681747       -18.5513
 147   2.0000      -0.670595       -18.2478
 148   2.0000      -0.668931       -18.2025
 149   2.0000      -0.659774       -17.9534
 150   2.0000      -0.653378       -17.7793
 151   2.0000      -0.649154       -17.6644
 152   2.0000      -0.638019       -17.3614
 153   2.0000      -0.636353       -17.3161
 154   2.0000      -0.632138       -17.2013
 155   2.0000      -0.623135       -16.9564
 156   2.0000      -0.616172       -16.7669
 157   2.0000      -0.614625       -16.7248
 158   2.0000      -0.607068       -16.5191
 159   2.0000      -0.604783       -16.4570
 160   2.0000      -0.597527       -16.2595
 161   2.0000      -0.591870       -16.1056
 162   2.0000      -0.587884       -15.9971
 163   2.0000      -0.586711       -15.9652
 164   2.0000      -0.585805       -15.9406
 165   2.0000      -0.581933       -15.8352
 166   2.0000      -0.575037       -15.6476
 167   2.0000      -0.568202       -15.4616
 168   2.0000      -0.566666       -15.4198
 169   2.0000      -0.563261       -15.3271
 170   2.0000      -0.556721       -15.1492
 171   2.0000      -0.555403       -15.1133
 172   2.0000      -0.553754       -15.0684
 173   2.0000      -0.552333       -15.0297
 174   2.0000      -0.545602       -14.8466
 175   2.0000      -0.541537       -14.7360
 176   2.0000      -0.539098       -14.6696
 177   2.0000      -0.536980       -14.6120
 178   2.0000      -0.531688       -14.4680
 179   2.0000      -0.530181       -14.4270
 180   2.0000      -0.529099       -14.3975
 181   2.0000      -0.522169       -14.2089
 182   2.0000      -0.521685       -14.1958
 183   2.0000      -0.520463       -14.1625
 184   2.0000      -0.519225       -14.1288
 185   2.0000      -0.515316       -14.0224
 186   2.0000      -0.513528       -13.9738
 187   2.0000      -0.509802       -13.8724
 188   2.0000      -0.504700       -13.7336
 189   2.0000      -0.500748       -13.6261
 190   2.0000      -0.500439       -13.6176
 191   2.0000      -0.498883       -13.5753
 192   2.0000      -0.492168       -13.3926
 193   2.0000      -0.489215       -13.3122
 194   2.0000      -0.486977       -13.2513
 195   2.0000      -0.485393       -13.2082
 196   2.0000      -0.484962       -13.1965
 197   2.0000      -0.484555       -13.1854
 198   2.0000      -0.484041       -13.1714
 199   2.0000      -0.482190       -13.1210
 200   2.0000      -0.481396       -13.0994
 201   2.0000      -0.472781       -12.8650
 202   2.0000      -0.465035       -12.6542
 203   2.0000      -0.463372       -12.6090
 204   2.0000      -0.458645       -12.4804
 205   2.0000      -0.453942       -12.3524
 206   2.0000      -0.451358       -12.2821
 207   2.0000      -0.450429       -12.2568
 208   2.0000      -0.445912       -12.1339
 209   2.0000      -0.444990       -12.1088
 210   2.0000      -0.443049       -12.0560
 211   2.0000      -0.440913       -11.9978
 212   2.0000      -0.439966       -11.9721
 213   2.0000      -0.437834       -11.9141
 214   2.0000      -0.434358       -11.8195
 215   2.0000      -0.434055       -11.8112
 216   2.0000      -0.433494       -11.7960
 217   2.0000      -0.430757       -11.7215
 218   2.0000      -0.428619       -11.6633
 219   2.0000      -0.419397       -11.4124
 220   2.0000      -0.416941       -11.3455
 221   2.0000      -0.414145       -11.2695
 222   2.0000      -0.413006       -11.2385
 223   2.0000      -0.411509       -11.1977
 224   2.0000      -0.399422       -10.8688
 225   2.0000      -0.397738       -10.8230
 226   2.0000      -0.395612       -10.7652
 227   2.0000      -0.388219       -10.5640
 228   2.0000      -0.380908       -10.3650
 229   2.0000      -0.377160       -10.2630
 230   2.0000      -0.373073       -10.1518
 231   2.0000      -0.369612       -10.0577
 232   2.0000      -0.368464       -10.0264
 233   2.0000      -0.366076        -9.9614
 234   2.0000      -0.363712        -9.8971
 235   2.0000      -0.359933        -9.7943
 236   2.0000      -0.355971        -9.6865
 237   2.0000      -0.352703        -9.5975
 238   2.0000      -0.345757        -9.4085
 239   2.0000      -0.345339        -9.3971
 240   2.0000      -0.339162        -9.2291
 241   2.0000      -0.338108        -9.2004
 242   2.0000      -0.329640        -8.9700
 243   2.0000      -0.325665        -8.8618
 244   2.0000      -0.322740        -8.7822
 245   2.0000      -0.316221        -8.6048
 246   2.0000      -0.307465        -8.3665
 247   2.0000      -0.291252        -7.9254
 248   2.0000      -0.285427        -7.7668
 249   2.0000      -0.277607        -7.5541
 250   2.0000      -0.272191        -7.4067
 251   2.0000      -0.233239        -6.3468
 252   0.0000      -0.112870        -3.0714
 253   0.0000      -0.064276        -1.7490
 254   0.0000      -0.062755        -1.7076
 255   0.0000      -0.047642        -1.2964
 256   0.0000      -0.039062        -1.0629

MULLIKEN ATOMIC CHARGES
-----------------------
   0 C :    0.331007
   1 C :   -0.358931
   2 C :   -0.191305
   3 N :    0.140841
   4 C :   -0.190473
   5 N :    0.133181
   6 C :    0.012550
   7 C :   -0.008231
   8 C :   -0.077151
   9 C :    0.117166
  10 C :   -0.090410
  11 C :   -0.024324
  12 S :    0.181123
  13 C :   -0.123802
  14 C :    0.037104
  15 Br:    0.017399
  16 C :    0.138490
  17 O :   -0.164412
  18 C :   -0.085714
  19 C :   -0.040645
  20 C :   -0.026440
  21 C :    0.004197
  22 C :    0.030819
  23 C :    0.042895
  24 C :   -0.054037
  25 S :    0.117446
  26 C :   -0.036966
  27 C :    0.032195
  28 C :    0.051094
  29 C :   -0.012536
  30 S :    0.142858
  31 C :   -0.031638
  32 C :    0.112233
  33 O :   -0.226717
  34 C :    0.220318
  35 C :    0.012770
  36 N :   -0.045720
  37 C :   -0.082773
  38 C :    0.016218
  39 C :    0.216161
  40 C :   -0.154406
  41 O :   -0.204738
  42 C :    0.120052
  43 N :   -0.041123
  44 C :    0.014192
  45 C :    0.052493
  46 C :   -0.059001
  47 N :   -0.077745
  48 C :    0.082518
  49 C :   -0.046106
  50 C :    0.042640
  51 N :   -0.050224
  52 C :   -0.013731
  53 C :    0.084248
  54 C :   -0.135727
  55 S :    0.168205
  56 C :   -0.153101
  57 C :   -0.025290
  58 C :   -0.024842
  59 C :    0.188145
  60 O :   -0.162535
  61 N :   -0.147120
  62 C :    0.181747
  63 O :   -0.154587
  64 C :    0.030413
  65 C :   -0.005079
  66 H :   -0.014038
  67 H :   -0.010129
  68 H :   -0.005267
  69 H :    0.015621
  70 H :    0.018710
  71 H :    0.002299
  72 H :   -0.003374
  73 H :   -0.004510
  74 H :    0.000644
  75 H :    0.014401
  76 H :   -0.023134
  77 H :   -0.001111
  78 H :    0.029965
  79 H :    0.008010
  80 H :    0.008904
  81 H :    0.005686
  82 H :    0.002875
  83 H :   -0.001144
  84 H :    0.137434
  85 H :   -0.011497
  86 H :    0.053044
  87 H :    0.031474
Sum of atomic charges:   -0.0000000

LOEWDIN ATOMIC CHARGES
----------------------
   0 C :    0.073328
   1 C :   -0.152850
   2 C :   -0.018878
   3 N :   -0.065263
   4 C :   -0.020551
   5 N :   -0.065244
   6 C :   -0.018614
   7 C :   -0.049149
   8 C :    0.018255
   9 C :   -0.035051
  10 C :   -0.145171
  11 C :   -0.012659
  12 S :    0.428812
  13 C :   -0.273885
  14 C :   -0.070854
  15 Br:    0.131798
  16 C :    0.082923
  17 O :   -0.156263
  18 C :   -0.103453
  19 C :    0.050970
  20 C :   -0.069196
  21 C :   -0.104495
  22 C :   -0.035677
  23 C :   -0.008536
  24 C :   -0.184420
  25 S :    0.412309
  26 C :   -0.157045
  27 C :   -0.026560
  28 C :   -0.014776
  29 C :   -0.132539
  30 S :    0.416009
  31 C :   -0.055124
  32 C :    0.049515
  33 O :   -0.019624
  34 C :    0.039565
  35 C :   -0.038959
  36 N :   -0.095005
  37 C :   -0.015945
  38 C :   -0.036484
  39 C :    0.040431
  40 C :   -0.060411
  41 O :   -0.009292
  42 C :    0.063783
  43 N :   -0.096722
  44 C :   -0.010002
  45 C :   -0.005012
  46 C :    0.026570
  47 N :   -0.087952
  48 C :    0.052179
  49 C :   -0.057160
  50 C :    0.033541
  51 N :   -0.085689
  52 C :   -0.013030
  53 C :   -0.015602
  54 C :   -0.135472
  55 S :    0.471628
  56 C :   -0.127206
  57 C :   -0.102215
  58 C :   -0.095378
  59 C :    0.091704
  60 O :   -0.162868
  61 N :    0.001956
  62 C :    0.091389
  63 O :   -0.157008
  64 C :   -0.059149
  65 C :    0.002860
  66 H :    0.039330
  67 H :    0.040164
  68 H :    0.037916
  69 H :    0.032503
  70 H :    0.039104
  71 H :    0.039863
  72 H :    0.035742
  73 H :    0.034953
  74 H :    0.039004
  75 H :    0.052690
  76 H :    0.043110
  77 H :    0.048712
  78 H :    0.049309
  79 H :    0.037212
  80 H :    0.027468
  81 H :    0.038009
  82 H :    0.031175
  83 H :    0.033257
  84 H :    0.095570
  85 H :    0.029133
  86 H :    0.029086
  87 H :    0.029602

  Mayer bond orders larger than 0.100000
B(  0-C ,  1-C ) :   1.5903 B(  0-C ,  6-C ) :   0.9932 B(  0-C , 18-C ) :   1.1028
B(  1-C ,  2-C ) :   1.1476 B(  1-C ,  4-C ) :   1.1537 B(  2-C ,  3-N ) :   2.9633
B(  4-C ,  5-N ) :   2.9567 B(  6-C ,  7-C ) :   1.2783 B(  6-C , 11-C ) :   1.4167
B(  7-C ,  8-C ) :   1.4270 B(  7-C , 16-C ) :   0.9380 B(  8-C ,  9-C ) :   1.2402
B(  8-C , 66-H ) :   1.0170 B(  9-C , 10-C ) :   1.3148 B(  9-C , 14-C ) :   1.1603
B( 10-C , 11-C ) :   1.3222 B( 10-C , 12-S ) :   1.0836 B( 11-C , 67-H ) :   0.9800
B( 12-S , 13-C ) :   1.0862 B( 13-C , 14-C ) :   1.6187 B( 13-C , 15-Br) :   1.0150
B( 14-C , 68-H ) :   1.0011 B( 16-C , 17-O ) :   2.1838 B( 16-C , 18-C ) :   0.9621
B( 18-C , 19-C ) :   1.4956 B( 19-C , 20-C ) :   1.2404 B( 19-C , 69-H ) :   0.9455
B( 20-C , 21-C ) :   1.4338 B( 20-C , 70-H ) :   0.9778 B( 21-C , 22-C ) :   1.1651
B( 21-C , 25-S ) :   1.0819 B( 22-C , 23-C ) :   1.5586 B( 22-C , 71-H ) :   1.0028
B( 23-C , 24-C ) :   1.1998 B( 23-C , 72-H ) :   0.9940 B( 24-C , 25-S ) :   1.0460
B( 24-C , 26-C ) :   1.4963 B( 26-C , 27-C ) :   1.1753 B( 26-C , 30-S ) :   1.0543
B( 27-C , 28-C ) :   1.6099 B( 27-C , 73-H ) :   0.9944 B( 28-C , 29-C ) :   1.1258
B( 28-C , 74-H ) :   1.0011 B( 29-C , 30-S ) :   1.0428 B( 29-C , 31-C ) :   1.5764
B( 31-C , 32-C ) :   1.1383 B( 31-C , 75-H ) :   0.9718 B( 32-C , 33-O ) :   1.1061
B( 32-C , 36-N ) :   1.6953 B( 33-O , 34-C ) :   1.0925 B( 34-C , 35-C ) :   1.2474
B( 34-C , 40-C ) :   1.3202 B( 35-C , 36-N ) :   1.3070 B( 35-C , 37-C ) :   1.2732
B( 37-C , 38-C ) :   1.2929 B( 37-C , 40-C ) :   0.1477 B( 37-C , 76-H ) :   1.0517
B( 38-C , 39-C ) :   1.2468 B( 38-C , 43-N ) :   1.2891 B( 39-C , 40-C ) :   1.3130
B( 39-C , 41-O ) :   1.1179 B( 40-C , 77-H ) :   1.0464 B( 41-O , 42-C ) :   1.1250
B( 42-C , 43-N ) :   1.7390 B( 42-C , 44-C ) :   1.0724 B( 44-C , 45-C ) :   1.7096
B( 44-C , 78-H ) :   0.9631 B( 45-C , 46-C ) :   1.0189 B( 45-C , 79-H ) :   0.9760
B( 46-C , 47-N ) :   1.5257 B( 46-C , 51-N ) :   1.5324 B( 47-N , 48-C ) :   1.5529
B( 48-C , 49-C ) :   1.3586 B( 48-C , 80-H ) :   0.9804 B( 49-C , 50-C ) :   1.3443
B( 49-C , 81-H ) :   0.9760 B( 50-C , 51-N ) :   1.5096 B( 50-C , 52-C ) :   1.0689
B( 52-C , 53-C ) :   1.7177 B( 52-C , 82-H ) :   0.9527 B( 53-C , 54-C ) :   1.0900
B( 53-C , 83-H ) :   0.9565 B( 54-C , 55-S ) :   1.1345 B( 54-C , 58-C ) :   1.5198
B( 55-S , 56-C ) :   1.1426 B( 56-C , 57-C ) :   1.5289 B( 56-C , 64-C ) :   1.1029
B( 57-C , 58-C ) :   1.2589 B( 57-C , 62-C ) :   0.8943 B( 58-C , 59-C ) :   0.8964
B( 59-C , 60-O ) :   2.1454 B( 59-C , 61-N ) :   1.1028 B( 61-N , 62-C ) :   1.0942
B( 61-N , 84-H ) :   0.9153 B( 62-C , 63-O ) :   2.1688 B( 64-C , 65-C ) :   1.9326
B( 64-C , 85-H ) :   0.9513 B( 65-C , 86-H ) :   0.9303 B( 65-C , 87-H ) :   0.9459

-----------------------------------------------------------------------------
         ABSORPTION SPECTRUM VIA TRANSITION ELECTRIC DIPOLE MOMENTS
-----------------------------------------------------------------------------
State   Energy  Wavelength   fosc         T2         TX        TY        TZ
        (cm-1)    (nm)                  (au**2)     (au)      (au)      (au)
-----------------------------------------------------------------------------
   0   12382.4    807.6   1.136720957  30.22207   3.09185   2.53815  -3.77098
   1   22102.3    452.4   0.043945979   0.65457   0.56131   0.30378  -0.49721
   2   22747.4    439.6   0.820881475  11.88020   1.37142  -3.08345  -0.70126
   3   24611.3    406.3   0.064358734   0.86089   0.40895  -0.67601  -0.48648
   4   24810.6    403.1   0.277802273   3.68616   1.38714   0.14674  -1.31927
   5   26247.3    381.0   0.509923712   6.39581   0.63056  -2.44788   0.07812
   6   26945.3    371.1   0.001239538   0.01514  -0.03915   0.11654   0.00553
   7   27909.7    358.3   0.005132050   0.06054   0.07071   0.23560  -0.00526
   8   28309.7    353.2   0.022636500   0.26324  -0.24971   0.40091   0.20040
   9   28667.2    348.8   0.011378724   0.13067  -0.32059   0.16599   0.01852
  10   29143.3    343.1   0.970853517  10.96707   1.94545   2.63150   0.50745
  11   29455.4    339.5   0.081826557   0.91454  -0.69340  -0.63592  -0.17131
  12   30535.1    327.5   0.096516409   1.04059  -0.87117   0.51587  -0.12461
  13   31124.3    321.3   0.116382765   1.23102  -0.08225  -1.02653   0.41291
  14   31888.3    313.6   0.020085285   0.20736   0.08479  -0.43285   0.11318
  15   32234.3    310.2   0.622546308   6.35813   1.35003   1.08494  -1.83261
  16   33085.3    302.2   0.086951218   0.86520  -0.34845   0.80775   0.30219
  17   33171.0    301.5   0.000207482   0.00206  -0.00975  -0.04283  -0.01139
  18   33427.8    299.2   0.147063996   1.44835  -0.40675  -1.13265   0.00170
  19   33789.9    295.9   0.281673038   2.74431   1.62754   0.28054  -0.12930
  20   33847.2    295.4   0.038774019   0.37713  -0.53201  -0.04603  -0.30329
  21   34330.2    291.3   0.168414339   1.61502  -0.87999   0.59433   0.69815
  22   35025.0    285.5   0.218986174   2.05832  -0.44498   1.34098   0.24918
  23   35461.3    282.0   0.013027960   0.12095   0.15143  -0.31200  -0.02594
  24   35607.2    280.8   0.002404034   0.02223   0.11119   0.09917   0.00535
  25   36185.2    276.4   0.114805789   1.04450   0.66614  -0.53924  -0.55675
  26   36494.8    274.0   0.012582743   0.11351   0.18922   0.22043  -0.17063
  27   37063.6    269.8   0.002651695   0.02355  -0.10993   0.05985  -0.08881
  28   37154.6    269.1   0.002217628   0.01965   0.04704   0.12147  -0.05178
  29   37370.4    267.6   0.258111290   2.27382   0.70259  -1.23795  -0.49766
  30   37459.9    267.0   0.012765798   0.11219   0.06424  -0.30847  -0.11363
  31   37880.5    264.0   0.091354377   0.79394   0.65529   0.42291  -0.43092
  32   38187.5    261.9   0.002188921   0.01887   0.00036  -0.06240   0.12238
  33   38253.1    261.4   0.016903080   0.14547   0.02031   0.36864  -0.09573
  34   38450.4    260.1   0.216560514   1.85419   0.27085  -1.33260   0.07072
  35   38824.5    257.6   0.027835619   0.23603   0.22188  -0.37799  -0.20958
  36   39119.0    255.6   0.037461058   0.31526  -0.34581  -0.06967   0.43683
  37   39423.9    253.7   0.019599851   0.16367   0.24383  -0.24222  -0.21342
  38   39862.8    250.9   0.114481069   0.94546  -0.62914   0.52567   0.52279

FINAL SINGLE POINT ENERGY     -6802.765830918314

DIPOLE MOMENT
-------------
                                X             Y             Z
Electronic contribution:    -73.69006     -37.74184     124.84330
Nuclear contribution   :     72.18308      40.05204    -124.73558
                        -----------------------------------------
Total Dipole Moment    :     -1.50698       2.31020       0.10772
                        -----------------------------------------
Magnitude (a.u.)       :      2.76037
Magnitude (Debye)      :      7.01630

Rotational constants in cm-1:     0.000570     0.000349     0.000229
Rotational constants in MHz :    17.081818    10.463247     6.874634

                             ****ORCA TERMINATED NORMALLY****
TOTAL RUN TIME: 0 days 0 hours 10 minutes 1 seconds 37 msec
