                         Program Version 4.2.0 -  RELEASE  -
|  1> # ORCA input file
|  2> # SCF done       -203.136587776969          0.002363388791
|  3> ! CAM-B3LYP def2-SVP def2/J RIJCOSX Grid4 TightSCF
|  4> %maxcore 5000
|  5> %tddft
|  6>     Mode sTDDFT
|  7>     Ethresh 5.0
|  8>     maxcore 5000
|  9> end
| 10>
| 11> %pal
| 12>   nprocs 6
| 13>   end
| 14> * xyz 0 1
| 15>    C       -5.42111         8.98623         3.31417
| 16>    C       -5.28036         8.74138         4.65553
| 17>    C       -4.72151         9.64607         5.57654
| 18>    N       -4.29723        10.34399         6.38373
| 19>    C       -5.67447         7.53968         5.27892
| 20>    N       -5.96349         6.56742         5.81669
| 21>    C       -4.97003        10.17299         2.59795
| 22>    C       -5.25378        10.01701         1.21511
| 23>    C       -4.96787        10.98893         0.28682
| 24>    C       -4.37873        12.17189         0.74541
| 25>    C       -4.10235        12.31816         2.12409
| 26>    C       -4.38021        11.33193         3.06222
| 27>    S       -3.42522        13.87744         2.47944
| 28>    C       -3.50895        14.30117         0.79037
| 29>    C       -4.01102        13.32468        -0.00132
| 30>   Br       -2.93733        15.99521         0.23132
| 31>    C       -5.89392         8.71407         1.00645
| 32>    O       -6.26064         8.21482        -0.05239
| 33>    C       -6.03596         8.11229         2.34064
| 34>    C       -6.77742         6.97740         2.53972
| 35>    N       -7.31657         6.33486         1.49428
| 36>    C       -8.26777         5.36604         1.52317
| 37>    S       -8.89294         4.68936         2.99134
| 38>    C      -10.04469         3.79001         2.05649
| 39>    N      -10.92695         2.94589         2.74348
| 40>    O      -11.73154         2.31475         2.08533
| 41>    O      -10.81610         2.91070         3.95561
| 42>    C       -9.95477         4.01321         0.70516
| 43>    C       -8.92264         4.90339         0.38151
| 44>    C       -8.54440         5.33247        -0.95854
| 45>    C       -7.30123         5.19058        -1.43681
| 46>    C       -6.86465         5.69421        -2.70887
| 47>    S       -7.37373         7.26232        -3.21447
| 48>    C       -6.39111         7.16360        -4.64496
| 49>    C       -5.72461         5.93411        -4.71639
| 50>    C       -5.96229         5.10999        -3.58903
| 51>    C       -5.37511         3.80361        -3.29755
| 52>    C       -6.05626         2.78515        -2.78961
| 53>    O       -4.98069         5.71063        -5.82223
| 54>    C       -4.40183         4.44760        -6.06229
| 55>    C       -6.25348         8.24558        -5.53727
| 56>    C       -6.62488         9.51789        -5.20955
| 57>    C       -6.42676        10.65433        -6.00189
| 58>    C       -6.52897        11.93123        -5.49957
| 59>    C       -6.30917        13.15770        -6.16465
| 60>    C       -6.34990        14.25251        -5.35042
| 61>    C       -6.60332        13.94507        -3.99647
| 62>    S       -6.84050        12.23093        -3.79338
| 63>    C       -6.59881        14.79837        -2.90364
| 64>    C       -6.26849        16.16543        -2.85904
| 65>    C       -6.22584        16.67833        -1.59309
| 66>    C       -6.52921        15.74296        -0.58212
| 67>    S       -6.91612        14.19431        -1.28799
| 68>    C       -6.48018        15.96300         0.78366
| 69>    C       -6.73498        14.97721         1.72521
| 70>    C       -6.58942        15.04904         3.09706
| 71>    C       -6.45965        13.79843         3.86582
| 72>    O       -6.71584        12.67055         3.48063
| 73>    C       -5.87360        14.19059         5.16197
| 74>    C       -5.43011        13.40222         6.18275
| 75>    C       -4.82138        14.00704         7.30532
| 76>    C       -4.70415        15.42504         7.35708
| 77>    C       -4.09787        16.01868         8.48122
| 78>    C       -3.62910        15.23831         9.50133
| 79>    C       -3.73655        13.83481         9.44153
| 80>    C       -4.32074        13.22743         8.36542
| 81>    F       -3.25589        13.09975        10.45564
| 82>    F       -3.05340        15.80662        10.57156
| 83>    C       -5.18804        16.21885         6.28992
| 84>    C       -5.76158        15.60993         5.20787
| 85>    C       -6.33756        16.15675         3.97780
| 86>    C       -6.72075        17.46630         3.80639
| 87>    C       -7.52990        17.92593         2.74919
| 88>    N       -8.22598        18.34939         1.93943
| 89>    C       -6.44241        18.49152         4.73059
| 90>    N       -6.22557        19.37566         5.43087
| 91>    H       -5.20714        10.85529        -0.75704
| 92>    H       -4.15069        11.49243         4.10209
| 93>    H       -4.11946        13.40984        -1.06665
| 94>    H       -6.98100         6.57873         3.52539
| 95>    H       -7.10053         6.76265         0.57460
| 96>    H      -10.60042         3.53436        -0.00847
| 97>    H       -9.32163         5.76300        -1.57520
| 98>    H       -6.55924         4.64714        -0.86289
| 99>    H       -4.31404         3.70260        -3.47930
|100>    H       -7.11796         2.84029        -2.61743
|101>    H       -5.57719         1.85117        -2.55304
|102>    H       -4.17938         4.42789        -7.12898
|103>    H       -5.08726         3.63308        -5.81778
|104>    H       -3.46838         4.32764        -5.50539
|105>    H       -5.75175         8.03878        -6.47236
|106>    H       -7.04375         9.68047        -4.22258
|107>    H       -6.12793        10.53496        -7.03461
|108>    H       -6.11688        13.19537        -7.22251
|109>    H       -6.19690        15.26249        -5.68506
|110>    H       -6.04904        16.72798        -3.74850
|111>    H       -5.97346        17.69539        -1.35358
|112>    H       -6.17090        16.94929         1.09427
|113>    H       -6.97020        13.98383         1.35086
|114>    H       -5.52881        12.32845         6.14540
|115>    H       -4.00342        17.09166         8.54285
|116>    H       -4.38807        12.15170         8.31821
|117>    H       -5.07750        17.28975         6.35049
|118> *
|119>
|120>                          ****END OF INPUT****

CARTESIAN COORDINATES (ANGSTROEM)
---------------------------------
  C     -5.421110    8.986230    3.314170
  C     -5.280360    8.741380    4.655530
  C     -4.721510    9.646070    5.576540
  N     -4.297230   10.343990    6.383730
  C     -5.674470    7.539680    5.278920
  N     -5.963490    6.567420    5.816690
  C     -4.970030   10.172990    2.597950
  C     -5.253780   10.017010    1.215110
  C     -4.967870   10.988930    0.286820
  C     -4.378730   12.171890    0.745410
  C     -4.102350   12.318160    2.124090
  C     -4.380210   11.331930    3.062220
  S     -3.425220   13.877440    2.479440
  C     -3.508950   14.301170    0.790370
  C     -4.011020   13.324680   -0.001320
  Br    -2.937330   15.995210    0.231320
  C     -5.893920    8.714070    1.006450
  O     -6.260640    8.214820   -0.052390
  C     -6.035960    8.112290    2.340640
  C     -6.777420    6.977400    2.539720
  N     -7.316570    6.334860    1.494280
  C     -8.267770    5.366040    1.523170
  S     -8.892940    4.689360    2.991340
  C    -10.044690    3.790010    2.056490
  N    -10.926950    2.945890    2.743480
  O    -11.731540    2.314750    2.085330
  O    -10.816100    2.910700    3.955610
  C     -9.954770    4.013210    0.705160
  C     -8.922640    4.903390    0.381510
  C     -8.544400    5.332470   -0.958540
  C     -7.301230    5.190580   -1.436810
  C     -6.864650    5.694210   -2.708870
  S     -7.373730    7.262320   -3.214470
  C     -6.391110    7.163600   -4.644960
  C     -5.724610    5.934110   -4.716390
  C     -5.962290    5.109990   -3.589030
  C     -5.375110    3.803610   -3.297550
  C     -6.056260    2.785150   -2.789610
  O     -4.980690    5.710630   -5.822230
  C     -4.401830    4.447600   -6.062290
  C     -6.253480    8.245580   -5.537270
  C     -6.624880    9.517890   -5.209550
  C     -6.426760   10.654330   -6.001890
  C     -6.528970   11.931230   -5.499570
  C     -6.309170   13.157700   -6.164650
  C     -6.349900   14.252510   -5.350420
  C     -6.603320   13.945070   -3.996470
  S     -6.840500   12.230930   -3.793380
  C     -6.598810   14.798370   -2.903640
  C     -6.268490   16.165430   -2.859040
  C     -6.225840   16.678330   -1.593090
  C     -6.529210   15.742960   -0.582120
  S     -6.916120   14.194310   -1.287990
  C     -6.480180   15.963000    0.783660
  C     -6.734980   14.977210    1.725210
  C     -6.589420   15.049040    3.097060
  C     -6.459650   13.798430    3.865820
  O     -6.715840   12.670550    3.480630
  C     -5.873600   14.190590    5.161970
  C     -5.430110   13.402220    6.182750
  C     -4.821380   14.007040    7.305320
  C     -4.704150   15.425040    7.357080
  C     -4.097870   16.018680    8.481220
  C     -3.629100   15.238310    9.501330
  C     -3.736550   13.834810    9.441530
  C     -4.320740   13.227430    8.365420
  F     -3.255890   13.099750   10.455640
  F     -3.053400   15.806620   10.571560
  C     -5.188040   16.218850    6.289920
  C     -5.761580   15.609930    5.207870
  C     -6.337560   16.156750    3.977800
  C     -6.720750   17.466300    3.806390
  C     -7.529900   17.925930    2.749190
  N     -8.225980   18.349390    1.939430
  C     -6.442410   18.491520    4.730590
  N     -6.225570   19.375660    5.430870
  H     -5.207140   10.855290   -0.757040
  H     -4.150690   11.492430    4.102090
  H     -4.119460   13.409840   -1.066650
  H     -6.981000    6.578730    3.525390
  H     -7.100530    6.762650    0.574600
  H    -10.600420    3.534360   -0.008470
  H     -9.321630    5.763000   -1.575200
  H     -6.559240    4.647140   -0.862890
  H     -4.314040    3.702600   -3.479300
  H     -7.117960    2.840290   -2.617430
  H     -5.577190    1.851170   -2.553040
  H     -4.179380    4.427890   -7.128980
  H     -5.087260    3.633080   -5.817780
  H     -3.468380    4.327640   -5.505390
  H     -5.751750    8.038780   -6.472360
  H     -7.043750    9.680470   -4.222580
  H     -6.127930   10.534960   -7.034610
  H     -6.116880   13.195370   -7.222510
  H     -6.196900   15.262490   -5.685060
  H     -6.049040   16.727980   -3.748500
  H     -5.973460   17.695390   -1.353580
  H     -6.170900   16.949290    1.094270
  H     -6.970200   13.983830    1.350860
  H     -5.528810   12.328450    6.145400
  H     -4.003420   17.091660    8.542850
  H     -4.388070   12.151700    8.318210
  H     -5.077500   17.289750    6.350490

 Total Charge           Charge          ....    0
 Multiplicity           Mult            ....    1
 Number of Electrons    NEL             ....  584
 Basis Dimension        Dim             .... 1237

ORBITAL ENERGIES
----------------

  NO   OCC          E(Eh)            E(eV)
   0   2.0000    -482.886133    -13139.9997
   1   2.0000     -88.994874     -2421.6736
   2   2.0000     -88.975403     -2421.1438
   3   2.0000     -88.974009     -2421.1059
   4   2.0000     -88.969981     -2420.9963
   5   2.0000     -88.965556     -2420.8759
   6   2.0000     -62.563447     -1702.4379
   7   2.0000     -56.397396     -1534.6512
   8   2.0000     -56.394722     -1534.5784
   9   2.0000     -56.394652     -1534.5765
  10   2.0000     -24.781010      -674.3256
  11   2.0000     -24.778871      -674.2674
  12   2.0000     -19.273604      -524.4614
  13   2.0000     -19.241175      -523.5790
  14   2.0000     -19.240609      -523.5636
  15   2.0000     -19.232806      -523.3513
  16   2.0000     -19.199612      -522.4480
  17   2.0000     -14.653105      -398.7313
  18   2.0000     -14.494570      -394.4173
  19   2.0000     -14.422033      -392.4435
  20   2.0000     -14.419583      -392.3768
  21   2.0000     -14.398406      -391.8006
  22   2.0000     -14.396843      -391.7580
  23   2.0000     -10.379615      -282.4437
  24   2.0000     -10.376374      -282.3555
  25   2.0000     -10.370531      -282.1965
  26   2.0000     -10.362870      -281.9880
  27   2.0000     -10.362577      -281.9801
  28   2.0000     -10.360803      -281.9318
  29   2.0000     -10.356733      -281.8210
  30   2.0000     -10.350153      -281.6420
  31   2.0000     -10.349094      -281.6132
  32   2.0000     -10.347066      -281.5580
  33   2.0000     -10.344871      -281.4983
  34   2.0000     -10.341708      -281.4122
  35   2.0000     -10.341467      -281.4056
  36   2.0000     -10.328834      -281.0619
  37   2.0000     -10.327900      -281.0364
  38   2.0000     -10.327197      -281.0173
  39   2.0000     -10.325411      -280.9687
  40   2.0000     -10.323696      -280.9221
  41   2.0000     -10.322905      -280.9005
  42   2.0000     -10.322782      -280.8972
  43   2.0000     -10.322534      -280.8904
  44   2.0000     -10.322227      -280.8821
  45   2.0000     -10.316694      -280.7315
  46   2.0000     -10.312267      -280.6110
  47   2.0000     -10.312093      -280.6063
  48   2.0000     -10.311128      -280.5801
  49   2.0000     -10.310419      -280.5608
  50   2.0000     -10.310330      -280.5583
  51   2.0000     -10.309253      -280.5290
  52   2.0000     -10.307037      -280.4687
  53   2.0000     -10.306376      -280.4508
  54   2.0000     -10.306295      -280.4485
  55   2.0000     -10.306082      -280.4427
  56   2.0000     -10.306033      -280.4414
  57   2.0000     -10.305669      -280.4315
  58   2.0000     -10.305266      -280.4205
  59   2.0000     -10.302221      -280.3377
  60   2.0000     -10.301985      -280.3313
  61   2.0000     -10.301626      -280.3215
  62   2.0000     -10.300247      -280.2840
  63   2.0000     -10.299748      -280.2704
  64   2.0000     -10.298464      -280.2354
  65   2.0000     -10.295026      -280.1419
  66   2.0000     -10.294723      -280.1337
  67   2.0000     -10.293688      -280.1055
  68   2.0000     -10.292621      -280.0765
  69   2.0000     -10.291620      -280.0492
  70   2.0000     -10.289535      -279.9925
  71   2.0000     -10.288978      -279.9773
  72   2.0000     -10.288608      -279.9673
  73   2.0000     -10.283428      -279.8263
  74   2.0000     -10.282289      -279.7953
  75   2.0000     -10.281148      -279.7643
  76   2.0000     -10.279187      -279.7109
  77   2.0000     -10.278456      -279.6910
  78   2.0000     -10.275415      -279.6083
  79   2.0000     -10.275030      -279.5978
  80   2.0000      -8.792757      -239.2631
  81   2.0000      -8.090006      -220.1402
  82   2.0000      -8.070521      -219.6100
  83   2.0000      -8.069411      -219.5798
  84   2.0000      -8.066078      -219.4892
  85   2.0000      -8.061024      -219.3516
  86   2.0000      -6.628930      -180.3823
  87   2.0000      -6.614546      -179.9909
  88   2.0000      -6.614368      -179.9861
  89   2.0000      -6.059563      -164.8891
  90   2.0000      -6.055255      -164.7719
  91   2.0000      -6.051623      -164.6730
  92   2.0000      -6.040231      -164.3630
  93   2.0000      -6.038588      -164.3183
  94   2.0000      -6.035957      -164.2467
  95   2.0000      -6.035723      -164.2404
  96   2.0000      -6.034687      -164.2122
  97   2.0000      -6.031853      -164.1351
  98   2.0000      -6.031695      -164.1308
  99   2.0000      -6.031452      -164.1242
 100   2.0000      -6.030591      -164.1007
 101   2.0000      -6.027174      -164.0077
 102   2.0000      -6.026641      -163.9932
 103   2.0000      -6.022337      -163.8761
 104   2.0000      -2.744877       -74.6919
 105   2.0000      -2.740781       -74.5804
 106   2.0000      -2.740633       -74.5764
 107   2.0000      -2.729203       -74.2654
 108   2.0000      -2.729192       -74.2651
 109   2.0000      -1.323032       -36.0015
 110   2.0000      -1.302360       -35.4390
 111   2.0000      -1.287359       -35.0308
 112   2.0000      -1.177007       -32.0280
 113   2.0000      -1.147338       -31.2206
 114   2.0000      -1.142224       -31.0815
 115   2.0000      -1.112328       -30.2680
 116   2.0000      -1.104187       -30.0464
 117   2.0000      -1.025209       -27.8974
 118   2.0000      -1.017177       -27.6788
 119   2.0000      -1.015523       -27.6338
 120   2.0000      -1.014677       -27.6108
 121   2.0000      -1.007699       -27.4209
 122   2.0000      -1.001573       -27.2542
 123   2.0000      -1.000651       -27.2291
 124   2.0000      -0.993430       -27.0326
 125   2.0000      -0.991609       -26.9831
 126   2.0000      -0.985734       -26.8232
 127   2.0000      -0.976676       -26.5767
 128   2.0000      -0.962523       -26.1916
 129   2.0000      -0.944033       -25.6884
 130   2.0000      -0.940727       -25.5985
 131   2.0000      -0.929610       -25.2960
 132   2.0000      -0.918342       -24.9894
 133   2.0000      -0.911788       -24.8110
 134   2.0000      -0.910472       -24.7752
 135   2.0000      -0.903998       -24.5990
 136   2.0000      -0.900424       -24.5018
 137   2.0000      -0.887729       -24.1563
 138   2.0000      -0.885531       -24.0965
 139   2.0000      -0.881772       -23.9942
 140   2.0000      -0.876419       -23.8486
 141   2.0000      -0.873277       -23.7631
 142   2.0000      -0.869320       -23.6554
 143   2.0000      -0.862813       -23.4783
 144   2.0000      -0.853286       -23.2191
 145   2.0000      -0.849107       -23.1054
 146   2.0000      -0.844626       -22.9835
 147   2.0000      -0.838181       -22.8081
 148   2.0000      -0.829443       -22.5703
 149   2.0000      -0.821544       -22.3553
 150   2.0000      -0.819833       -22.3088
 151   2.0000      -0.803319       -21.8594
 152   2.0000      -0.798392       -21.7254
 153   2.0000      -0.786930       -21.4135
 154   2.0000      -0.775296       -21.0969
 155   2.0000      -0.764247       -20.7962
 156   2.0000      -0.755868       -20.5682
 157   2.0000      -0.748515       -20.3681
 158   2.0000      -0.743187       -20.2231
 159   2.0000      -0.730897       -19.8887
 160   2.0000      -0.726350       -19.7650
 161   2.0000      -0.717897       -19.5350
 162   2.0000      -0.707006       -19.2386
 163   2.0000      -0.704707       -19.1761
 164   2.0000      -0.698605       -19.0100
 165   2.0000      -0.693440       -18.8695
 166   2.0000      -0.691865       -18.8266
 167   2.0000      -0.685830       -18.6624
 168   2.0000      -0.675601       -18.3840
 169   2.0000      -0.674358       -18.3502
 170   2.0000      -0.665498       -18.1091
 171   2.0000      -0.662234       -18.0203
 172   2.0000      -0.659933       -17.9577
 173   2.0000      -0.652983       -17.7686
 174   2.0000      -0.650761       -17.7081
 175   2.0000      -0.643878       -17.5208
 176   2.0000      -0.638097       -17.3635
 177   2.0000      -0.634911       -17.2768
 178   2.0000      -0.634653       -17.2698
 179   2.0000      -0.634005       -17.2522
 180   2.0000      -0.630430       -17.1549
 181   2.0000      -0.626385       -17.0448
 182   2.0000      -0.624231       -16.9862
 183   2.0000      -0.622487       -16.9387
 184   2.0000      -0.620570       -16.8866
 185   2.0000      -0.613151       -16.6847
 186   2.0000      -0.607969       -16.5437
 187   2.0000      -0.606366       -16.5001
 188   2.0000      -0.596354       -16.2276
 189   2.0000      -0.595879       -16.2147
 190   2.0000      -0.591783       -16.1032
 191   2.0000      -0.584978       -15.9181
 192   2.0000      -0.579760       -15.7761
 193   2.0000      -0.575602       -15.6629
 194   2.0000      -0.573654       -15.6099
 195   2.0000      -0.569091       -15.4858
 196   2.0000      -0.567155       -15.4331
 197   2.0000      -0.562021       -15.2934
 198   2.0000      -0.561121       -15.2689
 199   2.0000      -0.559907       -15.2359
 200   2.0000      -0.557235       -15.1631
 201   2.0000      -0.554319       -15.0838
 202   2.0000      -0.549731       -14.9589
 203   2.0000      -0.547914       -14.9095
 204   2.0000      -0.543363       -14.7857
 205   2.0000      -0.541225       -14.7275
 206   2.0000      -0.538180       -14.6446
 207   2.0000      -0.535898       -14.5825
 208   2.0000      -0.532695       -14.4954
 209   2.0000      -0.530282       -14.4297
 210   2.0000      -0.529082       -14.3971
 211   2.0000      -0.525961       -14.3121
 212   2.0000      -0.524929       -14.2840
 213   2.0000      -0.523535       -14.2461
 214   2.0000      -0.521358       -14.1869
 215   2.0000      -0.520452       -14.1622
 216   2.0000      -0.516632       -14.0583
 217   2.0000      -0.515798       -14.0356
 218   2.0000      -0.512089       -13.9347
 219   2.0000      -0.511235       -13.9114
 220   2.0000      -0.507158       -13.8005
 221   2.0000      -0.504496       -13.7280
 222   2.0000      -0.501085       -13.6352
 223   2.0000      -0.499709       -13.5978
 224   2.0000      -0.497833       -13.5467
 225   2.0000      -0.497075       -13.5261
 226   2.0000      -0.496497       -13.5104
 227   2.0000      -0.491895       -13.3851
 228   2.0000      -0.488782       -13.3004
 229   2.0000      -0.486358       -13.2345
 230   2.0000      -0.484091       -13.1728
 231   2.0000      -0.480433       -13.0732
 232   2.0000      -0.477902       -13.0044
 233   2.0000      -0.477047       -12.9811
 234   2.0000      -0.472685       -12.8624
 235   2.0000      -0.469558       -12.7773
 236   2.0000      -0.466868       -12.7041
 237   2.0000      -0.463796       -12.6205
 238   2.0000      -0.460482       -12.5304
 239   2.0000      -0.458765       -12.4836
 240   2.0000      -0.458016       -12.4632
 241   2.0000      -0.453731       -12.3466
 242   2.0000      -0.452805       -12.3214
 243   2.0000      -0.452537       -12.3142
 244   2.0000      -0.450337       -12.2543
 245   2.0000      -0.449307       -12.2263
 246   2.0000      -0.445589       -12.1251
 247   2.0000      -0.442999       -12.0546
 248   2.0000      -0.440420       -11.9844
 249   2.0000      -0.439795       -11.9674
 250   2.0000      -0.437627       -11.9084
 251   2.0000      -0.435023       -11.8376
 252   2.0000      -0.433197       -11.7879
 253   2.0000      -0.432114       -11.7584
 254   2.0000      -0.429451       -11.6860
 255   2.0000      -0.427938       -11.6448
 256   2.0000      -0.426024       -11.5927
 257   2.0000      -0.424153       -11.5418
 258   2.0000      -0.418823       -11.3968
 259   2.0000      -0.416440       -11.3319
 260   2.0000      -0.415123       -11.2961
 261   2.0000      -0.410585       -11.1726
 262   2.0000      -0.409162       -11.1339
 263   2.0000      -0.406616       -11.0646
 264   2.0000      -0.401697       -10.9307
 265   2.0000      -0.393951       -10.7199
 266   2.0000      -0.389016       -10.5857
 267   2.0000      -0.387328       -10.5397
 268   2.0000      -0.385453       -10.4887
 269   2.0000      -0.383394       -10.4327
 270   2.0000      -0.380747       -10.3607
 271   2.0000      -0.375682       -10.2228
 272   2.0000      -0.372766       -10.1435
 273   2.0000      -0.371306       -10.1038
 274   2.0000      -0.369822       -10.0634
 275   2.0000      -0.364937        -9.9304
 276   2.0000      -0.356974        -9.7138
 277   2.0000      -0.355441        -9.6720
 278   2.0000      -0.353474        -9.6185
 279   2.0000      -0.346692        -9.4340
 280   2.0000      -0.338787        -9.2189
 281   2.0000      -0.335872        -9.1395
 282   2.0000      -0.325569        -8.8592
 283   2.0000      -0.318677        -8.6716
 284   2.0000      -0.311116        -8.4659
 285   2.0000      -0.308531        -8.3956
 286   2.0000      -0.298970        -8.1354
 287   2.0000      -0.292284        -7.9535
 288   2.0000      -0.284353        -7.7376
 289   2.0000      -0.281054        -7.6479
 290   2.0000      -0.270439        -7.3590
 291   2.0000      -0.224935        -6.1208
 292   0.0000      -0.113232        -3.0812
 293   0.0000      -0.088887        -2.4187
 294   0.0000      -0.069323        -1.8864
 295   0.0000      -0.064956        -1.7675
 296   0.0000      -0.047387        -1.2895

MULLIKEN ATOMIC CHARGES
-----------------------
   0 C :    0.331446
   1 C :   -0.351595
   2 C :   -0.150210
   3 N :    0.128353
   4 C :   -0.202753
   5 N :    0.147875
   6 C :    0.025132
   7 C :    0.008741
   8 C :   -0.080528
   9 C :    0.120372
  10 C :   -0.101391
  11 C :    0.027534
  12 S :    0.183538
  13 C :   -0.127539
  14 C :    0.054738
  15 Br:    0.020229
  16 C :    0.164905
  17 O :   -0.218708
  18 C :   -0.129156
  19 C :    0.023867
  20 N :   -0.017651
  21 C :   -0.106663
  22 S :    0.185630
  23 C :   -0.006753
  24 N :    0.276645
  25 O :   -0.248254
  26 O :   -0.258235
  27 C :    0.024618
  28 C :    0.077340
  29 C :   -0.060730
  30 C :   -0.008270
  31 C :   -0.130486
  32 S :    0.173214
  33 C :   -0.164125
  34 C :    0.200008
  35 C :    0.057834
  36 C :   -0.069309
  37 C :   -0.018927
  38 O :   -0.309023
  39 C :    0.171235
  40 C :    0.051443
  41 C :   -0.035753
  42 C :    0.032331
  43 C :   -0.047334
  44 C :    0.054850
  45 C :    0.018298
  46 C :   -0.023651
  47 S :    0.085633
  48 C :   -0.071992
  49 C :    0.042955
  50 C :    0.036299
  51 C :   -0.027549
  52 S :    0.086147
  53 C :    0.019026
  54 C :    0.008308
  55 C :   -0.108086
  56 C :    0.129127
  57 O :   -0.182373
  58 C :    0.023094
  59 C :   -0.083063
  60 C :    0.099181
  61 C :    0.119293
  62 C :   -0.119352
  63 C :    0.242534
  64 C :    0.238614
  65 C :   -0.103264
  66 F :   -0.176414
  67 F :   -0.177714
  68 C :   -0.094671
  69 C :    0.043043
  70 C :    0.290266
  71 C :   -0.349234
  72 C :   -0.221844
  73 N :    0.156059
  74 C :   -0.175769
  75 N :    0.132375
  76 H :   -0.021278
  77 H :   -0.021921
  78 H :   -0.008845
  79 H :    0.047349
  80 H :    0.187695
  81 H :    0.009934
  82 H :    0.024398
  83 H :    0.034762
  84 H :    0.012986
  85 H :    0.041135
  86 H :    0.031920
  87 H :    0.040257
  88 H :    0.045733
  89 H :    0.031597
  90 H :    0.005279
  91 H :    0.017475
  92 H :   -0.002994
  93 H :   -0.001094
  94 H :   -0.005502
  95 H :   -0.006513
  96 H :    0.000057
  97 H :    0.003014
  98 H :    0.012328
  99 H :   -0.030764
 100 H :    0.001423
 101 H :    0.006440
 102 H :   -0.008639
Sum of atomic charges:   -0.0000000

LOEWDIN ATOMIC CHARGES
----------------------
   0 C :    0.090025
   1 C :   -0.154899
   2 C :    0.002525
   3 N :   -0.066397
   4 C :   -0.021612
   5 N :   -0.057080
   6 C :   -0.015384
   7 C :   -0.049254
   8 C :    0.021948
   9 C :   -0.033000
  10 C :   -0.140541
  11 C :    0.010085
  12 S :    0.446951
  13 C :   -0.275221
  14 C :   -0.073851
  15 Br:    0.140703
  16 C :    0.098325
  17 O :   -0.177612
  18 C :   -0.141521
  19 C :    0.110583
  20 N :    0.072376
  21 C :   -0.110884
  22 S :    0.477146
  23 C :   -0.205942
  24 N :    0.272927
  25 O :   -0.214704
  26 O :   -0.223939
  27 C :    0.000750
  28 C :   -0.094596
  29 C :   -0.033140
  30 C :   -0.025283
  31 C :   -0.149316
  32 S :    0.476052
  33 C :   -0.215455
  34 C :    0.041180
  35 C :   -0.091519
  36 C :   -0.028267
  37 C :   -0.030997
  38 O :   -0.095350
  39 C :    0.082403
  40 C :    0.007718
  41 C :   -0.064255
  42 C :   -0.010319
  43 C :   -0.164259
  44 C :   -0.008540
  45 C :   -0.044871
  46 C :   -0.145819
  47 S :    0.389067
  48 C :   -0.203346
  49 C :   -0.008493
  50 C :   -0.043038
  51 C :   -0.101863
  52 S :    0.411181
  53 C :   -0.072845
  54 C :    0.043226
  55 C :   -0.111429
  56 C :    0.074364
  57 O :   -0.171315
  58 C :   -0.061769
  59 C :    0.023329
  60 C :   -0.010389
  61 C :   -0.007818
  62 C :   -0.036279
  63 C :    0.065425
  64 C :    0.062052
  65 C :   -0.025319
  66 F :   -0.054353
  67 F :   -0.054684
  68 C :    0.007590
  69 C :   -0.018732
  70 C :    0.068913
  71 C :   -0.155236
  72 C :   -0.024923
  73 N :   -0.063818
  74 C :   -0.019254
  75 N :   -0.066690
  76 H :    0.036537
  77 H :    0.037352
  78 H :    0.031516
  79 H :    0.036923
  80 H :    0.085790
  81 H :    0.047475
  82 H :    0.031973
  83 H :    0.040473
  84 H :    0.030709
  85 H :    0.028346
  86 H :    0.028956
  87 H :    0.030863
  88 H :    0.023711
  89 H :    0.017613
  90 H :    0.039274
  91 H :    0.014789
  92 H :    0.038598
  93 H :    0.038414
  94 H :    0.034815
  95 H :    0.035547
  96 H :    0.039195
  97 H :    0.035828
  98 H :    0.031117
  99 H :    0.033466
 100 H :    0.044923
 101 H :    0.046301
 102 H :    0.038071

  Mayer bond orders larger than 0.100000
B(  0-C ,  1-C ) :   1.6170 B(  0-C ,  6-C ) :   1.0158 B(  0-C , 18-C ) :   1.0940
B(  1-C ,  2-C ) :   1.1571 B(  1-C ,  4-C ) :   1.1417 B(  2-C ,  3-N ) :   2.9119
B(  4-C ,  5-N ) :   2.9692 B(  6-C ,  7-C ) :   1.2709 B(  6-C , 11-C ) :   1.4244
B(  7-C ,  8-C ) :   1.4105 B(  7-C , 16-C ) :   0.9833 B(  8-C ,  9-C ) :   1.2359
B(  8-C , 76-H ) :   1.0165 B(  9-C , 10-C ) :   1.3146 B(  9-C , 14-C ) :   1.1654
B( 10-C , 11-C ) :   1.3128 B( 10-C , 12-S ) :   1.0933 B( 11-C , 77-H ) :   0.9761
B( 12-S , 13-C ) :   1.0833 B( 13-C , 14-C ) :   1.6081 B( 13-C , 15-Br) :   1.0182
B( 14-C , 78-H ) :   0.9928 B( 16-C , 17-O ) :   2.0394 B( 16-C , 18-C ) :   0.9903
B( 17-O , 80-H ) :   0.1449 B( 18-C , 19-C ) :   1.4766 B( 19-C , 20-N ) :   1.3256
B( 19-C , 79-H ) :   0.9352 B( 20-N , 21-C ) :   1.1802 B( 20-N , 80-H ) :   0.8170
B( 21-C , 22-S ) :   1.1428 B( 21-C , 28-C ) :   1.4274 B( 22-S , 23-C ) :   1.0877
B( 23-C , 24-N ) :   0.9672 B( 23-C , 27-C ) :   1.4809 B( 24-N , 25-O ) :   1.5377
B( 24-N , 26-O ) :   1.5157 B( 25-O , 26-O ) :   0.2606 B( 27-C , 28-C ) :   1.2552
B( 27-C , 81-H ) :   1.0089 B( 28-C , 29-C ) :   1.0019 B( 29-C , 30-C ) :   1.7922
B( 29-C , 82-H ) :   0.9660 B( 30-C , 31-C ) :   1.1040 B( 30-C , 83-H ) :   0.9546
B( 31-C , 32-S ) :   1.1750 B( 31-C , 33-C ) :   0.1041 B( 31-C , 35-C ) :   1.4666
B( 32-S , 33-C ) :   1.0941 B( 33-C , 34-C ) :   1.4152 B( 33-C , 40-C ) :   1.1886
B( 34-C , 35-C ) :   1.2072 B( 34-C , 38-O ) :   1.2086 B( 35-C , 36-C ) :   1.0250
B( 36-C , 37-C ) :   1.9596 B( 36-C , 84-H ) :   0.9550 B( 37-C , 85-H ) :   0.9583
B( 37-C , 86-H ) :   0.9510 B( 38-O , 39-C ) :   0.9385 B( 39-C , 87-H ) :   0.9756
B( 39-C , 88-H ) :   0.9627 B( 39-C , 89-H ) :   0.9748 B( 40-C , 41-C ) :   1.5636
B( 40-C , 90-H ) :   0.9839 B( 41-C , 42-C ) :   1.1957 B( 41-C , 91-H ) :   0.9626
B( 42-C , 43-C ) :   1.5349 B( 42-C , 92-H ) :   0.9845 B( 43-C , 44-C ) :   1.1671
B( 43-C , 47-S ) :   1.0201 B( 44-C , 45-C ) :   1.5584 B( 44-C , 93-H ) :   0.9987
B( 45-C , 46-C ) :   1.2121 B( 45-C , 94-H ) :   0.9963 B( 46-C , 47-S ) :   1.0899
B( 46-C , 48-C ) :   1.4397 B( 48-C , 49-C ) :   1.2329 B( 48-C , 52-S ) :   1.0395
B( 49-C , 50-C ) :   1.5210 B( 49-C , 95-H ) :   0.9947 B( 50-C , 51-C ) :   1.1972
B( 50-C , 96-H ) :   1.0016 B( 51-C , 52-S ) :   1.0867 B( 51-C , 53-C ) :   1.4693
B( 53-C , 54-C ) :   1.2406 B( 53-C , 97-H ) :   0.9638 B( 54-C , 55-C ) :   1.5065
B( 54-C , 98-H ) :   0.9415 B( 55-C , 56-C ) :   0.9906 B( 55-C , 70-C ) :   1.0786
B( 56-C , 57-O ) :   2.1514 B( 56-C , 58-C ) :   0.9290 B( 58-C , 59-C ) :   1.4561
B( 58-C , 69-C ) :   1.2047 B( 59-C , 60-C ) :   1.2048 B( 59-C , 99-H ) :   1.0097
B( 60-C , 61-C ) :   1.2530 B( 60-C , 65-C ) :   1.2045 B( 61-C , 62-C ) :   1.1926
B( 61-C , 68-C ) :   1.1971 B( 62-C , 63-C ) :   1.4352 B( 62-C , 65-C ) :   0.1109
B( 62-C ,100-H ) :   1.0082 B( 63-C , 64-C ) :   1.1951 B( 63-C , 67-F ) :   1.1267
B( 64-C , 65-C ) :   1.4271 B( 64-C , 66-F ) :   1.1306 B( 65-C ,101-H ) :   1.0054
B( 68-C , 69-C ) :   1.4669 B( 68-C ,102-H ) :   0.9932 B( 69-C , 70-C ) :   0.9932
B( 70-C , 71-C ) :   1.5973 B( 71-C , 72-C ) :   1.1699 B( 71-C , 74-C ) :   1.1348
B( 72-C , 73-N ) :   3.0077 B( 74-C , 75-N ) :   2.9702

-----------------------------------------------------------------------------
         ABSORPTION SPECTRUM VIA TRANSITION ELECTRIC DIPOLE MOMENTS
-----------------------------------------------------------------------------
State   Energy  Wavelength   fosc         T2         TX        TY        TZ
        (cm-1)    (nm)                  (au**2)     (au)      (au)      (au)
-----------------------------------------------------------------------------
   0   10565.7    946.5   1.030084065  32.09599  -0.06554  -3.79675  -4.20433
   1   16774.9    596.1   0.033218230   0.65192  -0.26463   0.64835  -0.40190
   2   19579.1    510.7   0.028805715   0.48435  -0.13666  -0.46414  -0.50025
   3   20212.1    494.8   0.098757131   1.60854   0.13586   0.01237   1.26092
   4   21176.8    472.2   0.523290193   8.13500   0.25509  -1.37043   2.48834
   5   23162.6    431.7   0.068582115   0.97477   0.17661   0.96480   0.11285
   6   23633.5    423.1   0.050933518   0.70950   0.15961   0.69418  -0.44959
   7   23981.6    417.0   0.164274489   2.25511   0.71914   1.26119  -0.38386
   8   24109.6    414.8   0.846697681  11.56151  -1.64990  -2.81418  -0.95903
   9   24990.5    400.2   0.327360832   4.31248   0.40914  -1.45178   1.42738
  10   26507.9    377.2   0.073364968   0.91115  -0.00515  -0.84649   0.44110
  11   26784.1    373.4   0.045170232   0.55520  -0.74146   0.00952  -0.07318
  12   26961.8    370.9   0.026181853   0.31969  -0.50958  -0.09447  -0.22603
  13   27662.8    361.5   0.055034347   0.65496  -0.02291   0.05325   0.80722
  14   28063.1    356.3   0.003562962   0.04180  -0.11096   0.13878  -0.10112
  15   28284.7    353.5   0.078546363   0.91422   0.25652   0.90040  -0.19416
  16   28346.9    352.8   0.271955959   3.15841  -0.75737  -1.34622   0.87892
  17   28491.0    351.0   0.156101617   1.80375   0.75501   1.10501  -0.11252
  18   28990.0    344.9   0.343872596   3.90503  -0.82452  -1.32660   1.21051
  19   29189.2    342.6   0.062800726   0.70830   0.10178   0.77492  -0.31217
  20   29383.3    340.3   0.011051302   0.12382  -0.22475  -0.26157  -0.06991
  21   30176.2    331.4   0.119020993   1.29848   0.46503   0.15165  -1.02919
  22   30858.0    324.1   0.113733633   1.21338  -0.50810  -0.95912   0.18788
  23   31130.6    321.2   0.080233668   0.84849   0.33134   0.29836  -0.80603
  24   31166.1    320.9   0.160635914   1.69682   0.09640   0.87265  -0.96230
  25   31803.3    314.4   0.082785254   0.85695   0.85408  -0.13462  -0.33071
  26   32008.7    312.4   0.194747236   2.00299   0.40083  -0.76051   1.12426
  27   32459.0    308.1   0.008232354   0.08350   0.06413  -0.15954   0.23223
  28   32564.4    307.1   0.224996032   2.27461  -0.76825   0.71946  -1.08018
  29   33179.6    301.4   0.068707867   0.68173  -0.43469   0.64820   0.26945
  30   33271.1    300.6   0.020068929   0.19858  -0.09641   0.10865  -0.42128
  31   33540.8    298.1   0.289506317   2.84158   0.21166  -0.95420   1.37342
  32   33652.0    297.2   0.011965939   0.11706   0.05680   0.32192  -0.10101
  33   33796.9    295.9   0.048370120   0.47117  -0.11125   0.08917   0.67145
  34   33884.9    295.1   0.008804264   0.08554   0.05448   0.25806  -0.12640
  35   34235.4    292.1   0.072728456   0.69937   0.46081   0.29030  -0.63462
  36   34308.5    291.5   0.017580961   0.16870  -0.18240  -0.28590   0.23172
  37   34675.1    288.4   0.008949568   0.08497   0.05254  -0.28561  -0.02521
  38   34829.7    287.1   0.106406685   1.00576  -0.38497   0.80086   0.46496
  39   35045.6    285.3   0.020251923   0.19024   0.43451   0.02689   0.02681
  40   35253.9    283.7   0.100978393   0.94297   0.18034  -0.37542   0.87721
  41   35403.1    282.5   0.032571667   0.30288  -0.12125  -0.27338   0.46200
  42   35722.0    279.9   0.028881705   0.26617  -0.13224  -0.08235  -0.49184
  43   35826.1    279.1   0.004207596   0.03866  -0.05524  -0.10496   0.15683
  44   36095.9    277.0   0.068004972   0.62024  -0.12016   0.62179   0.46816
  45   36287.2    275.6   0.040829323   0.37042  -0.31753  -0.40187  -0.32878
  46   36473.1    274.2   0.034015709   0.30703  -0.21896  -0.26764  -0.43297
  47   36736.1    272.2   0.036049605   0.32306   0.03705  -0.55301  -0.12598
  48   37154.6    269.1   0.028639121   0.25376  -0.00671  -0.50186   0.04307
  49   37315.2    268.0   0.121957279   1.07596  -0.02827   0.56997  -0.86620
  50   37644.6    265.6   0.060743621   0.53122  -0.30212  -0.62373  -0.22562
  51   37708.2    265.2   0.032055316   0.27986  -0.44466   0.18584  -0.21816
  52   37915.9    263.7   0.040751914   0.35384   0.28427  -0.35235   0.38584
  53   37942.4    263.6   0.053648043   0.46548  -0.04951  -0.58858  -0.34148
  54   38117.2    262.3   0.009361137   0.08085   0.00557  -0.12346  -0.25608
  55   38184.9    261.9   0.046244934   0.39870  -0.37271   0.19660  -0.47025
  56   38391.0    260.5   0.147566825   1.26542   0.42424  -0.82726   0.63331
  57   38704.5    258.4   0.065103300   0.55375  -0.15195  -0.50665   0.52342
  58   38739.1    258.1   0.042197753   0.35860  -0.39101  -0.04213   0.45160
  59   38834.5    257.5   0.005259255   0.04458   0.06246   0.18979  -0.06830
  60   38981.8    256.5   0.164840742   1.39213  -0.18848   1.12297   0.30910
  61   39793.3    251.3   0.065973452   0.54580  -0.55740   0.34088   0.34482
  62   39841.3    251.0   0.092490292   0.76426   0.18196  -0.19763  -0.83192
  63   40118.7    249.3   0.053018045   0.43506   0.37493  -0.25836   0.47722
  64   40221.3    248.6   0.004022126   0.03292   0.05911   0.16797  -0.03483

FINAL SINGLE POINT ENERGY     -7652.850868355586

DIPOLE MOMENT
-------------
                                X             Y             Z
Electronic contribution:     33.38211      82.64046      56.53850
Nuclear contribution   :    -31.09211     -85.18787     -64.46281
                        -----------------------------------------
Total Dipole Moment    :      2.29000      -2.54742      -7.92430
                        -----------------------------------------
Magnitude (a.u.)       :      8.63296
Magnitude (Debye)      :     21.94324

Rotational constants in cm-1:     0.000874     0.000502     0.000359
Rotational constants in MHz :    26.192439    15.034841    10.763321

                             ****ORCA TERMINATED NORMALLY****
TOTAL RUN TIME: 0 days 0 hours 14 minutes 0 seconds 551 msec
