                         Program Version 4.2.0 -  RELEASE  -
|  1> # ORCA input file
|  2> # SCF done       -200.070477127780          0.000278346847
|  3> ! CAM-B3LYP def2-SVP def2/J RIJCOSX Grid4 TightSCF
|  4> %maxcore 5000
|  5> %tddft
|  6>     Mode sTDDFT
|  7>     Ethresh 5.0
|  8>     maxcore 5000
|  9> end
| 10>
| 11> %pal
| 12>   nprocs 6
| 13>   end
| 14> * xyz 0 1
| 15>    C      -13.47106         3.29390        -1.24424
| 16>    C      -13.91338         2.34791        -0.35766
| 17>    C      -14.64167         2.64971         0.81072
| 18>    N      -15.20642         2.85481         1.78855
| 19>    C      -13.60506         0.97726        -0.46961
| 20>    N      -13.34734        -0.13992        -0.52588
| 21>    C      -13.67765         4.73174        -1.14249
| 22>    C      -12.84711         5.39184        -2.08836
| 23>    C      -12.83195         6.76195        -2.21769
| 24>    C      -13.70123         7.50882        -1.41227
| 25>    C      -14.54559         6.83208        -0.49712
| 26>    C      -14.53539         5.45256        -0.33724
| 27>    S      -15.58486         7.92827         0.35171
| 28>    C      -14.88321         9.26871        -0.51708
| 29>    C      -13.91246         8.91520        -1.39357
| 30>   Br      -15.54606        10.98904        -0.18744
| 31>    C      -12.12258         4.37462        -2.86152
| 32>    O      -11.27966         4.53527        -3.73797
| 33>    C      -12.61803         3.07371        -2.38922
| 34>    C      -12.33058         1.90167        -3.03499
| 35>    N      -11.47743         1.87449        -4.07032
| 36>    C      -11.20269         0.79262        -4.85426
| 37>    S      -12.32432        -0.52992        -4.96134
| 38>    C      -11.29973        -1.28215        -6.13717
| 39>    N      -11.70392        -2.52445        -6.65647
| 40>    O      -10.98421        -3.04980        -7.48093
| 41>    O      -12.75322        -2.97290        -6.23490
| 42>    C      -10.17434        -0.56173        -6.42508
| 43>    C      -10.08323         0.63246        -5.67962
| 44>    C       -8.93271         1.49419        -5.74617
| 45>    C       -8.59647         2.38864        -4.79490
| 46>    C       -7.48785         3.27869        -4.83618
| 47>    O       -6.64027         3.31188        -5.90218
| 48>    C       -5.78901         4.30941        -5.74450
| 49>    C       -6.04519         4.97747        -4.56812
| 50>    N       -5.37603         6.11426        -4.07265
| 51>    O       -4.38924         6.49454        -4.66150
| 52>    O       -5.84884         6.64044        -3.07592
| 53>    C       -7.15028         4.30365        -3.94923
| 54>    N       -7.71950         4.68285        -2.77404
| 55>    C       -8.52796         3.94859        -1.97368
| 56>    C       -9.34807         4.50823        -1.03843
| 57>    C      -10.22164         3.84929        -0.13506
| 58>    C      -10.97124         4.69585         0.62395
| 59>    C      -10.72833         6.06411         0.36511
| 60>    S       -9.50742         6.25249        -0.86445
| 61>    C      -11.32990         7.18177         0.91477
| 62>    C      -12.37122         7.26814         1.86079
| 63>    C      -12.75867         8.54874         2.13653
| 64>    C      -12.03218         9.53407         1.42946
| 65>    S      -10.83955         8.78100         0.40349
| 66>    C      -12.16097        10.91026         1.41086
| 67>    C      -13.10592        11.63830         2.12251
| 68>    C      -13.33101        12.99639         2.03850
| 69>    C      -14.07868        13.66226         3.12921
| 70>    O      -14.69503        13.12138         4.02163
| 71>    C      -13.86254        15.10985         2.92659
| 72>    C      -14.24375        16.15487         3.71583
| 73>    C      -13.87382        17.46762         3.34368
| 74>    C      -13.10811        17.66620         2.15926
| 75>    C      -12.72954        18.97451         1.79888
| 76>    C      -13.09653        20.03669         2.57682
| 77>    C      -13.85545        19.83950         3.74685
| 78>    C      -14.23722        18.58215         4.12360
| 79>    F      -14.20047        20.89960         4.49233
| 80>    F      -12.73494        21.28084         2.23210
| 81>    C      -12.73547        16.56213         1.35714
| 82>    C      -13.11434        15.30161         1.73078
| 83>    C      -12.89036        13.99515         1.10485
| 84>    C      -12.50699        13.82914        -0.20719
| 85>    C      -12.50188        12.62311        -0.92997
| 86>    N      -12.49841        11.69801        -1.61282
| 87>    C      -12.15494        14.89495        -1.06073
| 88>    N      -11.84061        15.70926        -1.80736
| 89>    H      -12.18419         7.24851        -2.92996
| 90>    H      -15.19773         4.98281         0.37075
| 91>    H      -13.36619         9.62597        -1.98814
| 92>    H      -12.77660         0.95939        -2.74318
| 93>    H      -11.09934         2.80036        -4.32889
| 94>    H       -9.43368        -0.89765        -7.12818
| 95>    H       -8.28579         1.35351        -6.59954
| 96>    H       -9.19988         2.48929        -3.91076
| 97>    H       -5.04719         4.48718        -6.49839
| 98>    H       -7.49569         5.63821        -2.48831
| 99>    H       -8.49114         2.87410        -2.07739
|100>    H      -10.26903         2.77573        -0.07948
|101>    H      -11.68853         4.37931         1.36006
|102>    H      -12.81120         6.39384         2.30694
|103>    H      -13.53895         8.80330         2.83095
|104>    H      -11.46056        11.44379         0.78558
|105>    H      -13.69749        11.13146         2.87615
|106>    H      -14.81636        15.98392         4.61465
|107>    H      -12.15088        19.14295         0.90406
|108>    H      -14.81772        18.44801         5.02289
|109>    H      -12.14819        16.74598         0.47214
|110> *
|111>
|112>                          ****END OF INPUT****

CARTESIAN COORDINATES (ANGSTROEM)
---------------------------------
  C    -13.471060    3.293900   -1.244240
  C    -13.913380    2.347910   -0.357660
  C    -14.641670    2.649710    0.810720
  N    -15.206420    2.854810    1.788550
  C    -13.605060    0.977260   -0.469610
  N    -13.347340   -0.139920   -0.525880
  C    -13.677650    4.731740   -1.142490
  C    -12.847110    5.391840   -2.088360
  C    -12.831950    6.761950   -2.217690
  C    -13.701230    7.508820   -1.412270
  C    -14.545590    6.832080   -0.497120
  C    -14.535390    5.452560   -0.337240
  S    -15.584860    7.928270    0.351710
  C    -14.883210    9.268710   -0.517080
  C    -13.912460    8.915200   -1.393570
  Br   -15.546060   10.989040   -0.187440
  C    -12.122580    4.374620   -2.861520
  O    -11.279660    4.535270   -3.737970
  C    -12.618030    3.073710   -2.389220
  C    -12.330580    1.901670   -3.034990
  N    -11.477430    1.874490   -4.070320
  C    -11.202690    0.792620   -4.854260
  S    -12.324320   -0.529920   -4.961340
  C    -11.299730   -1.282150   -6.137170
  N    -11.703920   -2.524450   -6.656470
  O    -10.984210   -3.049800   -7.480930
  O    -12.753220   -2.972900   -6.234900
  C    -10.174340   -0.561730   -6.425080
  C    -10.083230    0.632460   -5.679620
  C     -8.932710    1.494190   -5.746170
  C     -8.596470    2.388640   -4.794900
  C     -7.487850    3.278690   -4.836180
  O     -6.640270    3.311880   -5.902180
  C     -5.789010    4.309410   -5.744500
  C     -6.045190    4.977470   -4.568120
  N     -5.376030    6.114260   -4.072650
  O     -4.389240    6.494540   -4.661500
  O     -5.848840    6.640440   -3.075920
  C     -7.150280    4.303650   -3.949230
  N     -7.719500    4.682850   -2.774040
  C     -8.527960    3.948590   -1.973680
  C     -9.348070    4.508230   -1.038430
  C    -10.221640    3.849290   -0.135060
  C    -10.971240    4.695850    0.623950
  C    -10.728330    6.064110    0.365110
  S     -9.507420    6.252490   -0.864450
  C    -11.329900    7.181770    0.914770
  C    -12.371220    7.268140    1.860790
  C    -12.758670    8.548740    2.136530
  C    -12.032180    9.534070    1.429460
  S    -10.839550    8.781000    0.403490
  C    -12.160970   10.910260    1.410860
  C    -13.105920   11.638300    2.122510
  C    -13.331010   12.996390    2.038500
  C    -14.078680   13.662260    3.129210
  O    -14.695030   13.121380    4.021630
  C    -13.862540   15.109850    2.926590
  C    -14.243750   16.154870    3.715830
  C    -13.873820   17.467620    3.343680
  C    -13.108110   17.666200    2.159260
  C    -12.729540   18.974510    1.798880
  C    -13.096530   20.036690    2.576820
  C    -13.855450   19.839500    3.746850
  C    -14.237220   18.582150    4.123600
  F    -14.200470   20.899600    4.492330
  F    -12.734940   21.280840    2.232100
  C    -12.735470   16.562130    1.357140
  C    -13.114340   15.301610    1.730780
  C    -12.890360   13.995150    1.104850
  C    -12.506990   13.829140   -0.207190
  C    -12.501880   12.623110   -0.929970
  N    -12.498410   11.698010   -1.612820
  C    -12.154940   14.894950   -1.060730
  N    -11.840610   15.709260   -1.807360
  H    -12.184190    7.248510   -2.929960
  H    -15.197730    4.982810    0.370750
  H    -13.366190    9.625970   -1.988140
  H    -12.776600    0.959390   -2.743180
  H    -11.099340    2.800360   -4.328890
  H     -9.433680   -0.897650   -7.128180
  H     -8.285790    1.353510   -6.599540
  H     -9.199880    2.489290   -3.910760
  H     -5.047190    4.487180   -6.498390
  H     -7.495690    5.638210   -2.488310
  H     -8.491140    2.874100   -2.077390
  H    -10.269030    2.775730   -0.079480
  H    -11.688530    4.379310    1.360060
  H    -12.811200    6.393840    2.306940
  H    -13.538950    8.803300    2.830950
  H    -11.460560   11.443790    0.785580
  H    -13.697490   11.131460    2.876150
  H    -14.816360   15.983920    4.614650
  H    -12.150880   19.142950    0.904060
  H    -14.817720   18.448010    5.022890
  H    -12.148190   16.745980    0.472140

 Total Charge           Charge          ....    0
 Multiplicity           Mult            ....    1
 Number of Electrons    NEL             ....  562
 Basis Dimension        Dim             .... 1175

ORBITAL ENERGIES
----------------

  NO   OCC          E(Eh)            E(eV)
   0   2.0000    -482.881806    -13139.8820
   1   2.0000     -89.004934     -2421.9474
   2   2.0000     -88.979106     -2421.2446
   3   2.0000     -88.976621     -2421.1770
   4   2.0000     -88.966454     -2420.9003
   5   2.0000     -62.558960     -1702.3159
   6   2.0000     -56.392947     -1534.5301
   7   2.0000     -56.390251     -1534.4567
   8   2.0000     -56.390161     -1534.4543
   9   2.0000     -24.789761      -674.5637
  10   2.0000     -24.788806      -674.5377
  11   2.0000     -19.347344      -526.4680
  12   2.0000     -19.274221      -524.4782
  13   2.0000     -19.272830      -524.4404
  14   2.0000     -19.252326      -523.8824
  15   2.0000     -19.251871      -523.8701
  16   2.0000     -19.244491      -523.6692
  17   2.0000     -19.199708      -522.4506
  18   2.0000     -14.684106      -399.5748
  19   2.0000     -14.664034      -399.0286
  20   2.0000     -14.509441      -394.8220
  21   2.0000     -14.496613      -394.4729
  22   2.0000     -14.432281      -392.7223
  23   2.0000     -14.428623      -392.6228
  24   2.0000     -14.409055      -392.0903
  25   2.0000     -14.403358      -391.9353
  26   2.0000     -10.392085      -282.7830
  27   2.0000     -10.391962      -282.7797
  28   2.0000     -10.386163      -282.6219
  29   2.0000     -10.382916      -282.5335
  30   2.0000     -10.372031      -282.2373
  31   2.0000     -10.371717      -282.2288
  32   2.0000     -10.371500      -282.2229
  33   2.0000     -10.371121      -282.2126
  34   2.0000     -10.365167      -282.0505
  35   2.0000     -10.361550      -281.9521
  36   2.0000     -10.359135      -281.8864
  37   2.0000     -10.358412      -281.8667
  38   2.0000     -10.357494      -281.8417
  39   2.0000     -10.354933      -281.7721
  40   2.0000     -10.350799      -281.6596
  41   2.0000     -10.347339      -281.5654
  42   2.0000     -10.335886      -281.2538
  43   2.0000     -10.334842      -281.2253
  44   2.0000     -10.332260      -281.1551
  45   2.0000     -10.331745      -281.1411
  46   2.0000     -10.331551      -281.1358
  47   2.0000     -10.330599      -281.1099
  48   2.0000     -10.328100      -281.0419
  49   2.0000     -10.325774      -280.9786
  50   2.0000     -10.325467      -280.9702
  51   2.0000     -10.323917      -280.9281
  52   2.0000     -10.321272      -280.8561
  53   2.0000     -10.319883      -280.8183
  54   2.0000     -10.319363      -280.8041
  55   2.0000     -10.316299      -280.7208
  56   2.0000     -10.316009      -280.7129
  57   2.0000     -10.315680      -280.7039
  58   2.0000     -10.313023      -280.6316
  59   2.0000     -10.312810      -280.6258
  60   2.0000     -10.312039      -280.6048
  61   2.0000     -10.311974      -280.6031
  62   2.0000     -10.310885      -280.5734
  63   2.0000     -10.307782      -280.4890
  64   2.0000     -10.306556      -280.4557
  65   2.0000     -10.304410      -280.3973
  66   2.0000     -10.299654      -280.2678
  67   2.0000     -10.299389      -280.2606
  68   2.0000     -10.297836      -280.2184
  69   2.0000     -10.295780      -280.1624
  70   2.0000     -10.291756      -280.0529
  71   2.0000     -10.290946      -280.0309
  72   2.0000     -10.290730      -280.0250
  73   2.0000     -10.290458      -280.0176
  74   2.0000     -10.290169      -280.0097
  75   2.0000     -10.284060      -279.8435
  76   2.0000     -10.281235      -279.7666
  77   2.0000     -10.277443      -279.6635
  78   2.0000      -8.788179      -239.1385
  79   2.0000      -8.100226      -220.4184
  80   2.0000      -8.074605      -219.7212
  81   2.0000      -8.072655      -219.6681
  82   2.0000      -8.062475      -219.3911
  83   2.0000      -6.624530      -180.2626
  84   2.0000      -6.610040      -179.8683
  85   2.0000      -6.609523      -179.8543
  86   2.0000      -6.069778      -165.1671
  87   2.0000      -6.065384      -165.0475
  88   2.0000      -6.061908      -164.9529
  89   2.0000      -6.044256      -164.4726
  90   2.0000      -6.042416      -164.4225
  91   2.0000      -6.040052      -164.3582
  92   2.0000      -6.038358      -164.3121
  93   2.0000      -6.035943      -164.2464
  94   2.0000      -6.033568      -164.1817
  95   2.0000      -6.032127      -164.1425
  96   2.0000      -6.028000      -164.0302
  97   2.0000      -6.023687      -163.9129
  98   2.0000      -2.740423       -74.5707
  99   2.0000      -2.736414       -74.4616
 100   2.0000      -2.736002       -74.4504
 101   2.0000      -2.724495       -74.1373
 102   2.0000      -2.724480       -74.1369
 103   2.0000      -1.353756       -36.8376
 104   2.0000      -1.334747       -36.3203
 105   2.0000      -1.311828       -35.6967
 106   2.0000      -1.297037       -35.2942
 107   2.0000      -1.267984       -34.5036
 108   2.0000      -1.173772       -31.9400
 109   2.0000      -1.158153       -31.5150
 110   2.0000      -1.154355       -31.4116
 111   2.0000      -1.116542       -30.3826
 112   2.0000      -1.114784       -30.3348
 113   2.0000      -1.101467       -29.9724
 114   2.0000      -1.035951       -28.1897
 115   2.0000      -1.025085       -27.8940
 116   2.0000      -1.024042       -27.8656
 117   2.0000      -1.019802       -27.7502
 118   2.0000      -1.009836       -27.4790
 119   2.0000      -1.009604       -27.4727
 120   2.0000      -1.001947       -27.2644
 121   2.0000      -0.996625       -27.1195
 122   2.0000      -0.994694       -27.0670
 123   2.0000      -0.985076       -26.8053
 124   2.0000      -0.975314       -26.5396
 125   2.0000      -0.969870       -26.3915
 126   2.0000      -0.953856       -25.9558
 127   2.0000      -0.948993       -25.8234
 128   2.0000      -0.926244       -25.2044
 129   2.0000      -0.923860       -25.1395
 130   2.0000      -0.917495       -24.9663
 131   2.0000      -0.911888       -24.8137
 132   2.0000      -0.904755       -24.6196
 133   2.0000      -0.893658       -24.3177
 134   2.0000      -0.893359       -24.3095
 135   2.0000      -0.888701       -24.1828
 136   2.0000      -0.883793       -24.0492
 137   2.0000      -0.878923       -23.9167
 138   2.0000      -0.873739       -23.7756
 139   2.0000      -0.861773       -23.4500
 140   2.0000      -0.859095       -23.3772
 141   2.0000      -0.852120       -23.1874
 142   2.0000      -0.840298       -22.8657
 143   2.0000      -0.839081       -22.8325
 144   2.0000      -0.834815       -22.7165
 145   2.0000      -0.829931       -22.5836
 146   2.0000      -0.814983       -22.1768
 147   2.0000      -0.802397       -21.8343
 148   2.0000      -0.786110       -21.3912
 149   2.0000      -0.775879       -21.1127
 150   2.0000      -0.773536       -21.0490
 151   2.0000      -0.758081       -20.6284
 152   2.0000      -0.753237       -20.4966
 153   2.0000      -0.750147       -20.4125
 154   2.0000      -0.741970       -20.1900
 155   2.0000      -0.735528       -20.0147
 156   2.0000      -0.724656       -19.7189
 157   2.0000      -0.715524       -19.4704
 158   2.0000      -0.710287       -19.3279
 159   2.0000      -0.706394       -19.2220
 160   2.0000      -0.702751       -19.1228
 161   2.0000      -0.697051       -18.9677
 162   2.0000      -0.688535       -18.7360
 163   2.0000      -0.684330       -18.6216
 164   2.0000      -0.675561       -18.3830
 165   2.0000      -0.673222       -18.3193
 166   2.0000      -0.670129       -18.2351
 167   2.0000      -0.666919       -18.1478
 168   2.0000      -0.664035       -18.0693
 169   2.0000      -0.657526       -17.8922
 170   2.0000      -0.653277       -17.7766
 171   2.0000      -0.648336       -17.6421
 172   2.0000      -0.645570       -17.5668
 173   2.0000      -0.644508       -17.5380
 174   2.0000      -0.643822       -17.5193
 175   2.0000      -0.640831       -17.4379
 176   2.0000      -0.637608       -17.3502
 177   2.0000      -0.631137       -17.1741
 178   2.0000      -0.629904       -17.1406
 179   2.0000      -0.626586       -17.0503
 180   2.0000      -0.621494       -16.9117
 181   2.0000      -0.615417       -16.7463
 182   2.0000      -0.609367       -16.5817
 183   2.0000      -0.604925       -16.4608
 184   2.0000      -0.603439       -16.4204
 185   2.0000      -0.603108       -16.4114
 186   2.0000      -0.602174       -16.3860
 187   2.0000      -0.597201       -16.2507
 188   2.0000      -0.590167       -16.0593
 189   2.0000      -0.584584       -15.9074
 190   2.0000      -0.579124       -15.7588
 191   2.0000      -0.577316       -15.7096
 192   2.0000      -0.576539       -15.6884
 193   2.0000      -0.573315       -15.6007
 194   2.0000      -0.570761       -15.5312
 195   2.0000      -0.565704       -15.3936
 196   2.0000      -0.561741       -15.2858
 197   2.0000      -0.557227       -15.1629
 198   2.0000      -0.556148       -15.1336
 199   2.0000      -0.550768       -14.9872
 200   2.0000      -0.547565       -14.9000
 201   2.0000      -0.544471       -14.8158
 202   2.0000      -0.542346       -14.7580
 203   2.0000      -0.541095       -14.7239
 204   2.0000      -0.538460       -14.6522
 205   2.0000      -0.535572       -14.5736
 206   2.0000      -0.530302       -14.4302
 207   2.0000      -0.529372       -14.4049
 208   2.0000      -0.528525       -14.3819
 209   2.0000      -0.525490       -14.2993
 210   2.0000      -0.524100       -14.2615
 211   2.0000      -0.521380       -14.1875
 212   2.0000      -0.520848       -14.1730
 213   2.0000      -0.518546       -14.1103
 214   2.0000      -0.513730       -13.9793
 215   2.0000      -0.510563       -13.8931
 216   2.0000      -0.506288       -13.7768
 217   2.0000      -0.503526       -13.7016
 218   2.0000      -0.503110       -13.6903
 219   2.0000      -0.501771       -13.6539
 220   2.0000      -0.497577       -13.5397
 221   2.0000      -0.493496       -13.4287
 222   2.0000      -0.492695       -13.4069
 223   2.0000      -0.489105       -13.3092
 224   2.0000      -0.486952       -13.2506
 225   2.0000      -0.484180       -13.1752
 226   2.0000      -0.482033       -13.1168
 227   2.0000      -0.476963       -12.9788
 228   2.0000      -0.472951       -12.8696
 229   2.0000      -0.468885       -12.7590
 230   2.0000      -0.467511       -12.7216
 231   2.0000      -0.464373       -12.6362
 232   2.0000      -0.461407       -12.5555
 233   2.0000      -0.459415       -12.5013
 234   2.0000      -0.458372       -12.4729
 235   2.0000      -0.457706       -12.4548
 236   2.0000      -0.456301       -12.4166
 237   2.0000      -0.454148       -12.3580
 238   2.0000      -0.448969       -12.2171
 239   2.0000      -0.446030       -12.1371
 240   2.0000      -0.443503       -12.0683
 241   2.0000      -0.441136       -12.0039
 242   2.0000      -0.439133       -11.9494
 243   2.0000      -0.438201       -11.9241
 244   2.0000      -0.436516       -11.8782
 245   2.0000      -0.432607       -11.7718
 246   2.0000      -0.431928       -11.7534
 247   2.0000      -0.426483       -11.6052
 248   2.0000      -0.425426       -11.5764
 249   2.0000      -0.422298       -11.4913
 250   2.0000      -0.418447       -11.3865
 251   2.0000      -0.416835       -11.3427
 252   2.0000      -0.414617       -11.2823
 253   2.0000      -0.412179       -11.2160
 254   2.0000      -0.411596       -11.2001
 255   2.0000      -0.406716       -11.0673
 256   2.0000      -0.403819       -10.9885
 257   2.0000      -0.398814       -10.8523
 258   2.0000      -0.397385       -10.8134
 259   2.0000      -0.393750       -10.7145
 260   2.0000      -0.392276       -10.6744
 261   2.0000      -0.383084       -10.4242
 262   2.0000      -0.381043       -10.3687
 263   2.0000      -0.379583       -10.3290
 264   2.0000      -0.372821       -10.1450
 265   2.0000      -0.370737       -10.0883
 266   2.0000      -0.367560       -10.0018
 267   2.0000      -0.365493        -9.9456
 268   2.0000      -0.359401        -9.7798
 269   2.0000      -0.354148        -9.6369
 270   2.0000      -0.347103        -9.4452
 271   2.0000      -0.343813        -9.3556
 272   2.0000      -0.328842        -8.9482
 273   2.0000      -0.323724        -8.8090
 274   2.0000      -0.315030        -8.5724
 275   2.0000      -0.309041        -8.4094
 276   2.0000      -0.305373        -8.3096
 277   2.0000      -0.294182        -8.0051
 278   2.0000      -0.289915        -7.8890
 279   2.0000      -0.275024        -7.4838
 280   2.0000      -0.233075        -6.3423
 281   0.0000      -0.113726        -3.0946
 282   0.0000      -0.096484        -2.6255
 283   0.0000      -0.081967        -2.2304
 284   0.0000      -0.072191        -1.9644
 285   0.0000      -0.062481        -1.7002

MULLIKEN ATOMIC CHARGES
-----------------------
   0 C :    0.308785
   1 C :   -0.344674
   2 C :   -0.192886
   3 N :    0.156458
   4 C :   -0.207162
   5 N :    0.152192
   6 C :    0.017239
   7 C :    0.000429
   8 C :   -0.067826
   9 C :    0.117104
  10 C :   -0.086006
  11 C :   -0.045952
  12 S :    0.171637
  13 C :   -0.145033
  14 C :    0.069176
  15 Br:    0.045062
  16 C :    0.180783
  17 O :   -0.216983
  18 C :   -0.131369
  19 C :    0.013560
  20 N :   -0.039245
  21 C :   -0.114382
  22 S :    0.193089
  23 C :    0.005165
  24 N :    0.275296
  25 O :   -0.240014
  26 O :   -0.253131
  27 C :    0.003339
  28 C :    0.120052
  29 C :   -0.007904
  30 C :   -0.042269
  31 C :    0.025625
  32 O :   -0.158968
  33 C :    0.087540
  34 C :    0.120347
  35 N :    0.287728
  36 O :   -0.223781
  37 O :   -0.262022
  38 C :    0.063661
  39 N :   -0.023382
  40 C :    0.061290
  41 C :   -0.070172
  42 C :    0.042886
  43 C :    0.042014
  44 C :   -0.039463
  45 S :    0.086932
  46 C :   -0.086345
  47 C :    0.062846
  48 C :    0.013064
  49 C :   -0.042442
  50 S :    0.118519
  51 C :    0.027679
  52 C :    0.028917
  53 C :   -0.150184
  54 C :    0.135509
  55 O :   -0.156408
  56 C :    0.009277
  57 C :   -0.087726
  58 C :    0.113143
  59 C :    0.111711
  60 C :   -0.109433
  61 C :    0.238141
  62 C :    0.236959
  63 C :   -0.104759
  64 F :   -0.175514
  65 F :   -0.174783
  66 C :   -0.084965
  67 C :    0.032759
  68 C :    0.319411
  69 C :   -0.367459
  70 C :   -0.195135
  71 N :    0.151883
  72 C :   -0.184997
  73 N :    0.133982
  74 H :   -0.005238
  75 H :   -0.004955
  76 H :    0.008227
  77 H :    0.049203
  78 H :    0.182323
  79 H :    0.015624
  80 H :    0.002295
  81 H :   -0.024904
  82 H :    0.039670
  83 H :    0.159027
  84 H :    0.037074
  85 H :    0.003352
  86 H :    0.001887
  87 H :   -0.000215
  88 H :    0.003531
  89 H :    0.003329
  90 H :    0.003403
  91 H :   -0.014573
  92 H :    0.004448
  93 H :   -0.004582
  94 H :   -0.007342
Sum of atomic charges:   -0.0000000

LOEWDIN ATOMIC CHARGES
----------------------
   0 C :    0.080720
   1 C :   -0.155194
   2 C :   -0.023526
   3 N :   -0.053859
   4 C :   -0.024683
   5 N :   -0.054406
   6 C :   -0.023595
   7 C :   -0.056472
   8 C :    0.031267
   9 C :   -0.031309
  10 C :   -0.143318
  11 C :   -0.014898
  12 S :    0.434829
  13 C :   -0.268978
  14 C :   -0.058467
  15 Br:    0.165999
  16 C :    0.097103
  17 O :   -0.177900
  18 C :   -0.142983
  19 C :    0.102579
  20 N :    0.066058
  21 C :   -0.115116
  22 S :    0.480909
  23 C :   -0.200823
  24 N :    0.272764
  25 O :   -0.206241
  26 O :   -0.218939
  27 C :    0.000422
  28 C :   -0.084090
  29 C :   -0.017931
  30 C :   -0.046363
  31 C :   -0.004238
  32 O :    0.050400
  33 C :    0.098126
  34 C :   -0.096024
  35 N :    0.293158
  36 O :   -0.186107
  37 O :   -0.212617
  38 C :   -0.001063
  39 N :    0.055506
  40 C :    0.030591
  41 C :   -0.201340
  42 C :   -0.009867
  43 C :   -0.047696
  44 C :   -0.138491
  45 S :    0.387590
  46 C :   -0.206506
  47 C :   -0.000454
  48 C :   -0.055042
  49 C :   -0.098018
  50 S :    0.414822
  51 C :   -0.083061
  52 C :    0.059124
  53 C :   -0.121056
  54 C :    0.075552
  55 O :   -0.160211
  56 C :   -0.050575
  57 C :    0.023761
  58 C :   -0.010870
  59 C :   -0.007887
  60 C :   -0.031178
  61 C :    0.063685
  62 C :    0.064280
  63 C :   -0.034695
  64 F :   -0.053179
  65 F :   -0.052438
  66 C :    0.009922
  67 C :   -0.018293
  68 C :    0.072384
  69 C :   -0.163520
  70 C :   -0.006158
  71 N :   -0.077611
  72 C :   -0.020147
  73 N :   -0.068041
  74 H :    0.042594
  75 H :    0.040173
  76 H :    0.037964
  77 H :    0.037366
  78 H :    0.087819
  79 H :    0.048288
  80 H :    0.037026
  81 H :    0.026611
  82 H :    0.043665
  83 H :    0.080470
  84 H :    0.037412
  85 H :    0.038663
  86 H :    0.037225
  87 H :    0.037244
  88 H :    0.035140
  89 H :    0.031799
  90 H :    0.037775
  91 H :    0.038473
  92 H :    0.046426
  93 H :    0.043268
  94 H :    0.038518

  Mayer bond orders larger than 0.100000
B(  0-C ,  1-C ) :   1.6343 B(  0-C ,  6-C ) :   1.0062 B(  0-C , 18-C ) :   1.0843
B(  1-C ,  2-C ) :   1.1418 B(  1-C ,  4-C ) :   1.1403 B(  2-C ,  3-N ) :   2.9804
B(  4-C ,  5-N ) :   2.9796 B(  6-C ,  7-C ) :   1.2670 B(  6-C , 11-C ) :   1.4105
B(  7-C ,  8-C ) :   1.4000 B(  7-C , 16-C ) :   0.9801 B(  8-C ,  9-C ) :   1.2393
B(  8-C , 74-H ) :   1.0249 B(  9-C , 10-C ) :   1.2977 B(  9-C , 14-C ) :   1.1616
B( 10-C , 11-C ) :   1.3111 B( 10-C , 12-S ) :   1.0918 B( 11-C , 75-H ) :   0.9860
B( 12-S , 13-C ) :   1.0771 B( 13-C , 14-C ) :   1.6040 B( 13-C , 15-Br) :   1.0392
B( 14-C , 76-H ) :   0.9843 B( 16-C , 17-O ) :   2.0407 B( 16-C , 18-C ) :   0.9861
B( 17-O , 78-H ) :   0.1333 B( 18-C , 19-C ) :   1.4806 B( 19-C , 20-N ) :   1.3149
B( 19-C , 77-H ) :   0.9328 B( 20-N , 21-C ) :   1.1449 B( 20-N , 78-H ) :   0.8356
B( 21-C , 22-S ) :   1.1478 B( 21-C , 28-C ) :   1.4014 B( 22-S , 23-C ) :   1.0972
B( 23-C , 24-N ) :   0.9550 B( 23-C , 27-C ) :   1.5001 B( 24-N , 25-O ) :   1.5449
B( 24-N , 26-O ) :   1.5202 B( 25-O , 26-O ) :   0.2657 B( 27-C , 28-C ) :   1.2051
B( 27-C , 79-H ) :   1.0079 B( 28-C , 29-C ) :   1.0721 B( 29-C , 30-C ) :   1.6732
B( 29-C , 80-H ) :   0.9821 B( 30-C , 31-C ) :   1.1796 B( 30-C , 81-H ) :   0.9382
B( 31-C , 32-O ) :   1.1095 B( 31-C , 38-C ) :   1.3810 B( 32-O , 33-C ) :   1.2205
B( 33-C , 34-C ) :   1.4321 B( 33-C , 82-H ) :   1.0144 B( 34-C , 35-N ) :   0.9421
B( 34-C , 38-C ) :   1.2482 B( 35-N , 36-O ) :   1.5608 B( 35-N , 37-O ) :   1.4731
B( 36-O , 37-O ) :   0.2646 B( 38-C , 39-N ) :   1.2057 B( 39-N , 40-C ) :   1.1930
B( 39-N , 83-H ) :   0.8629 B( 40-C , 41-C ) :   1.5767 B( 40-C , 84-H ) :   0.9446
B( 41-C , 42-C ) :   1.1592 B( 41-C , 45-S ) :   1.0106 B( 42-C , 43-C ) :   1.5851
B( 42-C , 85-H ) :   0.9952 B( 43-C , 44-C ) :   1.2018 B( 43-C , 86-H ) :   0.9921
B( 44-C , 45-S ) :   1.0916 B( 44-C , 46-C ) :   1.4665 B( 46-C , 47-C ) :   1.2251
B( 46-C , 50-S ) :   1.0404 B( 47-C , 48-C ) :   1.5404 B( 47-C , 87-H ) :   0.9964
B( 48-C , 49-C ) :   1.1944 B( 48-C , 88-H ) :   0.9931 B( 49-C , 50-S ) :   1.1051
B( 49-C , 51-C ) :   1.4406 B( 51-C , 52-C ) :   1.2831 B( 51-C , 89-H ) :   0.9404
B( 52-C , 53-C ) :   1.4860 B( 52-C , 90-H ) :   0.9466 B( 53-C , 54-C ) :   0.9697
B( 53-C , 68-C ) :   1.0979 B( 54-C , 55-O ) :   2.2454 B( 54-C , 56-C ) :   0.9145
B( 56-C , 57-C ) :   1.4870 B( 56-C , 67-C ) :   1.2209 B( 57-C , 58-C ) :   1.1811
B( 57-C , 91-H ) :   1.0158 B( 58-C , 59-C ) :   1.2638 B( 58-C , 63-C ) :   1.1969
B( 59-C , 60-C ) :   1.1917 B( 59-C , 66-C ) :   1.2081 B( 60-C , 61-C ) :   1.4379
B( 60-C , 63-C ) :   0.1094 B( 60-C , 92-H ) :   1.0066 B( 61-C , 62-C ) :   1.1975
B( 61-C , 65-F ) :   1.1308 B( 62-C , 63-C ) :   1.4385 B( 62-C , 64-F ) :   1.1297
B( 63-C , 93-H ) :   1.0066 B( 66-C , 67-C ) :   1.4639 B( 66-C , 94-H ) :   0.9900
B( 67-C , 68-C ) :   0.9871 B( 68-C , 69-C ) :   1.5676 B( 69-C , 70-C ) :   1.1862
B( 69-C , 72-C ) :   1.1354 B( 70-C , 71-N ) :   2.9437 B( 72-C , 73-N ) :   2.9714

-----------------------------------------------------------------------------
         ABSORPTION SPECTRUM VIA TRANSITION ELECTRIC DIPOLE MOMENTS
-----------------------------------------------------------------------------
State   Energy  Wavelength   fosc         T2         TX        TY        TZ
        (cm-1)    (nm)                  (au**2)     (au)      (au)      (au)
-----------------------------------------------------------------------------
   0   11544.4    866.2   0.952978315  27.17613  -1.52345   4.68927   1.69293
   1   14828.3    674.4   0.136552188   3.03167  -1.05572   1.28800   0.50812
   2   17083.5    585.4   0.249307255   4.80434  -1.11700   1.87247   0.22478
   3   19418.7    515.0   0.223477867   3.78869   0.61200  -1.83626  -0.20566
   4   20365.6    491.0   0.067688361   1.09419   0.72066   0.45184  -0.60884
   5   22259.5    449.2   0.030444375   0.45026  -0.62450  -0.17306   0.17413
   6   22797.0    438.7   0.065664336   0.94826  -0.59591   0.05753   0.76801
   7   23205.4    430.9   0.471210647   6.68501   1.15404  -1.11737  -2.02600
   8   25022.3    399.6   0.175621886   2.31062   0.76453  -0.42197  -1.24421
   9   25327.3    394.8   0.151530659   1.96964  -0.29896   0.65006   1.20734
  10   25768.8    388.1   0.032205937   0.41145  -0.37843   0.29061   0.42871
  11   26405.7    378.7   0.040707574   0.50752  -0.42818  -0.49883   0.27449
  12   26844.2    372.5   0.045345204   0.55610   0.04013  -0.73417   0.12447
  13   27333.0    365.9   0.219464073   2.64334   0.30545  -1.46469   0.63617
  14   27731.8    360.6   0.006555722   0.07782  -0.01410  -0.02240   0.27771
  15   27908.0    358.3   0.316644402   3.73525  -0.45646   1.52210   1.10004
  16   28423.4    351.8   0.076731840   0.88874   0.33025  -0.87555  -0.11441
  17   28568.8    350.0   0.504988489   5.81922  -0.19527  -2.09393  -1.18175
  18   28772.7    347.6   0.028724178   0.32866   0.00682   0.39734  -0.41320
  19   29050.3    344.2   0.017484766   0.19815  -0.43591  -0.06070   0.06664
  20   29434.3    339.7   0.029751596   0.33276  -0.43840   0.16125   0.33847
  21   30725.4    325.5   0.084247433   0.90268   0.07344   0.94681  -0.02895
  22   31299.6    319.5   0.019035006   0.20021  -0.30291   0.32778   0.03192
  23   31652.8    315.9   0.164807608   1.71412   0.64308   1.10069  -0.29843
  24   31790.9    314.6   0.024168607   0.25028  -0.49110   0.06009   0.07408
  25   32014.1    312.4   0.026139688   0.26880   0.23795   0.33291  -0.31836
  26   32306.2    309.5   0.022014158   0.22433  -0.35327   0.04245  -0.31262
  27   32456.0    308.1   0.002003812   0.02033  -0.11871  -0.01838  -0.07678
  28   32861.7    304.3   0.496517378   4.97416  -0.33091  -1.93195  -1.06406
  29   33141.8    301.7   0.021032518   0.20892   0.01123   0.22826   0.39585
  30   33438.9    299.1   0.102902699   1.01310   0.40504  -0.90794  -0.15709
  31   33531.9    298.2   0.059934785   0.58843   0.21706   0.66902   0.30615
  32   33628.4    297.4   0.163940478   1.60493  -0.13246  -1.14485   0.52603
  33   33880.2    295.2   0.189362977   1.84003   0.03012  -1.24975  -0.52655
  34   34219.4    292.2   0.056647871   0.54499   0.13014  -0.71043  -0.15276
  35   34607.0    289.0   0.511351903   4.86442  -0.19449  -2.09584  -0.65882
  36   34878.8    286.7   0.057759586   0.54518  -0.68726   0.15154  -0.22335
  37   35215.5    284.0   0.019149947   0.17902  -0.28778  -0.26197   0.16606
  38   35515.4    281.6   0.003568732   0.03308   0.03380  -0.02816   0.17648
  39   35659.1    280.4   0.112306710   1.03684  -0.61866  -0.32440   0.74085
  40   35915.0    278.4   0.005589745   0.05124  -0.12690  -0.18519   0.02898
  41   36197.5    276.3   0.019802569   0.18010  -0.00298   0.42432   0.00704
  42   36399.2    274.7   0.039958117   0.36140  -0.24115   0.04728   0.54865
  43   36897.5    271.0   0.124795892   1.11347   0.58935   0.85005   0.20867
  44   37015.7    270.2   0.129380519   1.15069  -0.50805  -0.11449   0.93780
  45   37414.2    267.3   0.018691878   0.16447   0.22886  -0.33416  -0.02086
  46   37463.9    266.9   0.101917321   0.89559   0.29447   0.85117   0.29050
  47   37899.8    263.9   0.093376095   0.81110  -0.57905   0.14893   0.67352
  48   37922.4    263.7   0.082657209   0.71756   0.04933   0.68994   0.48900
  49   38079.1    262.6   0.018745439   0.16206  -0.26666  -0.23189   0.19282
  50   38155.0    262.1   0.013582570   0.11719  -0.25710  -0.07694   0.21254
  51   38230.7    261.6   0.021625221   0.18622  -0.16044   0.17214   0.36173
  52   38682.1    258.5   0.149805990   1.27496  -0.92216  -0.01895   0.65131
  53   38751.0    258.1   0.061264488   0.52048   0.55651   0.37289  -0.26782
  54   38861.3    257.3   0.014542851   0.12320  -0.28068  -0.19534   0.07911
  55   39265.0    254.7   0.083204354   0.69762   0.76570   0.13954  -0.30306
  56   39378.9    253.9   0.070214010   0.58700   0.16884  -0.23295  -0.71009
  57   39420.8    253.7   0.023658028   0.19757   0.28830   0.02705  -0.33723
  58   39495.9    253.2   0.030272140   0.25233   0.34806   0.28789   0.21977
  59   39587.9    252.6   0.053651433   0.44616   0.31621   0.04512  -0.58663
  60   39713.7    251.8   0.029938934   0.24818  -0.30713   0.12428   0.37203
  61   39877.4    250.8   0.029758428   0.24567   0.10780   0.21562  -0.43308
  62   40326.0    248.0   0.046706572   0.38130  -0.38851  -0.35418   0.32391

FINAL SINGLE POINT ENERGY     -7320.497359874092

DIPOLE MOMENT
-------------
                                X             Y             Z
Electronic contribution:    -45.16199      59.41513      13.08276
Nuclear contribution   :     47.13772     -61.25882     -13.87639
                        -----------------------------------------
Total Dipole Moment    :      1.97573      -1.84369      -0.79363
                        -----------------------------------------
Magnitude (a.u.)       :      2.81648
Magnitude (Debye)      :      7.15891

Rotational constants in cm-1:     0.001704     0.000320     0.000289
Rotational constants in MHz :    51.094172     9.579093     8.656026

                             ****ORCA TERMINATED NORMALLY****
TOTAL RUN TIME: 0 days 0 hours 12 minutes 24 seconds 497 msec
