                         Program Version 4.2.0 -  RELEASE  -
|  1> # ORCA input file
|  2> # SCF done       -207.994947826861          0.000651728630
|  3> ! CAM-B3LYP def2-SVP def2/J RIJCOSX Grid4 TightSCF
|  4> %maxcore 5000
|  5> %tddft
|  6>     Mode sTDDFT
|  7>     Ethresh 5.0
|  8>     maxcore 5000
|  9> end
| 10>
| 11> %pal
| 12>   nprocs 6
| 13>   end
| 14> * xyz 0 1
| 15>    C      -11.23423         1.00763         3.35841
| 16>    C      -11.26426        -0.35528         3.19504
| 17>    C      -11.59280        -1.27030         4.21664
| 18>    N      -11.84320        -2.07417         4.99776
| 19>    C      -10.96644        -1.05013         2.00530
| 20>    N      -10.74210        -1.69872         1.08357
| 21>    C      -11.54796         1.71289         4.59646
| 22>    C      -11.37056         3.10291         4.38679
| 23>    C      -11.54991         4.03136         5.38295
| 24>    C      -11.94266         3.56761         6.64193
| 25>    C      -12.16546         2.18298         6.83079
| 26>    C      -11.96370         1.24227         5.82855
| 27>    S      -12.71109         1.84037         8.44206
| 28>    C      -12.62667         3.53482         8.83323
| 29>    C      -12.19730         4.32081         7.81906
| 30>   Br      -13.16016         4.12073        10.53243
| 31>    C      -10.98349         3.34192         2.98388
| 32>    O      -10.78393         4.42344         2.46874
| 33>    C      -10.88556         1.99892         2.36041
| 34>    C      -10.48605         1.76472         1.07056
| 35>    C      -10.19315         2.77099         0.13070
| 36>    C       -9.68690         2.49398        -1.10569
| 37>    C       -9.38551         3.49196        -2.05259
| 38>    O       -9.69801         4.79323        -1.82412
| 39>    C       -9.26141         5.53491        -2.86970
| 40>    C       -8.64783         4.69236        -3.79985
| 41>    C       -8.73601         3.38768        -3.28778
| 42>    O       -8.28310         2.25339        -3.84948
| 43>    O       -8.07003         4.99830        -4.99239
| 44>    C       -9.47609         6.93160        -2.89351
| 45>    C      -10.24721         7.57375        -1.96922
| 46>    C      -10.47976         8.96042        -1.95030
| 47>    C      -11.32056         9.53328        -1.03736
| 48>    C      -11.59898        10.89698        -0.85847
| 49>    S      -12.20119        11.35925         0.70496
| 50>    C      -11.93324        13.05413         0.42542
| 51>    C      -11.44579        13.25084        -0.89764
| 52>    C      -11.34651        12.04353        -1.64688
| 53>    C      -11.06774        12.10183        -3.03429
| 54>    C      -11.38941        10.98894        -3.94881
| 55>    O      -12.29521        10.20809        -3.80111
| 56>    O      -10.61344        10.97363        -5.05047
| 57>    C      -10.70531        13.31614        -3.58563
| 58>    C      -10.67664        14.47791        -2.82188
| 59>    C      -11.08572        14.47493        -1.50110
| 60>    O      -11.15129        15.62269        -0.78634
| 61>    C      -12.18123        14.01817         1.38992
| 62>    C      -12.74828        13.82309         2.63915
| 63>    C      -12.97831        14.82458         3.60333
| 64>    C      -13.58133        14.37660         4.74766
| 65>    C      -13.86264        12.99969         4.73086
| 66>    S      -13.32151        12.28241         3.23526
| 67>    C      -14.48757        12.22694         5.70540
| 68>    C      -14.93503        12.61918         6.97895
| 69>    C      -15.50968        11.60644         7.69946
| 70>    C      -15.55000        10.37403         7.01811
| 71>    S      -14.82308        10.53465         5.44061
| 72>    C      -16.03614         9.14026         7.42754
| 73>    C      -16.64422         8.89046         8.64720
| 74>    C      -17.07961         7.66360         9.11942
| 75>    C      -16.81137         6.32742         8.68175
| 76>    C      -15.71412         5.88581         7.97113
| 77>    C      -15.52435         4.56076         7.54480
| 78>    N      -15.30619         3.50696         7.13860
| 79>    C      -14.58623         6.67343         7.68076
| 80>    N      -13.60044         7.22587         7.46861
| 81>    C      -17.81073         5.45287         9.29478
| 82>    C      -18.56691         6.21226        10.22183
| 83>    C      -18.10006         7.61625        10.18592
| 84>    O      -18.49924         8.54435        10.85818
| 85>    C      -19.56801         5.66265        10.98205
| 86>    C      -19.84256         4.29975        10.81381
| 87>    C      -19.08452         3.55247         9.88391
| 88>    C      -18.06406         4.10769         9.11930
| 89>    S      -19.59442         1.89197         9.83004
| 90>    C      -20.80316         2.22082        11.04245
| 91>    C      -20.82523         3.50601        11.46716
| 92>   Br      -21.92625         0.83733        11.62927
| 93>    H      -11.40194         5.08388         5.19864
| 94>    H      -12.13644         0.19739         6.02475
| 95>    H      -12.08867         5.38846         7.88294
| 96>    H      -10.37622         0.74172         0.73432
| 97>    H      -10.36031         3.80024         0.41048
| 98>    H       -9.46534         1.47935        -1.40600
| 99>    H       -7.87177         2.47101        -4.69656
|100>    H       -8.11828         5.94792        -5.14398
|101>    H       -9.01292         7.49009        -3.69669
|102>    H      -10.72705         6.97283        -1.20953
|103>    H       -9.94202         9.57476        -2.65875
|104>    H      -11.76502         8.87804        -0.29768
|105>    H      -10.93208        10.28816        -5.65830
|106>    H      -10.47785        13.36978        -4.63841
|107>    H      -10.38594        15.41134        -3.28408
|108>    H      -10.87511        16.36704        -1.33745
|109>    H      -11.91606        15.03465         1.13942
|110>    H      -12.69424        15.84737         3.42923
|111>    H      -13.83289        15.00359         5.58365
|112>    H      -14.82069        13.62541         7.34043
|113>    H      -15.90016        11.72430         8.69376
|114>    H      -15.94315         8.33338         6.71495
|115>    H      -16.89952         9.73002         9.28293
|116>    H      -20.12443         6.26171        11.68569
|117>    H      -17.51631         3.49801         8.41983
|118>    H      -21.50606         3.88147        12.20916
|119> *
|120>
|121>                          ****END OF INPUT****

CARTESIAN COORDINATES (ANGSTROEM)
---------------------------------
  C    -11.234230    1.007630    3.358410
  C    -11.264260   -0.355280    3.195040
  C    -11.592800   -1.270300    4.216640
  N    -11.843200   -2.074170    4.997760
  C    -10.966440   -1.050130    2.005300
  N    -10.742100   -1.698720    1.083570
  C    -11.547960    1.712890    4.596460
  C    -11.370560    3.102910    4.386790
  C    -11.549910    4.031360    5.382950
  C    -11.942660    3.567610    6.641930
  C    -12.165460    2.182980    6.830790
  C    -11.963700    1.242270    5.828550
  S    -12.711090    1.840370    8.442060
  C    -12.626670    3.534820    8.833230
  C    -12.197300    4.320810    7.819060
  Br   -13.160160    4.120730   10.532430
  C    -10.983490    3.341920    2.983880
  O    -10.783930    4.423440    2.468740
  C    -10.885560    1.998920    2.360410
  C    -10.486050    1.764720    1.070560
  C    -10.193150    2.770990    0.130700
  C     -9.686900    2.493980   -1.105690
  C     -9.385510    3.491960   -2.052590
  O     -9.698010    4.793230   -1.824120
  C     -9.261410    5.534910   -2.869700
  C     -8.647830    4.692360   -3.799850
  C     -8.736010    3.387680   -3.287780
  O     -8.283100    2.253390   -3.849480
  O     -8.070030    4.998300   -4.992390
  C     -9.476090    6.931600   -2.893510
  C    -10.247210    7.573750   -1.969220
  C    -10.479760    8.960420   -1.950300
  C    -11.320560    9.533280   -1.037360
  C    -11.598980   10.896980   -0.858470
  S    -12.201190   11.359250    0.704960
  C    -11.933240   13.054130    0.425420
  C    -11.445790   13.250840   -0.897640
  C    -11.346510   12.043530   -1.646880
  C    -11.067740   12.101830   -3.034290
  C    -11.389410   10.988940   -3.948810
  O    -12.295210   10.208090   -3.801110
  O    -10.613440   10.973630   -5.050470
  C    -10.705310   13.316140   -3.585630
  C    -10.676640   14.477910   -2.821880
  C    -11.085720   14.474930   -1.501100
  O    -11.151290   15.622690   -0.786340
  C    -12.181230   14.018170    1.389920
  C    -12.748280   13.823090    2.639150
  C    -12.978310   14.824580    3.603330
  C    -13.581330   14.376600    4.747660
  C    -13.862640   12.999690    4.730860
  S    -13.321510   12.282410    3.235260
  C    -14.487570   12.226940    5.705400
  C    -14.935030   12.619180    6.978950
  C    -15.509680   11.606440    7.699460
  C    -15.550000   10.374030    7.018110
  S    -14.823080   10.534650    5.440610
  C    -16.036140    9.140260    7.427540
  C    -16.644220    8.890460    8.647200
  C    -17.079610    7.663600    9.119420
  C    -16.811370    6.327420    8.681750
  C    -15.714120    5.885810    7.971130
  C    -15.524350    4.560760    7.544800
  N    -15.306190    3.506960    7.138600
  C    -14.586230    6.673430    7.680760
  N    -13.600440    7.225870    7.468610
  C    -17.810730    5.452870    9.294780
  C    -18.566910    6.212260   10.221830
  C    -18.100060    7.616250   10.185920
  O    -18.499240    8.544350   10.858180
  C    -19.568010    5.662650   10.982050
  C    -19.842560    4.299750   10.813810
  C    -19.084520    3.552470    9.883910
  C    -18.064060    4.107690    9.119300
  S    -19.594420    1.891970    9.830040
  C    -20.803160    2.220820   11.042450
  C    -20.825230    3.506010   11.467160
  Br   -21.926250    0.837330   11.629270
  H    -11.401940    5.083880    5.198640
  H    -12.136440    0.197390    6.024750
  H    -12.088670    5.388460    7.882940
  H    -10.376220    0.741720    0.734320
  H    -10.360310    3.800240    0.410480
  H     -9.465340    1.479350   -1.406000
  H     -7.871770    2.471010   -4.696560
  H     -8.118280    5.947920   -5.143980
  H     -9.012920    7.490090   -3.696690
  H    -10.727050    6.972830   -1.209530
  H     -9.942020    9.574760   -2.658750
  H    -11.765020    8.878040   -0.297680
  H    -10.932080   10.288160   -5.658300
  H    -10.477850   13.369780   -4.638410
  H    -10.385940   15.411340   -3.284080
  H    -10.875110   16.367040   -1.337450
  H    -11.916060   15.034650    1.139420
  H    -12.694240   15.847370    3.429230
  H    -13.832890   15.003590    5.583650
  H    -14.820690   13.625410    7.340430
  H    -15.900160   11.724300    8.693760
  H    -15.943150    8.333380    6.714950
  H    -16.899520    9.730020    9.282930
  H    -20.124430    6.261710   11.685690
  H    -17.516310    3.498010    8.419830
  H    -21.506060    3.881470   12.209160

 Total Charge           Charge          ....    0
 Multiplicity           Mult            ....    1
 Number of Electrons    NEL             ....  622
 Basis Dimension        Dim             .... 1278

ORBITAL ENERGIES
----------------

  NO   OCC          E(Eh)            E(eV)
   0   2.0000    -482.872828    -13139.6376
   1   2.0000    -482.863420    -13139.3816
   2   2.0000     -88.981330     -2421.3051
   3   2.0000     -88.967437     -2420.9271
   4   2.0000     -88.960378     -2420.7349
   5   2.0000     -88.958504     -2420.6839
   6   2.0000     -88.948082     -2420.4004
   7   2.0000     -62.550561     -1702.0873
   8   2.0000     -62.540899     -1701.8244
   9   2.0000     -56.384497     -1534.3002
  10   2.0000     -56.381810     -1534.2270
  11   2.0000     -56.381766     -1534.2259
  12   2.0000     -56.374828     -1534.0370
  13   2.0000     -56.372175     -1533.9649
  14   2.0000     -56.372104     -1533.9629
  15   2.0000     -19.294573      -525.0320
  16   2.0000     -19.285716      -524.7910
  17   2.0000     -19.278654      -524.5988
  18   2.0000     -19.273817      -524.4672
  19   2.0000     -19.268993      -524.3360
  20   2.0000     -19.211116      -522.7610
  21   2.0000     -19.194781      -522.3165
  22   2.0000     -19.192205      -522.2464
  23   2.0000     -14.397042      -391.7634
  24   2.0000     -14.396796      -391.7567
  25   2.0000     -14.395977      -391.7345
  26   2.0000     -14.393847      -391.6765
  27   2.0000     -10.412808      -283.3469
  28   2.0000     -10.372580      -282.2523
  29   2.0000     -10.351005      -281.6652
  30   2.0000     -10.349648      -281.6283
  31   2.0000     -10.346318      -281.5376
  32   2.0000     -10.345265      -281.5090
  33   2.0000     -10.343744      -281.4676
  34   2.0000     -10.342896      -281.4445
  35   2.0000     -10.336021      -281.2574
  36   2.0000     -10.334385      -281.2129
  37   2.0000     -10.331282      -281.1285
  38   2.0000     -10.327418      -281.0233
  39   2.0000     -10.326278      -280.9923
  40   2.0000     -10.325450      -280.9698
  41   2.0000     -10.321859      -280.8721
  42   2.0000     -10.319761      -280.8150
  43   2.0000     -10.319738      -280.8143
  44   2.0000     -10.319669      -280.8125
  45   2.0000     -10.318824      -280.7895
  46   2.0000     -10.317218      -280.7458
  47   2.0000     -10.310384      -280.5598
  48   2.0000     -10.309672      -280.5404
  49   2.0000     -10.308610      -280.5115
  50   2.0000     -10.307947      -280.4935
  51   2.0000     -10.305069      -280.4152
  52   2.0000     -10.304635      -280.4034
  53   2.0000     -10.303146      -280.3629
  54   2.0000     -10.302615      -280.3484
  55   2.0000     -10.300548      -280.2922
  56   2.0000     -10.300473      -280.2901
  57   2.0000     -10.299969      -280.2764
  58   2.0000     -10.299489      -280.2633
  59   2.0000     -10.298963      -280.2490
  60   2.0000     -10.298602      -280.2392
  61   2.0000     -10.297677      -280.2140
  62   2.0000     -10.295721      -280.1608
  63   2.0000     -10.294683      -280.1326
  64   2.0000     -10.294598      -280.1302
  65   2.0000     -10.293292      -280.0947
  66   2.0000     -10.292928      -280.0848
  67   2.0000     -10.290786      -280.0265
  68   2.0000     -10.290178      -280.0100
  69   2.0000     -10.290042      -280.0063
  70   2.0000     -10.289358      -279.9877
  71   2.0000     -10.287998      -279.9507
  72   2.0000     -10.287325      -279.9323
  73   2.0000     -10.283582      -279.8305
  74   2.0000     -10.283464      -279.8273
  75   2.0000     -10.282358      -279.7972
  76   2.0000     -10.280689      -279.7518
  77   2.0000     -10.279932      -279.7312
  78   2.0000     -10.277895      -279.6757
  79   2.0000     -10.275079      -279.5991
  80   2.0000     -10.275006      -279.5971
  81   2.0000     -10.273423      -279.5541
  82   2.0000     -10.268817      -279.4287
  83   2.0000     -10.267102      -279.3821
  84   2.0000     -10.266825      -279.3745
  85   2.0000     -10.265152      -279.3290
  86   2.0000      -8.779995      -238.9158
  87   2.0000      -8.770256      -238.6508
  88   2.0000      -8.076462      -219.7717
  89   2.0000      -8.063434      -219.4172
  90   2.0000      -8.056386      -219.2254
  91   2.0000      -8.055033      -219.1886
  92   2.0000      -8.043984      -218.8879
  93   2.0000      -6.616253      -180.0374
  94   2.0000      -6.606325      -179.7672
  95   2.0000      -6.601733      -179.6423
  96   2.0000      -6.601584      -179.6382
  97   2.0000      -6.592160      -179.3818
  98   2.0000      -6.591873      -179.3740
  99   2.0000      -6.045454      -164.5052
 100   2.0000      -6.041312      -164.3925
 101   2.0000      -6.039145      -164.3335
 102   2.0000      -6.033070      -164.1682
 103   2.0000      -6.028837      -164.0530
 104   2.0000      -6.026084      -163.9781
 105   2.0000      -6.024731      -163.9413
 106   2.0000      -6.024618      -163.9382
 107   2.0000      -6.021803      -163.8616
 108   2.0000      -6.020470      -163.8253
 109   2.0000      -6.017607      -163.7474
 110   2.0000      -6.016271      -163.7111
 111   2.0000      -6.013658      -163.6399
 112   2.0000      -6.009472      -163.5260
 113   2.0000      -6.005178      -163.4092
 114   2.0000      -2.732088       -74.3439
 115   2.0000      -2.728063       -74.2344
 116   2.0000      -2.727960       -74.2316
 117   2.0000      -2.722290       -74.0773
 118   2.0000      -2.718281       -73.9682
 119   2.0000      -2.718053       -73.9620
 120   2.0000      -2.716409       -73.9172
 121   2.0000      -2.716394       -73.9168
 122   2.0000      -2.706791       -73.6555
 123   2.0000      -2.706776       -73.6551
 124   2.0000      -1.217630       -33.1334
 125   2.0000      -1.198907       -32.6239
 126   2.0000      -1.181448       -32.1488
 127   2.0000      -1.172438       -31.9037
 128   2.0000      -1.156109       -31.4593
 129   2.0000      -1.108877       -30.1741
 130   2.0000      -1.106179       -30.1007
 131   2.0000      -1.101502       -29.9734
 132   2.0000      -1.018660       -27.7191
 133   2.0000      -1.009976       -27.4829
 134   2.0000      -1.005322       -27.3562
 135   2.0000      -0.999474       -27.1971
 136   2.0000      -0.996321       -27.1113
 137   2.0000      -0.989892       -26.9363
 138   2.0000      -0.988572       -26.9004
 139   2.0000      -0.976115       -26.5615
 140   2.0000      -0.974153       -26.5080
 141   2.0000      -0.970680       -26.4136
 142   2.0000      -0.965844       -26.2820
 143   2.0000      -0.956082       -26.0163
 144   2.0000      -0.935555       -25.4577
 145   2.0000      -0.926816       -25.2199
 146   2.0000      -0.923588       -25.1321
 147   2.0000      -0.917592       -24.9690
 148   2.0000      -0.907906       -24.7054
 149   2.0000      -0.901742       -24.5376
 150   2.0000      -0.898422       -24.4473
 151   2.0000      -0.890932       -24.2435
 152   2.0000      -0.885326       -24.0909
 153   2.0000      -0.884757       -24.0755
 154   2.0000      -0.876862       -23.8606
 155   2.0000      -0.868811       -23.6416
 156   2.0000      -0.867401       -23.6032
 157   2.0000      -0.861943       -23.4547
 158   2.0000      -0.861130       -23.4325
 159   2.0000      -0.859884       -23.3986
 160   2.0000      -0.854353       -23.2481
 161   2.0000      -0.842944       -22.9377
 162   2.0000      -0.838522       -22.8173
 163   2.0000      -0.834258       -22.7013
 164   2.0000      -0.815729       -22.1971
 165   2.0000      -0.812117       -22.0988
 166   2.0000      -0.803421       -21.8622
 167   2.0000      -0.798433       -21.7265
 168   2.0000      -0.783686       -21.3252
 169   2.0000      -0.770699       -20.9718
 170   2.0000      -0.763683       -20.7809
 171   2.0000      -0.748775       -20.3752
 172   2.0000      -0.743429       -20.2297
 173   2.0000      -0.738558       -20.0972
 174   2.0000      -0.734457       -19.9856
 175   2.0000      -0.725278       -19.7358
 176   2.0000      -0.723356       -19.6835
 177   2.0000      -0.717862       -19.5340
 178   2.0000      -0.712516       -19.3885
 179   2.0000      -0.702553       -19.1174
 180   2.0000      -0.694950       -18.9105
 181   2.0000      -0.688574       -18.7370
 182   2.0000      -0.685673       -18.6581
 183   2.0000      -0.679487       -18.4898
 184   2.0000      -0.671709       -18.2781
 185   2.0000      -0.669157       -18.2087
 186   2.0000      -0.668062       -18.1789
 187   2.0000      -0.662972       -18.0404
 188   2.0000      -0.655155       -17.8277
 189   2.0000      -0.646336       -17.5877
 190   2.0000      -0.644824       -17.5466
 191   2.0000      -0.639109       -17.3910
 192   2.0000      -0.638726       -17.3806
 193   2.0000      -0.636796       -17.3281
 194   2.0000      -0.631191       -17.1756
 195   2.0000      -0.626613       -17.0510
 196   2.0000      -0.618406       -16.8277
 197   2.0000      -0.607395       -16.5281
 198   2.0000      -0.605013       -16.4632
 199   2.0000      -0.603415       -16.4198
 200   2.0000      -0.601869       -16.3777
 201   2.0000      -0.600816       -16.3490
 202   2.0000      -0.599621       -16.3165
 203   2.0000      -0.589101       -16.0303
 204   2.0000      -0.588450       -16.0125
 205   2.0000      -0.581967       -15.8361
 206   2.0000      -0.577146       -15.7050
 207   2.0000      -0.576586       -15.6897
 208   2.0000      -0.571043       -15.5389
 209   2.0000      -0.566832       -15.4243
 210   2.0000      -0.564821       -15.3696
 211   2.0000      -0.559241       -15.2177
 212   2.0000      -0.552856       -15.0440
 213   2.0000      -0.549955       -14.9650
 214   2.0000      -0.546685       -14.8760
 215   2.0000      -0.543923       -14.8009
 216   2.0000      -0.541598       -14.7376
 217   2.0000      -0.538086       -14.6421
 218   2.0000      -0.533604       -14.5201
 219   2.0000      -0.530579       -14.4378
 220   2.0000      -0.527710       -14.3597
 221   2.0000      -0.523960       -14.2577
 222   2.0000      -0.521220       -14.1831
 223   2.0000      -0.519646       -14.1403
 224   2.0000      -0.517353       -14.0779
 225   2.0000      -0.516816       -14.0633
 226   2.0000      -0.515558       -14.0290
 227   2.0000      -0.512907       -13.9569
 228   2.0000      -0.511142       -13.9089
 229   2.0000      -0.509754       -13.8711
 230   2.0000      -0.506361       -13.7788
 231   2.0000      -0.503418       -13.6987
 232   2.0000      -0.501134       -13.6365
 233   2.0000      -0.499449       -13.5907
 234   2.0000      -0.498796       -13.5729
 235   2.0000      -0.496079       -13.4990
 236   2.0000      -0.493248       -13.4220
 237   2.0000      -0.492485       -13.4012
 238   2.0000      -0.489782       -13.3276
 239   2.0000      -0.488772       -13.3002
 240   2.0000      -0.488007       -13.2793
 241   2.0000      -0.487069       -13.2538
 242   2.0000      -0.485348       -13.2070
 243   2.0000      -0.482501       -13.1295
 244   2.0000      -0.479889       -13.0584
 245   2.0000      -0.479295       -13.0423
 246   2.0000      -0.477504       -12.9936
 247   2.0000      -0.477374       -12.9900
 248   2.0000      -0.474607       -12.9147
 249   2.0000      -0.472502       -12.8574
 250   2.0000      -0.470525       -12.8036
 251   2.0000      -0.468010       -12.7352
 252   2.0000      -0.467773       -12.7287
 253   2.0000      -0.460066       -12.5190
 254   2.0000      -0.454774       -12.3750
 255   2.0000      -0.453361       -12.3366
 256   2.0000      -0.448656       -12.2085
 257   2.0000      -0.447548       -12.1784
 258   2.0000      -0.444093       -12.0844
 259   2.0000      -0.440665       -11.9911
 260   2.0000      -0.438607       -11.9351
 261   2.0000      -0.437713       -11.9108
 262   2.0000      -0.436200       -11.8696
 263   2.0000      -0.434702       -11.8289
 264   2.0000      -0.433521       -11.7967
 265   2.0000      -0.430509       -11.7148
 266   2.0000      -0.430212       -11.7067
 267   2.0000      -0.429677       -11.6921
 268   2.0000      -0.427942       -11.6449
 269   2.0000      -0.425668       -11.5830
 270   2.0000      -0.425168       -11.5694
 271   2.0000      -0.423900       -11.5349
 272   2.0000      -0.420697       -11.4477
 273   2.0000      -0.418653       -11.3921
 274   2.0000      -0.415206       -11.2983
 275   2.0000      -0.413328       -11.2472
 276   2.0000      -0.407991       -11.1020
 277   2.0000      -0.406677       -11.0662
 278   2.0000      -0.405538       -11.0353
 279   2.0000      -0.403769       -10.9871
 280   2.0000      -0.402761       -10.9597
 281   2.0000      -0.402078       -10.9411
 282   2.0000      -0.398230       -10.8364
 283   2.0000      -0.390559       -10.6277
 284   2.0000      -0.387673       -10.5491
 285   2.0000      -0.386210       -10.5093
 286   2.0000      -0.380174       -10.3451
 287   2.0000      -0.372021       -10.1232
 288   2.0000      -0.364481        -9.9180
 289   2.0000      -0.362551        -9.8655
 290   2.0000      -0.361305        -9.8316
 291   2.0000      -0.357492        -9.7278
 292   2.0000      -0.353665        -9.6237
 293   2.0000      -0.352067        -9.5802
 294   2.0000      -0.347461        -9.4549
 295   2.0000      -0.342326        -9.3152
 296   2.0000      -0.338073        -9.1994
 297   2.0000      -0.334300        -9.0968
 298   2.0000      -0.330478        -8.9928
 299   2.0000      -0.319148        -8.6845
 300   2.0000      -0.317964        -8.6522
 301   2.0000      -0.314082        -8.5466
 302   2.0000      -0.307863        -8.3774
 303   2.0000      -0.298834        -8.1317
 304   2.0000      -0.296782        -8.0758
 305   2.0000      -0.289239        -7.8706
 306   2.0000      -0.278116        -7.5679
 307   2.0000      -0.268679        -7.3111
 308   2.0000      -0.267009        -7.2657
 309   2.0000      -0.241200        -6.5634
 310   2.0000      -0.210365        -5.7243
 311   0.0000      -0.120970        -3.2917
 312   0.0000      -0.081508        -2.2179
 313   0.0000      -0.064452        -1.7538
 314   0.0000      -0.047486        -1.2922
 315   0.0000      -0.040713        -1.1079

MULLIKEN ATOMIC CHARGES
-----------------------
   0 C :    0.328579
   1 C :   -0.361280
   2 C :   -0.185354
   3 N :    0.141407
   4 C :   -0.190161
   5 N :    0.133896
   6 C :    0.018633
   7 C :   -0.011150
   8 C :   -0.077687
   9 C :    0.113321
  10 C :   -0.068563
  11 C :   -0.028626
  12 S :    0.186129
  13 C :   -0.131526
  14 C :    0.046467
  15 Br:    0.008891
  16 C :    0.141287
  17 O :   -0.163230
  18 C :   -0.065968
  19 C :   -0.041885
  20 C :    0.002644
  21 C :   -0.009213
  22 C :    0.081270
  23 O :   -0.212593
  24 C :    0.123485
  25 C :    0.073588
  26 C :    0.106055
  27 O :   -0.159944
  28 O :   -0.195718
  29 C :   -0.071607
  30 C :    0.017410
  31 C :    0.030527
  32 C :    0.050728
  33 C :   -0.123442
  34 S :    0.152078
  35 C :   -0.130429
  36 C :    0.106212
  37 C :    0.128368
  38 C :   -0.040095
  39 C :    0.085744
  40 O :   -0.177996
  41 O :   -0.184486
  42 C :    0.010854
  43 C :   -0.060030
  44 C :    0.116877
  45 O :   -0.172334
  46 C :    0.003860
  47 C :   -0.048610
  48 C :    0.041134
  49 C :    0.019029
  50 C :   -0.009304
  51 S :    0.087534
  52 C :   -0.064779
  53 C :    0.033002
  54 C :    0.022297
  55 C :   -0.049257
  56 S :    0.138710
  57 C :    0.036899
  58 C :    0.028290
  59 C :   -0.138875
  60 C :    0.298642
  61 C :   -0.360588
  62 C :   -0.170215
  63 N :    0.129679
  64 C :   -0.205376
  65 N :    0.134045
  66 C :    0.008561
  67 C :   -0.004601
  68 C :    0.135942
  69 O :   -0.163127
  70 C :   -0.078573
  71 C :    0.112271
  72 C :   -0.088249
  73 C :   -0.028603
  74 S :    0.178617
  75 C :   -0.125201
  76 C :    0.038021
  77 Br:    0.012403
  78 H :   -0.010251
  79 H :   -0.010340
  80 H :    0.003074
  81 H :    0.007610
  82 H :    0.030257
  83 H :    0.021468
  84 H :    0.198196
  85 H :    0.192332
  86 H :   -0.029742
  87 H :    0.022726
  88 H :   -0.001001
  89 H :   -0.002481
  90 H :    0.189064
  91 H :    0.002524
  92 H :   -0.032620
  93 H :    0.192101
  94 H :    0.008924
  95 H :   -0.004902
  96 H :   -0.008976
  97 H :   -0.008036
  98 H :    0.000512
  99 H :    0.004551
 100 H :    0.001063
 101 H :   -0.015445
 102 H :   -0.007746
 103 H :   -0.007571
Sum of atomic charges:    0.0000000

LOEWDIN ATOMIC CHARGES
----------------------
   0 C :    0.077560
   1 C :   -0.150108
   2 C :   -0.017838
   3 N :   -0.062919
   4 C :   -0.019418
   5 N :   -0.065120
   6 C :   -0.023291
   7 C :   -0.053338
   8 C :    0.023705
   9 C :   -0.027812
  10 C :   -0.136325
  11 C :   -0.009488
  12 S :    0.436109
  13 C :   -0.272821
  14 C :   -0.067197
  15 Br:    0.126685
  16 C :    0.084385
  17 O :   -0.154616
  18 C :   -0.097632
  19 C :    0.060698
  20 C :   -0.033537
  21 C :    0.012992
  22 C :   -0.000314
  23 O :    0.012688
  24 C :    0.004562
  25 C :   -0.021148
  26 C :    0.011044
  27 O :   -0.034077
  28 O :   -0.058831
  29 C :   -0.053572
  30 C :   -0.002648
  31 C :   -0.005587
  32 C :   -0.039225
  33 C :   -0.146090
  34 S :    0.490209
  35 C :   -0.175575
  36 C :   -0.052321
  37 C :   -0.023291
  38 C :   -0.087916
  39 C :    0.074655
  40 O :   -0.168482
  41 O :   -0.046043
  42 C :    0.020577
  43 C :   -0.088787
  44 C :    0.079919
  45 O :   -0.033249
  46 C :   -0.039970
  47 C :   -0.172284
  48 C :   -0.011607
  49 C :   -0.050900
  50 C :   -0.147289
  51 S :    0.396552
  52 C :   -0.197148
  53 C :   -0.008163
  54 C :   -0.047607
  55 C :   -0.103525
  56 S :    0.421680
  57 C :   -0.071664
  58 C :    0.055327
  59 C :   -0.115717
  60 C :    0.071197
  61 C :   -0.165615
  62 C :   -0.018347
  63 N :   -0.075135
  64 C :   -0.011511
  65 N :   -0.079966
  66 C :   -0.015211
  67 C :   -0.050257
  68 C :    0.077375
  69 O :   -0.163048
  70 C :    0.016588
  71 C :   -0.037660
  72 C :   -0.145765
  73 C :   -0.016563
  74 S :    0.427220
  75 C :   -0.276240
  76 C :   -0.071098
  77 Br:    0.128328
  78 H :    0.041321
  79 H :    0.039626
  80 H :    0.036897
  81 H :    0.040371
  82 H :    0.033637
  83 H :    0.046840
  84 H :    0.107719
  85 H :    0.099760
  86 H :    0.024693
  87 H :    0.040179
  88 H :    0.026403
  89 H :    0.034716
  90 H :    0.098262
  91 H :    0.037474
  92 H :    0.028436
  93 H :    0.103720
  94 H :    0.042359
  95 H :    0.036858
  96 H :    0.033811
  97 H :    0.035072
  98 H :    0.036838
  99 H :    0.032541
 100 H :    0.037791
 101 H :    0.038682
 102 H :    0.039797
 103 H :    0.037051

  Mayer bond orders larger than 0.100000
B(  0-C ,  1-C ) :   1.6076 B(  0-C ,  6-C ) :   1.0047 B(  0-C , 18-C ) :   1.0759
B(  1-C ,  2-C ) :   1.1441 B(  1-C ,  4-C ) :   1.1491 B(  2-C ,  3-N ) :   2.9670
B(  4-C ,  5-N ) :   2.9582 B(  6-C ,  7-C ) :   1.2699 B(  6-C , 11-C ) :   1.4066
B(  7-C ,  8-C ) :   1.4108 B(  7-C , 16-C ) :   0.9461 B(  8-C ,  9-C ) :   1.2487
B(  8-C , 78-H ) :   1.0207 B(  9-C , 10-C ) :   1.3059 B(  9-C , 14-C ) :   1.1686
B( 10-C , 11-C ) :   1.3292 B( 10-C , 12-S ) :   1.0888 B( 11-C , 79-H ) :   0.9798
B( 12-S , 13-C ) :   1.0865 B( 13-C , 14-C ) :   1.6152 B( 13-C , 15-Br) :   1.0136
B( 14-C , 80-H ) :   0.9868 B( 16-C , 17-O ) :   2.1901 B( 16-C , 18-C ) :   0.9493
B( 18-C , 19-C ) :   1.5140 B( 19-C , 20-C ) :   1.1753 B( 19-C , 81-H ) :   0.9617
B( 20-C , 21-C ) :   1.4959 B( 20-C , 82-H ) :   0.9890 B( 21-C , 22-C ) :   1.1919
B( 21-C , 83-H ) :   0.9796 B( 22-C , 23-O ) :   1.1135 B( 22-C , 24-C ) :   0.1065
B( 22-C , 26-C ) :   1.3357 B( 23-O , 24-C ) :   1.1328 B( 24-C , 25-C ) :   1.2761
B( 24-C , 29-C ) :   1.1604 B( 25-C , 26-C ) :   1.2569 B( 25-C , 28-O ) :   1.2353
B( 26-C , 27-O ) :   1.2951 B( 27-O , 84-H ) :   0.9502 B( 28-O , 85-H ) :   0.9573
B( 29-C , 30-C ) :   1.5828 B( 29-C , 86-H ) :   0.9642 B( 30-C , 31-C ) :   1.1895
B( 30-C , 87-H ) :   0.9966 B( 31-C , 32-C ) :   1.5805 B( 31-C , 88-H ) :   0.9602
B( 32-C , 33-C ) :   1.1939 B( 32-C , 89-H ) :   0.9487 B( 33-C , 34-S ) :   1.1597
B( 33-C , 37-C ) :   1.2849 B( 34-S , 35-C ) :   1.1077 B( 35-C , 36-C ) :   1.2431
B( 35-C , 46-C ) :   1.3102 B( 36-C , 37-C ) :   1.2814 B( 36-C , 44-C ) :   1.2132
B( 37-C , 38-C ) :   1.2140 B( 38-C , 39-C ) :   0.9219 B( 38-C , 42-C ) :   1.4863
B( 39-C , 40-O ) :   2.1586 B( 39-C , 41-O ) :   1.2348 B( 41-O , 90-H ) :   0.9453
B( 42-C , 43-C ) :   1.2573 B( 42-C , 91-H ) :   0.9853 B( 43-C , 44-C ) :   1.4133
B( 43-C , 92-H ) :   0.9838 B( 44-C , 45-O ) :   1.2289 B( 45-O , 93-H ) :   0.9490
B( 46-C , 47-C ) :   1.4458 B( 46-C , 94-H ) :   0.9545 B( 47-C , 48-C ) :   1.2026
B( 47-C , 51-S ) :   1.0409 B( 48-C , 49-C ) :   1.5220 B( 48-C , 95-H ) :   1.0002
B( 49-C , 50-C ) :   1.2387 B( 49-C , 96-H ) :   0.9942 B( 50-C , 51-S ) :   1.0842
B( 50-C , 52-C ) :   1.4094 B( 52-C , 53-C ) :   1.2513 B( 52-C , 56-S ) :   1.0583
B( 53-C , 54-C ) :   1.5207 B( 53-C , 97-H ) :   0.9941 B( 54-C , 55-C ) :   1.2259
B( 54-C , 98-H ) :   0.9907 B( 55-C , 56-S ) :   1.1099 B( 55-C , 57-C ) :   1.4153
B( 57-C , 58-C ) :   1.3069 B( 57-C , 99-H ) :   0.9438 B( 58-C , 59-C ) :   1.4706
B( 58-C ,100-H ) :   0.9460 B( 59-C , 60-C ) :   1.1171 B( 59-C , 68-C ) :   0.9713
B( 60-C , 61-C ) :   1.5524 B( 60-C , 66-C ) :   1.0106 B( 61-C , 62-C ) :   1.1479
B( 61-C , 64-C ) :   1.1906 B( 62-C , 63-N ) :   2.9314 B( 64-C , 65-N ) :   2.9359
B( 66-C , 67-C ) :   1.2739 B( 66-C , 73-C ) :   1.4229 B( 67-C , 68-C ) :   0.9177
B( 67-C , 70-C ) :   1.4374 B( 68-C , 69-O ) :   2.2369 B( 70-C , 71-C ) :   1.2386
B( 70-C ,101-H ) :   1.0170 B( 71-C , 72-C ) :   1.3219 B( 71-C , 76-C ) :   1.1610
B( 72-C , 73-C ) :   1.3150 B( 72-C , 74-S ) :   1.0818 B( 73-C ,102-H ) :   0.9823
B( 74-S , 75-C ) :   1.0868 B( 75-C , 76-C ) :   1.6194 B( 75-C , 77-Br) :   1.0116
B( 76-C ,103-H ) :   1.0009

-----------------------------------------------------------------------------
         ABSORPTION SPECTRUM VIA TRANSITION ELECTRIC DIPOLE MOMENTS
-----------------------------------------------------------------------------
State   Energy  Wavelength   fosc         T2         TX        TY        TZ
        (cm-1)    (nm)                  (au**2)     (au)      (au)      (au)
-----------------------------------------------------------------------------
   0    6831.3   1463.9   0.548963232  26.45566  -2.91336   0.30084   4.22818
   1   14215.7    703.4   0.304208351   7.04494   0.40358   2.44734  -0.94478
   2   15778.6    633.8   1.912750785  39.90853   0.95425   5.42201  -3.09835
   3   18345.0    545.1   0.099695044   1.78909   0.36365  -0.31262  -1.24864
   4   19936.4    501.6   0.485913570   8.02393  -0.63455   1.84313   2.05527
   5   20593.4    485.6   0.020019142   0.32003  -0.24800   0.15421   0.48451
   6   21787.9    459.0   0.033671496   0.50877  -0.09387  -0.66095   0.25120
   7   22171.2    451.0   0.325012736   4.82599  -0.71964  -0.09897   2.07324
   8   23274.2    429.7   0.171980243   2.43264  -0.92210  -1.16355   0.47804
   9   23997.6    416.7   0.019172866   0.26302   0.43204  -0.27599  -0.01395
  10   25203.1    396.8   0.002422833   0.03165  -0.13174  -0.05225   0.10753
  11   25300.9    395.2   0.014198078   0.18474  -0.25378   0.11735   0.32645
  12   25545.4    391.5   0.040440855   0.52117   0.23970   0.65337  -0.19190
  13   26067.5    383.6   0.064522561   0.81487  -0.03885   0.34887   0.83165
  14   26282.3    380.5   0.030796257   0.38575   0.04306  -0.35272  -0.50940
  15   26619.1    375.7   0.002303567   0.02849  -0.04206   0.13831   0.08712
  16   26745.1    373.9   0.019083177   0.23490  -0.17079   0.30830   0.33268
  17   27344.3    365.7   0.395713346   4.76419  -0.92726   1.32249   1.46813
  18   27494.5    363.7   0.028272478   0.33853  -0.41577   0.10655   0.39282
  19   28121.0    355.6   0.023861004   0.27934   0.34989  -0.29550  -0.26381
  20   28260.5    353.9   0.055196787   0.64300   0.15127  -0.37641  -0.69168
  21   29027.3    344.5   0.015840729   0.17966  -0.03223   0.11560   0.40652
  22   29376.1    340.4   0.054307249   0.60861  -0.22722  -0.73649   0.12068
  23   29509.7    338.9   0.007114449   0.07937   0.09756   0.17424   0.19872
  24   30593.1    326.9   0.092846449   0.99912   0.53465  -0.18006  -0.82513
  25   30651.9    326.2   0.053470421   0.57429   0.60126   0.37522  -0.26830
  26   30749.3    325.2   0.134262321   1.43746   0.60988  -0.53204  -0.88456
  27   31043.2    322.1   0.150349469   1.59445  -1.03865  -0.10375   0.71055
  28   31219.8    320.3   0.067524801   0.71205   0.60259   0.58214  -0.10021
  29   31688.4    315.6   0.190091771   1.97487   1.02574   0.33337  -0.90088
  30   31797.9    314.5   0.000148293   0.00154  -0.02113  -0.03262   0.00494
  31   31955.9    312.9   0.144991796   1.49372  -0.87006  -0.44276   0.73530
  32   32319.6    309.4   0.075343723   0.76746  -0.27159   0.52648   0.64538
  33   32415.4    308.5   0.029911649   0.30378   0.16613   0.49163   0.18570
  34   32455.6    308.1   0.018322686   0.18586  -0.11883  -0.41439  -0.00441
  35   32544.6    307.3   0.281370447   2.84627  -0.00556   1.23966   1.14433
  36   32848.1    304.4   0.086730525   0.86923   0.17131  -0.76062  -0.51121
  37   33174.0    301.4   0.059894326   0.59438  -0.52985   0.13004   0.54473
  38   33336.3    300.0   0.072202282   0.71303   0.01992   0.60663   0.58706
  39   33984.4    294.3   0.109504536   1.06079  -0.14786  -1.01785   0.05388
  40   34534.9    289.6   0.120896383   1.15247   0.26312  -0.24524  -1.01148
  41   34763.0    287.7   0.015062946   0.14265  -0.33835  -0.09234   0.14014
  42   34980.0    285.9   0.121769652   1.14603  -0.72187  -0.08862   0.78554
  43   35472.4    281.9   0.191349813   1.77588   0.52095  -0.97311  -0.74669
  44   35610.3    280.8   0.011963231   0.11060   0.23860  -0.15282  -0.17411
  45   35628.8    280.7   0.036886003   0.34083   0.39573   0.15514  -0.40020
  46   35870.7    278.8   0.047662668   0.43744   0.28421   0.40314  -0.44061
  47   36036.7    277.5   0.020105195   0.18367   0.05869  -0.41665  -0.08140
  48   36375.6    274.9   0.007107504   0.06433   0.23906  -0.00323  -0.08465
  49   36474.8    274.2   0.051417821   0.46408   0.20737  -0.01189  -0.64880
  50   36673.2    272.7   0.004897115   0.04396  -0.16508   0.01758   0.12806
  51   37065.6    269.8   0.043351803   0.38504   0.30043   0.46218   0.28491
  52   37220.3    268.7   0.175314757   1.55065   0.94013  -0.23121  -0.78316
  53   37532.7    266.4   0.077243823   0.67753   0.24081   0.24885  -0.74674
  54   37675.2    265.4   0.004170596   0.03644   0.18490   0.02844  -0.03804
  55   38255.3    261.4   0.168681854   1.45162   0.29581   0.98846  -0.62214
  56   38761.9    258.0   0.007036135   0.05976  -0.06247   0.03746   0.23335
  57   38945.2    256.8   0.061976244   0.52390  -0.28775   0.66172   0.05679
  58   38983.4    256.5   0.041278026   0.34859   0.11706  -0.57161  -0.09027
  59   39000.6    256.4   0.000130779   0.00110   0.02731  -0.01529   0.01115
  60   39272.3    254.6   0.006495606   0.05445  -0.12752  -0.16054  -0.11143
  61   39509.1    253.1   0.031342805   0.26117  -0.01530   0.10449   0.50001
  62   39747.7    251.6   0.004976500   0.04122   0.15989   0.07151  -0.10266
  63   40018.4    249.9   0.009052224   0.07447  -0.25469  -0.09409   0.02738
  64   40274.0    248.3   0.044220412   0.36147  -0.08550   0.38809   0.45116

FINAL SINGLE POINT ENERGY    -10219.032160481491

DIPOLE MOMENT
-------------
                                X             Y             Z
Electronic contribution:    -97.66172    -112.12537     171.20779
Nuclear contribution   :     99.28766     120.15032    -175.90846
                        -----------------------------------------
Total Dipole Moment    :      1.62594       8.02494      -4.70067
                        -----------------------------------------
Magnitude (a.u.)       :      9.44138
Magnitude (Debye)      :     23.99809

Rotational constants in cm-1:     0.000661     0.000304     0.000229
Rotational constants in MHz :    19.812289     9.117429     6.870442

                             ****ORCA TERMINATED NORMALLY****
TOTAL RUN TIME: 0 days 0 hours 13 minutes 23 seconds 7 msec
