                         Program Version 4.2.0 -  RELEASE  -
|  1> # ORCA input file
|  2> # SCF done       -155.386737441103          0.000668697305
|  3> ! CAM-B3LYP def2-SVP def2/J RIJCOSX Grid4 TightSCF
|  4> %maxcore 5000
|  5> %tddft
|  6>     Mode sTDDFT
|  7>     Ethresh 5.0
|  8>     maxcore 5000
|  9> end
| 10>
| 11> %pal
| 12>   nprocs 6
| 13>   end
| 14> * xyz 0 1
| 15>    C      -19.70265        -7.48154         3.80071
| 16>    C      -18.56365        -8.24896         3.70444
| 17>    C      -18.54751        -9.65283         3.81651
| 18>    N      -18.46438       -10.79558         3.90438
| 19>    C      -17.25543        -7.76165         3.51643
| 20>    N      -16.15594        -7.45383         3.38202
| 21>    C      -21.04604        -8.00136         4.05347
| 22>    C      -21.94069        -6.90955         4.16256
| 23>    C      -23.28195        -7.07145         4.40466
| 24>    C      -23.76746        -8.37672         4.54386
| 25>    C      -22.86769        -9.46066         4.42977
| 26>    C      -21.50890        -9.29610         4.18612
| 27>    S      -23.67612       -10.98649         4.63161
| 28>    C      -25.19128       -10.15596         4.86427
| 29>    C      -25.09974        -8.80735         4.79438
| 30>   Br      -26.75216       -11.14868         5.17832
| 31>    C      -21.19377        -5.64749         3.96855
| 32>    O      -21.65960        -4.52472         4.01193
| 33>    C      -19.79831        -6.04791         3.71323
| 34>    C      -18.77468        -5.17374         3.40444
| 35>    C      -18.89067        -3.78954         3.34458
| 36>    C      -17.83334        -2.96726         3.00348
| 37>    C      -17.84449        -1.55546         2.93277
| 38>    C      -16.65074        -1.00462         2.56789
| 39>    C      -15.64003        -1.95874         2.32449
| 40>    S      -16.24957        -3.57817         2.58617
| 41>    C      -14.33476        -1.74655         1.92130
| 42>    C      -13.67858        -0.52240         1.65460
| 43>    C      -12.38618        -0.66533         1.25985
| 44>    C      -11.94575        -2.01660         1.17515
| 45>    S      -13.25513        -3.09083         1.65023
| 46>    C      -10.67677        -2.40246         0.85300
| 47>    N      -10.20251        -3.67153         0.68560
| 48>    C      -10.88681        -4.78702         0.29468
| 49>    S      -12.30595        -4.67342        -0.69518
| 50>    C      -12.35543        -6.40205        -0.79342
| 51>    N      -13.39875        -6.96901        -1.52790
| 52>    O      -13.43256        -8.18172        -1.63065
| 53>    O      -14.19767        -6.19238        -2.02848
| 54>    C      -11.33497        -7.01898        -0.12063
| 55>    C      -10.46485        -6.10836         0.50676
| 56>    C       -9.29778        -6.45249         1.27986
| 57>    C       -8.86547        -7.71196         1.47760
| 58>    C       -7.70142        -8.14651         2.20458
| 59>    C       -7.02187        -7.54452         3.19403
| 60>    C       -7.36081        -6.21927         3.80090
| 61>    C       -5.78494        -8.20936         3.74952
| 62>    N       -4.59357        -7.49960         3.33859
| 63>    C       -3.87213        -6.62915         4.10464
| 64>    C       -3.94361        -6.43178         5.43427
| 65>    C       -3.03271        -5.55089         6.10767
| 66>    C       -2.94787        -5.30386         7.42364
| 67>    C       -3.84275        -5.87970         8.47727
| 68>    C       -1.90506        -4.34367         7.94627
| 69>    N       -2.47458        -3.07692         8.36186
| 70>    C       -2.95786        -2.89399         9.63183
| 71>    C       -3.89038        -2.01059         9.97992
| 72>    H      -23.93813        -6.21883         4.48332
| 73>    H      -20.86570       -10.15610         4.10559
| 74>    H      -25.93496        -8.14164         4.91379
| 75>    H      -17.79939        -5.58916         3.18138
| 76>    H      -19.84157        -3.33050         3.57273
| 77>    H      -18.73454        -0.99333         3.15293
| 78>    H      -16.47672         0.05130         2.46315
| 79>    H      -14.17908         0.42293         1.75903
| 80>    H      -11.73113         0.15047         1.01099
| 81>    H       -9.92782        -1.62863         0.74735
| 82>    H       -9.20543        -3.79562         0.80584
| 83>    H      -11.24625        -8.08857        -0.08762
| 84>    H       -8.74017        -5.62532         1.69111
| 85>    H       -9.41513        -8.51834         1.01198
| 86>    H       -7.36461        -9.13647         1.91741
| 87>    H       -6.91529        -5.40314         3.22971
| 88>    H       -6.96826        -6.15660         4.81310
| 89>    H       -8.43866        -6.07400         3.83095
| 90>    H       -5.71403        -9.24038         3.38518
| 91>    H       -5.81636        -8.23453         4.83899
| 92>    H       -4.49230        -7.40857         2.34019
| 93>    H       -3.12011        -6.09214         3.53918
| 94>    H       -4.67260        -6.95619         6.03138
| 95>    H       -2.31847        -5.05727         5.45725
| 96>    H       -3.28206        -6.57502         9.10424
| 97>    H       -4.69062        -6.40786         8.05335
| 98>    H       -4.21895        -5.08459         9.12236
| 99>    H       -1.15954        -4.14027         7.17024
|100>    H       -1.39365        -4.77575         8.81150
|101>    H       -3.00795        -2.61198         7.63919
|102>    H       -2.45806        -3.49500        10.38103
|103>    H       -4.39384        -1.40117         9.24873
|104>    H       -4.15647        -1.85695        11.00815
|105> *
|106>
|107>                          ****END OF INPUT****

CARTESIAN COORDINATES (ANGSTROEM)
---------------------------------
  C    -19.702650   -7.481540    3.800710
  C    -18.563650   -8.248960    3.704440
  C    -18.547510   -9.652830    3.816510
  N    -18.464380  -10.795580    3.904380
  C    -17.255430   -7.761650    3.516430
  N    -16.155940   -7.453830    3.382020
  C    -21.046040   -8.001360    4.053470
  C    -21.940690   -6.909550    4.162560
  C    -23.281950   -7.071450    4.404660
  C    -23.767460   -8.376720    4.543860
  C    -22.867690   -9.460660    4.429770
  C    -21.508900   -9.296100    4.186120
  S    -23.676120  -10.986490    4.631610
  C    -25.191280  -10.155960    4.864270
  C    -25.099740   -8.807350    4.794380
  Br   -26.752160  -11.148680    5.178320
  C    -21.193770   -5.647490    3.968550
  O    -21.659600   -4.524720    4.011930
  C    -19.798310   -6.047910    3.713230
  C    -18.774680   -5.173740    3.404440
  C    -18.890670   -3.789540    3.344580
  C    -17.833340   -2.967260    3.003480
  C    -17.844490   -1.555460    2.932770
  C    -16.650740   -1.004620    2.567890
  C    -15.640030   -1.958740    2.324490
  S    -16.249570   -3.578170    2.586170
  C    -14.334760   -1.746550    1.921300
  C    -13.678580   -0.522400    1.654600
  C    -12.386180   -0.665330    1.259850
  C    -11.945750   -2.016600    1.175150
  S    -13.255130   -3.090830    1.650230
  C    -10.676770   -2.402460    0.853000
  N    -10.202510   -3.671530    0.685600
  C    -10.886810   -4.787020    0.294680
  S    -12.305950   -4.673420   -0.695180
  C    -12.355430   -6.402050   -0.793420
  N    -13.398750   -6.969010   -1.527900
  O    -13.432560   -8.181720   -1.630650
  O    -14.197670   -6.192380   -2.028480
  C    -11.334970   -7.018980   -0.120630
  C    -10.464850   -6.108360    0.506760
  C     -9.297780   -6.452490    1.279860
  C     -8.865470   -7.711960    1.477600
  C     -7.701420   -8.146510    2.204580
  C     -7.021870   -7.544520    3.194030
  C     -7.360810   -6.219270    3.800900
  C     -5.784940   -8.209360    3.749520
  N     -4.593570   -7.499600    3.338590
  C     -3.872130   -6.629150    4.104640
  C     -3.943610   -6.431780    5.434270
  C     -3.032710   -5.550890    6.107670
  C     -2.947870   -5.303860    7.423640
  C     -3.842750   -5.879700    8.477270
  C     -1.905060   -4.343670    7.946270
  N     -2.474580   -3.076920    8.361860
  C     -2.957860   -2.893990    9.631830
  C     -3.890380   -2.010590    9.979920
  H    -23.938130   -6.218830    4.483320
  H    -20.865700  -10.156100    4.105590
  H    -25.934960   -8.141640    4.913790
  H    -17.799390   -5.589160    3.181380
  H    -19.841570   -3.330500    3.572730
  H    -18.734540   -0.993330    3.152930
  H    -16.476720    0.051300    2.463150
  H    -14.179080    0.422930    1.759030
  H    -11.731130    0.150470    1.010990
  H     -9.927820   -1.628630    0.747350
  H     -9.205430   -3.795620    0.805840
  H    -11.246250   -8.088570   -0.087620
  H     -8.740170   -5.625320    1.691110
  H     -9.415130   -8.518340    1.011980
  H     -7.364610   -9.136470    1.917410
  H     -6.915290   -5.403140    3.229710
  H     -6.968260   -6.156600    4.813100
  H     -8.438660   -6.074000    3.830950
  H     -5.714030   -9.240380    3.385180
  H     -5.816360   -8.234530    4.838990
  H     -4.492300   -7.408570    2.340190
  H     -3.120110   -6.092140    3.539180
  H     -4.672600   -6.956190    6.031380
  H     -2.318470   -5.057270    5.457250
  H     -3.282060   -6.575020    9.104240
  H     -4.690620   -6.407860    8.053350
  H     -4.218950   -5.084590    9.122360
  H     -1.159540   -4.140270    7.170240
  H     -1.393650   -4.775750    8.811500
  H     -3.007950   -2.611980    7.639190
  H     -2.458060   -3.495000   10.381030
  H     -4.393840   -1.401170    9.248730
  H     -4.156470   -1.856950   11.008150

 Total Charge           Charge          ....    0
 Multiplicity           Mult            ....    1
 Number of Electrons    NEL             ....  456
 Basis Dimension        Dim             ....  997

ORBITAL ENERGIES
----------------

  NO   OCC          E(Eh)            E(eV)
   0   2.0000    -482.874938    -13139.6951
   1   2.0000     -88.983341     -2421.3598
   2   2.0000     -88.966398     -2420.8988
   3   2.0000     -88.962194     -2420.7844
   4   2.0000     -88.955797     -2420.6103
   5   2.0000     -62.552640     -1702.1439
   6   2.0000     -56.386578     -1534.3568
   7   2.0000     -56.383886     -1534.2835
   8   2.0000     -56.383850     -1534.2826
   9   2.0000     -19.231659      -523.3201
  10   2.0000     -19.231479      -523.3151
  11   2.0000     -19.197092      -522.3794
  12   2.0000     -14.643213      -398.4621
  13   2.0000     -14.496953      -394.4822
  14   2.0000     -14.427999      -392.6058
  15   2.0000     -14.397664      -391.7804
  16   2.0000     -14.397635      -391.7796
  17   2.0000     -14.395231      -391.7142
  18   2.0000     -10.365989      -282.0729
  19   2.0000     -10.356754      -281.8216
  20   2.0000     -10.347377      -281.5664
  21   2.0000     -10.345940      -281.5273
  22   2.0000     -10.339374      -281.3487
  23   2.0000     -10.334699      -281.2215
  24   2.0000     -10.326843      -281.0077
  25   2.0000     -10.324110      -280.9333
  26   2.0000     -10.320805      -280.8434
  27   2.0000     -10.319261      -280.8014
  28   2.0000     -10.318927      -280.7923
  29   2.0000     -10.311210      -280.5823
  30   2.0000     -10.310364      -280.5593
  31   2.0000     -10.309313      -280.5307
  32   2.0000     -10.304537      -280.4007
  33   2.0000     -10.304371      -280.3962
  34   2.0000     -10.304060      -280.3877
  35   2.0000     -10.302202      -280.3372
  36   2.0000     -10.301577      -280.3202
  37   2.0000     -10.301256      -280.3114
  38   2.0000     -10.299626      -280.2671
  39   2.0000     -10.294852      -280.1372
  40   2.0000     -10.293264      -280.0939
  41   2.0000     -10.292428      -280.0712
  42   2.0000     -10.290989      -280.0321
  43   2.0000     -10.290463      -280.0177
  44   2.0000     -10.288947      -279.9765
  45   2.0000     -10.287925      -279.9487
  46   2.0000     -10.286760      -279.9170
  47   2.0000     -10.285943      -279.8947
  48   2.0000     -10.285175      -279.8738
  49   2.0000     -10.284286      -279.8496
  50   2.0000     -10.281972      -279.7867
  51   2.0000     -10.275756      -279.6175
  52   2.0000     -10.274866      -279.5933
  53   2.0000     -10.273271      -279.5499
  54   2.0000     -10.273244      -279.5492
  55   2.0000     -10.270442      -279.4729
  56   2.0000     -10.251897      -278.9683
  57   2.0000     -10.249280      -278.8971
  58   2.0000     -10.248395      -278.8730
  59   2.0000     -10.242867      -278.7226
  60   2.0000     -10.220246      -278.1070
  61   2.0000      -8.782055      -238.9719
  62   2.0000      -8.078517      -219.8276
  63   2.0000      -8.062331      -219.3872
  64   2.0000      -8.058197      -219.2747
  65   2.0000      -8.051800      -219.1006
  66   2.0000      -6.618305      -180.0932
  67   2.0000      -6.603811      -179.6988
  68   2.0000      -6.603627      -179.6938
  69   2.0000      -6.048087      -164.5768
  70   2.0000      -6.043620      -164.4553
  71   2.0000      -6.040156      -164.3610
  72   2.0000      -6.032100      -164.1418
  73   2.0000      -6.027897      -164.0274
  74   2.0000      -6.027848      -164.0261
  75   2.0000      -6.023631      -163.9113
  76   2.0000      -6.023237      -163.9006
  77   2.0000      -6.021417      -163.8511
  78   2.0000      -6.019398      -163.7962
  79   2.0000      -6.017375      -163.7411
  80   2.0000      -6.012951      -163.6207
  81   2.0000      -2.734166       -74.4004
  82   2.0000      -2.730111       -74.2901
  83   2.0000      -2.730001       -74.2871
  84   2.0000      -2.718463       -73.9732
  85   2.0000      -2.718453       -73.9729
  86   2.0000      -1.311947       -35.6999
  87   2.0000      -1.131016       -30.7765
  88   2.0000      -1.110341       -30.2139
  89   2.0000      -1.097994       -29.8779
  90   2.0000      -1.026383       -27.9293
  91   2.0000      -1.011921       -27.5358
  92   2.0000      -1.006765       -27.3955
  93   2.0000      -1.003310       -27.3014
  94   2.0000      -1.001329       -27.2476
  95   2.0000      -0.996054       -27.1040
  96   2.0000      -0.986960       -26.8565
  97   2.0000      -0.975562       -26.5464
  98   2.0000      -0.971629       -26.4394
  99   2.0000      -0.929483       -25.2925
 100   2.0000      -0.928020       -25.2527
 101   2.0000      -0.911956       -24.8156
 102   2.0000      -0.903859       -24.5953
 103   2.0000      -0.892756       -24.2931
 104   2.0000      -0.891026       -24.2460
 105   2.0000      -0.886264       -24.1165
 106   2.0000      -0.877721       -23.8840
 107   2.0000      -0.870375       -23.6841
 108   2.0000      -0.864143       -23.5145
 109   2.0000      -0.861929       -23.4543
 110   2.0000      -0.849052       -23.1039
 111   2.0000      -0.837172       -22.7806
 112   2.0000      -0.835317       -22.7301
 113   2.0000      -0.832619       -22.6567
 114   2.0000      -0.814201       -22.1555
 115   2.0000      -0.808374       -21.9970
 116   2.0000      -0.805399       -21.9160
 117   2.0000      -0.793203       -21.5842
 118   2.0000      -0.785011       -21.3612
 119   2.0000      -0.773532       -21.0489
 120   2.0000      -0.752475       -20.4759
 121   2.0000      -0.749969       -20.4077
 122   2.0000      -0.740828       -20.1590
 123   2.0000      -0.728342       -19.8192
 124   2.0000      -0.723287       -19.6816
 125   2.0000      -0.719131       -19.5685
 126   2.0000      -0.703427       -19.1412
 127   2.0000      -0.682196       -18.5635
 128   2.0000      -0.678111       -18.4523
 129   2.0000      -0.674590       -18.3565
 130   2.0000      -0.668087       -18.1796
 131   2.0000      -0.661239       -17.9932
 132   2.0000      -0.654978       -17.8228
 133   2.0000      -0.649790       -17.6817
 134   2.0000      -0.642557       -17.4849
 135   2.0000      -0.642433       -17.4815
 136   2.0000      -0.631821       -17.1927
 137   2.0000      -0.631212       -17.1761
 138   2.0000      -0.625606       -17.0236
 139   2.0000      -0.623996       -16.9798
 140   2.0000      -0.622749       -16.9459
 141   2.0000      -0.618384       -16.8271
 142   2.0000      -0.610002       -16.5990
 143   2.0000      -0.607088       -16.5197
 144   2.0000      -0.606834       -16.5128
 145   2.0000      -0.586385       -15.9564
 146   2.0000      -0.584051       -15.8928
 147   2.0000      -0.581459       -15.8223
 148   2.0000      -0.578690       -15.7469
 149   2.0000      -0.577538       -15.7156
 150   2.0000      -0.568746       -15.4764
 151   2.0000      -0.563477       -15.3330
 152   2.0000      -0.557391       -15.1674
 153   2.0000      -0.548034       -14.9128
 154   2.0000      -0.546646       -14.8750
 155   2.0000      -0.544053       -14.8044
 156   2.0000      -0.540995       -14.7212
 157   2.0000      -0.534132       -14.5345
 158   2.0000      -0.531302       -14.4575
 159   2.0000      -0.529316       -14.4034
 160   2.0000      -0.522776       -14.2254
 161   2.0000      -0.522412       -14.2156
 162   2.0000      -0.518615       -14.1122
 163   2.0000      -0.516870       -14.0647
 164   2.0000      -0.514685       -14.0053
 165   2.0000      -0.512952       -13.9581
 166   2.0000      -0.507487       -13.8094
 167   2.0000      -0.502616       -13.6769
 168   2.0000      -0.501861       -13.6563
 169   2.0000      -0.499856       -13.6018
 170   2.0000      -0.494218       -13.4484
 171   2.0000      -0.492718       -13.4075
 172   2.0000      -0.491121       -13.3641
 173   2.0000      -0.485778       -13.2187
 174   2.0000      -0.483483       -13.1562
 175   2.0000      -0.482946       -13.1416
 176   2.0000      -0.480815       -13.0836
 177   2.0000      -0.478115       -13.0102
 178   2.0000      -0.475273       -12.9328
 179   2.0000      -0.473555       -12.8861
 180   2.0000      -0.464116       -12.6292
 181   2.0000      -0.459047       -12.4913
 182   2.0000      -0.456804       -12.4303
 183   2.0000      -0.456359       -12.4182
 184   2.0000      -0.452283       -12.3072
 185   2.0000      -0.450998       -12.2723
 186   2.0000      -0.450372       -12.2553
 187   2.0000      -0.444393       -12.0925
 188   2.0000      -0.443145       -12.0586
 189   2.0000      -0.442330       -12.0364
 190   2.0000      -0.440022       -11.9736
 191   2.0000      -0.436793       -11.8857
 192   2.0000      -0.432628       -11.7724
 193   2.0000      -0.432268       -11.7626
 194   2.0000      -0.428030       -11.6473
 195   2.0000      -0.426443       -11.6041
 196   2.0000      -0.424489       -11.5509
 197   2.0000      -0.424103       -11.5404
 198   2.0000      -0.415738       -11.3128
 199   2.0000      -0.412527       -11.2254
 200   2.0000      -0.411523       -11.1981
 201   2.0000      -0.408777       -11.1234
 202   2.0000      -0.408395       -11.1130
 203   2.0000      -0.405875       -11.0444
 204   2.0000      -0.405195       -11.0259
 205   2.0000      -0.392895       -10.6912
 206   2.0000      -0.389681       -10.6038
 207   2.0000      -0.379770       -10.3341
 208   2.0000      -0.376367       -10.2415
 209   2.0000      -0.374849       -10.2002
 210   2.0000      -0.372044       -10.1238
 211   2.0000      -0.366348        -9.9688
 212   2.0000      -0.364560        -9.9202
 213   2.0000      -0.361405        -9.8343
 214   2.0000      -0.359884        -9.7929
 215   2.0000      -0.348197        -9.4749
 216   2.0000      -0.344960        -9.3868
 217   2.0000      -0.342537        -9.3209
 218   2.0000      -0.331137        -9.0107
 219   2.0000      -0.317677        -8.6444
 220   2.0000      -0.313641        -8.5346
 221   2.0000      -0.300994        -8.1905
 222   2.0000      -0.299463        -8.1488
 223   2.0000      -0.279744        -7.6122
 224   2.0000      -0.271075        -7.3763
 225   2.0000      -0.254711        -6.9310
 226   2.0000      -0.231022        -6.2864
 227   2.0000      -0.225042        -6.1237
 228   0.0000      -0.103693        -2.8216
 229   0.0000      -0.056561        -1.5391
 230   0.0000      -0.045686        -1.2432
 231   0.0000      -0.034018        -0.9257
 232   0.0000      -0.020432        -0.5560

MULLIKEN ATOMIC CHARGES
-----------------------
   0 C :    0.327506
   1 C :   -0.358363
   2 C :   -0.190312
   3 N :    0.134714
   4 C :   -0.191345
   5 N :    0.131033
   6 C :    0.013425
   7 C :   -0.009004
   8 C :   -0.077021
   9 C :    0.117353
  10 C :   -0.091604
  11 C :   -0.025624
  12 S :    0.178116
  13 C :   -0.123860
  14 C :    0.036991
  15 Br:    0.012868
  16 C :    0.136493
  17 O :   -0.167185
  18 C :   -0.087486
  19 C :   -0.039579
  20 C :   -0.026167
  21 C :    0.007070
  22 C :    0.027003
  23 C :    0.039713
  24 C :   -0.049610
  25 S :    0.107676
  26 C :   -0.037987
  27 C :    0.021982
  28 C :    0.052023
  29 C :   -0.079698
  30 S :    0.127679
  31 C :    0.027692
  32 N :   -0.034553
  33 C :   -0.137934
  34 S :    0.200572
  35 C :   -0.012883
  36 N :    0.281136
  37 O :   -0.247502
  38 O :   -0.266034
  39 C :    0.005606
  40 C :    0.129503
  41 C :   -0.028064
  42 C :    0.019238
  43 C :    0.007843
  44 C :   -0.219906
  45 C :    0.114235
  46 C :    0.215110
  47 N :   -0.162170
  48 C :    0.044399
  49 C :   -0.047850
  50 C :    0.005634
  51 C :   -0.205323
  52 C :    0.099466
  53 C :    0.194458
  54 N :   -0.173566
  55 C :    0.044058
  56 C :   -0.091662
  57 H :   -0.015734
  58 H :   -0.009890
  59 H :   -0.006660
  60 H :    0.016909
  61 H :    0.015043
  62 H :   -0.001120
  63 H :   -0.005571
  64 H :   -0.008129
  65 H :   -0.004102
  66 H :    0.019401
  67 H :    0.154895
  68 H :    0.013011
  69 H :   -0.060160
  70 H :   -0.008541
  71 H :   -0.020664
  72 H :    0.026155
  73 H :    0.013451
  74 H :    0.033692
  75 H :    0.006019
  76 H :    0.024697
  77 H :    0.114274
  78 H :   -0.008214
  79 H :   -0.032866
  80 H :   -0.047667
  81 H :    0.012087
  82 H :   -0.004018
  83 H :    0.026342
  84 H :   -0.006987
  85 H :   -0.000295
  86 H :    0.099182
  87 H :   -0.003571
  88 H :   -0.013260
  89 H :    0.003987
Sum of atomic charges:   -0.0000000

LOEWDIN ATOMIC CHARGES
----------------------
   0 C :    0.073473
   1 C :   -0.156011
   2 C :   -0.018385
   3 N :   -0.069392
   4 C :   -0.020611
   5 N :   -0.068137
   6 C :   -0.017739
   7 C :   -0.048524
   8 C :    0.016830
   9 C :   -0.036212
  10 C :   -0.145709
  11 C :   -0.013462
  12 S :    0.426635
  13 C :   -0.275148
  14 C :   -0.071094
  15 Br:    0.128693
  16 C :    0.081997
  17 O :   -0.159662
  18 C :   -0.108631
  19 C :    0.050962
  20 C :   -0.074530
  21 C :   -0.102117
  22 C :   -0.042486
  23 C :   -0.007785
  24 C :   -0.195770
  25 S :    0.411422
  26 C :   -0.148729
  27 C :   -0.047005
  28 C :   -0.008733
  29 C :   -0.205335
  30 S :    0.402258
  31 C :    0.002845
  32 N :    0.038145
  33 C :   -0.134893
  34 S :    0.480463
  35 C :   -0.204665
  36 N :    0.275168
  37 O :   -0.213082
  38 O :   -0.232213
  39 C :   -0.000519
  40 C :   -0.088562
  41 C :   -0.035974
  42 C :   -0.017102
  43 C :   -0.061447
  44 C :   -0.025147
  45 C :   -0.052722
  46 C :    0.048071
  47 N :   -0.021613
  48 C :    0.026287
  49 C :   -0.131284
  50 C :   -0.045377
  51 C :   -0.074895
  52 C :   -0.052767
  53 C :    0.040248
  54 N :   -0.038129
  55 C :    0.020382
  56 C :   -0.169993
  57 H :    0.038546
  58 H :    0.039994
  59 H :    0.037293
  60 H :    0.031378
  61 H :    0.038265
  62 H :    0.038446
  63 H :    0.034907
  64 H :    0.034524
  65 H :    0.036063
  66 H :    0.036963
  67 H :    0.097784
  68 H :    0.044534
  69 H :    0.016525
  70 H :    0.030506
  71 H :    0.026807
  72 H :    0.033032
  73 H :    0.033798
  74 H :    0.036221
  75 H :    0.024783
  76 H :    0.032533
  77 H :    0.072744
  78 H :    0.023581
  79 H :    0.013736
  80 H :    0.017030
  81 H :    0.030838
  82 H :    0.022884
  83 H :    0.034570
  84 H :    0.018675
  85 H :    0.022840
  86 H :    0.067524
  87 H :    0.021293
  88 H :    0.010477
  89 H :    0.018619

  Mayer bond orders larger than 0.100000
B(  0-C ,  1-C ) :   1.5821 B(  0-C ,  6-C ) :   0.9888 B(  0-C , 18-C ) :   1.1147
B(  1-C ,  2-C ) :   1.1509 B(  1-C ,  4-C ) :   1.1532 B(  2-C ,  3-N ) :   2.9609
B(  4-C ,  5-N ) :   2.9604 B(  6-C ,  7-C ) :   1.2794 B(  6-C , 11-C ) :   1.4208
B(  7-C ,  8-C ) :   1.4294 B(  7-C , 16-C ) :   0.9350 B(  8-C ,  9-C ) :   1.2404
B(  8-C , 57-H ) :   1.0165 B(  9-C , 10-C ) :   1.3164 B(  9-C , 14-C ) :   1.1601
B( 10-C , 11-C ) :   1.3203 B( 10-C , 12-S ) :   1.0817 B( 11-C , 58-H ) :   0.9798
B( 12-S , 13-C ) :   1.0854 B( 13-C , 14-C ) :   1.6204 B( 13-C , 15-Br) :   1.0118
B( 14-C , 59-H ) :   1.0003 B( 16-C , 17-O ) :   2.1858 B( 16-C , 18-C ) :   0.9669
B( 18-C , 19-C ) :   1.4793 B( 19-C , 20-C ) :   1.2601 B( 19-C , 60-H ) :   0.9423
B( 20-C , 21-C ) :   1.4169 B( 20-C , 61-H ) :   0.9792 B( 21-C , 22-C ) :   1.1766
B( 21-C , 25-S ) :   1.0897 B( 22-C , 23-C ) :   1.5451 B( 22-C , 62-H ) :   1.0020
B( 23-C , 24-C ) :   1.2116 B( 23-C , 63-H ) :   0.9958 B( 24-C , 25-S ) :   1.0431
B( 24-C , 26-C ) :   1.4807 B( 26-C , 27-C ) :   1.1837 B( 26-C , 30-S ) :   1.0760
B( 27-C , 28-C ) :   1.6118 B( 27-C , 64-H ) :   0.9942 B( 28-C , 29-C ) :   1.1419
B( 28-C , 65-H ) :   0.9965 B( 29-C , 30-S ) :   1.0226 B( 29-C , 31-C ) :   1.6007
B( 31-C , 32-N ) :   1.1734 B( 31-C , 66-H ) :   0.9594 B( 32-N , 33-C ) :   1.1576
B( 32-N , 67-H ) :   0.9145 B( 33-C , 34-S ) :   1.1325 B( 33-C , 40-C ) :   1.3733
B( 34-S , 35-C ) :   1.0938 B( 35-C , 36-N ) :   0.9708 B( 35-C , 39-C ) :   1.4865
B( 36-N , 37-O ) :   1.5327 B( 36-N , 38-O ) :   1.5091 B( 37-O , 38-O ) :   0.2599
B( 39-C , 40-C ) :   1.2392 B( 39-C , 68-H ) :   0.9964 B( 40-C , 41-C ) :   1.0745
B( 41-C , 42-C ) :   1.7589 B( 41-C , 69-H ) :   0.9584 B( 42-C , 43-C ) :   1.1008
B( 42-C , 70-H ) :   0.9566 B( 43-C , 44-C ) :   1.8132 B( 43-C , 71-H ) :   0.9472
B( 44-C , 45-C ) :   1.0807 B( 44-C , 46-C ) :   1.0564 B( 45-C , 72-H ) :   0.9348
B( 45-C , 73-H ) :   0.9423 B( 45-C , 74-H ) :   0.9410 B( 46-C , 47-N ) :   0.9994
B( 46-C , 75-H ) :   0.9378 B( 46-C , 76-H ) :   0.9289 B( 47-N , 48-C ) :   1.1769
B( 47-N , 77-H ) :   0.9391 B( 48-C , 49-C ) :   1.7043 B( 48-C , 78-H ) :   0.9628
B( 49-C , 50-C ) :   1.1053 B( 49-C , 79-H ) :   0.9594 B( 50-C , 51-C ) :   1.7895
B( 50-C , 80-H ) :   0.9676 B( 51-C , 52-C ) :   1.0726 B( 51-C , 53-C ) :   1.0426
B( 52-C , 81-H ) :   0.9467 B( 52-C , 82-H ) :   0.9510 B( 52-C , 83-H ) :   0.9432
B( 53-C , 54-N ) :   1.0288 B( 53-C , 84-H ) :   0.9411 B( 53-C , 85-H ) :   0.9315
B( 54-N , 55-C ) :   1.1747 B( 54-N , 86-H ) :   0.9431 B( 55-C , 56-C ) :   1.8750
B( 55-C , 87-H ) :   0.9580 B( 56-C , 88-H ) :   0.9568 B( 56-C , 89-H ) :   0.9536

-----------------------------------------------------------------------------
         ABSORPTION SPECTRUM VIA TRANSITION ELECTRIC DIPOLE MOMENTS
-----------------------------------------------------------------------------
State   Energy  Wavelength   fosc         T2         TX        TY        TZ
        (cm-1)    (nm)                  (au**2)     (au)      (au)      (au)
-----------------------------------------------------------------------------
   0   12084.2    827.5   0.984426414  26.81887  -4.63597  -1.60179   1.66161
   1   18912.5    528.8   0.031477120   0.54793  -0.01262   0.64620  -0.36081
   2   21549.7    464.0   0.101516554   1.55086  -0.28583   1.14114   0.40860
   3   22481.9    444.8   0.555188391   8.12987   0.39514  -2.81964  -0.15287
   4   23684.9    422.2   0.188272466   2.61693  -0.94334  -1.26995  -0.33803
   5   25018.3    399.7   0.034977991   0.46027   0.59601  -0.08570  -0.31256
   6   25433.4    393.2   0.360867046   4.67109   2.01614   0.77428  -0.08227
   7   26547.2    376.7   0.168003899   2.08342   1.04101  -0.80506   0.59295
   8   27056.9    369.6   0.001662823   0.02023   0.07560  -0.09461   0.07460
   9   27805.1    359.6   0.072470948   0.85806   0.32146  -0.81248   0.30755
  10   28332.0    353.0   0.128631573   1.49467   0.83421   0.15416   0.88034
  11   28655.5    349.0   0.021285899   0.24455   0.13225  -0.45018  -0.15619
  12   29202.4    342.4   0.078350023   0.88328   0.38166  -0.85884   0.00288
  13   29306.3    341.2   0.030186786   0.33910  -0.32094  -0.44219  -0.20141
  14   30884.9    323.8   0.067957429   0.72438   0.55206   0.33804  -0.55257
  15   31361.4    318.9   0.160892305   1.68895  -0.82712  -0.97593  -0.22886
  16   31793.6    314.5   0.191969246   1.98778   1.35719  -0.25510   0.28415
  17   32095.8    311.6   0.005782969   0.05932   0.11245   0.20059  -0.08022
  18   32343.8    309.2   0.422637769   4.30183  -1.91269  -0.73831   0.31361
  19   32741.8    305.4   0.031078300   0.31249   0.45424   0.13283  -0.29751
  20   34417.2    290.6   0.063980106   0.61199   0.30456  -0.37831   0.61328
  21   34660.7    288.5   0.003700815   0.03515  -0.10871   0.01466  -0.15205
  22   34916.8    286.4   0.050553734   0.47664   0.68776   0.01693  -0.05781
  23   35876.6    278.7   0.044070663   0.40440   0.57752  -0.25913   0.06106
  24   36061.2    277.3   0.136932540   1.25009   0.60682  -0.92551  -0.15905
  25   36531.5    273.7   0.079221022   0.71392  -0.83436  -0.12942  -0.03181
  26   36643.5    272.9   0.062365268   0.56030  -0.34297  -0.66486   0.02525
  27   37260.6    268.4   0.259251618   2.29059   1.25845  -0.69747   0.46948
  28   37570.0    266.2   0.111734732   0.97909  -0.74348   0.34891  -0.55189
  29   37789.7    264.6   0.045005575   0.39207   0.16030   0.21063   0.56746
  30   38639.4    258.8   0.038395562   0.32713  -0.35129   0.37908  -0.24500
  31   38975.4    256.6   0.012500766   0.10559  -0.21257   0.23463  -0.07318
  32   39186.6    255.2   0.063307372   0.53185  -0.55700   0.46819  -0.04897
  33   39822.3    251.1   0.206079306   1.70366  -1.13135   0.16480  -0.62973

FINAL SINGLE POINT ENERGY     -6375.805670870451

DIPOLE MOMENT
-------------
                                X             Y             Z
Electronic contribution:   -285.15981     -78.43417     -23.67169
Nuclear contribution   :    288.22195      81.77649      22.71296
                        -----------------------------------------
Total Dipole Moment    :      3.06214       3.34232      -0.95873
                        -----------------------------------------
Magnitude (a.u.)       :      4.63324
Magnitude (Debye)      :     11.77677

Rotational constants in cm-1:     0.001440     0.000305     0.000292
Rotational constants in MHz :    43.159139     9.156257     8.750549

                             ****ORCA TERMINATED NORMALLY****
TOTAL RUN TIME: 0 days 0 hours 12 minutes 1 seconds 283 msec
