                         Program Version 4.2.0 -  RELEASE  -
|  1> # ORCA input file
|  2> # SCF done       -204.222371877895          0.000502012543
|  3> ! CAM-B3LYP def2-SVP def2/J RIJCOSX Grid4 TightSCF
|  4> %maxcore 5000
|  5> %tddft
|  6>     Mode sTDDFT
|  7>     Ethresh 5.0
|  8>     maxcore 5000
|  9> end
| 10>
| 11> %pal
| 12>   nprocs 6
| 13>   end
| 14> * xyz 0 1
| 15>    C       -3.38609         5.56901        -4.84620
| 16>    C       -3.28912         4.30890        -5.37806
| 17>    C       -2.46213         3.97361        -6.46988
| 18>    N       -1.81130         3.64277        -7.35602
| 19>    C       -3.97669         3.17380        -4.90082
| 20>    N       -4.49087         2.20396        -4.56232
| 21>    C       -2.63558         6.73734        -5.28494
| 22>    C       -2.92811         7.81884        -4.41842
| 23>    C       -2.37317         9.06567        -4.57387
| 24>    C       -1.48554         9.25647        -5.63742
| 25>    C       -1.19909         8.17088        -6.49976
| 26>    C       -1.75975         6.91007        -6.34203
| 27>    S       -0.08111         8.62685        -7.74989
| 28>    C       -0.01481        10.24594        -7.10533
| 29>    C       -0.78847        10.43791        -6.01073
| 30>   Br        1.06750        11.53041        -7.93986
| 31>    C       -3.88078         7.37947        -3.37959
| 32>    O       -4.31585         8.05845        -2.47564
| 33>    C       -4.20878         5.96921        -3.71613
| 34>    C       -5.25058         5.26394        -3.20017
| 35>    C       -6.01096         5.63363        -2.03774
| 36>    C       -5.38104         6.07099        -0.90289
| 37>    S       -6.41279         6.32679         0.43018
| 38>    C       -7.78804         5.89815        -0.54504
| 39>    C       -7.44163         5.52945        -1.85149
| 40>    C       -8.47143         5.22790        -2.77246
| 41>    C       -8.09225         4.91629        -4.19694
| 42>    C       -7.88953         3.41552        -4.42447
| 43>    C       -9.80122         5.23451        -2.36653
| 44>    C      -10.89030         4.88271        -3.34714
| 45>    C      -11.57318         6.13571        -3.89913
| 46>    C      -10.14704         5.60571        -1.04275
| 47>    C      -11.43334         5.79861        -0.40351
| 48>    C      -11.29746         6.24491         0.87858
| 49>    S       -9.67775         6.44530         1.41025
| 50>    C       -9.11364         5.94274        -0.15046
| 51>    C      -12.76191         5.60552        -0.95463
| 52>    C      -13.77371         6.45855        -0.69298
| 53>    C      -15.12285         6.39645        -1.13833
| 54>    S      -16.25417         7.44094        -0.33967
| 55>    C      -17.61437         6.90097        -1.27940
| 56>    C      -17.19209         5.90579        -2.19142
| 57>    C      -15.78031         5.65284        -2.13076
| 58>    C      -15.19886         4.76470        -3.05833
| 59>    C      -15.99193         4.10205        -3.94851
| 60>    F      -15.43317         3.26330        -4.84130
| 61>    C      -17.38869         4.27784        -3.94275
| 62>    F      -18.14868         3.57017        -4.80108
| 63>    C      -17.98136         5.16475        -3.08879
| 64>    C      -18.84379         7.52898        -1.03029
| 65>    C      -20.01009         7.40598        -1.74227
| 66>    C      -21.19577         8.07802        -1.45084
| 67>    C      -22.34367         7.90295        -2.19974
| 68>    C      -23.59912         8.52518        -2.03900
| 69>    C      -24.54442         8.12350        -2.94184
| 70>    C      -24.08510         7.15785        -3.85742
| 71>    S      -22.40671         6.78189        -3.54876
| 72>    C      -24.76209         6.51371        -4.87897
| 73>    C      -26.10240         6.67439        -5.28789
| 74>    C      -26.44428         5.85956        -6.32160
| 75>    C      -25.40106         5.00744        -6.78715
| 76>    S      -23.95151         5.30170        -5.84826
| 77>    C      -25.58988         4.11861        -7.81187
| 78>    C      -24.73274         3.16657        -8.42901
| 79>    C      -25.25177         2.37175        -9.47382
| 80>    O      -26.54319         2.63976        -9.81134
| 81>    C      -27.38631         1.65561       -10.37315
| 82>    C      -24.44848         1.40243       -10.14707
| 83>    O      -25.04198         0.74452       -11.18697
| 84>    C      -24.29591        -0.22016       -11.88909
| 85>    C      -23.14513         1.17137        -9.77026
| 86>    C      -22.59978         1.92955        -8.72835
| 87>    C      -23.37873         2.93655        -8.06411
| 88>    N      -22.67548         3.55088        -7.12301
| 89>    S      -21.18540         2.92860        -7.06897
| 90>    N      -21.36065         1.84580        -8.24576
| 91>    H       -2.61709         9.86830        -3.89563
| 92>    H       -1.51348         6.11705        -7.02811
| 93>    H       -0.86684        11.37324        -5.48726
| 94>    H       -5.52247         4.33271        -3.67560
| 95>    H       -4.32392         6.19084        -0.77004
| 96>    H       -7.17133         5.45363        -4.43483
| 97>    H       -8.85291         5.28791        -4.88353
| 98>    H       -7.18281         2.99807        -3.71108
| 99>    H       -7.51368         3.23146        -5.42856
|100>    H       -8.82632         2.87652        -4.30567
|101>    H      -11.61786         4.23908        -2.85650
|102>    H      -10.48825         4.30637        -4.17637
|103>    H      -12.03473         6.71137        -3.10063
|104>    H      -12.34167         5.86175        -4.61877
|105>    H      -10.84486         6.77065        -4.39904
|106>    H      -12.09182         6.43731         1.57302
|107>    H      -12.93456         4.72176        -1.54163
|108>    H      -13.56322         7.31090        -0.05748
|109>    H      -14.13535         4.61731        -3.10295
|110>    H      -19.05202         5.25786        -3.11938
|111>    H      -18.84301         8.21802        -0.19352
|112>    H      -20.04124         6.77250        -2.61409
|113>    H      -21.23376         8.75951        -0.61193
|114>    H      -23.77069         9.25170        -1.26406
|115>    H      -25.55398         8.49369        -2.96561
|116>    H      -26.77043         7.37496        -4.81863
|117>    H      -27.42016         5.83389        -6.77465
|118>    H      -26.58680         4.13390        -8.23387
|119>    H      -27.25541         0.68661        -9.88788
|120>    H      -27.22468         1.54865       -11.44716
|121>    H      -28.40016         2.01607       -10.19365
|122>    H      -23.41501         0.22127       -12.36447
|123>    H      -24.96747        -0.60226       -12.65651
|124>    H      -23.98605        -1.04186       -11.23633
|125>    H      -22.52073         0.44411       -10.25801
|126> *
|127>
|128>                          ****END OF INPUT****

CARTESIAN COORDINATES (ANGSTROEM)
---------------------------------
  C     -3.386090    5.569010   -4.846200
  C     -3.289120    4.308900   -5.378060
  C     -2.462130    3.973610   -6.469880
  N     -1.811300    3.642770   -7.356020
  C     -3.976690    3.173800   -4.900820
  N     -4.490870    2.203960   -4.562320
  C     -2.635580    6.737340   -5.284940
  C     -2.928110    7.818840   -4.418420
  C     -2.373170    9.065670   -4.573870
  C     -1.485540    9.256470   -5.637420
  C     -1.199090    8.170880   -6.499760
  C     -1.759750    6.910070   -6.342030
  S     -0.081110    8.626850   -7.749890
  C     -0.014810   10.245940   -7.105330
  C     -0.788470   10.437910   -6.010730
  Br     1.067500   11.530410   -7.939860
  C     -3.880780    7.379470   -3.379590
  O     -4.315850    8.058450   -2.475640
  C     -4.208780    5.969210   -3.716130
  C     -5.250580    5.263940   -3.200170
  C     -6.010960    5.633630   -2.037740
  C     -5.381040    6.070990   -0.902890
  S     -6.412790    6.326790    0.430180
  C     -7.788040    5.898150   -0.545040
  C     -7.441630    5.529450   -1.851490
  C     -8.471430    5.227900   -2.772460
  C     -8.092250    4.916290   -4.196940
  C     -7.889530    3.415520   -4.424470
  C     -9.801220    5.234510   -2.366530
  C    -10.890300    4.882710   -3.347140
  C    -11.573180    6.135710   -3.899130
  C    -10.147040    5.605710   -1.042750
  C    -11.433340    5.798610   -0.403510
  C    -11.297460    6.244910    0.878580
  S     -9.677750    6.445300    1.410250
  C     -9.113640    5.942740   -0.150460
  C    -12.761910    5.605520   -0.954630
  C    -13.773710    6.458550   -0.692980
  C    -15.122850    6.396450   -1.138330
  S    -16.254170    7.440940   -0.339670
  C    -17.614370    6.900970   -1.279400
  C    -17.192090    5.905790   -2.191420
  C    -15.780310    5.652840   -2.130760
  C    -15.198860    4.764700   -3.058330
  C    -15.991930    4.102050   -3.948510
  F    -15.433170    3.263300   -4.841300
  C    -17.388690    4.277840   -3.942750
  F    -18.148680    3.570170   -4.801080
  C    -17.981360    5.164750   -3.088790
  C    -18.843790    7.528980   -1.030290
  C    -20.010090    7.405980   -1.742270
  C    -21.195770    8.078020   -1.450840
  C    -22.343670    7.902950   -2.199740
  C    -23.599120    8.525180   -2.039000
  C    -24.544420    8.123500   -2.941840
  C    -24.085100    7.157850   -3.857420
  S    -22.406710    6.781890   -3.548760
  C    -24.762090    6.513710   -4.878970
  C    -26.102400    6.674390   -5.287890
  C    -26.444280    5.859560   -6.321600
  C    -25.401060    5.007440   -6.787150
  S    -23.951510    5.301700   -5.848260
  C    -25.589880    4.118610   -7.811870
  C    -24.732740    3.166570   -8.429010
  C    -25.251770    2.371750   -9.473820
  O    -26.543190    2.639760   -9.811340
  C    -27.386310    1.655610  -10.373150
  C    -24.448480    1.402430  -10.147070
  O    -25.041980    0.744520  -11.186970
  C    -24.295910   -0.220160  -11.889090
  C    -23.145130    1.171370   -9.770260
  C    -22.599780    1.929550   -8.728350
  C    -23.378730    2.936550   -8.064110
  N    -22.675480    3.550880   -7.123010
  S    -21.185400    2.928600   -7.068970
  N    -21.360650    1.845800   -8.245760
  H     -2.617090    9.868300   -3.895630
  H     -1.513480    6.117050   -7.028110
  H     -0.866840   11.373240   -5.487260
  H     -5.522470    4.332710   -3.675600
  H     -4.323920    6.190840   -0.770040
  H     -7.171330    5.453630   -4.434830
  H     -8.852910    5.287910   -4.883530
  H     -7.182810    2.998070   -3.711080
  H     -7.513680    3.231460   -5.428560
  H     -8.826320    2.876520   -4.305670
  H    -11.617860    4.239080   -2.856500
  H    -10.488250    4.306370   -4.176370
  H    -12.034730    6.711370   -3.100630
  H    -12.341670    5.861750   -4.618770
  H    -10.844860    6.770650   -4.399040
  H    -12.091820    6.437310    1.573020
  H    -12.934560    4.721760   -1.541630
  H    -13.563220    7.310900   -0.057480
  H    -14.135350    4.617310   -3.102950
  H    -19.052020    5.257860   -3.119380
  H    -18.843010    8.218020   -0.193520
  H    -20.041240    6.772500   -2.614090
  H    -21.233760    8.759510   -0.611930
  H    -23.770690    9.251700   -1.264060
  H    -25.553980    8.493690   -2.965610
  H    -26.770430    7.374960   -4.818630
  H    -27.420160    5.833890   -6.774650
  H    -26.586800    4.133900   -8.233870
  H    -27.255410    0.686610   -9.887880
  H    -27.224680    1.548650  -11.447160
  H    -28.400160    2.016070  -10.193650
  H    -23.415010    0.221270  -12.364470
  H    -24.967470   -0.602260  -12.656510
  H    -23.986050   -1.041860  -11.236330
  H    -22.520730    0.444110  -10.258010

 Total Charge           Charge          ....    0
 Multiplicity           Mult            ....    1
 Number of Electrons    NEL             ....  606
 Basis Dimension        Dim             .... 1285

ORBITAL ENERGIES
----------------

  NO   OCC          E(Eh)            E(eV)
   0   2.0000    -482.886243    -13140.0027
   1   2.0000     -89.004271     -2421.9293
   2   2.0000     -88.975928     -2421.1581
   3   2.0000     -88.959758     -2420.7181
   4   2.0000     -88.958408     -2420.6813
   5   2.0000     -88.949464     -2420.4380
   6   2.0000     -88.932815     -2419.9849
   7   2.0000     -88.927247     -2419.8334
   8   2.0000     -62.563934     -1702.4512
   9   2.0000     -56.397889     -1534.6646
  10   2.0000     -56.395167     -1534.5905
  11   2.0000     -56.395138     -1534.5897
  12   2.0000     -24.779635      -674.2881
  13   2.0000     -24.778891      -674.2679
  14   2.0000     -19.257890      -524.0338
  15   2.0000     -19.246188      -523.7154
  16   2.0000     -19.214741      -522.8597
  17   2.0000     -14.422209      -392.4483
  18   2.0000     -14.419079      -392.3631
  19   2.0000     -14.415691      -392.2709
  20   2.0000     -14.414983      -392.2516
  21   2.0000     -10.367190      -282.1056
  22   2.0000     -10.359931      -281.9081
  23   2.0000     -10.359730      -281.9026
  24   2.0000     -10.358413      -281.8668
  25   2.0000     -10.348121      -281.5867
  26   2.0000     -10.342825      -281.4426
  27   2.0000     -10.342034      -281.4210
  28   2.0000     -10.341248      -281.3997
  29   2.0000     -10.331418      -281.1322
  30   2.0000     -10.326370      -280.9948
  31   2.0000     -10.318427      -280.7787
  32   2.0000     -10.317851      -280.7630
  33   2.0000     -10.317834      -280.7625
  34   2.0000     -10.316273      -280.7201
  35   2.0000     -10.311127      -280.5800
  36   2.0000     -10.308612      -280.5116
  37   2.0000     -10.308505      -280.5087
  38   2.0000     -10.308338      -280.5041
  39   2.0000     -10.308192      -280.5002
  40   2.0000     -10.306328      -280.4494
  41   2.0000     -10.302608      -280.3482
  42   2.0000     -10.301317      -280.3131
  43   2.0000     -10.299174      -280.2548
  44   2.0000     -10.298786      -280.2442
  45   2.0000     -10.298062      -280.2245
  46   2.0000     -10.297748      -280.2160
  47   2.0000     -10.297247      -280.2023
  48   2.0000     -10.297171      -280.2003
  49   2.0000     -10.296530      -280.1828
  50   2.0000     -10.296300      -280.1766
  51   2.0000     -10.292560      -280.0748
  52   2.0000     -10.290295      -280.0132
  53   2.0000     -10.290091      -280.0076
  54   2.0000     -10.288029      -279.9515
  55   2.0000     -10.286491      -279.9097
  56   2.0000     -10.285495      -279.8826
  57   2.0000     -10.285491      -279.8824
  58   2.0000     -10.281408      -279.7713
  59   2.0000     -10.281351      -279.7698
  60   2.0000     -10.281134      -279.7639
  61   2.0000     -10.280438      -279.7449
  62   2.0000     -10.280145      -279.7370
  63   2.0000     -10.279131      -279.7094
  64   2.0000     -10.278830      -279.7012
  65   2.0000     -10.275476      -279.6099
  66   2.0000     -10.275372      -279.6071
  67   2.0000     -10.274626      -279.5868
  68   2.0000     -10.274581      -279.5856
  69   2.0000     -10.274134      -279.5734
  70   2.0000     -10.273801      -279.5643
  71   2.0000     -10.273783      -279.5639
  72   2.0000     -10.273214      -279.5484
  73   2.0000     -10.270482      -279.4740
  74   2.0000     -10.269889      -279.4579
  75   2.0000     -10.267498      -279.3928
  76   2.0000     -10.265485      -279.3380
  77   2.0000     -10.263549      -279.2854
  78   2.0000     -10.252141      -278.9749
  79   2.0000     -10.251102      -278.9467
  80   2.0000      -8.793342      -239.2790
  81   2.0000      -8.096032      -220.3042
  82   2.0000      -8.072002      -219.6503
  83   2.0000      -8.056044      -219.2161
  84   2.0000      -8.053896      -219.1576
  85   2.0000      -8.045712      -218.9349
  86   2.0000      -8.028993      -218.4800
  87   2.0000      -8.021903      -218.2871
  88   2.0000      -6.629649      -180.4019
  89   2.0000      -6.615090      -180.0057
  90   2.0000      -6.614858      -179.9994
  91   2.0000      -6.067392      -165.1021
  92   2.0000      -6.059755      -164.8943
  93   2.0000      -6.058002      -164.8466
  94   2.0000      -6.041688      -164.4027
  95   2.0000      -6.037418      -164.2865
  96   2.0000      -6.033193      -164.1715
  97   2.0000      -6.025426      -163.9602
  98   2.0000      -6.022767      -163.8878
  99   2.0000      -6.021148      -163.8438
 100   2.0000      -6.018872      -163.7818
 101   2.0000      -6.017950      -163.7567
 102   2.0000      -6.016681      -163.7222
 103   2.0000      -6.015196      -163.6818
 104   2.0000      -6.011025      -163.5683
 105   2.0000      -6.007386      -163.4693
 106   2.0000      -5.998670      -163.2321
 107   2.0000      -5.994721      -163.1246
 108   2.0000      -5.991836      -163.0462
 109   2.0000      -5.989997      -162.9961
 110   2.0000      -5.987449      -162.9268
 111   2.0000      -5.982692      -162.7973
 112   2.0000      -2.745524       -74.7095
 113   2.0000      -2.741421       -74.5979
 114   2.0000      -2.741284       -74.5941
 115   2.0000      -2.729693       -74.2787
 116   2.0000      -2.729678       -74.2783
 117   2.0000      -1.299515       -35.3616
 118   2.0000      -1.285102       -34.9694
 119   2.0000      -1.167279       -31.7633
 120   2.0000      -1.141798       -31.0699
 121   2.0000      -1.130599       -30.7652
 122   2.0000      -1.106805       -30.1177
 123   2.0000      -1.023227       -27.8434
 124   2.0000      -1.013546       -27.5800
 125   2.0000      -1.004483       -27.3334
 126   2.0000      -0.994062       -27.0498
 127   2.0000      -0.993869       -27.0446
 128   2.0000      -0.989560       -26.9273
 129   2.0000      -0.982947       -26.7474
 130   2.0000      -0.974021       -26.5045
 131   2.0000      -0.966597       -26.3025
 132   2.0000      -0.956981       -26.0408
 133   2.0000      -0.945666       -25.7329
 134   2.0000      -0.943037       -25.6613
 135   2.0000      -0.936241       -25.4764
 136   2.0000      -0.926183       -25.2027
 137   2.0000      -0.911070       -24.7915
 138   2.0000      -0.908683       -24.7265
 139   2.0000      -0.904777       -24.6202
 140   2.0000      -0.892302       -24.2808
 141   2.0000      -0.886454       -24.1216
 142   2.0000      -0.879158       -23.9231
 143   2.0000      -0.872785       -23.7497
 144   2.0000      -0.868872       -23.6432
 145   2.0000      -0.857022       -23.3208
 146   2.0000      -0.855785       -23.2871
 147   2.0000      -0.852430       -23.1958
 148   2.0000      -0.848100       -23.0780
 149   2.0000      -0.834455       -22.7067
 150   2.0000      -0.830831       -22.6081
 151   2.0000      -0.829308       -22.5666
 152   2.0000      -0.828172       -22.5357
 153   2.0000      -0.823291       -22.4029
 154   2.0000      -0.818564       -22.2743
 155   2.0000      -0.807045       -21.9608
 156   2.0000      -0.802821       -21.8459
 157   2.0000      -0.798082       -21.7169
 158   2.0000      -0.788581       -21.4584
 159   2.0000      -0.783538       -21.3211
 160   2.0000      -0.773572       -21.0500
 161   2.0000      -0.762802       -20.7569
 162   2.0000      -0.756311       -20.5803
 163   2.0000      -0.751590       -20.4518
 164   2.0000      -0.730334       -19.8734
 165   2.0000      -0.727409       -19.7938
 166   2.0000      -0.720258       -19.5992
 167   2.0000      -0.711808       -19.3693
 168   2.0000      -0.705673       -19.2023
 169   2.0000      -0.704657       -19.1747
 170   2.0000      -0.696737       -18.9592
 171   2.0000      -0.693498       -18.8711
 172   2.0000      -0.691149       -18.8071
 173   2.0000      -0.687229       -18.7005
 174   2.0000      -0.683259       -18.5924
 175   2.0000      -0.676724       -18.4146
 176   2.0000      -0.669516       -18.2184
 177   2.0000      -0.660953       -17.9854
 178   2.0000      -0.658430       -17.9168
 179   2.0000      -0.656781       -17.8719
 180   2.0000      -0.648553       -17.6480
 181   2.0000      -0.639486       -17.4013
 182   2.0000      -0.633461       -17.2374
 183   2.0000      -0.624551       -16.9949
 184   2.0000      -0.624342       -16.9892
 185   2.0000      -0.623113       -16.9558
 186   2.0000      -0.617403       -16.8004
 187   2.0000      -0.615515       -16.7490
 188   2.0000      -0.612787       -16.6748
 189   2.0000      -0.607884       -16.5414
 190   2.0000      -0.604862       -16.4591
 191   2.0000      -0.602406       -16.3923
 192   2.0000      -0.600283       -16.3345
 193   2.0000      -0.599477       -16.3126
 194   2.0000      -0.596477       -16.2310
 195   2.0000      -0.587107       -15.9760
 196   2.0000      -0.581614       -15.8265
 197   2.0000      -0.580069       -15.7845
 198   2.0000      -0.570222       -15.5165
 199   2.0000      -0.569717       -15.5028
 200   2.0000      -0.565306       -15.3828
 201   2.0000      -0.559562       -15.2265
 202   2.0000      -0.552190       -15.0259
 203   2.0000      -0.550118       -14.9695
 204   2.0000      -0.545530       -14.8446
 205   2.0000      -0.545028       -14.8310
 206   2.0000      -0.541952       -14.7473
 207   2.0000      -0.541630       -14.7385
 208   2.0000      -0.539881       -14.6909
 209   2.0000      -0.539270       -14.6743
 210   2.0000      -0.533956       -14.5297
 211   2.0000      -0.530474       -14.4349
 212   2.0000      -0.529958       -14.4209
 213   2.0000      -0.527976       -14.3669
 214   2.0000      -0.527779       -14.3616
 215   2.0000      -0.527413       -14.3517
 216   2.0000      -0.524394       -14.2695
 217   2.0000      -0.522792       -14.2259
 218   2.0000      -0.517734       -14.0883
 219   2.0000      -0.512581       -13.9480
 220   2.0000      -0.511498       -13.9186
 221   2.0000      -0.509950       -13.8764
 222   2.0000      -0.507668       -13.8143
 223   2.0000      -0.505850       -13.7649
 224   2.0000      -0.501173       -13.6376
 225   2.0000      -0.498481       -13.5644
 226   2.0000      -0.496681       -13.5154
 227   2.0000      -0.494509       -13.4563
 228   2.0000      -0.492845       -13.4110
 229   2.0000      -0.492045       -13.3892
 230   2.0000      -0.488243       -13.2858
 231   2.0000      -0.486942       -13.2504
 232   2.0000      -0.484538       -13.1849
 233   2.0000      -0.483362       -13.1529
 234   2.0000      -0.482172       -13.1206
 235   2.0000      -0.478873       -13.0308
 236   2.0000      -0.474804       -12.9201
 237   2.0000      -0.471785       -12.8379
 238   2.0000      -0.469699       -12.7812
 239   2.0000      -0.468655       -12.7528
 240   2.0000      -0.462625       -12.5887
 241   2.0000      -0.462546       -12.5865
 242   2.0000      -0.458783       -12.4841
 243   2.0000      -0.457766       -12.4564
 244   2.0000      -0.456869       -12.4320
 245   2.0000      -0.454422       -12.3655
 246   2.0000      -0.454036       -12.3549
 247   2.0000      -0.452662       -12.3176
 248   2.0000      -0.449669       -12.2361
 249   2.0000      -0.448877       -12.2146
 250   2.0000      -0.447427       -12.1751
 251   2.0000      -0.445711       -12.1284
 252   2.0000      -0.444066       -12.0836
 253   2.0000      -0.442300       -12.0356
 254   2.0000      -0.440436       -11.9849
 255   2.0000      -0.437581       -11.9072
 256   2.0000      -0.436521       -11.8783
 257   2.0000      -0.434704       -11.8289
 258   2.0000      -0.429131       -11.6772
 259   2.0000      -0.427607       -11.6358
 260   2.0000      -0.426966       -11.6183
 261   2.0000      -0.425684       -11.5835
 262   2.0000      -0.425086       -11.5672
 263   2.0000      -0.422486       -11.4964
 264   2.0000      -0.419389       -11.4122
 265   2.0000      -0.418317       -11.3830
 266   2.0000      -0.415818       -11.3150
 267   2.0000      -0.414774       -11.2866
 268   2.0000      -0.412572       -11.2267
 269   2.0000      -0.410330       -11.1657
 270   2.0000      -0.407942       -11.1007
 271   2.0000      -0.405967       -11.0469
 272   2.0000      -0.402600       -10.9553
 273   2.0000      -0.400482       -10.8977
 274   2.0000      -0.393870       -10.7177
 275   2.0000      -0.388576       -10.5737
 276   2.0000      -0.387941       -10.5564
 277   2.0000      -0.386764       -10.5244
 278   2.0000      -0.382407       -10.4058
 279   2.0000      -0.379051       -10.3145
 280   2.0000      -0.376047       -10.2328
 281   2.0000      -0.375483       -10.2174
 282   2.0000      -0.373262       -10.1570
 283   2.0000      -0.372375       -10.1329
 284   2.0000      -0.359793        -9.7905
 285   2.0000      -0.349709        -9.5161
 286   2.0000      -0.343070        -9.3354
 287   2.0000      -0.336588        -9.1590
 288   2.0000      -0.327376        -8.9084
 289   2.0000      -0.324346        -8.8259
 290   2.0000      -0.320965        -8.7339
 291   2.0000      -0.315977        -8.5982
 292   2.0000      -0.315388        -8.5821
 293   2.0000      -0.314339        -8.5536
 294   2.0000      -0.309938        -8.4338
 295   2.0000      -0.306135        -8.3304
 296   2.0000      -0.294033        -8.0010
 297   2.0000      -0.288759        -7.8575
 298   2.0000      -0.280290        -7.6271
 299   2.0000      -0.266867        -7.2618
 300   2.0000      -0.265283        -7.2187
 301   2.0000      -0.235714        -6.4141
 302   2.0000      -0.189163        -5.1474
 303   0.0000      -0.084672        -2.3040
 304   0.0000      -0.082230        -2.2376
 305   0.0000      -0.055469        -1.5094
 306   0.0000      -0.047034        -1.2799
 307   0.0000      -0.022898        -0.6231

MULLIKEN ATOMIC CHARGES
-----------------------
   0 C :    0.299075
   1 C :   -0.342245
   2 C :   -0.187587
   3 N :    0.147980
   4 C :   -0.200909
   5 N :    0.167050
   6 C :    0.016493
   7 C :   -0.017262
   8 C :   -0.071328
   9 C :    0.118465
  10 C :   -0.089945
  11 C :   -0.019893
  12 S :    0.186648
  13 C :   -0.122591
  14 C :    0.039242
  15 Br:    0.024753
  16 C :    0.130968
  17 O :   -0.138464
  18 C :   -0.097841
  19 C :   -0.041248
  20 C :    0.045133
  21 C :   -0.039266
  22 S :    0.151587
  23 C :   -0.145616
  24 C :    0.122007
  25 C :   -0.115464
  26 C :    0.006998
  27 C :    0.041455
  28 C :   -0.117542
  29 C :    0.028419
  30 C :    0.031854
  31 C :    0.119403
  32 C :    0.063739
  33 C :   -0.118655
  34 S :    0.124922
  35 C :   -0.154378
  36 C :   -0.058927
  37 C :    0.048345
  38 C :   -0.140942
  39 S :    0.147358
  40 C :   -0.112912
  41 C :    0.120684
  42 C :    0.139081
  43 C :   -0.118401
  44 C :    0.229086
  45 F :   -0.182583
  46 C :    0.212696
  47 F :   -0.184598
  48 C :   -0.118862
  49 C :    0.041705
  50 C :   -0.016272
  51 C :   -0.008763
  52 C :   -0.019075
  53 C :    0.027036
  54 C :    0.029841
  55 C :   -0.051839
  56 S :    0.045209
  57 C :   -0.019152
  58 C :    0.029557
  59 C :    0.024351
  60 C :    0.025381
  61 S :    0.106346
  62 C :   -0.099852
  63 C :    0.026190
  64 C :    0.118631
  65 O :   -0.321536
  66 C :    0.210528
  67 C :    0.230143
  68 O :   -0.330800
  69 C :    0.181755
  70 C :   -0.206323
  71 C :    0.068819
  72 C :    0.054972
  73 N :   -0.330556
  74 S :    0.503249
  75 N :   -0.273459
  76 H :   -0.009854
  77 H :   -0.006430
  78 H :   -0.002798
  79 H :    0.025463
  80 H :    0.029557
  81 H :    0.004891
  82 H :    0.005357
  83 H :    0.032989
  84 H :    0.021541
  85 H :    0.008463
  86 H :    0.003629
  87 H :   -0.000202
  88 H :    0.025418
  89 H :    0.022589
  90 H :    0.005867
  91 H :    0.019697
  92 H :    0.006264
  93 H :   -0.014921
  94 H :   -0.041271
  95 H :   -0.012235
  96 H :   -0.024630
  97 H :    0.000970
  98 H :   -0.022173
  99 H :   -0.017459
 100 H :   -0.017626
 101 H :   -0.020826
 102 H :   -0.016848
 103 H :   -0.008419
 104 H :    0.013754
 105 H :    0.030377
 106 H :    0.024954
 107 H :    0.030532
 108 H :    0.037922
 109 H :    0.028875
 110 H :   -0.035487
Sum of atomic charges:   -0.0000000

LOEWDIN ATOMIC CHARGES
----------------------
   0 C :    0.077033
   1 C :   -0.141529
   2 C :   -0.018345
   3 N :   -0.053608
   4 C :   -0.022612
   5 N :   -0.048659
   6 C :   -0.022125
   7 C :   -0.050153
   8 C :    0.022058
   9 C :   -0.031677
  10 C :   -0.143546
  11 C :   -0.009196
  12 S :    0.432562
  13 C :   -0.270606
  14 C :   -0.070270
  15 Br:    0.137749
  16 C :    0.080775
  17 O :   -0.135154
  18 C :   -0.100136
  19 C :    0.080824
  20 C :   -0.079612
  21 C :   -0.113140
  22 S :    0.444651
  23 C :   -0.179591
  24 C :   -0.036976
  25 C :   -0.021724
  26 C :   -0.033048
  27 C :   -0.050102
  28 C :   -0.013459
  29 C :   -0.030329
  30 C :   -0.052370
  31 C :   -0.039675
  32 C :   -0.059207
  33 C :   -0.170159
  34 S :    0.411563
  35 C :   -0.176010
  36 C :   -0.028333
  37 C :   -0.043850
  38 C :   -0.187497
  39 S :    0.474702
  40 C :   -0.168563
  41 C :   -0.048238
  42 C :   -0.041692
  43 C :   -0.043611
  44 C :    0.061565
  45 F :   -0.061970
  46 C :    0.057852
  47 F :   -0.063945
  48 C :   -0.036442
  49 C :   -0.058715
  50 C :   -0.032432
  51 C :   -0.066367
  52 C :   -0.140138
  53 C :   -0.045155
  54 C :   -0.029395
  55 C :   -0.185481
  56 S :    0.367594
  57 C :   -0.183616
  58 C :   -0.038579
  59 C :   -0.028416
  60 C :   -0.140376
  61 S :    0.418537
  62 C :   -0.047715
  63 C :   -0.060352
  64 C :    0.048722
  65 O :   -0.098693
  66 C :    0.079423
  67 C :    0.041583
  68 O :   -0.096945
  69 C :    0.078995
  70 C :   -0.087028
  71 C :   -0.054044
  72 C :   -0.043386
  73 N :   -0.299042
  74 S :    0.627378
  75 N :   -0.293656
  76 H :    0.041221
  77 H :    0.041151
  78 H :    0.039144
  79 H :    0.043651
  80 H :    0.028655
  81 H :    0.027136
  82 H :    0.027748
  83 H :    0.025079
  84 H :    0.027491
  85 H :    0.024772
  86 H :    0.023093
  87 H :    0.026969
  88 H :    0.026076
  89 H :    0.024830
  90 H :    0.024260
  91 H :    0.022818
  92 H :    0.023699
  93 H :    0.026709
  94 H :    0.036226
  95 H :    0.039319
  96 H :    0.026055
  97 H :    0.016429
  98 H :    0.029840
  99 H :    0.031227
 100 H :    0.030592
 101 H :    0.028036
 102 H :    0.030564
 103 H :    0.035495
 104 H :    0.014509
 105 H :    0.015445
 106 H :    0.020821
 107 H :    0.019526
 108 H :    0.029355
 109 H :    0.018390
 110 H :    0.036796

  Mayer bond orders larger than 0.100000
B(  0-C ,  1-C ) :   1.6482 B(  0-C ,  6-C ) :   1.0128 B(  0-C , 18-C ) :   1.0386
B(  1-C ,  2-C ) :   1.1362 B(  1-C ,  4-C ) :   1.1499 B(  2-C ,  3-N ) :   2.9709
B(  4-C ,  5-N ) :   2.9825 B(  6-C ,  7-C ) :   1.2701 B(  6-C , 11-C ) :   1.4043
B(  7-C ,  8-C ) :   1.4255 B(  7-C , 16-C ) :   0.9422 B(  8-C ,  9-C ) :   1.2458
B(  8-C , 76-H ) :   1.0166 B(  9-C , 10-C ) :   1.3032 B(  9-C , 14-C ) :   1.1625
B( 10-C , 11-C ) :   1.3354 B( 10-C , 12-S ) :   1.0847 B( 11-C , 77-H ) :   0.9797
B( 12-S , 13-C ) :   1.0864 B( 13-C , 14-C ) :   1.6182 B( 13-C , 15-Br) :   1.0196
B( 14-C , 78-H ) :   1.0005 B( 16-C , 17-O ) :   2.2357 B( 16-C , 18-C ) :   0.9287
B( 18-C , 19-C ) :   1.6685 B( 19-C , 20-C ) :   1.0533 B( 19-C , 79-H ) :   0.9281
B( 20-C , 21-C ) :   1.5673 B( 20-C , 24-C ) :   1.1444 B( 21-C , 22-S ) :   1.1678
B( 21-C , 80-H ) :   0.9591 B( 22-S , 23-C ) :   1.0634 B( 23-C , 24-C ) :   1.3752
B( 23-C , 35-C ) :   1.3856 B( 24-C , 25-C ) :   1.2730 B( 25-C , 26-C ) :   1.0570
B( 25-C , 28-C ) :   1.5159 B( 26-C , 27-C ) :   1.1073 B( 26-C , 81-H ) :   0.9164
B( 26-C , 82-H ) :   0.9097 B( 27-C , 83-H ) :   0.9520 B( 27-C , 84-H ) :   0.9671
B( 27-C , 85-H ) :   0.9558 B( 28-C , 29-C ) :   1.0627 B( 28-C , 31-C ) :   1.2555
B( 29-C , 30-C ) :   1.1053 B( 29-C , 86-H ) :   0.9268 B( 29-C , 87-H ) :   0.9075
B( 30-C , 88-H ) :   0.9642 B( 30-C , 89-H ) :   0.9637 B( 30-C , 90-H ) :   0.9543
B( 31-C , 32-C ) :   1.1460 B( 31-C , 35-C ) :   1.3661 B( 32-C , 33-C ) :   1.6188
B( 32-C , 36-C ) :   1.0181 B( 33-C , 34-S ) :   1.1072 B( 33-C , 91-H ) :   0.9628
B( 34-S , 35-C ) :   1.0836 B( 36-C , 37-C ) :   1.7421 B( 36-C , 92-H ) :   0.9569
B( 37-C , 38-C ) :   1.1283 B( 37-C , 93-H ) :   0.9478 B( 38-C , 39-S ) :   1.1448
B( 38-C , 40-C ) :   0.1043 B( 38-C , 42-C ) :   1.3521 B( 39-S , 40-C ) :   1.1522
B( 40-C , 41-C ) :   1.3097 B( 40-C , 49-C ) :   1.1934 B( 41-C , 42-C ) :   1.2164
B( 41-C , 48-C ) :   1.1691 B( 42-C , 43-C ) :   1.1656 B( 43-C , 44-C ) :   1.4993
B( 43-C , 48-C ) :   0.1104 B( 43-C , 94-H ) :   0.9947 B( 44-C , 45-F ) :   1.1315
B( 44-C , 46-C ) :   1.1590 B( 46-C , 47-F ) :   1.1291 B( 46-C , 48-C ) :   1.4989
B( 48-C , 95-H ) :   0.9946 B( 49-C , 50-C ) :   1.5726 B( 49-C , 96-H ) :   0.9543
B( 50-C , 51-C ) :   1.2105 B( 50-C , 97-H ) :   0.9680 B( 51-C , 52-C ) :   1.5006
B( 51-C , 98-H ) :   0.9879 B( 52-C , 53-C ) :   1.1705 B( 52-C , 56-S ) :   1.0440
B( 53-C , 54-C ) :   1.5526 B( 53-C , 99-H ) :   0.9997 B( 54-C , 55-C ) :   1.2141
B( 54-C ,100-H ) :   0.9935 B( 55-C , 56-S ) :   1.0439 B( 55-C , 57-C ) :   1.4828
B( 57-C , 58-C ) :   1.1847 B( 57-C , 61-S ) :   1.0179 B( 58-C , 59-C ) :   1.5857
B( 58-C ,101-H ) :   0.9939 B( 59-C , 60-C ) :   1.1359 B( 59-C ,102-H ) :   1.0010
B( 60-C , 61-S ) :   1.0422 B( 60-C , 62-C ) :   1.5521 B( 62-C , 63-C ) :   1.1696
B( 62-C ,103-H ) :   0.9502 B( 63-C , 64-C ) :   1.4261 B( 63-C , 70-C ) :   0.1121
B( 63-C , 72-C ) :   1.1440 B( 64-C , 65-O ) :   1.1877 B( 64-C , 67-C ) :   1.1765
B( 65-O , 66-C ) :   0.9307 B( 66-C ,104-H ) :   0.9737 B( 66-C ,105-H ) :   0.9745
B( 66-C ,106-H ) :   0.9772 B( 67-C , 68-O ) :   1.1294 B( 67-C , 70-C ) :   1.3657
B( 68-O , 69-C ) :   0.9587 B( 69-C ,107-H ) :   0.9688 B( 69-C ,108-H ) :   0.9774
B( 69-C ,109-H ) :   0.9688 B( 70-C , 71-C ) :   1.1408 B( 70-C ,110-H ) :   1.0397
B( 71-C , 72-C ) :   1.1678 B( 71-C , 75-N ) :   1.5410 B( 72-C , 73-N ) :   1.5066
B( 73-N , 74-S ) :   1.2252 B( 73-N , 75-N ) :   0.1407 B( 74-S , 75-N ) :   1.2548

-----------------------------------------------------------------------------
         ABSORPTION SPECTRUM VIA TRANSITION ELECTRIC DIPOLE MOMENTS
-----------------------------------------------------------------------------
State   Energy  Wavelength   fosc         T2         TX        TY        TZ
        (cm-1)    (nm)                  (au**2)     (au)      (au)      (au)
-----------------------------------------------------------------------------
   0   10552.8    947.6   1.095819450  34.18604   4.55233   1.54649   3.32726
   1   16077.7    622.0   0.000137654   0.00282   0.00559   0.00695   0.05234
   2   16534.3    604.8   0.162635989   3.23822   1.46495  -0.92175  -0.49247
   3   20123.5    496.9   0.670309397  10.96597  -2.84996   1.49882   0.77281
   4   21649.7    461.9   0.457121170   6.95114   1.41794  -1.41066  -1.71774
   5   22234.9    449.7   0.211922715   3.13774   1.12740   0.28552  -1.33611
   6   22369.0    447.0   0.022707134   0.33419  -0.42345  -0.07009   0.38725
   7   23820.7    419.8   0.012662221   0.17500  -0.38574  -0.07698   0.14240
   8   26200.5    381.7   0.006126317   0.07698  -0.14253  -0.18553   0.14914
   9   26309.7    380.1   0.009876297   0.12358   0.34848  -0.04213  -0.01913
  10   27451.2    364.3   0.005037360   0.06041   0.16605   0.18108  -0.00682
  11   27553.6    362.9   0.105436500   1.25976   0.45130  -0.84529  -0.58445
  12   28393.3    352.2   0.151638395   1.75821  -1.26814   0.06380  -0.38206
  13   28562.7    350.1   0.100204661   1.15495  -0.30271   0.80293   0.64701
  14   28856.2    346.5   0.432672290   4.93623  -0.98343  -1.89385   0.61841
  15   29865.4    334.8   0.061576150   0.67877   0.49493   0.36890   0.54564
  16   30105.4    332.2   0.024047302   0.26297   0.42340   0.10138  -0.27097
  17   30278.4    330.3   0.155646397   1.69232   1.10093   0.16232   0.67374
  18   30568.0    327.1   0.004049318   0.04361   0.05238   0.06181   0.19248
  19   30679.0    326.0   0.046407677   0.49799   0.16778   0.68206   0.06813
  20   31051.2    322.0   0.022773228   0.24145   0.24127   0.25568  -0.34331
  21   31530.2    317.2   0.135929437   1.41926   0.91780  -0.64723  -0.39749
  22   31790.5    314.6   0.048124134   0.49836  -0.65902   0.09862   0.23309
  23   32004.0    312.5   0.025843518   0.26584  -0.47165  -0.15741  -0.13642
  24   32647.7    306.3   0.019635758   0.19800  -0.29482  -0.24471   0.22627
  25   33402.5    299.4   0.013177169   0.12987   0.28027   0.17619   0.14240
  26   33515.6    298.4   0.092744123   0.91099  -0.56675  -0.59572  -0.48468
  27   33905.4    294.9   0.286976902   2.78646   1.31449   0.58370  -0.84727
  28   34071.9    293.5   0.013259905   0.12812  -0.13515  -0.20446   0.26086
  29   34162.1    292.7   0.058044350   0.55936   0.04382  -0.61062   0.42964
  30   34171.1    292.6   0.458638661   4.41862   0.46616   2.02949   0.28719
  31   34421.9    290.5   0.113248773   1.08312   0.67992   0.07695  -0.78416
  32   34498.9    289.9   0.026289632   0.25087  -0.38816   0.13781   0.28497
  33   35259.8    283.6   0.086500135   0.80763  -0.64081  -0.31998  -0.54278
  34   35488.2    281.8   0.011114046   0.10310   0.24693  -0.02033  -0.20424
  35   35530.1    281.5   0.043377026   0.40192   0.42826   0.18444   0.42953
  36   36806.0    271.7   0.074535606   0.66669   0.42257   0.16984   0.67770
  37   36894.5    271.0   0.064772470   0.57797  -0.05652   0.51325   0.55799
  38   37042.9    270.0   0.074866709   0.66536  -0.12439   0.59917   0.53933
  39   37280.9    268.2   0.039191030   0.34608   0.40530   0.05305   0.42308
  40   37758.1    264.8   0.100904205   0.87978  -0.62503  -0.28674  -0.63789
  41   38030.2    262.9   0.125482140   1.08625  -0.85516  -0.22801   0.55042
  42   38237.2    261.5   0.068294625   0.58800   0.59999   0.13254   0.45875
  43   38288.1    261.2   0.055622164   0.47826  -0.28450  -0.46648   0.42392
  44   38457.8    260.0   0.032767327   0.28050  -0.51097  -0.00221  -0.13928
  45   38758.0    258.0   0.101318780   0.86061   0.63935   0.16329  -0.65205
  46   39286.5    254.5   0.159441951   1.33609   0.98725   0.31692  -0.51087
  47   39352.1    254.1   0.085563006   0.71580  -0.72454  -0.21804   0.37856
  48   39446.0    253.5   0.175733620   1.46665   1.11085   0.29604  -0.38082
  49   39817.3    251.1   0.001677156   0.01387  -0.01065  -0.05302   0.10461
  50   39869.9    250.8   0.146660476   1.21100   0.62827  -0.56613  -0.70411
  51   40180.2    248.9   0.006528803   0.05349  -0.21809  -0.07215  -0.02692

FINAL SINGLE POINT ENERGY     -8270.378814719348

DIPOLE MOMENT
-------------
                                X             Y             Z
Electronic contribution:    210.34950      76.99430     -18.98227
Nuclear contribution   :   -212.79565     -75.66556      18.48153
                        -----------------------------------------
Total Dipole Moment    :     -2.44616       1.32874      -0.50074
                        -----------------------------------------
Magnitude (a.u.)       :      2.82842
Magnitude (Debye)      :      7.18928

Rotational constants in cm-1:     0.000968     0.000154     0.000145
Rotational constants in MHz :    29.031752     4.624799     4.339412

                             ****ORCA TERMINATED NORMALLY****
TOTAL RUN TIME: 0 days 0 hours 13 minutes 18 seconds 495 msec
