                         Program Version 4.2.0 -  RELEASE  -
|  1> # ORCA input file
|  2> # SCF done       -184.133614011916          0.000979339034
|  3> ! CAM-B3LYP def2-SVP def2/J RIJCOSX Grid4 TightSCF
|  4> %maxcore 5000
|  5> %tddft
|  6>     Mode sTDDFT
|  7>     Ethresh 5.0
|  8>     maxcore 5000
|  9> end
| 10>
| 11> %pal
| 12>   nprocs 6
| 13>   end
| 14> * xyz 0 1
| 15>    C       -7.20992        -1.16191        -1.08463
| 16>    C       -5.87821        -1.47991        -1.01973
| 17>    C       -5.25510        -2.44695        -1.83649
| 18>    N       -4.69141        -3.21998        -2.47086
| 19>    C       -4.93553        -0.90323        -0.14242
| 20>    N       -4.10161        -0.49031         0.53150
| 21>    C       -8.17730        -1.75689        -1.99917
| 22>    C       -9.44310        -1.16530        -1.77029
| 23>    C      -10.56831        -1.52770        -2.46920
| 24>    C      -10.43806        -2.51717        -3.44918
| 25>    C       -9.16864        -3.10048        -3.67441
| 26>    C       -8.03197        -2.73826        -2.96302
| 27>    S       -9.23166        -4.30340        -4.92781
| 28>    C      -10.93856        -4.00921        -5.12882
| 29>    C      -11.43775        -3.06021        -4.30167
| 30>   Br      -11.90103        -4.98292        -6.41104
| 31>    C       -9.33010        -0.15829        -0.69508
| 32>    O      -10.24492         0.48154        -0.21682
| 33>    C       -7.91012        -0.16959        -0.28540
| 34>    C       -7.39559         0.49987         0.78526
| 35>    C       -8.00022         1.54982         1.52660
| 36>    C       -8.71143         2.64662         1.05086
| 37>    C       -9.07999         3.04501        -0.32547
| 38>    N       -8.94377         3.46902         2.10418
| 39>    C       -8.42416         2.96069         3.25653
| 40>    C       -8.59052         3.64809         4.56136
| 41>    C       -7.81208         1.75898         2.94500
| 42>    C       -7.19071         0.88378         3.88413
| 43>    C       -6.93619        -0.43158         3.69215
| 44>    C       -6.27875        -1.25815         4.63472
| 45>    S       -5.97003        -2.93955         4.26469
| 46>    C       -5.19337        -3.26226         5.79942
| 47>    C       -5.18483        -2.08639         6.55800
| 48>    C       -5.78323        -0.98177         5.89681
| 49>    S       -5.71303         0.41218         6.92522
| 50>    C       -4.90524        -0.59627         8.11818
| 51>    N       -4.70880        -1.81542         7.80001
| 52>    C       -4.69183        -4.52611         6.12469
| 53>    C       -4.12232        -4.80440         7.34437
| 54>    C       -3.60327        -6.04477         7.70294
| 55>    C       -3.06862        -6.31221         8.94876
| 56>    C       -2.50484        -7.52132         9.40416
| 57>    C       -2.06583        -7.48107        10.69826
| 58>    C       -2.27094        -6.23670        11.32605
| 59>    S       -3.02360        -5.11293        10.22795
| 60>    C       -1.96202        -5.87408        12.63189
| 61>    C       -1.33355        -6.64508        13.62529
| 62>    C       -1.18508        -5.98929        14.81692
| 63>    C       -1.69236        -4.67484        14.81641
| 64>    S       -2.36427        -4.28975        13.25266
| 65>    C       -1.70426        -3.79174        15.88498
| 66>    C       -2.21878        -2.50756        15.80778
| 67>    C       -2.32429        -1.56261        16.81200
| 68>    C       -2.20667        -1.65798        18.23762
| 69>    C       -2.42068        -2.77029        19.02309
| 70>    C       -2.30211        -2.77660        20.42505
| 71>    N       -2.19827        -2.84477        21.56773
| 72>    C       -2.89584        -4.00651        18.54669
| 73>    N       -3.33034        -5.02465        18.23810
| 74>    C       -2.03010        -0.29880        18.75449
| 75>    C       -2.23217         0.61683        17.69256
| 76>    C       -2.47958        -0.14144        16.44589
| 77>    O       -2.72244         0.31152        15.34580
| 78>    C       -2.17092         1.97640        17.86756
| 79>    C       -1.88404         2.45754        19.15068
| 80>    C       -1.67073         1.53564        20.20002
| 81>    C       -1.74236         0.15766        20.02488
| 82>    S       -1.31882         2.34304        21.69898
| 83>    C       -1.46476         3.88806        20.90401
| 84>    C       -1.76042         3.80626        19.58591
| 85>   Br       -1.21128         5.46444        21.89033
| 86>    H      -11.52012        -1.06204        -2.26673
| 87>    H       -7.08948        -3.21721        -3.16858
| 88>    H      -12.46836        -2.75566        -4.29101
| 89>    H       -6.41526         0.20981         1.14309
| 90>    H      -10.06265         2.64039        -0.57666
| 91>    H       -8.36771         2.64033        -1.04128
| 92>    H       -9.10896         4.12914        -0.41846
| 93>    H       -9.44424         4.34202         2.03994
| 94>    H       -8.78581         4.70804         4.41192
| 95>    H       -7.69346         3.53857         5.16644
| 96>    H       -9.42431         3.22138         5.12050
| 97>    H       -6.93097         1.32877         4.83589
| 98>    H       -7.25915        -0.92538         2.78749
| 99>    H       -4.60779        -0.17248         9.05684
|100>    H       -4.77159        -5.30115         5.37414
|101>    H       -4.07743        -4.00634         8.07379
|102>    H       -3.61280        -6.85057         6.98008
|103>    H       -2.43748        -8.38619         8.76780
|104>    H       -1.61180        -8.31086        11.20903
|105>    H       -1.00442        -7.65275        13.44596
|106>    H       -0.73687        -6.41675        15.69583
|107>    H       -1.26385        -4.14677        16.80486
|108>    H       -2.50556        -2.14694        14.82370
|109>    H       -2.33767         2.65059        17.04208
|110>    H       -1.56925        -0.50468        20.85662
|111>    H       -1.88593         4.65937        18.94431
|112> *
|113>
|114>                          ****END OF INPUT****

CARTESIAN COORDINATES (ANGSTROEM)
---------------------------------
  C     -7.209920   -1.161910   -1.084630
  C     -5.878210   -1.479910   -1.019730
  C     -5.255100   -2.446950   -1.836490
  N     -4.691410   -3.219980   -2.470860
  C     -4.935530   -0.903230   -0.142420
  N     -4.101610   -0.490310    0.531500
  C     -8.177300   -1.756890   -1.999170
  C     -9.443100   -1.165300   -1.770290
  C    -10.568310   -1.527700   -2.469200
  C    -10.438060   -2.517170   -3.449180
  C     -9.168640   -3.100480   -3.674410
  C     -8.031970   -2.738260   -2.963020
  S     -9.231660   -4.303400   -4.927810
  C    -10.938560   -4.009210   -5.128820
  C    -11.437750   -3.060210   -4.301670
  Br   -11.901030   -4.982920   -6.411040
  C     -9.330100   -0.158290   -0.695080
  O    -10.244920    0.481540   -0.216820
  C     -7.910120   -0.169590   -0.285400
  C     -7.395590    0.499870    0.785260
  C     -8.000220    1.549820    1.526600
  C     -8.711430    2.646620    1.050860
  C     -9.079990    3.045010   -0.325470
  N     -8.943770    3.469020    2.104180
  C     -8.424160    2.960690    3.256530
  C     -8.590520    3.648090    4.561360
  C     -7.812080    1.758980    2.945000
  C     -7.190710    0.883780    3.884130
  C     -6.936190   -0.431580    3.692150
  C     -6.278750   -1.258150    4.634720
  S     -5.970030   -2.939550    4.264690
  C     -5.193370   -3.262260    5.799420
  C     -5.184830   -2.086390    6.558000
  C     -5.783230   -0.981770    5.896810
  S     -5.713030    0.412180    6.925220
  C     -4.905240   -0.596270    8.118180
  N     -4.708800   -1.815420    7.800010
  C     -4.691830   -4.526110    6.124690
  C     -4.122320   -4.804400    7.344370
  C     -3.603270   -6.044770    7.702940
  C     -3.068620   -6.312210    8.948760
  C     -2.504840   -7.521320    9.404160
  C     -2.065830   -7.481070   10.698260
  C     -2.270940   -6.236700   11.326050
  S     -3.023600   -5.112930   10.227950
  C     -1.962020   -5.874080   12.631890
  C     -1.333550   -6.645080   13.625290
  C     -1.185080   -5.989290   14.816920
  C     -1.692360   -4.674840   14.816410
  S     -2.364270   -4.289750   13.252660
  C     -1.704260   -3.791740   15.884980
  C     -2.218780   -2.507560   15.807780
  C     -2.324290   -1.562610   16.812000
  C     -2.206670   -1.657980   18.237620
  C     -2.420680   -2.770290   19.023090
  C     -2.302110   -2.776600   20.425050
  N     -2.198270   -2.844770   21.567730
  C     -2.895840   -4.006510   18.546690
  N     -3.330340   -5.024650   18.238100
  C     -2.030100   -0.298800   18.754490
  C     -2.232170    0.616830   17.692560
  C     -2.479580   -0.141440   16.445890
  O     -2.722440    0.311520   15.345800
  C     -2.170920    1.976400   17.867560
  C     -1.884040    2.457540   19.150680
  C     -1.670730    1.535640   20.200020
  C     -1.742360    0.157660   20.024880
  S     -1.318820    2.343040   21.698980
  C     -1.464760    3.888060   20.904010
  C     -1.760420    3.806260   19.585910
  Br    -1.211280    5.464440   21.890330
  H    -11.520120   -1.062040   -2.266730
  H     -7.089480   -3.217210   -3.168580
  H    -12.468360   -2.755660   -4.291010
  H     -6.415260    0.209810    1.143090
  H    -10.062650    2.640390   -0.576660
  H     -8.367710    2.640330   -1.041280
  H     -9.108960    4.129140   -0.418460
  H     -9.444240    4.342020    2.039940
  H     -8.785810    4.708040    4.411920
  H     -7.693460    3.538570    5.166440
  H     -9.424310    3.221380    5.120500
  H     -6.930970    1.328770    4.835890
  H     -7.259150   -0.925380    2.787490
  H     -4.607790   -0.172480    9.056840
  H     -4.771590   -5.301150    5.374140
  H     -4.077430   -4.006340    8.073790
  H     -3.612800   -6.850570    6.980080
  H     -2.437480   -8.386190    8.767800
  H     -1.611800   -8.310860   11.209030
  H     -1.004420   -7.652750   13.445960
  H     -0.736870   -6.416750   15.695830
  H     -1.263850   -4.146770   16.804860
  H     -2.505560   -2.146940   14.823700
  H     -2.337670    2.650590   17.042080
  H     -1.569250   -0.504680   20.856620
  H     -1.885930    4.659370   18.944310

 Total Charge           Charge          ....    0
 Multiplicity           Mult            ....    1
 Number of Electrons    NEL             ....  580
 Basis Dimension        Dim             .... 1184

ORBITAL ENERGIES
----------------

  NO   OCC          E(Eh)            E(eV)
   0   2.0000    -482.889069    -13140.0796
   1   2.0000    -482.871627    -13139.6050
   2   2.0000     -88.979110     -2421.2447
   3   2.0000     -88.973441     -2421.0904
   4   2.0000     -88.972099     -2421.0539
   5   2.0000     -88.957939     -2420.6686
   6   2.0000     -88.956927     -2420.6411
   7   2.0000     -88.951633     -2420.4970
   8   2.0000     -62.566794     -1702.5290
   9   2.0000     -62.549336     -1702.0540
  10   2.0000     -56.400745     -1534.7423
  11   2.0000     -56.398026     -1534.6683
  12   2.0000     -56.397994     -1534.6674
  13   2.0000     -56.383267     -1534.2667
  14   2.0000     -56.380591     -1534.1939
  15   2.0000     -56.380548     -1534.1927
  16   2.0000     -19.218304      -522.9566
  17   2.0000     -19.186815      -522.0998
  18   2.0000     -14.482450      -394.0875
  19   2.0000     -14.427144      -392.5825
  20   2.0000     -14.418083      -392.3360
  21   2.0000     -14.417292      -392.3145
  22   2.0000     -14.390078      -391.5739
  23   2.0000     -14.387289      -391.4980
  24   2.0000     -10.368849      -282.1507
  25   2.0000     -10.362699      -281.9834
  26   2.0000     -10.349544      -281.6254
  27   2.0000     -10.344170      -281.4792
  28   2.0000     -10.343558      -281.4625
  29   2.0000     -10.341514      -281.4069
  30   2.0000     -10.337619      -281.3009
  31   2.0000     -10.328886      -281.0633
  32   2.0000     -10.328819      -281.0615
  33   2.0000     -10.327178      -281.0168
  34   2.0000     -10.323520      -280.9173
  35   2.0000     -10.320945      -280.8472
  36   2.0000     -10.320503      -280.8352
  37   2.0000     -10.318819      -280.7893
  38   2.0000     -10.318564      -280.7824
  39   2.0000     -10.318369      -280.7771
  40   2.0000     -10.317613      -280.7565
  41   2.0000     -10.315031      -280.6863
  42   2.0000     -10.314089      -280.6606
  43   2.0000     -10.313999      -280.6582
  44   2.0000     -10.312204      -280.6093
  45   2.0000     -10.311994      -280.6036
  46   2.0000     -10.311578      -280.5923
  47   2.0000     -10.311148      -280.5806
  48   2.0000     -10.310758      -280.5700
  49   2.0000     -10.308838      -280.5177
  50   2.0000     -10.305629      -280.4304
  51   2.0000     -10.304197      -280.3915
  52   2.0000     -10.300342      -280.2866
  53   2.0000     -10.300273      -280.2847
  54   2.0000     -10.299636      -280.2673
  55   2.0000     -10.298885      -280.2469
  56   2.0000     -10.297045      -280.1968
  57   2.0000     -10.295450      -280.1534
  58   2.0000     -10.295074      -280.1432
  59   2.0000     -10.294653      -280.1318
  60   2.0000     -10.294544      -280.1288
  61   2.0000     -10.293675      -280.1051
  62   2.0000     -10.292985      -280.0864
  63   2.0000     -10.291345      -280.0417
  64   2.0000     -10.290012      -280.0055
  65   2.0000     -10.287284      -279.9312
  66   2.0000     -10.287091      -279.9260
  67   2.0000     -10.285655      -279.8869
  68   2.0000     -10.283384      -279.8251
  69   2.0000     -10.282312      -279.7959
  70   2.0000     -10.280939      -279.7586
  71   2.0000     -10.280421      -279.7445
  72   2.0000     -10.280315      -279.7416
  73   2.0000     -10.280160      -279.7374
  74   2.0000     -10.280046      -279.7343
  75   2.0000     -10.277575      -279.6670
  76   2.0000     -10.269363      -279.4436
  77   2.0000     -10.268243      -279.4131
  78   2.0000     -10.262635      -279.2605
  79   2.0000      -8.796233      -239.3577
  80   2.0000      -8.778752      -238.8820
  81   2.0000      -8.075021      -219.7325
  82   2.0000      -8.068912      -219.5663
  83   2.0000      -8.067141      -219.5181
  84   2.0000      -8.053963      -219.1595
  85   2.0000      -8.052999      -219.1332
  86   2.0000      -8.047835      -218.9927
  87   2.0000      -6.632532      -180.4804
  88   2.0000      -6.617966      -180.0840
  89   2.0000      -6.617768      -180.0786
  90   2.0000      -6.614972      -180.0025
  91   2.0000      -6.600506      -179.6089
  92   2.0000      -6.600362      -179.6050
  93   2.0000      -6.044719      -164.4852
  94   2.0000      -6.040439      -164.3687
  95   2.0000      -6.038452      -164.3146
  96   2.0000      -6.036453      -164.2602
  97   2.0000      -6.036258      -164.2549
  98   2.0000      -6.034315      -164.2021
  99   2.0000      -6.032448      -164.1512
 100   2.0000      -6.030501      -164.0983
 101   2.0000      -6.029170      -164.0620
 102   2.0000      -6.023652      -163.9119
 103   2.0000      -6.022600      -163.8833
 104   2.0000      -6.019408      -163.7964
 105   2.0000      -6.018556      -163.7732
 106   2.0000      -6.017366      -163.7409
 107   2.0000      -6.015170      -163.6811
 108   2.0000      -6.014189      -163.6544
 109   2.0000      -6.013392      -163.6327
 110   2.0000      -6.009107      -163.5161
 111   2.0000      -2.748425       -74.7884
 112   2.0000      -2.744330       -74.6770
 113   2.0000      -2.744134       -74.6717
 114   2.0000      -2.732585       -74.3574
 115   2.0000      -2.732566       -74.3569
 116   2.0000      -2.730837       -74.3098
 117   2.0000      -2.726807       -74.2002
 118   2.0000      -2.726681       -74.1968
 119   2.0000      -2.715187       -73.8840
 120   2.0000      -2.715176       -73.8837
 121   2.0000      -1.132805       -30.8252
 122   2.0000      -1.100703       -29.9517
 123   2.0000      -1.100214       -29.9383
 124   2.0000      -1.080995       -29.4154
 125   2.0000      -1.025802       -27.9135
 126   2.0000      -1.016196       -27.6521
 127   2.0000      -1.004771       -27.3412
 128   2.0000      -1.001559       -27.2538
 129   2.0000      -0.996387       -27.1131
 130   2.0000      -0.992040       -26.9948
 131   2.0000      -0.989128       -26.9155
 132   2.0000      -0.988395       -26.8956
 133   2.0000      -0.981398       -26.7052
 134   2.0000      -0.967827       -26.3359
 135   2.0000      -0.965172       -26.2637
 136   2.0000      -0.947469       -25.7819
 137   2.0000      -0.935220       -25.4486
 138   2.0000      -0.924693       -25.1622
 139   2.0000      -0.922060       -25.0905
 140   2.0000      -0.911328       -24.7985
 141   2.0000      -0.909480       -24.7482
 142   2.0000      -0.904400       -24.6100
 143   2.0000      -0.894368       -24.3370
 144   2.0000      -0.889250       -24.1977
 145   2.0000      -0.886635       -24.1266
 146   2.0000      -0.886092       -24.1118
 147   2.0000      -0.878158       -23.8959
 148   2.0000      -0.868358       -23.6292
 149   2.0000      -0.864976       -23.5372
 150   2.0000      -0.855178       -23.2706
 151   2.0000      -0.853405       -23.2223
 152   2.0000      -0.844930       -22.9917
 153   2.0000      -0.833653       -22.6849
 154   2.0000      -0.833018       -22.6676
 155   2.0000      -0.831694       -22.6315
 156   2.0000      -0.829331       -22.5672
 157   2.0000      -0.825525       -22.4637
 158   2.0000      -0.809369       -22.0240
 159   2.0000      -0.803145       -21.8547
 160   2.0000      -0.785555       -21.3760
 161   2.0000      -0.778071       -21.1724
 162   2.0000      -0.762470       -20.7479
 163   2.0000      -0.758898       -20.6507
 164   2.0000      -0.743640       -20.2355
 165   2.0000      -0.736666       -20.0457
 166   2.0000      -0.727013       -19.7830
 167   2.0000      -0.719967       -19.5913
 168   2.0000      -0.717116       -19.5137
 169   2.0000      -0.706854       -19.2345
 170   2.0000      -0.697738       -18.9864
 171   2.0000      -0.694076       -18.8868
 172   2.0000      -0.689990       -18.7756
 173   2.0000      -0.681116       -18.5341
 174   2.0000      -0.676778       -18.4161
 175   2.0000      -0.665801       -18.1174
 176   2.0000      -0.663851       -18.0643
 177   2.0000      -0.658721       -17.9247
 178   2.0000      -0.651748       -17.7350
 179   2.0000      -0.651667       -17.7328
 180   2.0000      -0.647162       -17.6102
 181   2.0000      -0.638701       -17.3800
 182   2.0000      -0.633195       -17.2301
 183   2.0000      -0.627098       -17.0642
 184   2.0000      -0.626416       -17.0457
 185   2.0000      -0.618021       -16.8172
 186   2.0000      -0.611346       -16.6356
 187   2.0000      -0.609328       -16.5806
 188   2.0000      -0.601177       -16.3589
 189   2.0000      -0.600753       -16.3473
 190   2.0000      -0.596087       -16.2204
 191   2.0000      -0.591523       -16.0962
 192   2.0000      -0.578570       -15.7437
 193   2.0000      -0.573796       -15.6138
 194   2.0000      -0.573044       -15.5933
 195   2.0000      -0.569427       -15.4949
 196   2.0000      -0.562777       -15.3139
 197   2.0000      -0.560181       -15.2433
 198   2.0000      -0.556651       -15.1472
 199   2.0000      -0.550748       -14.9866
 200   2.0000      -0.549574       -14.9547
 201   2.0000      -0.544575       -14.8187
 202   2.0000      -0.543159       -14.7801
 203   2.0000      -0.537621       -14.6294
 204   2.0000      -0.535174       -14.5628
 205   2.0000      -0.533833       -14.5263
 206   2.0000      -0.532393       -14.4871
 207   2.0000      -0.527513       -14.3543
 208   2.0000      -0.525687       -14.3047
 209   2.0000      -0.524208       -14.2644
 210   2.0000      -0.522031       -14.2052
 211   2.0000      -0.519984       -14.1495
 212   2.0000      -0.515677       -14.0323
 213   2.0000      -0.514932       -14.0120
 214   2.0000      -0.512284       -13.9399
 215   2.0000      -0.510367       -13.8878
 216   2.0000      -0.506530       -13.7834
 217   2.0000      -0.505222       -13.7478
 218   2.0000      -0.504982       -13.7413
 219   2.0000      -0.500991       -13.6327
 220   2.0000      -0.498083       -13.5535
 221   2.0000      -0.495762       -13.4904
 222   2.0000      -0.494288       -13.4503
 223   2.0000      -0.489236       -13.3128
 224   2.0000      -0.487655       -13.2698
 225   2.0000      -0.484836       -13.1931
 226   2.0000      -0.481560       -13.1039
 227   2.0000      -0.479862       -13.0577
 228   2.0000      -0.476824       -12.9750
 229   2.0000      -0.475214       -12.9312
 230   2.0000      -0.473023       -12.8716
 231   2.0000      -0.470864       -12.8129
 232   2.0000      -0.469718       -12.7817
 233   2.0000      -0.468434       -12.7467
 234   2.0000      -0.466677       -12.6989
 235   2.0000      -0.465256       -12.6603
 236   2.0000      -0.460873       -12.5410
 237   2.0000      -0.460169       -12.5218
 238   2.0000      -0.458448       -12.4750
 239   2.0000      -0.452112       -12.3026
 240   2.0000      -0.450077       -12.2472
 241   2.0000      -0.448440       -12.2027
 242   2.0000      -0.447043       -12.1646
 243   2.0000      -0.445368       -12.1191
 244   2.0000      -0.442244       -12.0341
 245   2.0000      -0.440743       -11.9932
 246   2.0000      -0.439580       -11.9616
 247   2.0000      -0.438541       -11.9333
 248   2.0000      -0.435692       -11.8558
 249   2.0000      -0.429406       -11.6847
 250   2.0000      -0.427614       -11.6360
 251   2.0000      -0.426317       -11.6007
 252   2.0000      -0.426253       -11.5989
 253   2.0000      -0.424766       -11.5585
 254   2.0000      -0.424177       -11.5425
 255   2.0000      -0.420959       -11.4549
 256   2.0000      -0.418069       -11.3762
 257   2.0000      -0.416684       -11.3385
 258   2.0000      -0.413769       -11.2592
 259   2.0000      -0.410331       -11.1657
 260   2.0000      -0.404744       -11.0136
 261   2.0000      -0.401228       -10.9180
 262   2.0000      -0.397207       -10.8085
 263   2.0000      -0.395204       -10.7540
 264   2.0000      -0.392029       -10.6677
 265   2.0000      -0.387306       -10.5391
 266   2.0000      -0.385074       -10.4784
 267   2.0000      -0.378399       -10.2968
 268   2.0000      -0.376809       -10.2535
 269   2.0000      -0.373700       -10.1689
 270   2.0000      -0.367214        -9.9924
 271   2.0000      -0.361380        -9.8336
 272   2.0000      -0.360408        -9.8072
 273   2.0000      -0.354662        -9.6508
 274   2.0000      -0.350773        -9.5450
 275   2.0000      -0.343268        -9.3408
 276   2.0000      -0.340985        -9.2787
 277   2.0000      -0.335870        -9.1395
 278   2.0000      -0.326876        -8.8948
 279   2.0000      -0.322296        -8.7701
 280   2.0000      -0.318952        -8.6791
 281   2.0000      -0.316148        -8.6028
 282   2.0000      -0.309449        -8.4205
 283   2.0000      -0.298048        -8.1103
 284   2.0000      -0.295622        -8.0443
 285   2.0000      -0.290441        -7.9033
 286   2.0000      -0.281101        -7.6492
 287   2.0000      -0.273998        -7.4559
 288   2.0000      -0.250224        -6.8090
 289   2.0000      -0.209547        -5.7021
 290   0.0000      -0.108012        -2.9391
 291   0.0000      -0.086434        -2.3520
 292   0.0000      -0.061212        -1.6657
 293   0.0000      -0.055933        -1.5220
 294   0.0000      -0.040320        -1.0972

MULLIKEN ATOMIC CHARGES
-----------------------
   0 C :    0.311686
   1 C :   -0.353651
   2 C :   -0.187703
   3 N :    0.148404
   4 C :   -0.197009
   5 N :    0.157349
   6 C :    0.013946
   7 C :   -0.017103
   8 C :   -0.071257
   9 C :    0.116963
  10 C :   -0.093131
  11 C :   -0.018194
  12 S :    0.186718
  13 C :   -0.123873
  14 C :    0.039790
  15 Br:    0.024887
  16 C :    0.127160
  17 O :   -0.160647
  18 C :   -0.089594
  19 C :   -0.100141
  20 C :    0.053903
  21 C :   -0.114047
  22 C :    0.128707
  23 N :   -0.026333
  24 C :   -0.156847
  25 C :    0.122639
  26 C :    0.073398
  27 C :   -0.024979
  28 C :    0.036554
  29 C :   -0.183747
  30 S :    0.161919
  31 C :   -0.137552
  32 C :    0.081167
  33 C :   -0.016463
  34 S :    0.082740
  35 C :    0.036893
  36 N :   -0.048901
  37 C :    0.025712
  38 C :   -0.012429
  39 C :    0.026317
  40 C :   -0.042832
  41 C :    0.053065
  42 C :    0.015558
  43 C :   -0.021200
  44 S :    0.105963
  45 C :   -0.062259
  46 C :    0.038559
  47 C :    0.031883
  48 C :   -0.018466
  49 S :    0.106539
  50 C :   -0.002116
  51 C :    0.018393
  52 C :   -0.132178
  53 C :    0.292048
  54 C :   -0.357121
  55 C :   -0.180529
  56 N :    0.126238
  57 C :   -0.219636
  58 N :    0.152953
  59 C :    0.006386
  60 C :   -0.003871
  61 C :    0.134201
  62 O :   -0.165957
  63 C :   -0.078042
  64 C :    0.113966
  65 C :   -0.092268
  66 C :   -0.026367
  67 S :    0.174340
  68 C :   -0.124281
  69 C :    0.036755
  70 Br:    0.008066
  71 H :   -0.013844
  72 H :   -0.006959
  73 H :   -0.003470
  74 H :    0.041624
  75 H :    0.062587
  76 H :    0.026378
  77 H :    0.003812
  78 H :    0.122527
  79 H :    0.008703
  80 H :    0.038594
  81 H :    0.045750
  82 H :   -0.028970
  83 H :   -0.017628
  84 H :    0.054265
  85 H :   -0.019513
  86 H :    0.026341
  87 H :   -0.007476
  88 H :   -0.004782
  89 H :   -0.008265
  90 H :   -0.008151
  91 H :   -0.001562
  92 H :    0.005383
  93 H :    0.009825
  94 H :   -0.018240
  95 H :   -0.008835
  96 H :   -0.009135
Sum of atomic charges:   -0.0000000

LOEWDIN ATOMIC CHARGES
----------------------
   0 C :    0.077117
   1 C :   -0.144098
   2 C :   -0.018222
   3 N :   -0.055678
   4 C :   -0.025005
   5 N :   -0.050078
   6 C :   -0.023194
   7 C :   -0.050364
   8 C :    0.019246
   9 C :   -0.032608
  10 C :   -0.144739
  11 C :   -0.009295
  12 S :    0.432474
  13 C :   -0.271095
  14 C :   -0.071058
  15 Br:    0.137465
  16 C :    0.081607
  17 O :   -0.147408
  18 C :   -0.113151
  19 C :    0.080300
  20 C :   -0.080777
  21 C :    0.038813
  22 C :   -0.057388
  23 N :    0.105028
  24 C :   -0.006194
  25 C :   -0.051470
  26 C :   -0.068505
  27 C :   -0.004617
  28 C :   -0.060488
  29 C :   -0.171758
  30 S :    0.458266
  31 C :   -0.184263
  32 C :   -0.052735
  33 C :   -0.208225
  34 S :    0.384470
  35 C :   -0.083600
  36 N :   -0.079744
  37 C :   -0.012998
  38 C :   -0.036327
  39 C :   -0.015401
  40 C :   -0.161306
  41 C :   -0.012250
  42 C :   -0.044351
  43 C :   -0.144674
  44 S :    0.408523
  45 C :   -0.200231
  46 C :   -0.008140
  47 C :   -0.044658
  48 C :   -0.100173
  49 S :    0.405629
  50 C :   -0.075085
  51 C :    0.048292
  52 C :   -0.117470
  53 C :    0.068129
  54 C :   -0.161905
  55 C :   -0.019713
  56 N :   -0.073776
  57 C :   -0.024266
  58 N :   -0.068937
  59 C :   -0.014009
  60 C :   -0.049965
  61 C :    0.076609
  62 O :   -0.166765
  63 C :    0.015039
  64 C :   -0.039142
  65 C :   -0.146013
  66 C :   -0.018196
  67 S :    0.423594
  68 C :   -0.277422
  69 C :   -0.071354
  70 Br:    0.124811
  71 H :    0.039533
  72 H :    0.040918
  73 H :    0.038707
  74 H :    0.045587
  75 H :    0.045622
  76 H :    0.042947
  77 H :    0.028889
  78 H :    0.092528
  79 H :    0.033651
  80 H :    0.042814
  81 H :    0.043718
  82 H :    0.016796
  83 H :    0.029043
  84 H :    0.025798
  85 H :    0.030993
  86 H :    0.025713
  87 H :    0.035689
  88 H :    0.036916
  89 H :    0.033695
  90 H :    0.034501
  91 H :    0.038600
  92 H :    0.036945
  93 H :    0.032013
  94 H :    0.037605
  95 H :    0.039286
  96 H :    0.036365

  Mayer bond orders larger than 0.100000
B(  0-C ,  1-C ) :   1.6377 B(  0-C ,  6-C ) :   1.0065 B(  0-C , 18-C ) :   1.0495
B(  1-C ,  2-C ) :   1.1398 B(  1-C ,  4-C ) :   1.1445 B(  2-C ,  3-N ) :   2.9699
B(  4-C ,  5-N ) :   2.9704 B(  6-C ,  7-C ) :   1.2709 B(  6-C , 11-C ) :   1.4069
B(  7-C ,  8-C ) :   1.4254 B(  7-C , 16-C ) :   0.9383 B(  8-C ,  9-C ) :   1.2449
B(  8-C , 71-H ) :   1.0163 B(  9-C , 10-C ) :   1.3064 B(  9-C , 14-C ) :   1.1636
B( 10-C , 11-C ) :   1.3313 B( 10-C , 12-S ) :   1.0853 B( 11-C , 72-H ) :   0.9797
B( 12-S , 13-C ) :   1.0869 B( 13-C , 14-C ) :   1.6181 B( 13-C , 15-Br) :   1.0195
B( 14-C , 73-H ) :   0.9996 B( 16-C , 17-O ) :   2.1832 B( 16-C , 18-C ) :   0.9601
B( 18-C , 19-C ) :   1.5914 B( 19-C , 20-C ) :   1.1328 B( 19-C , 74-H ) :   0.9307
B( 20-C , 21-C ) :   1.4027 B( 20-C , 26-C ) :   1.1875 B( 21-C , 22-C ) :   1.1348
B( 21-C , 23-N ) :   1.2648 B( 22-C , 75-H ) :   0.9152 B( 22-C , 76-H ) :   0.9339
B( 22-C , 77-H ) :   0.9356 B( 23-N , 24-C ) :   1.2038 B( 23-N , 78-H ) :   0.9317
B( 24-C , 25-C ) :   1.1085 B( 24-C , 26-C ) :   1.4497 B( 25-C , 79-H ) :   0.9386
B( 25-C , 80-H ) :   0.9412 B( 25-C , 81-H ) :   0.9434 B( 26-C , 27-C ) :   1.1524
B( 27-C , 28-C ) :   1.6646 B( 27-C , 82-H ) :   0.9482 B( 28-C , 29-C ) :   1.1501
B( 28-C , 83-H ) :   0.9526 B( 29-C , 30-S ) :   1.1401 B( 29-C , 31-C ) :   0.1003
B( 29-C , 33-C ) :   1.4792 B( 30-S , 31-C ) :   1.0991 B( 31-C , 32-C ) :   1.3677
B( 31-C , 37-C ) :   1.2003 B( 32-C , 33-C ) :   1.2767 B( 32-C , 36-N ) :   1.3015
B( 33-C , 34-S ) :   1.0533 B( 34-S , 35-C ) :   1.0935 B( 34-S , 36-N ) :   0.1041
B( 35-C , 36-N ) :   1.7664 B( 35-C , 84-H ) :   0.9632 B( 37-C , 38-C ) :   1.5573
B( 37-C , 85-H ) :   0.9664 B( 38-C , 39-C ) :   1.2081 B( 38-C , 86-H ) :   0.9494
B( 39-C , 40-C ) :   1.4926 B( 39-C , 87-H ) :   0.9851 B( 40-C , 41-C ) :   1.1813
B( 40-C , 44-S ) :   1.0371 B( 41-C , 42-C ) :   1.5414 B( 41-C , 88-H ) :   0.9991
B( 42-C , 43-C ) :   1.2267 B( 42-C , 89-H ) :   0.9952 B( 43-C , 44-S ) :   1.0933
B( 43-C , 45-C ) :   1.4186 B( 45-C , 46-C ) :   1.2504 B( 45-C , 49-S ) :   1.0462
B( 46-C , 47-C ) :   1.5104 B( 46-C , 90-H ) :   0.9941 B( 47-C , 48-C ) :   1.2118
B( 47-C , 91-H ) :   1.0003 B( 48-C , 49-S ) :   1.0954 B( 48-C , 50-C ) :   1.4522
B( 50-C , 51-C ) :   1.2650 B( 50-C , 92-H ) :   0.9632 B( 51-C , 52-C ) :   1.4802
B( 51-C , 93-H ) :   0.9393 B( 52-C , 53-C ) :   1.1117 B( 52-C , 61-C ) :   0.9787
B( 53-C , 54-C ) :   1.5769 B( 53-C , 59-C ) :   1.0000 B( 54-C , 55-C ) :   1.1368
B( 54-C , 57-C ) :   1.1710 B( 55-C , 56-N ) :   2.9708 B( 57-C , 58-N ) :   3.0096
B( 59-C , 60-C ) :   1.2774 B( 59-C , 66-C ) :   1.4264 B( 60-C , 61-C ) :   0.9160
B( 60-C , 63-C ) :   1.4384 B( 61-C , 62-O ) :   2.2348 B( 63-C , 64-C ) :   1.2401
B( 63-C , 94-H ) :   1.0155 B( 64-C , 65-C ) :   1.3224 B( 64-C , 69-C ) :   1.1603
B( 65-C , 66-C ) :   1.3156 B( 65-C , 67-S ) :   1.0802 B( 66-C , 95-H ) :   0.9810
B( 67-S , 68-C ) :   1.0850 B( 68-C , 69-C ) :   1.6216 B( 68-C , 70-Br) :   1.0090
B( 69-C , 96-H ) :   1.0003

-----------------------------------------------------------------------------
         ABSORPTION SPECTRUM VIA TRANSITION ELECTRIC DIPOLE MOMENTS
-----------------------------------------------------------------------------
State   Energy  Wavelength   fosc         T2         TX        TY        TZ
        (cm-1)    (nm)                  (au**2)     (au)      (au)      (au)
-----------------------------------------------------------------------------
   0    9321.6   1072.8   1.363851167  48.16725   1.98864   0.01280   6.64924
   1   16274.9    614.4   0.032321027   0.65380  -0.30684   0.70914  -0.23827
   2   17776.8    562.5   0.093518123   1.73188   0.44320  -1.23913   0.00092
   3   19343.2    517.0   0.752365475  12.80490   1.47466  -3.25516  -0.18501
   4   22325.7    447.9   0.190664814   2.81152   0.49050  -1.53434   0.46553
   5   22749.1    439.6   0.015021856   0.21739   0.10802  -0.44781   0.07205
   6   23525.1    425.1   0.108144771   1.51339   0.32136  -1.06386  -0.52755
   7   24289.5    411.7   0.057127620   0.77429   0.35717   0.76382  -0.25158
   8   25068.3    398.9   0.510595764   6.70544  -0.63238   2.04521   1.45694
   9   25966.9    385.1   0.133492028   1.69243  -0.24198   1.24831   0.27494
  10   27303.9    366.2   0.001845527   0.02225   0.10800  -0.07380   0.07170
  11   27486.9    363.8   0.002493549   0.02987   0.10002  -0.07385   0.12003
  12   27829.6    359.3   0.021185483   0.25061  -0.15996   0.38582   0.27599
  13   28688.0    348.6   0.010036619   0.11518   0.08917   0.28794   0.15593
  14   28817.9    347.0   0.063383774   0.72409  -0.12131  -0.83809  -0.08357
  15   29030.2    344.5   0.043908900   0.49794   0.07880   0.68555   0.14750
  16   29216.8    342.3   0.406363314   4.57885   1.58428   0.48697   1.35343
  17   29915.2    334.3   0.122288551   1.34577  -0.00993   1.06176   0.46726
  18   30455.7    328.3   0.026709853   0.28872   0.19182   0.30553   0.39822
  19   30835.1    324.3   0.071534981   0.76375   0.31366  -0.60833   0.54341
  20   31118.3    321.4   0.068308860   0.72266  -0.76710  -0.22804  -0.28675
  21   31583.7    316.6   0.064331350   0.67056  -0.57045   0.17466  -0.56093
  22   31952.0    313.0   0.172170582   1.77393  -0.13790   1.27167   0.37118
  23   32124.8    311.3   0.370221399   3.79400   0.71592   1.65094   0.74556
  24   32520.5    307.5   0.117185668   1.18629   0.28840  -0.32928   0.99734
  25   32719.5    305.6   0.026062243   0.26223   0.24137   0.31459   0.32404
  26   33012.4    302.9   0.144221344   1.43823  -0.30104   1.05501   0.48431
  27   33236.4    300.9   0.064011775   0.63405   0.34525  -0.60346   0.38818
  28   33642.4    297.2   0.074825484   0.73221  -0.47191  -0.69332  -0.16978
  29   33846.8    295.4   0.029361666   0.28559   0.16954  -0.39563   0.31674
  30   34043.5    293.7   0.492285811   4.76057   1.04319   1.45942   1.24195
  31   34166.4    292.7   0.049404921   0.47604   0.66331   0.18939   0.01376
  32   34390.1    290.8   0.005559103   0.05322  -0.13403   0.15541   0.10535
  33   34637.1    288.7   0.213056852   2.02502   1.31763  -0.41508   0.34144
  34   34888.4    286.6   0.030750227   0.29016  -0.51355  -0.03345   0.15909
  35   35674.4    280.3   0.006059195   0.05592   0.21627  -0.02218   0.09302
  36   35921.2    278.4   0.040848874   0.37437  -0.13398  -0.58885  -0.09840
  37   36080.1    277.2   0.000697457   0.00636  -0.03027   0.06235   0.03950
  38   36377.0    274.9   0.047261453   0.42772   0.10367   0.61422   0.19927
  39   36764.1    272.0   0.049233111   0.44087  -0.33396   0.48899  -0.30038
  40   37177.3    269.0   0.004752238   0.04208  -0.00227   0.20434   0.01795
  41   37383.3    267.5   0.054138269   0.47676   0.08937  -0.53683   0.42495
  42   37630.4    265.7   0.003939362   0.03446  -0.04933  -0.03793   0.17490
  43   37948.3    263.5   0.027535340   0.23888  -0.30356   0.37945   0.05243
  44   38236.5    261.5   0.007208201   0.06206   0.01067  -0.02797   0.24732
  45   38331.2    260.9   0.062089360   0.53326  -0.03918  -0.24885   0.68542
  46   38458.2    260.0   0.112795622   0.96556  -0.33686  -0.90818   0.16523
  47   38663.1    258.6   0.061598204   0.52450   0.18663  -0.52140   0.46671
  48   38751.3    258.1   0.124542230   1.05805  -0.18514   0.68777  -0.74213
  49   39405.4    253.8   0.004188082   0.03499  -0.09744  -0.15587  -0.03462
  50   39613.0    252.4   0.037695038   0.31327  -0.32007   0.33933  -0.30933
  51   40131.7    249.2   0.031984696   0.26238  -0.19544   0.44401  -0.16442
  52   40194.7    248.8   0.190844619   1.56310  -0.25483   0.91190   0.81645

FINAL SINGLE POINT ENERGY    -10123.406547420469

DIPOLE MOMENT
-------------
                                X             Y             Z
Electronic contribution:    -17.03633      23.80550      14.50567
Nuclear contribution   :     14.19549     -22.11973     -20.56592
                        -----------------------------------------
Total Dipole Moment    :     -2.84085       1.68578      -6.06025
                        -----------------------------------------
Magnitude (a.u.)       :      6.90210
Magnitude (Debye)      :     17.54373

Rotational constants in cm-1:     0.001208     0.000146     0.000134
Rotational constants in MHz :    36.208799     4.375310     4.002304

                             ****ORCA TERMINATED NORMALLY****
TOTAL RUN TIME: 0 days 0 hours 10 minutes 37 seconds 398 msec
