                         Program Version 4.2.0 -  RELEASE  -
|  1> # ORCA input file
|  2> # SCF done       -187.282186021449          0.000477265400
|  3> ! CAM-B3LYP def2-SVP def2/J RIJCOSX Grid4 TightSCF
|  4> %maxcore 5000
|  5> %tddft
|  6>     Mode sTDDFT
|  7>     Ethresh 5.0
|  8>     maxcore 5000
|  9> end
| 10>
| 11> %pal
| 12>   nprocs 6
| 13>   end
| 14> * xyz 0 1
| 15>    C       -2.17638        -4.63706        -1.52978
| 16>    C       -2.03944        -4.61411        -0.16650
| 17>    C       -2.00872        -5.76693         0.64714
| 18>    N       -1.96690        -6.66426         1.36123
| 19>    C       -1.91186        -3.44864         0.61853
| 20>    N       -1.80987        -2.54830         1.32356
| 21>    C       -2.35724        -5.82925        -2.34729
| 22>    C       -2.49193        -5.44215        -3.70396
| 23>    C       -2.68288        -6.34882        -4.71839
| 24>    C       -2.75559        -7.70320        -4.37806
| 25>    C       -2.61896        -8.08195        -3.01989
| 26>    C       -2.41822        -7.16594        -1.99551
| 27>    S       -2.73562        -9.80349        -2.82182
| 28>    C       -2.96536        -9.98995        -4.54027
| 29>    C       -2.95492        -8.82370        -5.22939
| 30>   Br       -3.19527       -11.70454        -5.26133
| 31>    C       -2.38465        -3.97773        -3.81425
| 32>    O       -2.29720        -3.33241        -4.83273
| 33>    C       -2.23645        -3.48414        -2.41129
| 34>    C       -2.04396        -2.18170        -2.07282
| 35>    C       -2.34844        -1.08570        -2.92267
| 36>    O       -1.70673         0.10161        -2.73377
| 37>    C       -3.29445        -0.90949        -3.91417
| 38>    C       -4.42545        -1.54505        -4.61101
| 39>    O       -4.93968        -2.62158        -4.47347
| 40>    N       -4.86370        -0.55318        -5.48539
| 41>    C       -4.19091         0.65997        -5.39626
| 42>    O       -4.43253         1.64021        -6.05592
| 43>    C       -3.19106         0.42909        -4.35177
| 44>    C       -2.18769         1.02389        -3.59981
| 45>    C       -1.65016         2.33790        -3.60785
| 46>    C       -2.09188         3.29117        -4.46072
| 47>    C       -1.56614         4.61699        -4.48348
| 48>    C       -1.96304         5.61463        -5.29644
| 49>    C       -3.01546         5.51773        -6.34653
| 50>    C       -1.27455         6.95837        -5.21815
| 51>    N       -0.33824         7.10387        -6.30759
| 52>    C       -0.60441         7.78050        -7.43714
| 53>    C        0.17346         7.73998        -8.54762
| 54>    C       -0.03205         8.52752        -9.71368
| 55>    C        0.87090         8.46113       -10.78456
| 56>    C        0.78914         9.24562       -11.95192
| 57>    N        1.76648         8.99307       -12.86655
| 58>    C        2.58004         8.09714       -12.45937
| 59>    S        2.26526         7.42382       -10.89138
| 60>    C       -0.25613        10.17846       -12.12861
| 61>    C       -1.20044        10.19750       -11.09445
| 62>    C       -1.10574         9.42635        -9.91553
| 63>    N       -2.12582         9.64251        -9.03469
| 64>    C       -2.95246        10.51504        -9.46194
| 65>    S       -2.60378        11.21383       -11.01912
| 66>    C       -0.41035        11.00639       -13.27585
| 67>    C        0.52631        11.46634       -14.14895
| 68>    C        1.96898        11.51183       -14.09867
| 69>    C        2.74371        11.58275       -12.96950
| 70>    C        4.14962        11.65423       -12.98004
| 71>    N        5.29665        11.68343       -12.92906
| 72>    C        2.21965        11.65275       -11.66443
| 73>    N        1.84674        11.75265       -10.58278
| 74>    C        2.44498        11.72117       -15.46127
| 75>    C        1.33529        12.02580       -16.28910
| 76>    C        0.09690        11.95781       -15.48465
| 77>    O       -1.03219        12.20607       -15.84234
| 78>    C        1.46991        12.31530       -17.62488
| 79>    C        2.75771        12.29151       -18.17172
| 80>    C        3.85638        11.97189       -17.33960
| 81>    C        3.72240        11.68849       -15.98579
| 82>    S        5.35307        11.98917       -18.22285
| 83>    C        4.49435        12.42490       -19.67681
| 84>    C        3.15654        12.54931       -19.51249
| 85>   Br        5.44629        12.67251       -21.27398
| 86>    H       -2.78237        -6.02039        -5.74075
| 87>    H       -2.31638        -7.50523        -0.97830
| 88>    H       -3.08252        -8.75504        -6.29419
| 89>    H       -1.64303        -1.91388        -1.10413
| 90>    H       -5.63456        -0.69863        -6.12204
| 91>    H       -0.86508         2.53820        -2.89251
| 92>    H       -2.88177         3.03764        -5.15160
| 93>    H       -0.78306         4.82282        -3.76274
| 94>    H       -3.33878         4.49825        -6.52505
| 95>    H       -2.64744         5.94094        -7.28130
| 96>    H       -3.88372         6.10515        -6.04589
| 97>    H       -0.73380         7.05719        -4.27174
| 98>    H       -2.00732         7.76516        -5.29223
| 99>    H        0.43271         6.45057        -6.32208
|100>    H       -1.47099         8.42605        -7.41610
|101>    H        1.04201         7.09338        -8.56211
|102>    H        3.42211         7.76114       -13.03268
|103>    H       -3.82257        10.82343        -8.91606
|104>    H       -1.43498        11.27306       -13.52356
|105>    H        0.60996        12.55320       -18.23114
|106>    H        4.58681        11.44625       -15.39000
|107>    H        2.47671        12.81174       -20.30240
|108> *
|109>
|110>                          ****END OF INPUT****

CARTESIAN COORDINATES (ANGSTROEM)
---------------------------------
  C     -2.176380   -4.637060   -1.529780
  C     -2.039440   -4.614110   -0.166500
  C     -2.008720   -5.766930    0.647140
  N     -1.966900   -6.664260    1.361230
  C     -1.911860   -3.448640    0.618530
  N     -1.809870   -2.548300    1.323560
  C     -2.357240   -5.829250   -2.347290
  C     -2.491930   -5.442150   -3.703960
  C     -2.682880   -6.348820   -4.718390
  C     -2.755590   -7.703200   -4.378060
  C     -2.618960   -8.081950   -3.019890
  C     -2.418220   -7.165940   -1.995510
  S     -2.735620   -9.803490   -2.821820
  C     -2.965360   -9.989950   -4.540270
  C     -2.954920   -8.823700   -5.229390
  Br    -3.195270  -11.704540   -5.261330
  C     -2.384650   -3.977730   -3.814250
  O     -2.297200   -3.332410   -4.832730
  C     -2.236450   -3.484140   -2.411290
  C     -2.043960   -2.181700   -2.072820
  C     -2.348440   -1.085700   -2.922670
  O     -1.706730    0.101610   -2.733770
  C     -3.294450   -0.909490   -3.914170
  C     -4.425450   -1.545050   -4.611010
  O     -4.939680   -2.621580   -4.473470
  N     -4.863700   -0.553180   -5.485390
  C     -4.190910    0.659970   -5.396260
  O     -4.432530    1.640210   -6.055920
  C     -3.191060    0.429090   -4.351770
  C     -2.187690    1.023890   -3.599810
  C     -1.650160    2.337900   -3.607850
  C     -2.091880    3.291170   -4.460720
  C     -1.566140    4.616990   -4.483480
  C     -1.963040    5.614630   -5.296440
  C     -3.015460    5.517730   -6.346530
  C     -1.274550    6.958370   -5.218150
  N     -0.338240    7.103870   -6.307590
  C     -0.604410    7.780500   -7.437140
  C      0.173460    7.739980   -8.547620
  C     -0.032050    8.527520   -9.713680
  C      0.870900    8.461130  -10.784560
  C      0.789140    9.245620  -11.951920
  N      1.766480    8.993070  -12.866550
  C      2.580040    8.097140  -12.459370
  S      2.265260    7.423820  -10.891380
  C     -0.256130   10.178460  -12.128610
  C     -1.200440   10.197500  -11.094450
  C     -1.105740    9.426350   -9.915530
  N     -2.125820    9.642510   -9.034690
  C     -2.952460   10.515040   -9.461940
  S     -2.603780   11.213830  -11.019120
  C     -0.410350   11.006390  -13.275850
  C      0.526310   11.466340  -14.148950
  C      1.968980   11.511830  -14.098670
  C      2.743710   11.582750  -12.969500
  C      4.149620   11.654230  -12.980040
  N      5.296650   11.683430  -12.929060
  C      2.219650   11.652750  -11.664430
  N      1.846740   11.752650  -10.582780
  C      2.444980   11.721170  -15.461270
  C      1.335290   12.025800  -16.289100
  C      0.096900   11.957810  -15.484650
  O     -1.032190   12.206070  -15.842340
  C      1.469910   12.315300  -17.624880
  C      2.757710   12.291510  -18.171720
  C      3.856380   11.971890  -17.339600
  C      3.722400   11.688490  -15.985790
  S      5.353070   11.989170  -18.222850
  C      4.494350   12.424900  -19.676810
  C      3.156540   12.549310  -19.512490
  Br     5.446290   12.672510  -21.273980
  H     -2.782370   -6.020390   -5.740750
  H     -2.316380   -7.505230   -0.978300
  H     -3.082520   -8.755040   -6.294190
  H     -1.643030   -1.913880   -1.104130
  H     -5.634560   -0.698630   -6.122040
  H     -0.865080    2.538200   -2.892510
  H     -2.881770    3.037640   -5.151600
  H     -0.783060    4.822820   -3.762740
  H     -3.338780    4.498250   -6.525050
  H     -2.647440    5.940940   -7.281300
  H     -3.883720    6.105150   -6.045890
  H     -0.733800    7.057190   -4.271740
  H     -2.007320    7.765160   -5.292230
  H      0.432710    6.450570   -6.322080
  H     -1.470990    8.426050   -7.416100
  H      1.042010    7.093380   -8.562110
  H      3.422110    7.761140  -13.032680
  H     -3.822570   10.823430   -8.916060
  H     -1.434980   11.273060  -13.523560
  H      0.609960   12.553200  -18.231140
  H      4.586810   11.446250  -15.390000
  H      2.476710   12.811740  -20.302400

 Total Charge           Charge          ....    0
 Multiplicity           Mult            ....    1
 Number of Electrons    NEL             ....  564
 Basis Dimension        Dim             .... 1156

ORBITAL ENERGIES
----------------

  NO   OCC          E(Eh)            E(eV)
   0   2.0000    -482.888430    -13140.0622
   1   2.0000    -482.879553    -13139.8207
   2   2.0000     -88.978866     -2421.2380
   3   2.0000     -88.967875     -2420.9390
   4   2.0000     -88.965612     -2420.8774
   5   2.0000     -88.963654     -2420.8241
   6   2.0000     -62.566175     -1702.5122
   7   2.0000     -62.557261     -1702.2696
   8   2.0000     -56.400127     -1534.7255
   9   2.0000     -56.397403     -1534.6513
  10   2.0000     -56.397375     -1534.6506
  11   2.0000     -56.391204     -1534.4827
  12   2.0000     -56.388504     -1534.4092
  13   2.0000     -56.388468     -1534.4082
  14   2.0000     -19.322153      -525.7825
  15   2.0000     -19.224072      -523.1136
  16   2.0000     -19.220735      -523.0228
  17   2.0000     -19.220699      -523.0218
  18   2.0000     -19.203668      -522.5584
  19   2.0000     -14.463933      -393.5836
  20   2.0000     -14.451363      -393.2416
  21   2.0000     -14.421750      -392.4358
  22   2.0000     -14.420303      -392.3964
  23   2.0000     -14.419316      -392.3695
  24   2.0000     -14.414042      -392.2260
  25   2.0000     -14.403995      -391.9526
  26   2.0000     -14.400867      -391.8675
  27   2.0000     -10.411626      -283.3147
  28   2.0000     -10.408748      -283.2364
  29   2.0000     -10.377214      -282.3784
  30   2.0000     -10.373002      -282.2637
  31   2.0000     -10.367134      -282.1041
  32   2.0000     -10.362428      -281.9760
  33   2.0000     -10.354126      -281.7501
  34   2.0000     -10.351110      -281.6680
  35   2.0000     -10.349098      -281.6133
  36   2.0000     -10.347512      -281.5701
  37   2.0000     -10.341359      -281.4027
  38   2.0000     -10.339708      -281.3578
  39   2.0000     -10.329450      -281.0786
  40   2.0000     -10.328436      -281.0510
  41   2.0000     -10.326616      -281.0015
  42   2.0000     -10.325584      -280.9734
  43   2.0000     -10.324989      -280.9572
  44   2.0000     -10.324146      -280.9343
  45   2.0000     -10.322849      -280.8990
  46   2.0000     -10.320800      -280.8433
  47   2.0000     -10.317215      -280.7457
  48   2.0000     -10.314719      -280.6778
  49   2.0000     -10.313098      -280.6337
  50   2.0000     -10.312920      -280.6288
  51   2.0000     -10.311527      -280.5909
  52   2.0000     -10.311072      -280.5785
  53   2.0000     -10.309528      -280.5365
  54   2.0000     -10.308670      -280.5132
  55   2.0000     -10.308090      -280.4974
  56   2.0000     -10.307451      -280.4800
  57   2.0000     -10.305517      -280.4274
  58   2.0000     -10.304359      -280.3959
  59   2.0000     -10.304115      -280.3892
  60   2.0000     -10.303872      -280.3826
  61   2.0000     -10.302958      -280.3577
  62   2.0000     -10.302816      -280.3539
  63   2.0000     -10.301262      -280.3116
  64   2.0000     -10.299805      -280.2720
  65   2.0000     -10.299057      -280.2516
  66   2.0000     -10.298382      -280.2332
  67   2.0000     -10.298374      -280.2330
  68   2.0000     -10.297730      -280.2155
  69   2.0000     -10.296268      -280.1757
  70   2.0000     -10.295284      -280.1489
  71   2.0000     -10.292095      -280.0621
  72   2.0000     -10.289440      -279.9899
  73   2.0000     -10.289166      -279.9825
  74   2.0000     -10.287640      -279.9409
  75   2.0000     -10.282197      -279.7928
  76   2.0000     -10.281904      -279.7848
  77   2.0000     -10.277652      -279.6691
  78   2.0000     -10.262421      -279.2547
  79   2.0000      -8.795624      -239.3411
  80   2.0000      -8.786680      -239.0977
  81   2.0000      -8.074862      -219.7282
  82   2.0000      -8.063876      -219.4292
  83   2.0000      -8.061923      -219.3761
  84   2.0000      -8.059815      -219.3187
  85   2.0000      -6.631947      -180.4645
  86   2.0000      -6.622951      -180.2196
  87   2.0000      -6.617354      -180.0674
  88   2.0000      -6.617145      -180.0617
  89   2.0000      -6.608429      -179.8245
  90   2.0000      -6.608236      -179.8192
  91   2.0000      -6.044558      -164.4808
  92   2.0000      -6.040266      -164.3640
  93   2.0000      -6.036082      -164.2501
  94   2.0000      -6.033601      -164.1826
  95   2.0000      -6.031163      -164.1163
  96   2.0000      -6.029296      -164.0655
  97   2.0000      -6.029046      -164.0587
  98   2.0000      -6.027104      -164.0058
  99   2.0000      -6.025071      -163.9505
 100   2.0000      -6.025018      -163.9491
 101   2.0000      -6.023841      -163.9171
 102   2.0000      -6.021784      -163.8611
 103   2.0000      -2.747813       -74.7718
 104   2.0000      -2.743719       -74.6604
 105   2.0000      -2.743566       -74.6562
 106   2.0000      -2.738804       -74.5266
 107   2.0000      -2.734732       -74.4159
 108   2.0000      -2.734647       -74.4135
 109   2.0000      -2.731974       -74.3408
 110   2.0000      -2.731957       -74.3403
 111   2.0000      -2.723070       -74.0985
 112   2.0000      -2.723058       -74.0982
 113   2.0000      -1.238947       -33.7135
 114   2.0000      -1.166528       -31.7428
 115   2.0000      -1.146961       -31.2104
 116   2.0000      -1.136232       -30.9184
 117   2.0000      -1.118465       -30.4350
 118   2.0000      -1.075683       -29.2708
 119   2.0000      -1.068773       -29.0828
 120   2.0000      -1.053205       -28.6592
 121   2.0000      -1.051659       -28.6171
 122   2.0000      -1.027486       -27.9593
 123   2.0000      -1.018154       -27.7054
 124   2.0000      -1.012742       -27.5581
 125   2.0000      -1.001453       -27.2509
 126   2.0000      -0.999650       -27.2019
 127   2.0000      -0.994770       -27.0691
 128   2.0000      -0.981704       -26.7135
 129   2.0000      -0.977852       -26.6087
 130   2.0000      -0.953654       -25.9502
 131   2.0000      -0.951779       -25.8992
 132   2.0000      -0.944885       -25.7116
 133   2.0000      -0.937184       -25.5021
 134   2.0000      -0.933852       -25.4114
 135   2.0000      -0.927627       -25.2420
 136   2.0000      -0.923279       -25.1237
 137   2.0000      -0.912823       -24.8392
 138   2.0000      -0.900447       -24.5024
 139   2.0000      -0.898256       -24.4428
 140   2.0000      -0.890541       -24.2328
 141   2.0000      -0.889760       -24.2116
 142   2.0000      -0.880832       -23.9687
 143   2.0000      -0.876452       -23.8495
 144   2.0000      -0.876118       -23.8404
 145   2.0000      -0.862925       -23.4814
 146   2.0000      -0.848616       -23.0920
 147   2.0000      -0.838346       -22.8126
 148   2.0000      -0.832759       -22.6605
 149   2.0000      -0.827103       -22.5066
 150   2.0000      -0.820078       -22.3155
 151   2.0000      -0.811617       -22.0852
 152   2.0000      -0.800101       -21.7719
 153   2.0000      -0.785418       -21.3723
 154   2.0000      -0.782215       -21.2852
 155   2.0000      -0.772580       -21.0230
 156   2.0000      -0.768562       -20.9136
 157   2.0000      -0.761565       -20.7232
 158   2.0000      -0.755699       -20.5636
 159   2.0000      -0.746349       -20.3092
 160   2.0000      -0.736691       -20.0464
 161   2.0000      -0.720666       -19.6103
 162   2.0000      -0.713667       -19.4199
 163   2.0000      -0.712234       -19.3809
 164   2.0000      -0.698813       -19.0157
 165   2.0000      -0.695168       -18.9165
 166   2.0000      -0.694913       -18.9095
 167   2.0000      -0.687522       -18.7084
 168   2.0000      -0.677585       -18.4380
 169   2.0000      -0.674562       -18.3558
 170   2.0000      -0.670862       -18.2551
 171   2.0000      -0.660183       -17.9645
 172   2.0000      -0.654079       -17.7984
 173   2.0000      -0.650927       -17.7126
 174   2.0000      -0.641126       -17.4459
 175   2.0000      -0.636521       -17.3206
 176   2.0000      -0.631889       -17.1946
 177   2.0000      -0.630049       -17.1445
 178   2.0000      -0.623834       -16.9754
 179   2.0000      -0.614164       -16.7122
 180   2.0000      -0.612756       -16.6739
 181   2.0000      -0.605586       -16.4788
 182   2.0000      -0.602116       -16.3844
 183   2.0000      -0.599316       -16.3082
 184   2.0000      -0.597292       -16.2531
 185   2.0000      -0.591424       -16.0935
 186   2.0000      -0.587953       -15.9990
 187   2.0000      -0.585454       -15.9310
 188   2.0000      -0.582845       -15.8600
 189   2.0000      -0.579012       -15.7557
 190   2.0000      -0.573311       -15.6006
 191   2.0000      -0.572765       -15.5857
 192   2.0000      -0.564173       -15.3519
 193   2.0000      -0.558327       -15.1929
 194   2.0000      -0.554683       -15.0937
 195   2.0000      -0.552593       -15.0368
 196   2.0000      -0.546299       -14.8655
 197   2.0000      -0.542745       -14.7688
 198   2.0000      -0.541863       -14.7448
 199   2.0000      -0.540019       -14.6947
 200   2.0000      -0.537706       -14.6317
 201   2.0000      -0.537248       -14.6193
 202   2.0000      -0.531597       -14.4655
 203   2.0000      -0.530573       -14.4376
 204   2.0000      -0.528613       -14.3843
 205   2.0000      -0.527754       -14.3609
 206   2.0000      -0.523971       -14.2580
 207   2.0000      -0.523641       -14.2490
 208   2.0000      -0.518197       -14.1009
 209   2.0000      -0.516759       -14.0617
 210   2.0000      -0.514678       -14.0051
 211   2.0000      -0.511221       -13.9110
 212   2.0000      -0.508296       -13.8314
 213   2.0000      -0.507695       -13.8151
 214   2.0000      -0.505492       -13.7551
 215   2.0000      -0.499991       -13.6054
 216   2.0000      -0.498718       -13.5708
 217   2.0000      -0.496265       -13.5041
 218   2.0000      -0.494300       -13.4506
 219   2.0000      -0.493351       -13.4248
 220   2.0000      -0.492003       -13.3881
 221   2.0000      -0.487525       -13.2662
 222   2.0000      -0.483924       -13.1682
 223   2.0000      -0.482927       -13.1411
 224   2.0000      -0.480741       -13.0816
 225   2.0000      -0.476310       -12.9611
 226   2.0000      -0.475613       -12.9421
 227   2.0000      -0.474992       -12.9252
 228   2.0000      -0.468876       -12.7588
 229   2.0000      -0.462372       -12.5818
 230   2.0000      -0.461870       -12.5681
 231   2.0000      -0.460162       -12.5217
 232   2.0000      -0.454115       -12.3571
 233   2.0000      -0.453963       -12.3530
 234   2.0000      -0.453459       -12.3392
 235   2.0000      -0.450488       -12.2584
 236   2.0000      -0.449704       -12.2371
 237   2.0000      -0.448866       -12.2143
 238   2.0000      -0.443199       -12.0600
 239   2.0000      -0.439708       -11.9651
 240   2.0000      -0.437686       -11.9101
 241   2.0000      -0.437000       -11.8914
 242   2.0000      -0.434204       -11.8153
 243   2.0000      -0.433162       -11.7869
 244   2.0000      -0.432384       -11.7658
 245   2.0000      -0.431615       -11.7448
 246   2.0000      -0.429641       -11.6911
 247   2.0000      -0.427202       -11.6247
 248   2.0000      -0.420731       -11.4487
 249   2.0000      -0.417356       -11.3568
 250   2.0000      -0.414748       -11.2859
 251   2.0000      -0.413863       -11.2618
 252   2.0000      -0.409719       -11.1490
 253   2.0000      -0.400512       -10.8985
 254   2.0000      -0.399393       -10.8680
 255   2.0000      -0.395634       -10.7657
 256   2.0000      -0.390131       -10.6160
 257   2.0000      -0.389215       -10.5911
 258   2.0000      -0.385078       -10.4785
 259   2.0000      -0.380158       -10.3446
 260   2.0000      -0.379305       -10.3214
 261   2.0000      -0.377719       -10.2783
 262   2.0000      -0.370161       -10.0726
 263   2.0000      -0.369174       -10.0457
 264   2.0000      -0.365106        -9.9350
 265   2.0000      -0.363155        -9.8819
 266   2.0000      -0.359900        -9.7934
 267   2.0000      -0.356177        -9.6921
 268   2.0000      -0.355081        -9.6622
 269   2.0000      -0.346756        -9.4357
 270   2.0000      -0.344085        -9.3630
 271   2.0000      -0.330919        -9.0048
 272   2.0000      -0.328753        -8.9458
 273   2.0000      -0.318843        -8.6762
 274   2.0000      -0.318496        -8.6667
 275   2.0000      -0.307613        -8.3706
 276   2.0000      -0.306106        -8.3296
 277   2.0000      -0.304455        -8.2846
 278   2.0000      -0.297447        -8.0939
 279   2.0000      -0.281351        -7.6560
 280   2.0000      -0.274464        -7.4685
 281   2.0000      -0.241308        -6.5663
 282   0.0000      -0.104139        -2.8338
 283   0.0000      -0.079080        -2.1519
 284   0.0000      -0.066872        -1.8197
 285   0.0000      -0.059201        -1.6109
 286   0.0000      -0.047766        -1.2998

MULLIKEN ATOMIC CHARGES
-----------------------
   0 C :    0.301507
   1 C :   -0.341092
   2 C :   -0.185913
   3 N :    0.154749
   4 C :   -0.194233
   5 N :    0.159217
   6 C :    0.021624
   7 C :   -0.017374
   8 C :   -0.059177
   9 C :    0.116011
  10 C :   -0.089739
  11 C :   -0.020804
  12 S :    0.189202
  13 C :   -0.123225
  14 C :    0.039224
  15 Br:    0.027134
  16 C :    0.158077
  17 O :   -0.144892
  18 C :   -0.069855
  19 C :   -0.037616
  20 C :    0.108422
  21 O :   -0.191046
  22 C :   -0.009299
  23 C :    0.186255
  24 O :   -0.137593
  25 N :   -0.159042
  26 C :    0.198993
  27 O :   -0.160465
  28 C :   -0.111246
  29 C :    0.154578
  30 C :   -0.022733
  31 C :    0.016589
  32 C :    0.002693
  33 C :   -0.176362
  34 C :    0.089020
  35 C :    0.208755
  36 N :   -0.134525
  37 C :    0.086985
  38 C :   -0.135131
  39 C :    0.111126
  40 C :   -0.115059
  41 C :   -0.009844
  42 N :   -0.064824
  43 C :    0.033056
  44 S :    0.096356
  45 C :    0.061754
  46 C :   -0.081136
  47 C :    0.000469
  48 N :   -0.077460
  49 C :    0.016262
  50 S :    0.113196
  51 C :   -0.053201
  52 C :   -0.114489
  53 C :    0.333480
  54 C :   -0.339316
  55 C :   -0.196503
  56 N :    0.143704
  57 C :   -0.206171
  58 N :    0.168561
  59 C :    0.002042
  60 C :    0.007560
  61 C :    0.124495
  62 O :   -0.149334
  63 C :   -0.073999
  64 C :    0.111551
  65 C :   -0.086982
  66 C :   -0.027774
  67 S :    0.177907
  68 C :   -0.125860
  69 C :    0.041048
  70 Br:    0.015862
  71 H :   -0.008872
  72 H :   -0.005233
  73 H :   -0.001773
  74 H :    0.034632
  75 H :    0.140674
  76 H :   -0.009549
  77 H :    0.020665
  78 H :   -0.025140
  79 H :    0.036822
  80 H :    0.035968
  81 H :    0.032167
  82 H :    0.016497
  83 H :    0.022944
  84 H :    0.119141
  85 H :    0.021859
  86 H :   -0.038644
  87 H :    0.045586
  88 H :    0.038956
  89 H :    0.016026
  90 H :   -0.012651
  91 H :   -0.008836
  92 H :   -0.005384
Sum of atomic charges:   -0.0000000

LOEWDIN ATOMIC CHARGES
----------------------
   0 C :    0.073813
   1 C :   -0.133936
   2 C :   -0.018218
   3 N :   -0.048351
   4 C :   -0.021570
   5 N :   -0.047146
   6 C :   -0.019897
   7 C :   -0.045871
   8 C :    0.026639
   9 C :   -0.030429
  10 C :   -0.142520
  11 C :   -0.009250
  12 S :    0.434659
  13 C :   -0.270420
  14 C :   -0.069747
  15 Br:    0.139831
  16 C :    0.088649
  17 O :   -0.131756
  18 C :   -0.069682
  19 C :    0.046075
  20 C :    0.043078
  21 O :    0.025895
  22 C :   -0.050246
  23 C :    0.091453
  24 O :   -0.143587
  25 N :    0.002077
  26 C :    0.091701
  27 O :   -0.165165
  28 C :   -0.109728
  29 C :    0.087865
  30 C :   -0.056390
  31 C :    0.029102
  32 C :   -0.058988
  33 C :   -0.009145
  34 C :   -0.048558
  35 C :    0.049566
  36 N :    0.017381
  37 C :    0.069185
  38 C :   -0.140879
  39 C :    0.010901
  40 C :   -0.178471
  41 C :   -0.014428
  42 N :   -0.086545
  43 C :   -0.096434
  44 S :    0.403522
  45 C :   -0.081423
  46 C :   -0.138364
  47 C :   -0.045809
  48 N :   -0.087266
  49 C :   -0.107909
  50 S :    0.411278
  51 C :    0.063257
  52 C :   -0.087663
  53 C :    0.079587
  54 C :   -0.140651
  55 C :   -0.018816
  56 N :   -0.066248
  57 C :   -0.017652
  58 N :   -0.056069
  59 C :   -0.011442
  60 C :   -0.052138
  61 C :    0.083823
  62 O :   -0.148308
  63 C :    0.020555
  64 C :   -0.036619
  65 C :   -0.143234
  66 C :   -0.016033
  67 S :    0.426137
  68 C :   -0.274827
  69 C :   -0.070125
  70 Br:    0.131057
  71 H :    0.042152
  72 H :    0.041308
  73 H :    0.039485
  74 H :    0.052396
  75 H :    0.096728
  76 H :    0.037591
  77 H :    0.033325
  78 H :    0.025348
  79 H :    0.038114
  80 H :    0.040845
  81 H :    0.043297
  82 H :    0.027772
  83 H :    0.035784
  84 H :    0.080299
  85 H :    0.026811
  86 H :    0.012834
  87 H :    0.022712
  88 H :    0.019340
  89 H :    0.037335
  90 H :    0.039960
  91 H :    0.039399
  92 H :    0.038038

  Mayer bond orders larger than 0.100000
B(  0-C ,  1-C ) :   1.6399 B(  0-C ,  6-C ) :   1.0117 B(  0-C , 18-C ) :   1.0743
B(  1-C ,  2-C ) :   1.1402 B(  1-C ,  4-C ) :   1.1421 B(  2-C ,  3-N ) :   2.9707
B(  4-C ,  5-N ) :   2.9779 B(  6-C ,  7-C ) :   1.2731 B(  6-C , 11-C ) :   1.4028
B(  7-C ,  8-C ) :   1.4234 B(  7-C , 16-C ) :   0.9431 B(  8-C ,  9-C ) :   1.2505
B(  8-C , 71-H ) :   1.0160 B(  9-C , 10-C ) :   1.3005 B(  9-C , 14-C ) :   1.1626
B( 10-C , 11-C ) :   1.3370 B( 10-C , 12-S ) :   1.0867 B( 11-C , 72-H ) :   0.9792
B( 12-S , 13-C ) :   1.0862 B( 13-C , 14-C ) :   1.6167 B( 13-C , 15-Br) :   1.0210
B( 14-C , 73-H ) :   1.0006 B( 16-C , 17-O ) :   2.2241 B( 16-C , 18-C ) :   0.9249
B( 18-C , 19-C ) :   1.6165 B( 19-C , 20-C ) :   1.1588 B( 19-C , 74-H ) :   0.9330
B( 20-C , 21-O ) :   1.1186 B( 20-C , 22-C ) :   1.4398 B( 21-O , 29-C ) :   1.1724
B( 22-C , 23-C ) :   0.8644 B( 22-C , 28-C ) :   1.3217 B( 23-C , 24-O ) :   2.2442
B( 23-C , 25-N ) :   1.0807 B( 25-N , 26-C ) :   1.1022 B( 25-N , 75-H ) :   0.9162
B( 26-C , 27-O ) :   2.1675 B( 26-C , 28-C ) :   0.8892 B( 28-C , 29-C ) :   1.3834
B( 29-C , 30-C ) :   1.1386 B( 30-C , 31-C ) :   1.6442 B( 30-C , 76-H ) :   0.9795
B( 31-C , 32-C ) :   1.1140 B( 31-C , 77-H ) :   0.9561 B( 32-C , 33-C ) :   1.7377
B( 32-C , 78-H ) :   0.9781 B( 33-C , 34-C ) :   1.0801 B( 33-C , 35-C ) :   1.0365
B( 34-C , 79-H ) :   0.9509 B( 34-C , 80-H ) :   0.9422 B( 34-C , 81-H ) :   0.9397
B( 35-C , 36-N ) :   1.0078 B( 35-C , 82-H ) :   0.9415 B( 35-C , 83-H ) :   0.9278
B( 36-N , 37-C ) :   1.2548 B( 36-N , 84-H ) :   0.9360 B( 37-C , 38-C ) :   1.5569
B( 37-C , 85-H ) :   0.9229 B( 38-C , 39-C ) :   1.2084 B( 38-C , 86-H ) :   0.9524
B( 39-C , 40-C ) :   1.3354 B( 39-C , 47-C ) :   1.2489 B( 40-C , 41-C ) :   1.3124
B( 40-C , 44-S ) :   1.0608 B( 41-C , 42-N ) :   1.3532 B( 41-C , 45-C ) :   1.2781
B( 42-N , 43-C ) :   1.7119 B( 42-N , 44-S ) :   0.1080 B( 43-C , 44-S ) :   1.1422
B( 43-C , 87-H ) :   0.9638 B( 45-C , 46-C ) :   1.3441 B( 45-C , 51-C ) :   1.0863
B( 46-C , 47-C ) :   1.3255 B( 46-C , 50-S ) :   1.0912 B( 47-C , 48-N ) :   1.3058
B( 48-N , 49-C ) :   1.7522 B( 48-N , 50-S ) :   0.1051 B( 48-N , 85-H ) :   0.1095
B( 49-C , 50-S ) :   1.1153 B( 49-C , 88-H ) :   0.9648 B( 51-C , 52-C ) :   1.6690
B( 51-C , 89-H ) :   0.9370 B( 52-C , 53-C ) :   1.0431 B( 52-C , 61-C ) :   0.9472
B( 53-C , 54-C ) :   1.6285 B( 53-C , 59-C ) :   1.0180 B( 54-C , 55-C ) :   1.1464
B( 54-C , 57-C ) :   1.1695 B( 55-C , 56-N ) :   2.9818 B( 57-C , 58-N ) :   3.0115
B( 59-C , 60-C ) :   1.2744 B( 59-C , 66-C ) :   1.4177 B( 60-C , 61-C ) :   0.9172
B( 60-C , 63-C ) :   1.4244 B( 61-C , 62-O ) :   2.2620 B( 63-C , 64-C ) :   1.2523
B( 63-C , 90-H ) :   1.0153 B( 64-C , 65-C ) :   1.3132 B( 64-C , 69-C ) :   1.1591
B( 65-C , 66-C ) :   1.3223 B( 65-C , 67-S ) :   1.0811 B( 66-C , 91-H ) :   0.9830
B( 67-S , 68-C ) :   1.0839 B( 68-C , 69-C ) :   1.6239 B( 68-C , 70-Br) :   1.0137
B( 69-C , 92-H ) :   0.9994

-----------------------------------------------------------------------------
         ABSORPTION SPECTRUM VIA TRANSITION ELECTRIC DIPOLE MOMENTS
-----------------------------------------------------------------------------
State   Energy  Wavelength   fosc         T2         TX        TY        TZ
        (cm-1)    (nm)                  (au**2)     (au)      (au)      (au)
-----------------------------------------------------------------------------
   0   18334.8    545.4   1.279754305  22.97867  -1.12926  -3.28599   3.30239
   1   19851.6    503.7   0.358089463   5.93843   0.64280  -2.30573   0.45699
   2   21912.8    456.4   0.100180241   1.50508   0.24607  -1.10710   0.46781
   3   25537.6    391.6   0.229151463   2.95405   0.04762  -1.32724   1.09097
   4   25621.1    390.3   0.180800516   2.32316   0.20897   1.27430   0.80973
   5   26456.4    378.0   0.066848959   0.83184   0.08710  -0.45128   0.78778
   6   26820.2    372.9   0.155765581   1.91199  -0.33150  -0.98653   0.91042
   7   27527.9    363.3   0.269173801   3.21910  -0.18021   0.24152  -1.76870
   8   28020.7    356.9   0.136470822   1.60338  -0.13406   1.13949   0.53569
   9   28415.5    351.9   0.031318354   0.36284   0.06601   0.17499   0.57259
  10   28995.2    344.9   0.031002091   0.35200  -0.25031   0.00577  -0.53787
  11   30135.0    331.8   0.134926036   1.47401  -0.51133  -0.59370   0.92740
  12   30196.7    331.2   0.509335100   5.55289   0.48814   2.29288   0.23944
  13   30801.7    324.7   0.012139342   0.12975   0.28684   0.00270   0.21785
  14   30919.1    323.4   0.140969807   1.50098   1.11713  -0.40593  -0.29701
  15   31110.3    321.4   0.005409368   0.05724  -0.03640   0.16252   0.17177
  16   32214.6    310.4   0.384137735   3.92563  -0.26793  -1.38719  -1.38908
  17   32405.1    308.6   0.111178012   1.12949   0.63540   0.74279   0.41716
  18   32612.7    306.6   0.180508556   1.82216   0.00325  -0.89778  -1.00804
  19   33119.0    301.9   0.271907134   2.70283  -0.11656   0.16958  -1.63110
  20   33238.3    300.9   0.004319507   0.04278  -0.10490   0.06600  -0.16560
  21   33398.4    299.4   0.013982712   0.13783   0.09514  -0.04070   0.35654
  22   33913.5    294.9   0.395306210   3.83740   0.25955   0.05093  -1.94099
  23   34207.4    292.3   0.033916165   0.32641  -0.33110   0.38479  -0.26214
  24   34594.5    289.1   0.022365076   0.21283   0.44011  -0.13761  -0.01425
  25   34822.2    287.2   0.115772339   1.09452  -0.28585  -0.16759   0.99233
  26   36281.7    275.6   0.011814464   0.10720   0.11669  -0.18498   0.24365
  27   36603.8    273.2   0.010823596   0.09735   0.10827  -0.22424   0.18800
  28   37115.5    269.4   0.179988107   1.59648   0.15604  -0.88425   0.88895
  29   37293.2    268.1   0.034397689   0.30365  -0.39525   0.29842  -0.24160
  30   37471.8    266.9   0.092552021   0.81312  -0.48081  -0.39544   0.65236
  31   38612.1    259.0   0.099732530   0.85033   0.74272  -0.13143   0.53049
  32   38789.4    257.8   0.112713489   0.95662   0.01549   0.34176  -0.91629
  33   38966.5    256.6   0.060670052   0.51258   0.57126   0.22187  -0.37015
  34   39251.4    254.8   0.032284785   0.27078  -0.45071   0.18068  -0.18707
  35   39349.3    254.1   0.002681757   0.02244   0.07989  -0.00249   0.12668
  36   39757.4    251.5   0.043141952   0.35724  -0.13685  -0.57125   0.11037
  37   39890.1    250.7   0.125046596   1.03201  -0.89773   0.17971   0.44022
  38   39966.0    250.2   0.128451377   1.05809   0.77518   0.20658  -0.64383
  39   40120.6    249.2   0.032289997   0.26496   0.27279   0.28131  -0.33378

FINAL SINGLE POINT ENERGY     -9545.553009238580

DIPOLE MOMENT
-------------
                                X             Y             Z
Electronic contribution:     44.30320     -83.69398    -103.95655
Nuclear contribution   :    -45.46983      82.33633     103.04349
                        -----------------------------------------
Total Dipole Moment    :     -1.16663      -1.35765      -0.91306
                        -----------------------------------------
Magnitude (a.u.)       :      2.00945
Magnitude (Debye)      :      5.10763

Rotational constants in cm-1:     0.001211     0.000138     0.000129
Rotational constants in MHz :    36.311164     4.144988     3.864251

                             ****ORCA TERMINATED NORMALLY****
TOTAL RUN TIME: 0 days 0 hours 9 minutes 56 seconds 970 msec
