                         Program Version 4.2.0 -  RELEASE  -
|  1> # ORCA input file
|  2> # SCF done       -171.707438608535          0.000895402129
|  3> ! CAM-B3LYP def2-SVP def2/J RIJCOSX Grid4 TightSCF
|  4> %maxcore 5000
|  5> %tddft
|  6>     Mode sTDDFT
|  7>     Ethresh 5.0
|  8>     maxcore 5000
|  9> end
| 10>
| 11> %pal
| 12>   nprocs 6
| 13>   end
| 14> * xyz 0 1
| 15>    C       -9.94433        -0.18067         2.17658
| 16>    C       -9.47296        -0.69542         3.35585
| 17>    C      -10.29846        -1.24493         4.35896
| 18>    N      -10.92282        -1.70984         5.20254
| 19>    C       -8.12041        -0.68076         3.76097
| 20>    N       -7.05342        -0.66023         4.18305
| 21>    C      -11.34583        -0.02628         1.81313
| 22>    C      -11.42340         0.74464         0.62769
| 23>    C      -12.61888         1.07415         0.03645
| 24>    C      -13.79433         0.61714         0.64129
| 25>    C      -13.70654        -0.15764         1.82313
| 26>    C      -12.49794        -0.48759         2.42324
| 27>    S      -15.27727        -0.62792         2.39710
| 28>    C      -16.02102         0.21438         1.06347
| 29>    C      -15.14014         0.81553         0.22861
| 30>   Br      -17.88847         0.21315         0.89424
| 31>    C      -10.06291         1.09350         0.16622
| 32>    O       -9.78937         1.75193        -0.81001
| 33>    C       -9.14261         0.40826         1.11736
| 34>    C       -7.80749         0.19032         0.94569
| 35>    C       -6.93693         0.75751        -0.01250
| 36>    O       -7.22923         1.85521        -0.75639
| 37>    C       -5.64999         0.35330        -0.33832
| 38>    C       -4.62333        -0.66563        -0.07799
| 39>    O       -4.62036        -1.62104         0.64921
| 40>    N       -3.57725        -0.29121        -0.92224
| 41>    C       -3.81735         0.83460        -1.70204
| 42>    O       -3.03984         1.30862        -2.49416
| 43>    C       -5.17090         1.24233        -1.32152
| 44>    C       -6.18653         2.16547        -1.55269
| 45>    C       -6.26381         3.27871        -2.42889
| 46>    C       -5.22844         3.61506        -3.23421
| 47>    C       -5.25381         4.70582        -4.15044
| 48>    C       -4.26490         5.03323        -5.00658
| 49>    C       -2.95225         4.33480        -5.11773
| 50>    C       -4.42059         6.22981        -5.91583
| 51>    N       -3.58604         7.33023        -5.48044
| 52>    C       -2.26675         7.39379        -5.80522
| 53>    C       -1.34805         8.11966        -5.13057
| 54>    C        0.02124         8.23595        -5.49844
| 55>    S        1.03999         9.34119        -4.59543
| 56>    C        2.39555         8.89668        -5.55210
| 57>    C        2.07243         7.94119        -6.51302
| 58>    C        0.73321         7.57173        -6.48472
| 59>    C        3.29295         7.55998        -7.31887
| 60>    C        3.64051         6.08087        -7.12751
| 61>    C        3.11146         7.88604        -8.80313
| 62>    C        4.33292         8.45165        -6.68082
| 63>    C        3.76922         9.21233        -5.65567
| 64>    S        4.90450        10.25082        -4.89496
| 65>    C        6.15735         9.65444        -5.96730
| 66>    C        5.68677         8.70141        -6.85445
| 67>    C        7.47574        10.16187        -5.85859
| 68>    S        8.79432         9.59778        -6.86491
| 69>    C        9.95552        10.64776        -6.15120
| 70>    C        9.37098        11.41118        -5.17298
| 71>    C        7.97612        11.12824        -5.01698
| 72>    O        7.43079        11.89954        -4.04931
| 73>    C        8.45625        12.66612        -3.59079
| 74>    N        8.17564        13.59099        -2.55607
| 75>    O        9.11190        14.26505        -2.16702
| 76>    O        7.04181        13.65016        -2.13408
| 77>    C        9.64905        12.42781        -4.21709
| 78>    H      -12.64652         1.66639        -0.86478
| 79>    H      -12.48110        -1.08521         3.31924
| 80>    H      -15.42606         1.37439        -0.64366
| 81>    H       -7.30927        -0.52793         1.58525
| 82>    H       -2.70957        -0.80644        -0.96735
| 83>    H       -7.19249         3.83044        -2.42200
| 84>    H       -4.33399         3.01298        -3.18518
| 85>    H       -6.16323         5.29504        -4.16152
| 86>    H       -2.83450         3.53796        -4.39278
| 87>    H       -2.13923         5.04978        -4.98067
| 88>    H       -2.84696         3.91100        -6.11669
| 89>    H       -5.45858         6.57241        -5.92762
| 90>    H       -4.12666         5.97053        -6.93689
| 91>    H       -3.83267         7.72068        -4.58088
| 92>    H       -1.99947         6.86776        -6.71045
| 93>    H       -1.65312         8.66570        -4.24819
| 94>    H        0.28849         6.84559        -7.14009
| 95>    H        2.84477         5.45501        -7.52411
| 96>    H        3.76593         5.85720        -6.07061
| 97>    H        4.56608         5.84432        -7.64647
| 98>    H        2.30658         7.28677        -9.22184
| 99>    H        4.02818         7.67276        -9.34733
|100>    H        2.86615         8.93782        -8.93076
|101>    H        6.32453         8.23177        -7.58197
|102>    H       10.96917        10.63375        -6.49218
|103>    H       10.57752        12.91839        -4.01097
|104> *
|105>
|106>                          ****END OF INPUT****

CARTESIAN COORDINATES (ANGSTROEM)
---------------------------------
  C     -9.944330   -0.180670    2.176580
  C     -9.472960   -0.695420    3.355850
  C    -10.298460   -1.244930    4.358960
  N    -10.922820   -1.709840    5.202540
  C     -8.120410   -0.680760    3.760970
  N     -7.053420   -0.660230    4.183050
  C    -11.345830   -0.026280    1.813130
  C    -11.423400    0.744640    0.627690
  C    -12.618880    1.074150    0.036450
  C    -13.794330    0.617140    0.641290
  C    -13.706540   -0.157640    1.823130
  C    -12.497940   -0.487590    2.423240
  S    -15.277270   -0.627920    2.397100
  C    -16.021020    0.214380    1.063470
  C    -15.140140    0.815530    0.228610
  Br   -17.888470    0.213150    0.894240
  C    -10.062910    1.093500    0.166220
  O     -9.789370    1.751930   -0.810010
  C     -9.142610    0.408260    1.117360
  C     -7.807490    0.190320    0.945690
  C     -6.936930    0.757510   -0.012500
  O     -7.229230    1.855210   -0.756390
  C     -5.649990    0.353300   -0.338320
  C     -4.623330   -0.665630   -0.077990
  O     -4.620360   -1.621040    0.649210
  N     -3.577250   -0.291210   -0.922240
  C     -3.817350    0.834600   -1.702040
  O     -3.039840    1.308620   -2.494160
  C     -5.170900    1.242330   -1.321520
  C     -6.186530    2.165470   -1.552690
  C     -6.263810    3.278710   -2.428890
  C     -5.228440    3.615060   -3.234210
  C     -5.253810    4.705820   -4.150440
  C     -4.264900    5.033230   -5.006580
  C     -2.952250    4.334800   -5.117730
  C     -4.420590    6.229810   -5.915830
  N     -3.586040    7.330230   -5.480440
  C     -2.266750    7.393790   -5.805220
  C     -1.348050    8.119660   -5.130570
  C      0.021240    8.235950   -5.498440
  S      1.039990    9.341190   -4.595430
  C      2.395550    8.896680   -5.552100
  C      2.072430    7.941190   -6.513020
  C      0.733210    7.571730   -6.484720
  C      3.292950    7.559980   -7.318870
  C      3.640510    6.080870   -7.127510
  C      3.111460    7.886040   -8.803130
  C      4.332920    8.451650   -6.680820
  C      3.769220    9.212330   -5.655670
  S      4.904500   10.250820   -4.894960
  C      6.157350    9.654440   -5.967300
  C      5.686770    8.701410   -6.854450
  C      7.475740   10.161870   -5.858590
  S      8.794320    9.597780   -6.864910
  C      9.955520   10.647760   -6.151200
  C      9.370980   11.411180   -5.172980
  C      7.976120   11.128240   -5.016980
  O      7.430790   11.899540   -4.049310
  C      8.456250   12.666120   -3.590790
  N      8.175640   13.590990   -2.556070
  O      9.111900   14.265050   -2.167020
  O      7.041810   13.650160   -2.134080
  C      9.649050   12.427810   -4.217090
  H    -12.646520    1.666390   -0.864780
  H    -12.481100   -1.085210    3.319240
  H    -15.426060    1.374390   -0.643660
  H     -7.309270   -0.527930    1.585250
  H     -2.709570   -0.806440   -0.967350
  H     -7.192490    3.830440   -2.422000
  H     -4.333990    3.012980   -3.185180
  H     -6.163230    5.295040   -4.161520
  H     -2.834500    3.537960   -4.392780
  H     -2.139230    5.049780   -4.980670
  H     -2.846960    3.911000   -6.116690
  H     -5.458580    6.572410   -5.927620
  H     -4.126660    5.970530   -6.936890
  H     -3.832670    7.720680   -4.580880
  H     -1.999470    6.867760   -6.710450
  H     -1.653120    8.665700   -4.248190
  H      0.288490    6.845590   -7.140090
  H      2.844770    5.455010   -7.524110
  H      3.765930    5.857200   -6.070610
  H      4.566080    5.844320   -7.646470
  H      2.306580    7.286770   -9.221840
  H      4.028180    7.672760   -9.347330
  H      2.866150    8.937820   -8.930760
  H      6.324530    8.231770   -7.581970
  H     10.969170   10.633750   -6.492180
  H     10.577520   12.918390   -4.010970

 Total Charge           Charge          ....    0
 Multiplicity           Mult            ....    1
 Number of Electrons    NEL             ....  492
 Basis Dimension        Dim             .... 1046

ORBITAL ENERGIES
----------------

  NO   OCC          E(Eh)            E(eV)
   0   2.0000    -482.888451    -13140.0628
   1   2.0000     -88.978645     -2421.2320
   2   2.0000     -88.970079     -2420.9989
   3   2.0000     -88.952948     -2420.5328
   4   2.0000     -88.946687     -2420.3624
   5   2.0000     -62.566155     -1702.5116
   6   2.0000     -56.400109     -1534.7250
   7   2.0000     -56.397387     -1534.6509
   8   2.0000     -56.397356     -1534.6501
   9   2.0000     -19.316657      -525.6330
  10   2.0000     -19.302266      -525.2414
  11   2.0000     -19.239114      -523.5229
  12   2.0000     -19.236347      -523.4476
  13   2.0000     -19.223888      -523.1086
  14   2.0000     -19.222458      -523.0697
  15   2.0000     -19.218331      -522.9574
  16   2.0000     -14.650278      -398.6543
  17   2.0000     -14.463969      -393.5846
  18   2.0000     -14.435411      -392.8075
  19   2.0000     -14.418343      -392.3431
  20   2.0000     -14.416370      -392.2894
  21   2.0000     -10.411556      -283.3128
  22   2.0000     -10.410667      -283.2886
  23   2.0000     -10.382208      -282.5142
  24   2.0000     -10.376730      -282.3652
  25   2.0000     -10.372157      -282.2407
  26   2.0000     -10.368474      -282.1405
  27   2.0000     -10.362133      -281.9680
  28   2.0000     -10.346958      -281.5550
  29   2.0000     -10.344594      -281.4907
  30   2.0000     -10.337731      -281.3040
  31   2.0000     -10.329068      -281.0682
  32   2.0000     -10.328735      -281.0592
  33   2.0000     -10.320709      -280.8408
  34   2.0000     -10.320358      -280.8312
  35   2.0000     -10.318292      -280.7750
  36   2.0000     -10.314941      -280.6838
  37   2.0000     -10.312572      -280.6193
  38   2.0000     -10.311761      -280.5973
  39   2.0000     -10.311128      -280.5801
  40   2.0000     -10.309388      -280.5327
  41   2.0000     -10.309259      -280.5292
  42   2.0000     -10.308905      -280.5196
  43   2.0000     -10.306930      -280.4658
  44   2.0000     -10.304943      -280.4117
  45   2.0000     -10.304275      -280.3936
  46   2.0000     -10.300759      -280.2979
  47   2.0000     -10.299750      -280.2704
  48   2.0000     -10.299489      -280.2633
  49   2.0000     -10.298705      -280.2420
  50   2.0000     -10.297765      -280.2164
  51   2.0000     -10.295784      -280.1625
  52   2.0000     -10.294291      -280.1219
  53   2.0000     -10.293849      -280.1099
  54   2.0000     -10.292621      -280.0765
  55   2.0000     -10.291312      -280.0408
  56   2.0000     -10.284933      -279.8672
  57   2.0000     -10.283581      -279.8305
  58   2.0000     -10.282758      -279.8081
  59   2.0000     -10.273719      -279.5621
  60   2.0000     -10.271409      -279.4992
  61   2.0000     -10.261011      -279.2163
  62   2.0000     -10.260552      -279.2038
  63   2.0000     -10.260385      -279.1993
  64   2.0000     -10.259337      -279.1708
  65   2.0000     -10.258778      -279.1555
  66   2.0000     -10.258694      -279.1533
  67   2.0000      -8.795579      -239.3399
  68   2.0000      -8.074597      -219.7210
  69   2.0000      -8.064897      -219.4570
  70   2.0000      -8.047726      -218.9898
  71   2.0000      -8.041862      -218.8302
  72   2.0000      -6.631890      -180.4629
  73   2.0000      -6.617317      -180.0664
  74   2.0000      -6.617102      -180.0605
  75   2.0000      -6.044301      -164.4738
  76   2.0000      -6.040004      -164.3569
  77   2.0000      -6.035826      -164.2432
  78   2.0000      -6.034317      -164.2021
  79   2.0000      -6.029932      -164.0828
  80   2.0000      -6.027141      -164.0069
  81   2.0000      -6.017172      -163.7356
  82   2.0000      -6.013013      -163.6224
  83   2.0000      -6.011209      -163.5733
  84   2.0000      -6.009629      -163.5303
  85   2.0000      -6.007235      -163.4652
  86   2.0000      -6.003822      -163.3723
  87   2.0000      -2.747746       -74.7700
  88   2.0000      -2.743677       -74.6592
  89   2.0000      -2.743516       -74.6549
  90   2.0000      -2.731932       -74.3397
  91   2.0000      -2.731907       -74.3390
  92   2.0000      -1.321850       -35.9694
  93   2.0000      -1.238080       -33.6899
  94   2.0000      -1.222350       -33.2618
  95   2.0000      -1.166686       -31.7471
  96   2.0000      -1.146520       -31.1984
  97   2.0000      -1.138137       -30.9703
  98   2.0000      -1.134728       -30.8775
  99   2.0000      -1.053557       -28.6688
 100   2.0000      -1.039166       -28.2771
 101   2.0000      -1.026310       -27.9273
 102   2.0000      -1.015921       -27.6446
 103   2.0000      -1.001519       -27.2527
 104   2.0000      -0.995868       -27.0989
 105   2.0000      -0.993174       -27.0257
 106   2.0000      -0.989550       -26.9270
 107   2.0000      -0.960358       -26.1327
 108   2.0000      -0.950614       -25.8675
 109   2.0000      -0.941737       -25.6260
 110   2.0000      -0.934492       -25.4288
 111   2.0000      -0.929895       -25.3037
 112   2.0000      -0.922169       -25.0935
 113   2.0000      -0.913911       -24.8688
 114   2.0000      -0.911490       -24.8029
 115   2.0000      -0.897352       -24.4182
 116   2.0000      -0.889117       -24.1941
 117   2.0000      -0.884183       -24.0598
 118   2.0000      -0.875580       -23.8258
 119   2.0000      -0.866626       -23.5821
 120   2.0000      -0.850410       -23.1408
 121   2.0000      -0.837126       -22.7794
 122   2.0000      -0.831916       -22.6376
 123   2.0000      -0.824683       -22.4408
 124   2.0000      -0.816030       -22.2053
 125   2.0000      -0.811069       -22.0703
 126   2.0000      -0.800852       -21.7923
 127   2.0000      -0.791015       -21.5246
 128   2.0000      -0.781255       -21.2590
 129   2.0000      -0.779308       -21.2061
 130   2.0000      -0.771030       -20.9808
 131   2.0000      -0.770100       -20.9555
 132   2.0000      -0.764641       -20.8069
 133   2.0000      -0.761224       -20.7140
 134   2.0000      -0.744090       -20.2477
 135   2.0000      -0.723999       -19.7010
 136   2.0000      -0.714511       -19.4428
 137   2.0000      -0.708979       -19.2923
 138   2.0000      -0.702149       -19.1064
 139   2.0000      -0.696340       -18.9484
 140   2.0000      -0.689433       -18.7604
 141   2.0000      -0.687711       -18.7136
 142   2.0000      -0.681390       -18.5416
 143   2.0000      -0.676090       -18.3973
 144   2.0000      -0.661803       -18.0086
 145   2.0000      -0.650218       -17.6933
 146   2.0000      -0.638195       -17.3662
 147   2.0000      -0.635315       -17.2878
 148   2.0000      -0.633797       -17.2465
 149   2.0000      -0.631739       -17.1905
 150   2.0000      -0.624670       -16.9981
 151   2.0000      -0.621691       -16.9171
 152   2.0000      -0.620176       -16.8759
 153   2.0000      -0.613632       -16.6978
 154   2.0000      -0.609834       -16.5944
 155   2.0000      -0.604949       -16.4615
 156   2.0000      -0.604572       -16.4512
 157   2.0000      -0.600667       -16.3450
 158   2.0000      -0.595248       -16.1975
 159   2.0000      -0.590579       -16.0705
 160   2.0000      -0.585529       -15.9331
 161   2.0000      -0.581488       -15.8231
 162   2.0000      -0.580702       -15.8017
 163   2.0000      -0.572986       -15.5918
 164   2.0000      -0.568437       -15.4680
 165   2.0000      -0.564209       -15.3529
 166   2.0000      -0.560217       -15.2443
 167   2.0000      -0.556044       -15.1307
 168   2.0000      -0.554012       -15.0754
 169   2.0000      -0.552412       -15.0319
 170   2.0000      -0.545906       -14.8549
 171   2.0000      -0.544756       -14.8236
 172   2.0000      -0.542557       -14.7637
 173   2.0000      -0.539499       -14.6805
 174   2.0000      -0.532662       -14.4945
 175   2.0000      -0.530322       -14.4308
 176   2.0000      -0.529234       -14.4012
 177   2.0000      -0.523017       -14.2320
 178   2.0000      -0.519490       -14.1360
 179   2.0000      -0.517496       -14.0818
 180   2.0000      -0.516159       -14.0454
 181   2.0000      -0.511239       -13.9115
 182   2.0000      -0.511023       -13.9057
 183   2.0000      -0.510060       -13.8794
 184   2.0000      -0.506634       -13.7862
 185   2.0000      -0.501330       -13.6419
 186   2.0000      -0.498855       -13.5745
 187   2.0000      -0.496584       -13.5127
 188   2.0000      -0.495472       -13.4825
 189   2.0000      -0.493053       -13.4167
 190   2.0000      -0.488864       -13.3027
 191   2.0000      -0.487635       -13.2692
 192   2.0000      -0.478526       -13.0213
 193   2.0000      -0.475633       -12.9426
 194   2.0000      -0.471722       -12.8362
 195   2.0000      -0.470123       -12.7927
 196   2.0000      -0.467738       -12.7278
 197   2.0000      -0.463348       -12.6083
 198   2.0000      -0.461283       -12.5522
 199   2.0000      -0.460396       -12.5280
 200   2.0000      -0.459669       -12.5082
 201   2.0000      -0.457817       -12.4578
 202   2.0000      -0.455374       -12.3914
 203   2.0000      -0.450529       -12.2595
 204   2.0000      -0.450254       -12.2520
 205   2.0000      -0.447501       -12.1771
 206   2.0000      -0.445060       -12.1107
 207   2.0000      -0.443284       -12.0624
 208   2.0000      -0.441662       -12.0182
 209   2.0000      -0.440617       -11.9898
 210   2.0000      -0.437391       -11.9020
 211   2.0000      -0.428475       -11.6594
 212   2.0000      -0.427026       -11.6200
 213   2.0000      -0.425797       -11.5865
 214   2.0000      -0.420924       -11.4539
 215   2.0000      -0.420083       -11.4310
 216   2.0000      -0.419692       -11.4204
 217   2.0000      -0.417477       -11.3601
 218   2.0000      -0.411000       -11.1839
 219   2.0000      -0.410386       -11.1672
 220   2.0000      -0.396902       -10.8003
 221   2.0000      -0.394470       -10.7341
 222   2.0000      -0.392731       -10.6868
 223   2.0000      -0.391364       -10.6495
 224   2.0000      -0.389953       -10.6111
 225   2.0000      -0.384958       -10.4752
 226   2.0000      -0.383020       -10.4225
 227   2.0000      -0.380147       -10.3443
 228   2.0000      -0.377776       -10.2798
 229   2.0000      -0.375041       -10.2054
 230   2.0000      -0.371465       -10.1081
 231   2.0000      -0.366341        -9.9687
 232   2.0000      -0.361361        -9.8331
 233   2.0000      -0.356880        -9.7112
 234   2.0000      -0.355764        -9.6808
 235   2.0000      -0.339739        -9.2448
 236   2.0000      -0.327727        -8.9179
 237   2.0000      -0.321042        -8.7360
 238   2.0000      -0.318374        -8.6634
 239   2.0000      -0.317137        -8.6297
 240   2.0000      -0.308649        -8.3988
 241   2.0000      -0.306844        -8.3497
 242   2.0000      -0.296864        -8.0781
 243   2.0000      -0.275140        -7.4869
 244   2.0000      -0.263130        -7.1601
 245   2.0000      -0.209906        -5.7118
 246   0.0000      -0.102571        -2.7911
 247   0.0000      -0.065035        -1.7697
 248   0.0000      -0.061066        -1.6617
 249   0.0000      -0.057976        -1.5776
 250   0.0000      -0.025783        -0.7016

MULLIKEN ATOMIC CHARGES
-----------------------
   0 C :    0.292279
   1 C :   -0.335134
   2 C :   -0.183682
   3 N :    0.153702
   4 C :   -0.206192
   5 N :    0.172139
   6 C :    0.021283
   7 C :   -0.023326
   8 C :   -0.068686
   9 C :    0.117415
  10 C :   -0.091084
  11 C :   -0.017571
  12 S :    0.188633
  13 C :   -0.123121
  14 C :    0.039147
  15 Br:    0.025615
  16 C :    0.136386
  17 O :   -0.130624
  18 C :   -0.061504
  19 C :   -0.057712
  20 C :    0.074586
  21 O :   -0.158837
  22 C :   -0.013725
  23 C :    0.175887
  24 O :   -0.123761
  25 N :   -0.162568
  26 C :    0.196297
  27 O :   -0.161202
  28 C :   -0.104058
  29 C :    0.154824
  30 C :   -0.018365
  31 C :    0.017550
  32 C :    0.004276
  33 C :   -0.167085
  34 C :    0.085295
  35 C :    0.197218
  36 N :   -0.155689
  37 C :    0.039282
  38 C :    0.012171
  39 C :   -0.073348
  40 S :    0.130909
  41 C :   -0.104336
  42 C :    0.010435
  43 C :   -0.060545
  44 C :   -0.105322
  45 C :    0.107374
  46 C :    0.104533
  47 C :    0.017759
  48 C :   -0.086470
  49 S :    0.170646
  50 C :   -0.051276
  51 C :   -0.087800
  52 C :   -0.178235
  53 S :    0.147302
  54 C :   -0.149856
  55 C :    0.133360
  56 C :    0.167918
  57 O :   -0.193828
  58 C :    0.238491
  59 N :    0.274570
  60 O :   -0.253188
  61 O :   -0.227473
  62 C :   -0.076103
  63 H :   -0.010872
  64 H :   -0.004849
  65 H :   -0.002896
  66 H :    0.043734
  67 H :    0.142585
  68 H :   -0.003483
  69 H :    0.020979
  70 H :   -0.025765
  71 H :    0.033753
  72 H :    0.047737
  73 H :    0.022165
  74 H :    0.011112
  75 H :    0.015630
  76 H :    0.114775
  77 H :    0.001146
  78 H :   -0.033614
  79 H :   -0.045314
  80 H :    0.004613
  81 H :    0.021803
  82 H :    0.005665
  83 H :    0.005166
  84 H :    0.006095
  85 H :    0.021663
  86 H :   -0.025475
  87 H :    0.027695
  88 H :    0.010376
Sum of atomic charges:   -0.0000000

LOEWDIN ATOMIC CHARGES
----------------------
   0 C :    0.071490
   1 C :   -0.132765
   2 C :   -0.017727
   3 N :   -0.048729
   4 C :   -0.028560
   5 N :   -0.039092
   6 C :   -0.021242
   7 C :   -0.051155
   8 C :    0.021513
   9 C :   -0.031829
  10 C :   -0.143191
  11 C :   -0.009432
  12 S :    0.434214
  13 C :   -0.270603
  14 C :   -0.070742
  15 Br:    0.138585
  16 C :    0.076265
  17 O :   -0.133468
  18 C :   -0.077667
  19 C :    0.047122
  20 C :    0.038642
  21 O :    0.050593
  22 C :   -0.057421
  23 C :    0.087307
  24 O :   -0.138631
  25 N :   -0.002332
  26 C :    0.091778
  27 O :   -0.165089
  28 C :   -0.115446
  29 C :    0.094901
  30 C :   -0.057266
  31 C :    0.032691
  32 C :   -0.060955
  33 C :   -0.005371
  34 C :   -0.050653
  35 C :    0.044626
  36 N :   -0.012629
  37 C :    0.031030
  38 C :   -0.135907
  39 C :   -0.148848
  40 S :    0.423338
  41 C :   -0.216448
  42 C :   -0.032920
  43 C :   -0.086278
  44 C :   -0.033718
  45 C :   -0.024561
  46 C :   -0.025366
  47 C :   -0.049264
  48 C :   -0.188768
  49 S :    0.449462
  50 C :   -0.197360
  51 C :   -0.059159
  52 C :   -0.208561
  53 S :    0.468604
  54 C :   -0.196905
  55 C :   -0.080490
  56 C :    0.003574
  57 O :   -0.005709
  58 C :    0.027167
  59 N :    0.272141
  60 O :   -0.213339
  61 O :   -0.190000
  62 C :   -0.010285
  63 H :    0.040538
  64 H :    0.041325
  65 H :    0.038957
  66 H :    0.060478
  67 H :    0.097332
  68 H :    0.040653
  69 H :    0.032974
  70 H :    0.025500
  71 H :    0.037624
  72 H :    0.043917
  73 H :    0.038886
  74 H :    0.027417
  75 H :    0.030768
  76 H :    0.076997
  77 H :    0.023477
  78 H :    0.020703
  79 H :    0.019925
  80 H :    0.021110
  81 H :    0.030449
  82 H :    0.021557
  83 H :    0.021258
  84 H :    0.021722
  85 H :    0.030345
  86 H :    0.023732
  87 H :    0.027090
  88 H :    0.046107

  Mayer bond orders larger than 0.100000
B(  0-C ,  1-C ) :   1.6495 B(  0-C ,  6-C ) :   1.0100 B(  0-C , 18-C ) :   1.0477
B(  1-C ,  2-C ) :   1.1400 B(  1-C ,  4-C ) :   1.1373 B(  2-C ,  3-N ) :   2.9744
B(  4-C ,  5-N ) :   3.0018 B(  6-C ,  7-C ) :   1.2727 B(  6-C , 11-C ) :   1.4071
B(  7-C ,  8-C ) :   1.4265 B(  7-C , 16-C ) :   0.9396 B(  8-C ,  9-C ) :   1.2498
B(  8-C , 63-H ) :   1.0154 B(  9-C , 10-C ) :   1.3023 B(  9-C , 14-C ) :   1.1637
B( 10-C , 11-C ) :   1.3331 B( 10-C , 12-S ) :   1.0864 B( 11-C , 64-H ) :   0.9807
B( 12-S , 13-C ) :   1.0867 B( 13-C , 14-C ) :   1.6177 B( 13-C , 15-Br) :   1.0196
B( 14-C , 65-H ) :   1.0001 B( 16-C , 17-O ) :   2.2702 B( 16-C , 18-C ) :   0.9223
B( 18-C , 19-C ) :   1.5733 B( 19-C , 20-C ) :   1.2057 B( 19-C , 66-H ) :   0.9371
B( 20-C , 21-O ) :   1.1469 B( 20-C , 22-C ) :   1.3770 B( 21-O , 29-C ) :   1.1919
B( 22-C , 23-C ) :   0.8682 B( 22-C , 28-C ) :   1.3212 B( 23-C , 24-O ) :   2.2678
B( 23-C , 25-N ) :   1.0764 B( 25-N , 26-C ) :   1.1035 B( 25-N , 67-H ) :   0.9147
B( 26-C , 27-O ) :   2.1631 B( 26-C , 28-C ) :   0.8909 B( 28-C , 29-C ) :   1.3636
B( 29-C , 30-C ) :   1.1472 B( 30-C , 31-C ) :   1.6307 B( 30-C , 68-H ) :   0.9823
B( 31-C , 32-C ) :   1.1209 B( 31-C , 69-H ) :   0.9553 B( 32-C , 33-C ) :   1.7314
B( 32-C , 70-H ) :   0.9782 B( 33-C , 34-C ) :   1.0811 B( 33-C , 35-C ) :   1.0309
B( 34-C , 71-H ) :   0.9485 B( 34-C , 72-H ) :   0.9342 B( 34-C , 73-H ) :   0.9403
B( 35-C , 36-N ) :   1.0270 B( 35-C , 74-H ) :   0.9447 B( 35-C , 75-H ) :   0.9301
B( 36-N , 37-C ) :   1.1955 B( 36-N , 76-H ) :   0.9393 B( 37-C , 38-C ) :   1.6594
B( 37-C , 77-H ) :   0.9600 B( 38-C , 39-C ) :   1.1283 B( 38-C , 78-H ) :   0.9504
B( 39-C , 40-S ) :   1.1176 B( 39-C , 43-C ) :   1.4772 B( 40-S , 41-C ) :   1.0604
B( 41-C , 42-C ) :   1.5453 B( 41-C , 48-C ) :   1.1790 B( 42-C , 43-C ) :   1.3067
B( 42-C , 44-C ) :   0.9447 B( 43-C , 79-H ) :   0.9958 B( 44-C , 45-C ) :   1.0343
B( 44-C , 46-C ) :   1.0345 B( 44-C , 47-C ) :   0.9413 B( 45-C , 80-H ) :   0.9640
B( 45-C , 81-H ) :   0.9644 B( 45-C , 82-H ) :   0.9643 B( 46-C , 83-H ) :   0.9643
B( 46-C , 84-H ) :   0.9644 B( 46-C , 85-H ) :   0.9649 B( 47-C , 48-C ) :   1.5354
B( 47-C , 51-C ) :   1.3113 B( 48-C , 49-S ) :   1.0808 B( 49-S , 50-C ) :   1.1051
B( 50-C , 51-C ) :   1.4482 B( 50-C , 52-C ) :   1.1712 B( 51-C , 86-H ) :   1.0031
B( 52-C , 53-S ) :   1.1394 B( 52-C , 54-C ) :   0.1168 B( 52-C , 56-C ) :   1.4823
B( 53-S , 54-C ) :   1.1668 B( 54-C , 55-C ) :   1.4462 B( 54-C , 87-H ) :   0.9760
B( 55-C , 56-C ) :   1.2095 B( 55-C , 62-C ) :   1.0550 B( 56-C , 57-O ) :   1.0967
B( 57-O , 58-C ) :   1.1242 B( 58-C , 59-N ) :   0.9163 B( 58-C , 62-C ) :   1.5827
B( 59-N , 60-O ) :   1.5310 B( 59-N , 61-O ) :   1.5167 B( 60-O , 61-O ) :   0.2799
B( 62-C , 88-H ) :   1.0249

-----------------------------------------------------------------------------
         ABSORPTION SPECTRUM VIA TRANSITION ELECTRIC DIPOLE MOMENTS
-----------------------------------------------------------------------------
State   Energy  Wavelength   fosc         T2         TX        TY        TZ
        (cm-1)    (nm)                  (au**2)     (au)      (au)      (au)
-----------------------------------------------------------------------------
   0   14988.1    667.2   0.230106320   5.05424   1.75010   1.08868  -0.89786
   1   18173.1    550.3   0.332894291   6.03051  -2.33417  -0.72474   0.23858
   2   20714.2    482.8   0.663102932  10.53875  -2.49999  -1.55658   1.36596
   3   21315.8    469.1   0.539704931   8.33547  -2.05823  -0.65956   1.91419
   4   24566.9    407.1   0.000915317   0.01227   0.04125  -0.05259   0.08831
   5   24753.0    404.0   0.997699732  13.26927   3.41805   1.20479   0.36702
   6   25948.3    385.4   0.115717578   1.46814  -1.16351   0.03665  -0.33621
   7   26792.9    373.2   0.037789162   0.46433  -0.60076   0.10746  -0.30309
   8   27826.9    359.4   0.029694089   0.35130  -0.54807   0.04949   0.22017
   9   28734.7    348.0   0.103056835   1.18072  -1.07850   0.05590  -0.12011
  10   29151.4    343.0   0.079863238   0.90191   0.77155  -0.27562   0.48026
  11   29890.3    334.6   0.235859662   2.59776   0.22726  -1.32794   0.88469
  12   30063.3    332.6   0.267360707   2.92777   1.01365   0.72369  -1.17326
  13   32091.1    311.6   0.018551661   0.19032  -0.30511   0.04214  -0.30894
  14   32798.3    304.9   0.681634858   6.84190   2.26358  -0.61304   1.15857
  15   32819.4    304.7   0.000008973   0.00009  -0.00426   0.00065  -0.00845
  16   33101.8    302.1   0.023657671   0.23529   0.32276  -0.09799   0.34858
  17   33472.3    298.8   0.001736787   0.01708  -0.12311  -0.02016  -0.03899
  18   33808.7    295.8   0.006755243   0.06578   0.06076   0.23843  -0.07239
  19   34314.3    291.4   0.020529078   0.19696   0.42236  -0.13414   0.02405
  20   34558.9    289.4   0.228527838   2.17698   1.31794  -0.65267  -0.11850
  21   35802.9    279.3   0.245783349   2.26001   0.16124  -1.04233  -1.07125
  22   36791.5    271.8   0.074391718   0.66566   0.09888  -0.52772  -0.61433
  23   36965.7    270.5   0.007711009   0.06867   0.22795   0.06670   0.11073
  24   37043.2    270.0   0.004777136   0.04246   0.17822  -0.10304  -0.00879
  25   38115.3    262.4   0.029968178   0.25884  -0.27114  -0.07918   0.42315
  26   38290.7    261.2   0.003934931   0.03383   0.12540   0.09947  -0.09062
  27   38415.6    260.3   0.083325069   0.71408   0.61715   0.29291  -0.49740
  28   38783.3    257.8   0.210749830   1.78895   0.14883  -0.91942  -0.95993
  29   38923.8    256.9   0.039756454   0.33625  -0.26321   0.36802   0.36268
  30   39390.9    253.9   0.181072970   1.51333   0.26854   0.77806  -0.91424
  31   39632.1    252.3   0.136159580   1.13104  -0.12370   0.01678   1.05615
  32   39872.4    250.8   0.000926672   0.00765   0.03188   0.07504   0.03169
  33   39884.8    250.7   0.004032082   0.03328   0.09748   0.12384  -0.09187
  34   40083.5    249.5   0.058080613   0.47703   0.16493   0.39565  -0.54156

FINAL SINGLE POINT ENERGY     -6731.749033033724

DIPOLE MOMENT
-------------
                                X             Y             Z
Electronic contribution:   -180.67955     -60.09946      88.28744
Nuclear contribution   :    179.09230      59.49792     -92.40309
                        -----------------------------------------
Total Dipole Moment    :     -1.58725      -0.60154      -4.11565
                        -----------------------------------------
Magnitude (a.u.)       :      4.45194
Magnitude (Debye)      :     11.31592

Rotational constants in cm-1:     0.002180     0.000168     0.000165
Rotational constants in MHz :    65.353897     5.048763     4.959363

                             ****ORCA TERMINATED NORMALLY****
TOTAL RUN TIME: 0 days 0 hours 7 minutes 19 seconds 292 msec
