                         Program Version 4.2.0 -  RELEASE  -
|  1> # ORCA input file
|  2> # SCF done       -160.808414329810          0.000592915400
|  3> ! CAM-B3LYP def2-SVP def2/J RIJCOSX Grid4 TightSCF
|  4> %maxcore 5000
|  5> %tddft
|  6>     Mode sTDDFT
|  7>     Ethresh 5.0
|  8>     maxcore 5000
|  9> end
| 10>
| 11> %pal
| 12>   nprocs 6
| 13>   end
| 14> * xyz 0 1
| 15>    C       -6.26292         6.67208        -0.95915
| 16>    C       -5.72286         5.72694        -1.81520
| 17>    C       -4.87680         6.07451        -2.87144
| 18>    N       -4.26795         6.35673        -3.80920
| 19>    C       -6.09995         4.37512        -1.84361
| 20>    N       -6.38343         3.26221        -1.91087
| 21>    C       -5.92761         8.08201        -0.95092
| 22>    C       -6.88360         8.77442        -0.16411
| 23>    C       -6.85729        10.13627         0.00348
| 24>    C       -5.84162        10.85493        -0.63999
| 25>    C       -4.87193        10.15152        -1.39325
| 26>    C       -4.89379         8.77352        -1.55728
| 27>    S       -3.69307        11.22620        -2.08030
| 28>    C       -4.52368        12.58947        -1.38333
| 29>    C       -5.61755        12.25811        -0.65642
| 30>   Br       -3.86555        14.31958        -1.68351
| 31>    C       -7.85336         7.80289         0.37978
| 32>    O       -8.77716         8.04038         1.13392
| 33>    C       -7.40898         6.48381        -0.10860
| 34>    C       -7.96545         5.28471         0.25847
| 35>    N       -9.22543         5.09673         0.71006
| 36>    C      -10.32575         5.90359         0.58688
| 37>    S      -11.51597         5.76559         1.84977
| 38>    C      -12.47276         6.98490         1.08240
| 39>    N      -13.68702         7.34555         1.67410
| 40>    O      -14.35001         8.20884         1.12599
| 41>    O      -13.99561         6.76124         2.70039
| 42>    C      -11.90476         7.45987        -0.06724
| 43>    C      -10.68316         6.83528        -0.39462
| 44>    C      -10.00659         7.18812        -1.62081
| 45>    C       -9.14535         6.42701        -2.31952
| 46>    C       -8.43494         6.78970        -3.52478
| 47>    C       -8.02462         7.99840        -3.93657
| 48>    C       -8.22962         9.28201        -3.20051
| 49>    C       -7.26776         8.13343        -5.24298
| 50>    N       -5.88061         8.49385        -5.05574
| 51>    C       -5.36071         9.72908        -5.08374
| 52>    C       -6.02849        10.90239        -5.31106
| 53>    C       -5.46085        12.18733        -5.33282
| 54>    C       -4.14703        12.59550        -5.28204
| 55>    C       -3.73236        13.94626        -5.22604
| 56>    C       -2.38118        14.12844        -5.17999
| 57>    C       -1.64423        12.92930        -5.20885
| 58>    S       -2.72346        11.55891        -5.30105
| 59>    C       -0.26677        12.77495        -5.17489
| 60>    C        0.71342        13.77962        -5.09942
| 61>    C        1.99333        13.30055        -5.09776
| 62>    C        2.09546        11.89500        -5.17214
| 63>    S        0.49044        11.19721        -5.23663
| 64>    C        3.28346        11.18765        -5.19910
| 65>    C        3.48681         9.81150        -5.27726
| 66>    C        2.55642         8.77445        -5.33689
| 67>    C        3.24192         7.55908        -5.40587
| 68>    C        4.61481         7.78288        -5.39257
| 69>    C        4.89023         9.23558        -5.30964
| 70>    N        5.35143         6.65183        -5.45649
| 71>    C        4.50896         5.64628        -5.51334
| 72>    C        3.05109         6.08884        -5.48949
| 73>    C        4.90743         4.27560        -5.58953
| 74>    C        6.18292         3.87763        -5.61222
| 75>    H       -7.60303        10.63687         0.60101
| 76>    H       -4.12309         8.28344        -2.12809
| 77>    H       -6.24258        12.97336        -0.15371
| 78>    H       -7.38640         4.37380         0.17780
| 79>    H       -9.38042         4.26514         1.26831
| 80>    H      -12.37096         8.22065        -0.66733
| 81>    H      -10.30545         8.14863        -2.01303
| 82>    H       -8.98572         5.40086        -2.01385
| 83>    H       -8.16226         5.93713        -4.13694
| 84>    H       -8.43970         9.11039        -2.15004
| 85>    H       -9.06469         9.83425        -3.63368
| 86>    H       -7.34110         9.90600        -3.27862
| 87>    H       -7.74861         8.89582        -5.86185
| 88>    H       -7.29517         7.18417        -5.78485
| 89>    H       -5.26170         7.73557        -4.78281
| 90>    H       -4.29718         9.75444        -4.89537
| 91>    H       -7.09827        10.87598        -5.46042
| 92>    H       -6.17148        13.00349        -5.39635
| 93>    H       -4.44834        14.74924        -5.20716
| 94>    H       -1.90443        15.08982        -5.12316
| 95>    H        0.45905        14.82292        -5.04840
| 96>    H        2.87039        13.92176        -5.04665
| 97>    H        4.17672        11.80016        -5.15728
| 98>    H        1.48861         8.88785        -5.32965
| 99>    H        5.45373         9.59917        -6.17071
|100>    H        5.45542         9.50003        -4.41428
|101>    H        2.52485         5.67078        -4.62992
|102>    H        2.52663         5.77094        -6.39197
|103>    H        4.10268         3.55236        -5.62932
|104>    H        6.97675         4.60266        -5.57314
|105>    H        6.45437         2.83816        -5.67006
|106> *
|107>
|108>                          ****END OF INPUT****

CARTESIAN COORDINATES (ANGSTROEM)
---------------------------------
  C     -6.262920    6.672080   -0.959150
  C     -5.722860    5.726940   -1.815200
  C     -4.876800    6.074510   -2.871440
  N     -4.267950    6.356730   -3.809200
  C     -6.099950    4.375120   -1.843610
  N     -6.383430    3.262210   -1.910870
  C     -5.927610    8.082010   -0.950920
  C     -6.883600    8.774420   -0.164110
  C     -6.857290   10.136270    0.003480
  C     -5.841620   10.854930   -0.639990
  C     -4.871930   10.151520   -1.393250
  C     -4.893790    8.773520   -1.557280
  S     -3.693070   11.226200   -2.080300
  C     -4.523680   12.589470   -1.383330
  C     -5.617550   12.258110   -0.656420
  Br    -3.865550   14.319580   -1.683510
  C     -7.853360    7.802890    0.379780
  O     -8.777160    8.040380    1.133920
  C     -7.408980    6.483810   -0.108600
  C     -7.965450    5.284710    0.258470
  N     -9.225430    5.096730    0.710060
  C    -10.325750    5.903590    0.586880
  S    -11.515970    5.765590    1.849770
  C    -12.472760    6.984900    1.082400
  N    -13.687020    7.345550    1.674100
  O    -14.350010    8.208840    1.125990
  O    -13.995610    6.761240    2.700390
  C    -11.904760    7.459870   -0.067240
  C    -10.683160    6.835280   -0.394620
  C    -10.006590    7.188120   -1.620810
  C     -9.145350    6.427010   -2.319520
  C     -8.434940    6.789700   -3.524780
  C     -8.024620    7.998400   -3.936570
  C     -8.229620    9.282010   -3.200510
  C     -7.267760    8.133430   -5.242980
  N     -5.880610    8.493850   -5.055740
  C     -5.360710    9.729080   -5.083740
  C     -6.028490   10.902390   -5.311060
  C     -5.460850   12.187330   -5.332820
  C     -4.147030   12.595500   -5.282040
  C     -3.732360   13.946260   -5.226040
  C     -2.381180   14.128440   -5.179990
  C     -1.644230   12.929300   -5.208850
  S     -2.723460   11.558910   -5.301050
  C     -0.266770   12.774950   -5.174890
  C      0.713420   13.779620   -5.099420
  C      1.993330   13.300550   -5.097760
  C      2.095460   11.895000   -5.172140
  S      0.490440   11.197210   -5.236630
  C      3.283460   11.187650   -5.199100
  C      3.486810    9.811500   -5.277260
  C      2.556420    8.774450   -5.336890
  C      3.241920    7.559080   -5.405870
  C      4.614810    7.782880   -5.392570
  C      4.890230    9.235580   -5.309640
  N      5.351430    6.651830   -5.456490
  C      4.508960    5.646280   -5.513340
  C      3.051090    6.088840   -5.489490
  C      4.907430    4.275600   -5.589530
  C      6.182920    3.877630   -5.612220
  H     -7.603030   10.636870    0.601010
  H     -4.123090    8.283440   -2.128090
  H     -6.242580   12.973360   -0.153710
  H     -7.386400    4.373800    0.177800
  H     -9.380420    4.265140    1.268310
  H    -12.370960    8.220650   -0.667330
  H    -10.305450    8.148630   -2.013030
  H     -8.985720    5.400860   -2.013850
  H     -8.162260    5.937130   -4.136940
  H     -8.439700    9.110390   -2.150040
  H     -9.064690    9.834250   -3.633680
  H     -7.341100    9.906000   -3.278620
  H     -7.748610    8.895820   -5.861850
  H     -7.295170    7.184170   -5.784850
  H     -5.261700    7.735570   -4.782810
  H     -4.297180    9.754440   -4.895370
  H     -7.098270   10.875980   -5.460420
  H     -6.171480   13.003490   -5.396350
  H     -4.448340   14.749240   -5.207160
  H     -1.904430   15.089820   -5.123160
  H      0.459050   14.822920   -5.048400
  H      2.870390   13.921760   -5.046650
  H      4.176720   11.800160   -5.157280
  H      1.488610    8.887850   -5.329650
  H      5.453730    9.599170   -6.170710
  H      5.455420    9.500030   -4.414280
  H      2.524850    5.670780   -4.629920
  H      2.526630    5.770940   -6.391970
  H      4.102680    3.552360   -5.629320
  H      6.976750    4.602660   -5.573140
  H      6.454370    2.838160   -5.670060

 Total Charge           Charge          ....    0
 Multiplicity           Mult            ....    1
 Number of Electrons    NEL             ....  472
 Basis Dimension        Dim             .... 1029

ORBITAL ENERGIES
----------------

  NO   OCC          E(Eh)            E(eV)
   0   2.0000    -482.885438    -13139.9808
   1   2.0000     -88.989296     -2421.5219
   2   2.0000     -88.976867     -2421.1836
   3   2.0000     -88.930942     -2419.9340
   4   2.0000     -88.925621     -2419.7892
   5   2.0000     -62.562884     -1702.4226
   6   2.0000     -56.396882     -1534.6372
   7   2.0000     -56.394147     -1534.5627
   8   2.0000     -56.394049     -1534.5601
   9   2.0000     -19.242675      -523.6198
  10   2.0000     -19.241951      -523.6001
  11   2.0000     -19.224851      -523.1348
  12   2.0000     -14.653927      -398.7536
  13   2.0000     -14.517900      -395.0521
  14   2.0000     -14.435104      -392.7992
  15   2.0000     -14.434398      -392.7799
  16   2.0000     -14.430568      -392.6757
  17   2.0000     -14.382522      -391.3683
  18   2.0000     -10.376568      -282.3608
  19   2.0000     -10.374459      -282.3034
  20   2.0000     -10.372942      -282.2621
  21   2.0000     -10.361331      -281.9461
  22   2.0000     -10.357708      -281.8476
  23   2.0000     -10.349874      -281.6344
  24   2.0000     -10.349713      -281.6300
  25   2.0000     -10.343085      -281.4496
  26   2.0000     -10.333749      -281.1956
  27   2.0000     -10.329120      -281.0696
  28   2.0000     -10.315526      -280.6997
  29   2.0000     -10.314880      -280.6821
  30   2.0000     -10.314646      -280.6758
  31   2.0000     -10.314613      -280.6749
  32   2.0000     -10.313210      -280.6367
  33   2.0000     -10.312479      -280.6168
  34   2.0000     -10.310810      -280.5714
  35   2.0000     -10.307846      -280.4908
  36   2.0000     -10.307102      -280.4705
  37   2.0000     -10.300364      -280.2871
  38   2.0000     -10.298448      -280.2350
  39   2.0000     -10.295083      -280.1434
  40   2.0000     -10.293392      -280.0974
  41   2.0000     -10.293011      -280.0871
  42   2.0000     -10.292311      -280.0680
  43   2.0000     -10.290592      -280.0212
  44   2.0000     -10.284314      -279.8504
  45   2.0000     -10.283120      -279.8179
  46   2.0000     -10.281860      -279.7836
  47   2.0000     -10.279714      -279.7252
  48   2.0000     -10.272797      -279.5370
  49   2.0000     -10.269372      -279.4438
  50   2.0000     -10.269154      -279.4379
  51   2.0000     -10.269120      -279.4370
  52   2.0000     -10.266799      -279.3738
  53   2.0000     -10.264080      -279.2998
  54   2.0000     -10.263102      -279.2732
  55   2.0000     -10.260684      -279.2074
  56   2.0000     -10.258963      -279.1606
  57   2.0000     -10.258492      -279.1478
  58   2.0000     -10.257735      -279.1272
  59   2.0000     -10.253877      -279.0222
  60   2.0000     -10.253071      -279.0002
  61   2.0000     -10.252612      -278.9877
  62   2.0000     -10.251229      -278.9501
  63   2.0000     -10.247475      -278.8480
  64   2.0000      -8.792207      -239.2481
  65   2.0000      -8.085238      -220.0105
  66   2.0000      -8.072108      -219.6532
  67   2.0000      -8.026402      -218.4095
  68   2.0000      -8.021455      -218.2749
  69   2.0000      -6.628574      -180.3727
  70   2.0000      -6.613992      -179.9759
  71   2.0000      -6.613612      -179.9655
  72   2.0000      -6.054924      -164.7629
  73   2.0000      -6.050482      -164.6420
  74   2.0000      -6.046634      -164.5373
  75   2.0000      -6.041770      -164.4049
  76   2.0000      -6.037477      -164.2881
  77   2.0000      -6.033403      -164.1773
  78   2.0000      -5.996149      -163.1635
  79   2.0000      -5.992131      -163.0542
  80   2.0000      -5.991179      -163.0283
  81   2.0000      -5.987493      -162.9280
  82   2.0000      -5.987108      -162.9175
  83   2.0000      -5.982544      -162.7933
  84   2.0000      -2.744443       -74.6801
  85   2.0000      -2.740393       -74.5699
  86   2.0000      -2.740093       -74.5617
  87   2.0000      -2.728501       -74.2463
  88   2.0000      -2.728489       -74.2460
  89   2.0000      -1.322175       -35.9782
  90   2.0000      -1.141348       -31.0577
  91   2.0000      -1.141082       -31.0504
  92   2.0000      -1.110185       -30.2097
  93   2.0000      -1.038541       -28.2601
  94   2.0000      -1.033069       -28.1112
  95   2.0000      -1.030933       -28.0531
  96   2.0000      -1.022525       -27.8243
  97   2.0000      -1.013533       -27.5796
  98   2.0000      -1.011316       -27.5193
  99   2.0000      -0.998849       -27.1801
 100   2.0000      -0.974944       -26.5296
 101   2.0000      -0.953329       -25.9414
 102   2.0000      -0.949021       -25.8242
 103   2.0000      -0.933624       -25.4052
 104   2.0000      -0.927752       -25.2454
 105   2.0000      -0.917469       -24.9656
 106   2.0000      -0.911820       -24.8119
 107   2.0000      -0.904975       -24.6256
 108   2.0000      -0.892187       -24.2776
 109   2.0000      -0.885225       -24.0882
 110   2.0000      -0.881426       -23.9848
 111   2.0000      -0.861662       -23.4470
 112   2.0000      -0.857394       -23.3309
 113   2.0000      -0.851254       -23.1638
 114   2.0000      -0.847356       -23.0577
 115   2.0000      -0.836457       -22.7611
 116   2.0000      -0.834483       -22.7074
 117   2.0000      -0.824753       -22.4427
 118   2.0000      -0.815282       -22.1850
 119   2.0000      -0.805364       -21.9151
 120   2.0000      -0.803156       -21.8550
 121   2.0000      -0.794164       -21.6103
 122   2.0000      -0.789054       -21.4713
 123   2.0000      -0.772925       -21.0324
 124   2.0000      -0.768115       -20.9015
 125   2.0000      -0.767027       -20.8719
 126   2.0000      -0.763137       -20.7660
 127   2.0000      -0.737945       -20.0805
 128   2.0000      -0.728866       -19.8334
 129   2.0000      -0.718009       -19.5380
 130   2.0000      -0.710158       -19.3244
 131   2.0000      -0.705232       -19.1904
 132   2.0000      -0.695053       -18.9134
 133   2.0000      -0.679229       -18.4827
 134   2.0000      -0.675281       -18.3753
 135   2.0000      -0.670490       -18.2450
 136   2.0000      -0.655390       -17.8341
 137   2.0000      -0.653635       -17.7863
 138   2.0000      -0.652864       -17.7653
 139   2.0000      -0.641571       -17.4580
 140   2.0000      -0.636570       -17.3220
 141   2.0000      -0.634380       -17.2624
 142   2.0000      -0.630120       -17.1464
 143   2.0000      -0.629848       -17.1390
 144   2.0000      -0.626361       -17.0441
 145   2.0000      -0.624119       -16.9831
 146   2.0000      -0.611205       -16.6317
 147   2.0000      -0.608596       -16.5607
 148   2.0000      -0.606341       -16.4994
 149   2.0000      -0.601530       -16.3685
 150   2.0000      -0.596795       -16.2396
 151   2.0000      -0.593086       -16.1387
 152   2.0000      -0.592898       -16.1336
 153   2.0000      -0.587972       -15.9995
 154   2.0000      -0.585608       -15.9352
 155   2.0000      -0.568838       -15.4789
 156   2.0000      -0.564270       -15.3546
 157   2.0000      -0.561029       -15.2664
 158   2.0000      -0.558653       -15.2017
 159   2.0000      -0.553832       -15.0705
 160   2.0000      -0.551483       -15.0066
 161   2.0000      -0.548652       -14.9296
 162   2.0000      -0.544189       -14.8081
 163   2.0000      -0.541759       -14.7420
 164   2.0000      -0.537491       -14.6259
 165   2.0000      -0.536201       -14.5908
 166   2.0000      -0.533148       -14.5077
 167   2.0000      -0.527707       -14.3596
 168   2.0000      -0.522816       -14.2266
 169   2.0000      -0.521610       -14.1937
 170   2.0000      -0.516944       -14.0668
 171   2.0000      -0.515256       -14.0208
 172   2.0000      -0.509425       -13.8622
 173   2.0000      -0.507670       -13.8144
 174   2.0000      -0.505948       -13.7675
 175   2.0000      -0.500534       -13.6202
 176   2.0000      -0.500056       -13.6072
 177   2.0000      -0.498009       -13.5515
 178   2.0000      -0.496015       -13.4973
 179   2.0000      -0.487652       -13.2697
 180   2.0000      -0.486898       -13.2492
 181   2.0000      -0.484228       -13.1765
 182   2.0000      -0.481702       -13.1078
 183   2.0000      -0.478531       -13.0215
 184   2.0000      -0.473872       -12.8947
 185   2.0000      -0.469586       -12.7781
 186   2.0000      -0.468644       -12.7524
 187   2.0000      -0.465591       -12.6694
 188   2.0000      -0.462658       -12.5896
 189   2.0000      -0.461531       -12.5589
 190   2.0000      -0.461273       -12.5519
 191   2.0000      -0.457446       -12.4477
 192   2.0000      -0.455142       -12.3850
 193   2.0000      -0.452880       -12.3235
 194   2.0000      -0.448128       -12.1942
 195   2.0000      -0.447121       -12.1668
 196   2.0000      -0.444861       -12.1053
 197   2.0000      -0.441039       -12.0013
 198   2.0000      -0.438750       -11.9390
 199   2.0000      -0.434321       -11.8185
 200   2.0000      -0.433791       -11.8041
 201   2.0000      -0.431593       -11.7443
 202   2.0000      -0.428161       -11.6509
 203   2.0000      -0.422809       -11.5052
 204   2.0000      -0.420789       -11.4502
 205   2.0000      -0.417650       -11.3648
 206   2.0000      -0.415515       -11.3067
 207   2.0000      -0.411419       -11.1953
 208   2.0000      -0.410873       -11.1804
 209   2.0000      -0.405492       -11.0340
 210   2.0000      -0.404609       -11.0100
 211   2.0000      -0.402002       -10.9390
 212   2.0000      -0.390093       -10.6150
 213   2.0000      -0.387111       -10.5338
 214   2.0000      -0.382493       -10.4082
 215   2.0000      -0.381779       -10.3887
 216   2.0000      -0.378031       -10.2868
 217   2.0000      -0.374017       -10.1775
 218   2.0000      -0.372664       -10.1407
 219   2.0000      -0.370137       -10.0719
 220   2.0000      -0.363044        -9.8789
 221   2.0000      -0.361334        -9.8324
 222   2.0000      -0.353899        -9.6301
 223   2.0000      -0.345115        -9.3910
 224   2.0000      -0.337666        -9.1884
 225   2.0000      -0.326073        -8.8729
 226   2.0000      -0.321710        -8.7542
 227   2.0000      -0.315947        -8.5973
 228   2.0000      -0.312424        -8.5015
 229   2.0000      -0.302985        -8.2446
 230   2.0000      -0.300230        -8.1697
 231   2.0000      -0.297777        -8.1029
 232   2.0000      -0.285183        -7.7602
 233   2.0000      -0.273252        -7.4356
 234   2.0000      -0.229918        -6.2564
 235   2.0000      -0.175804        -4.7839
 236   0.0000      -0.098606        -2.6832
 237   0.0000      -0.069534        -1.8921
 238   0.0000      -0.058954        -1.6042
 239   0.0000      -0.046888        -1.2759
 240   0.0000      -0.025034        -0.6812

MULLIKEN ATOMIC CHARGES
-----------------------
   0 C :    0.317312
   1 C :   -0.339470
   2 C :   -0.121895
   3 N :    0.073529
   4 C :   -0.207935
   5 N :    0.153173
   6 C :    0.002883
   7 C :   -0.022426
   8 C :   -0.080864
   9 C :    0.118802
  10 C :   -0.091945
  11 C :   -0.026985
  12 S :    0.213363
  13 C :   -0.115382
  14 C :    0.036212
  15 Br:    0.037905
  16 C :    0.172092
  17 O :   -0.149861
  18 C :   -0.172951
  19 C :    0.014481
  20 N :    0.028179
  21 C :   -0.128092
  22 S :    0.170599
  23 C :    0.015436
  24 N :    0.278627
  25 O :   -0.246647
  26 O :   -0.260894
  27 C :   -0.025586
  28 C :    0.167460
  29 C :   -0.072138
  30 C :    0.052146
  31 C :    0.000870
  32 C :   -0.196021
  33 C :    0.091280
  34 C :    0.212190
  35 N :   -0.154932
  36 C :    0.052404
  37 C :   -0.063967
  38 C :    0.013108
  39 C :   -0.065393
  40 C :    0.048596
  41 C :    0.005384
  42 C :   -0.035998
  43 S :    0.028636
  44 C :   -0.039882
  45 C :    0.018741
  46 C :    0.020423
  47 C :   -0.016527
  48 S :    0.040970
  49 C :   -0.016616
  50 C :   -0.121390
  51 C :   -0.069835
  52 C :   -0.093093
  53 C :   -0.189142
  54 C :    0.260562
  55 N :   -0.037381
  56 C :   -0.156409
  57 C :    0.242220
  58 C :   -0.002836
  59 C :    0.021768
  60 H :   -0.010854
  61 H :   -0.004970
  62 H :   -0.005647
  63 H :    0.051256
  64 H :    0.156208
  65 H :    0.010369
  66 H :   -0.003545
  67 H :    0.004260
  68 H :   -0.014175
  69 H :    0.021911
  70 H :    0.028914
  71 H :    0.040523
  72 H :    0.025995
  73 H :    0.012578
  74 H :    0.130079
  75 H :    0.017902
  76 H :   -0.032605
  77 H :   -0.020363
  78 H :   -0.023982
  79 H :   -0.028583
  80 H :   -0.024396
  81 H :   -0.023809
  82 H :   -0.036438
  83 H :   -0.019922
  84 H :    0.031943
  85 H :    0.031296
  86 H :    0.037292
  87 H :    0.038973
  88 H :   -0.024765
  89 H :    0.032093
  90 H :    0.015602
Sum of atomic charges:   -0.0000000

LOEWDIN ATOMIC CHARGES
----------------------
   0 C :    0.097594
   1 C :   -0.165805
   2 C :    0.016497
   3 N :   -0.081036
   4 C :   -0.026552
   5 N :   -0.060743
   6 C :   -0.028399
   7 C :   -0.049071
   8 C :    0.019362
   9 C :   -0.028897
  10 C :   -0.147655
  11 C :   -0.006719
  12 S :    0.467667
  13 C :   -0.263158
  14 C :   -0.074862
  15 Br:    0.154636
  16 C :    0.078686
  17 O :   -0.144878
  18 C :   -0.131356
  19 C :    0.090553
  20 N :    0.078622
  21 C :   -0.113950
  22 S :    0.459511
  23 C :   -0.199643
  24 N :    0.275834
  25 O :   -0.212793
  26 O :   -0.226630
  27 C :    0.006529
  28 C :   -0.072075
  29 C :   -0.037780
  30 C :   -0.010518
  31 C :   -0.065206
  32 C :   -0.013602
  33 C :   -0.056792
  34 C :    0.049369
  35 N :    0.013922
  36 C :    0.046629
  37 C :   -0.152978
  38 C :   -0.035312
  39 C :   -0.191467
  40 C :   -0.030123
  41 C :   -0.066247
  42 C :   -0.176157
  43 S :    0.358838
  44 C :   -0.198629
  45 C :   -0.045496
  46 C :   -0.046392
  47 C :   -0.149999
  48 S :    0.371705
  49 C :   -0.076942
  50 C :   -0.032186
  51 C :   -0.042185
  52 C :   -0.052349
  53 C :   -0.027113
  54 C :   -0.017367
  55 N :   -0.078422
  56 C :    0.010180
  57 C :   -0.031617
  58 C :   -0.054119
  59 C :   -0.010865
  60 H :    0.040771
  61 H :    0.038026
  62 H :    0.038162
  63 H :    0.043493
  64 H :    0.103341
  65 H :    0.046298
  66 H :    0.032908
  67 H :    0.028648
  68 H :    0.028623
  69 H :    0.026793
  70 H :    0.037977
  71 H :    0.037647
  72 H :    0.032306
  73 H :    0.031083
  74 H :    0.063471
  75 H :    0.011481
  76 H :    0.017830
  77 H :    0.032957
  78 H :    0.027279
  79 H :    0.026070
  80 H :    0.027318
  81 H :    0.028420
  82 H :    0.028821
  83 H :    0.009849
  84 H :    0.054340
  85 H :    0.053845
  86 H :    0.056484
  87 H :    0.057140
  88 H :    0.025875
  89 H :    0.028624
  90 H :    0.022070

  Mayer bond orders larger than 0.100000
B(  0-C ,  1-C ) :   1.5738 B(  0-C ,  6-C ) :   1.0160 B(  0-C , 18-C ) :   1.1330
B(  1-C ,  2-C ) :   1.1889 B(  1-C ,  4-C ) :   1.1477 B(  2-C ,  3-N ) :   2.8251
B(  4-C ,  5-N ) :   2.9742 B(  6-C ,  7-C ) :   1.2722 B(  6-C , 11-C ) :   1.4000
B(  7-C ,  8-C ) :   1.4218 B(  7-C , 16-C ) :   0.9433 B(  8-C ,  9-C ) :   1.2302
B(  8-C , 60-H ) :   1.0205 B(  9-C , 10-C ) :   1.3022 B(  9-C , 14-C ) :   1.1719
B( 10-C , 11-C ) :   1.3289 B( 10-C , 12-S ) :   1.0891 B( 11-C , 61-H ) :   0.9843
B( 12-S , 13-C ) :   1.1039 B( 13-C , 14-C ) :   1.5987 B( 13-C , 15-Br) :   1.0314
B( 14-C , 62-H ) :   1.0015 B( 16-C , 17-O ) :   2.2222 B( 16-C , 18-C ) :   0.9523
B( 18-C , 19-C ) :   1.4977 B( 19-C , 20-N ) :   1.3028 B( 19-C , 63-H ) :   0.9364
B( 20-N , 21-C ) :   1.1339 B( 20-N , 64-H ) :   0.9001 B( 21-C , 22-S ) :   1.1332
B( 21-C , 28-C ) :   1.3934 B( 22-S , 23-C ) :   1.0957 B( 23-C , 24-N ) :   0.9642
B( 23-C , 27-C ) :   1.4857 B( 24-N , 25-O ) :   1.5371 B( 24-N , 26-O ) :   1.5129
B( 25-O , 26-O ) :   0.2642 B( 27-C , 28-C ) :   1.2093 B( 27-C , 65-H ) :   1.0113
B( 28-C , 29-C ) :   1.0976 B( 29-C , 30-C ) :   1.7242 B( 29-C , 66-H ) :   0.9636
B( 30-C , 31-C ) :   1.1114 B( 30-C , 67-H ) :   0.9361 B( 31-C , 32-C ) :   1.8180
B( 31-C , 68-H ) :   0.9481 B( 32-C , 33-C ) :   1.0838 B( 32-C , 34-C ) :   1.0415
B( 33-C , 69-H ) :   0.9351 B( 33-C , 70-H ) :   0.9296 B( 33-C , 71-H ) :   0.9392
B( 34-C , 35-N ) :   1.0026 B( 34-C , 72-H ) :   0.9223 B( 34-C , 73-H ) :   0.9387
B( 35-N , 36-C ) :   1.2897 B( 35-N , 74-H ) :   0.8951 B( 36-C , 37-C ) :   1.5311
B( 36-C , 75-H ) :   0.9478 B( 37-C , 38-C ) :   1.2378 B( 37-C , 76-H ) :   0.9514
B( 38-C , 39-C ) :   1.5648 B( 38-C , 77-H ) :   0.9563 B( 39-C , 40-C ) :   1.1646
B( 39-C , 43-S ) :   1.0066 B( 40-C , 41-C ) :   1.5581 B( 40-C , 78-H ) :   0.9988
B( 41-C , 42-C ) :   1.2016 B( 41-C , 79-H ) :   0.9954 B( 42-C , 43-S ) :   1.0430
B( 42-C , 44-C ) :   1.4800 B( 44-C , 45-C ) :   1.2092 B( 44-C , 48-S ) :   1.0268
B( 45-C , 46-C ) :   1.5531 B( 45-C , 80-H ) :   0.9941 B( 46-C , 47-C ) :   1.1723
B( 46-C , 81-H ) :   0.9996 B( 47-C , 48-S ) :   1.0419 B( 47-C , 49-C ) :   1.5133
B( 49-C , 50-C ) :   1.2275 B( 49-C , 82-H ) :   0.9601 B( 50-C , 51-C ) :   1.5087
B( 50-C , 54-C ) :   1.0157 B( 51-C , 52-C ) :   1.1720 B( 51-C , 83-H ) :   0.9911
B( 52-C , 53-C ) :   1.5893 B( 52-C , 57-C ) :   1.0300 B( 53-C , 54-C ) :   1.0671
B( 53-C , 55-N ) :   1.2965 B( 54-C , 84-H ) :   0.8658 B( 54-C , 85-H ) :   0.8667
B( 55-N , 56-C ) :   1.7612 B( 56-C , 57-C ) :   0.9957 B( 56-C , 58-C ) :   1.1046
B( 57-C , 86-H ) :   0.8688 B( 57-C , 87-H ) :   0.8686 B( 58-C , 59-C ) :   1.9147
B( 58-C , 88-H ) :   0.9562 B( 59-C , 89-H ) :   0.9472 B( 59-C , 90-H ) :   0.9459

-----------------------------------------------------------------------------
         ABSORPTION SPECTRUM VIA TRANSITION ELECTRIC DIPOLE MOMENTS
-----------------------------------------------------------------------------
State   Energy  Wavelength   fosc         T2         TX        TY        TZ
        (cm-1)    (nm)                  (au**2)     (au)      (au)      (au)
-----------------------------------------------------------------------------
   0    4556.1   2194.8   0.002326369   0.16810   0.32452   0.12086  -0.21949
   1   12140.6    823.7   0.129583306   3.51387  -1.80132   0.47600   0.20627
   2   12607.8    793.2   1.015652104  26.52042  -4.83908   1.74058   0.27216
   3   16395.6    609.9   0.000458416   0.00920  -0.04343   0.03725   0.07701
   4   18630.9    536.7   0.001488005   0.02629  -0.07411   0.05494  -0.13335
   5   20144.5    496.4   0.012875972   0.21043   0.26214   0.36938  -0.07257
   6   20814.6    480.4   0.046376134   0.73350   0.71325  -0.39778   0.25797
   7   21453.9    466.1   0.055427394   0.85054   0.08629   0.86862  -0.29763
   8   22909.4    436.5   0.018510107   0.26599   0.16343  -0.45217  -0.18661
   9   23839.9    419.5   0.198043848   2.73484  -0.00958  -1.65329   0.03702
  10   24176.4    413.6   0.618915318   8.42782  -1.23627  -2.62409   0.11662
  11   24810.6    403.1   0.402853066   5.34545   2.06155   0.47329  -0.93353
  12   25921.5    385.8   0.017139374   0.21768  -0.43831   0.10732   0.11849
  13   26369.0    379.2   0.081745326   1.02057   0.86109  -0.17337   0.49903
  14   26679.6    374.8   0.327584699   4.04222  -0.41950  -1.94822  -0.26584
  15   28004.7    357.1   0.164576156   1.93469   0.40231   1.33105   0.03391
  16   28744.6    347.9   0.036219896   0.41483   0.04783  -0.64217  -0.01254
  17   29065.3    344.1   0.195058108   2.20935   1.24186  -0.23893  -0.78106
  18   30178.2    331.4   0.070565336   0.76979   0.43180   0.76194   0.05277
  19   30265.7    330.4   0.054511965   0.59295   0.11285   0.75486   0.10197
  20   30452.9    328.4   0.002084367   0.02253  -0.00102  -0.15005  -0.00427
  21   30620.3    326.6   0.280606933   3.01693  -0.95987  -1.44739  -0.02524
  22   30852.0    324.1   0.001345101   0.01435  -0.06232  -0.03075  -0.09759
  23   31315.8    319.3   0.008722451   0.09170   0.17996   0.23849   0.04929
  24   31838.8    314.1   0.025983267   0.26867   0.18121   0.29771  -0.38366
  25   31943.1    313.1   0.061732819   0.63623  -0.70568  -0.31250   0.20145
  26   32139.4    311.1   0.044052202   0.45124  -0.26033   0.59830   0.15970
  27   32800.5    304.9   0.079300722   0.79592   0.50374  -0.44260  -0.58845
  28   32942.8    303.6   0.135630376   1.35541  -0.33969   1.09318   0.21207
  29   33175.2    301.4   0.108250934   1.07422  -0.15865   0.94814   0.38741
  30   33570.4    297.9   0.003060672   0.03001   0.11333   0.11624   0.06050
  31   33587.0    297.7   0.019802212   0.19410  -0.10348  -0.42530   0.05009
  32   33747.7    296.3   0.033230756   0.32417   0.14857  -0.22925  -0.49954
  33   34031.4    293.8   0.019164395   0.18539  -0.19378  -0.31464  -0.22100
  34   34401.0    290.7   0.006813581   0.06520  -0.22002   0.00755   0.12939
  35   34562.5    289.3   0.001402326   0.01336   0.03472   0.10781   0.02300
  36   35095.1    284.9   0.006180813   0.05798   0.15743   0.12970  -0.12796
  37   35743.9    279.8   0.001978237   0.01822  -0.11244  -0.03103   0.06792
  38   35969.2    278.0   0.025572163   0.23405   0.22031   0.39598  -0.16947
  39   36017.8    277.6   0.011324441   0.10351  -0.11814  -0.29059   0.07147
  40   36488.0    274.1   0.137245092   1.23829  -0.64729   0.57146   0.70195
  41   37178.6    269.0   0.014787764   0.13094  -0.20630  -0.27191   0.12021
  42   37346.4    267.8   0.044264566   0.39020   0.18648  -0.56731   0.18326
  43   37624.2    265.8   0.135446011   1.18515   0.89714   0.06013  -0.61374
  44   37775.5    264.7   0.015427698   0.13445   0.21137  -0.25584  -0.15595
  45   37954.1    263.5   0.002393394   0.02076   0.00912   0.03289   0.13998
  46   38314.3    261.0   0.061874605   0.53165  -0.35386  -0.14857   0.61997
  47   38649.7    258.7   0.020704336   0.17636   0.07061   0.15322  -0.38457
  48   39142.2    255.5   0.022590428   0.19000  -0.39034  -0.15600   0.11533
  49   39831.9    251.1   0.180487930   1.49174   0.23977   0.72820  -0.95077
  50   39840.6    251.0   0.000640178   0.00529  -0.03393   0.06422  -0.00372
  51   39851.2    250.9   0.000450264   0.00372  -0.01441  -0.03573   0.04728
  52   40228.1    248.6   0.002252123   0.01843  -0.10550   0.07806   0.03475
  53   40305.7    248.1   0.019427118   0.15868  -0.10702  -0.22428   0.31133

FINAL SINGLE POINT ENERGY     -6488.742987566066

DIPOLE MOMENT
-------------
                                X             Y             Z
Electronic contribution:    -29.47579      57.25448      44.82805
Nuclear contribution   :     28.51188     -57.09735     -44.17258
                        -----------------------------------------
Total Dipole Moment    :     -0.96390       0.15714       0.65547
                        -----------------------------------------
Magnitude (a.u.)       :      1.17620
Magnitude (Debye)      :      2.98965

Rotational constants in cm-1:     0.001690     0.000537     0.000446
Rotational constants in MHz :    50.651971    16.112447    13.373509

                             ****ORCA TERMINATED NORMALLY****
TOTAL RUN TIME: 0 days 0 hours 9 minutes 15 seconds 941 msec
