                         Program Version 4.2.0 -  RELEASE  -
|  1> # ORCA input file
|  2> # SCF done       -190.902057954125          0.000743426333
|  3> ! CAM-B3LYP def2-SVP def2/J RIJCOSX Grid4 TightSCF
|  4> %maxcore 5000
|  5> %tddft
|  6>     Mode sTDDFT
|  7>     Ethresh 5.0
|  8>     maxcore 5000
|  9> end
| 10>
| 11> %pal
| 12>   nprocs 6
| 13>   end
| 14> * xyz 0 1
| 15>    C      -11.96996        -1.67249        -8.35553
| 16>    C      -12.87192        -2.67821        -8.12847
| 17>    C      -13.70410        -3.23707        -9.12041
| 18>    N      -14.40314        -3.72672        -9.88756
| 19>    C      -13.08365        -3.27419        -6.86807
| 20>    N      -13.28267        -3.78081        -5.85762
| 21>    C      -11.72128        -1.01535        -9.63584
| 22>    C      -10.73864        -0.00641        -9.45507
| 23>    C      -10.28875         0.78332       -10.48623
| 24>    C      -10.82989         0.56691       -11.75743
| 25>    C      -11.80831        -0.44216       -11.92918
| 26>    C      -12.26551        -1.23891       -10.88555
| 27>    S      -12.33697        -0.54512       -13.57927
| 28>    C      -11.25279         0.75000       -14.01281
| 29>    C      -10.53068         1.23651       -12.97475
| 30>   Br      -11.17378         1.33534       -15.79215
| 31>    C      -10.32403         0.00389        -8.04950
| 32>    O       -9.49486         0.73817        -7.51732
| 33>    C      -11.09196        -1.05513        -7.38613
| 34>    C      -10.90179        -1.35348        -6.05999
| 35>    N      -10.00859        -0.65989        -5.34397
| 36>    C       -9.65171        -0.85862        -4.05074
| 37>    S      -10.37495        -2.09605        -3.07415
| 38>    C       -9.32616        -1.64296        -1.77025
| 39>    N       -9.44577        -2.34695        -0.56088
| 40>    O       -8.70681        -2.02935         0.34958
| 41>    O      -10.28721        -3.22510        -0.52297
| 42>    C       -8.47741        -0.61360        -2.07387
| 43>    C       -8.65045        -0.13847        -3.38818
| 44>    C       -7.92032         0.95081        -3.98926
| 45>    C       -6.73173         1.39556        -3.55026
| 46>    C       -5.99398         2.49554        -4.13348
| 47>    C       -4.61680         2.57283        -3.94259
| 48>    C       -3.86869         3.60340        -4.48892
| 49>    N       -2.46006         3.60067        -4.20109
| 50>    O       -1.97086         2.55509        -3.82612
| 51>    O       -1.83627         4.63537        -4.33520
| 52>    C       -4.47517         4.63717        -5.23476
| 53>    C       -5.86711         4.55025        -5.40247
| 54>    C       -6.60283         3.51411        -4.88181
| 55>    C       -3.72445         5.69533        -5.84967
| 56>    C       -4.12268         6.98659        -6.00976
| 57>    C       -3.34394         8.01252        -6.62362
| 58>    C       -3.88997         9.25112        -6.55028
| 59>    C       -5.13511         9.29240        -5.87092
| 60>    S       -5.60331         7.69005        -5.36062
| 61>    C       -5.90662        10.40290        -5.59549
| 62>    C       -5.64062        11.74900        -5.93997
| 63>    C       -6.57922        12.62506        -5.48840
| 64>    C       -7.63398        12.02092        -4.76120
| 65>    S       -7.40352        10.29058        -4.69367
| 66>    C       -8.70229        12.67163        -4.18182
| 67>    C       -9.68722        12.02461        -3.43809
| 68>    C      -10.80324        12.56983        -2.84782
| 69>    C      -11.44131        13.85242        -2.98363
| 70>    C      -11.42345        14.67626        -4.08455
| 71>    C      -12.10896        15.90486        -4.15781
| 72>    N      -12.62590        16.92479        -4.26482
| 73>    C      -10.81608        14.35144        -5.31362
| 74>    N      -10.38589        14.12053        -6.35326
| 75>    C      -12.30546        14.03382        -1.81735
| 76>    C      -12.35758        12.81376        -1.09743
| 77>    C      -11.47351        11.82809        -1.75354
| 78>    O      -11.29495        10.67035        -1.44348
| 79>    C      -13.11729        12.65688         0.03537
| 80>    C      -13.85290        13.75886         0.48604
| 81>    C      -13.78445        14.97542        -0.23256
| 82>    C      -13.02141        15.13227        -1.38424
| 83>    S      -14.75986        16.20951         0.50528
| 84>    C      -15.24459        15.08770         1.74926
| 85>    C      -14.70260        13.85343         1.62230
| 86>   Br      -16.41500        15.65448         3.10105
| 87>    H       -9.54042         1.54203       -10.31894
| 88>    H      -13.01042        -1.99530       -11.06769
| 89>    H       -9.81575         2.03392       -13.06358
| 90>    H      -11.43946        -2.14572        -5.55531
| 91>    H       -9.52272         0.07483        -5.89160
| 92>    H       -7.78149        -0.21445        -1.35925
| 93>    H       -8.36785         1.40819        -4.86081
| 94>    H       -6.23914         0.88780        -2.73292
| 95>    H       -4.10176         1.82067        -3.36264
| 96>    H       -6.36352         5.30411        -5.99263
| 97>    H       -7.66977         3.49814        -5.03900
| 98>    H       -2.72072         5.46690        -6.18196
| 99>    H       -2.39843         7.78703        -7.08328
|100>    H       -3.43383        10.13899        -6.94889
|101>    H       -4.76961        12.03235        -6.50256
|102>    H       -6.55355        13.68731        -5.65296
|103>    H       -8.73203        13.74522        -4.29566
|104>    H       -9.52465        10.97457        -3.21075
|105>    H      -13.14439        11.71428         0.55918
|106>    H      -12.99661        16.08102        -1.89420
|107>    H      -14.89178        13.04204         2.30119
|108> *
|109>
|110>                          ****END OF INPUT****

CARTESIAN COORDINATES (ANGSTROEM)
---------------------------------
  C    -11.969960   -1.672490   -8.355530
  C    -12.871920   -2.678210   -8.128470
  C    -13.704100   -3.237070   -9.120410
  N    -14.403140   -3.726720   -9.887560
  C    -13.083650   -3.274190   -6.868070
  N    -13.282670   -3.780810   -5.857620
  C    -11.721280   -1.015350   -9.635840
  C    -10.738640   -0.006410   -9.455070
  C    -10.288750    0.783320  -10.486230
  C    -10.829890    0.566910  -11.757430
  C    -11.808310   -0.442160  -11.929180
  C    -12.265510   -1.238910  -10.885550
  S    -12.336970   -0.545120  -13.579270
  C    -11.252790    0.750000  -14.012810
  C    -10.530680    1.236510  -12.974750
  Br   -11.173780    1.335340  -15.792150
  C    -10.324030    0.003890   -8.049500
  O     -9.494860    0.738170   -7.517320
  C    -11.091960   -1.055130   -7.386130
  C    -10.901790   -1.353480   -6.059990
  N    -10.008590   -0.659890   -5.343970
  C     -9.651710   -0.858620   -4.050740
  S    -10.374950   -2.096050   -3.074150
  C     -9.326160   -1.642960   -1.770250
  N     -9.445770   -2.346950   -0.560880
  O     -8.706810   -2.029350    0.349580
  O    -10.287210   -3.225100   -0.522970
  C     -8.477410   -0.613600   -2.073870
  C     -8.650450   -0.138470   -3.388180
  C     -7.920320    0.950810   -3.989260
  C     -6.731730    1.395560   -3.550260
  C     -5.993980    2.495540   -4.133480
  C     -4.616800    2.572830   -3.942590
  C     -3.868690    3.603400   -4.488920
  N     -2.460060    3.600670   -4.201090
  O     -1.970860    2.555090   -3.826120
  O     -1.836270    4.635370   -4.335200
  C     -4.475170    4.637170   -5.234760
  C     -5.867110    4.550250   -5.402470
  C     -6.602830    3.514110   -4.881810
  C     -3.724450    5.695330   -5.849670
  C     -4.122680    6.986590   -6.009760
  C     -3.343940    8.012520   -6.623620
  C     -3.889970    9.251120   -6.550280
  C     -5.135110    9.292400   -5.870920
  S     -5.603310    7.690050   -5.360620
  C     -5.906620   10.402900   -5.595490
  C     -5.640620   11.749000   -5.939970
  C     -6.579220   12.625060   -5.488400
  C     -7.633980   12.020920   -4.761200
  S     -7.403520   10.290580   -4.693670
  C     -8.702290   12.671630   -4.181820
  C     -9.687220   12.024610   -3.438090
  C    -10.803240   12.569830   -2.847820
  C    -11.441310   13.852420   -2.983630
  C    -11.423450   14.676260   -4.084550
  C    -12.108960   15.904860   -4.157810
  N    -12.625900   16.924790   -4.264820
  C    -10.816080   14.351440   -5.313620
  N    -10.385890   14.120530   -6.353260
  C    -12.305460   14.033820   -1.817350
  C    -12.357580   12.813760   -1.097430
  C    -11.473510   11.828090   -1.753540
  O    -11.294950   10.670350   -1.443480
  C    -13.117290   12.656880    0.035370
  C    -13.852900   13.758860    0.486040
  C    -13.784450   14.975420   -0.232560
  C    -13.021410   15.132270   -1.384240
  S    -14.759860   16.209510    0.505280
  C    -15.244590   15.087700    1.749260
  C    -14.702600   13.853430    1.622300
  Br   -16.415000   15.654480    3.101050
  H     -9.540420    1.542030  -10.318940
  H    -13.010420   -1.995300  -11.067690
  H     -9.815750    2.033920  -13.063580
  H    -11.439460   -2.145720   -5.555310
  H     -9.522720    0.074830   -5.891600
  H     -7.781490   -0.214450   -1.359250
  H     -8.367850    1.408190   -4.860810
  H     -6.239140    0.887800   -2.732920
  H     -4.101760    1.820670   -3.362640
  H     -6.363520    5.304110   -5.992630
  H     -7.669770    3.498140   -5.039000
  H     -2.720720    5.466900   -6.181960
  H     -2.398430    7.787030   -7.083280
  H     -3.433830   10.138990   -6.948890
  H     -4.769610   12.032350   -6.502560
  H     -6.553550   13.687310   -5.652960
  H     -8.732030   13.745220   -4.295660
  H     -9.524650   10.974570   -3.210750
  H    -13.144390   11.714280    0.559180
  H    -12.996610   16.081020   -1.894200
  H    -14.891780   13.042040    2.301190

 Total Charge           Charge          ....    0
 Multiplicity           Mult            ....    1
 Number of Electrons    NEL             ....  580
 Basis Dimension        Dim             .... 1169

ORBITAL ENERGIES
----------------

  NO   OCC          E(Eh)            E(eV)
   0   2.0000    -482.894201    -13140.2193
   1   2.0000    -482.880920    -13139.8578
   2   2.0000     -88.999911     -2421.8107
   3   2.0000     -88.986499     -2421.4458
   4   2.0000     -88.970625     -2421.0138
   5   2.0000     -88.969830     -2420.9921
   6   2.0000     -88.966547     -2420.9028
   7   2.0000     -62.571923     -1702.6686
   8   2.0000     -62.558657     -1702.3076
   9   2.0000     -56.405889     -1534.8823
  10   2.0000     -56.403144     -1534.8076
  11   2.0000     -56.403117     -1534.8068
  12   2.0000     -56.392601     -1534.5207
  13   2.0000     -56.389895     -1534.4471
  14   2.0000     -56.389861     -1534.4461
  15   2.0000     -19.255463      -523.9678
  16   2.0000     -19.253779      -523.9220
  17   2.0000     -19.247223      -523.7436
  18   2.0000     -19.246373      -523.7204
  19   2.0000     -19.244758      -523.6765
  20   2.0000     -19.204806      -522.5893
  21   2.0000     -14.660906      -398.9435
  22   2.0000     -14.658714      -398.8839
  23   2.0000     -14.505803      -394.7230
  24   2.0000     -14.428548      -392.6208
  25   2.0000     -14.423868      -392.4934
  26   2.0000     -14.407611      -392.0510
  27   2.0000     -14.405666      -391.9981
  28   2.0000     -10.391231      -282.7598
  29   2.0000     -10.382824      -282.5310
  30   2.0000     -10.380332      -282.4632
  31   2.0000     -10.369115      -282.1580
  32   2.0000     -10.356678      -281.8195
  33   2.0000     -10.356165      -281.8056
  34   2.0000     -10.355581      -281.7897
  35   2.0000     -10.353054      -281.7209
  36   2.0000     -10.352489      -281.7055
  37   2.0000     -10.346077      -281.5311
  38   2.0000     -10.341415      -281.4042
  39   2.0000     -10.337488      -281.2973
  40   2.0000     -10.334909      -281.2272
  41   2.0000     -10.333275      -281.1827
  42   2.0000     -10.333238      -281.1817
  43   2.0000     -10.332665      -281.1661
  44   2.0000     -10.330791      -281.1151
  45   2.0000     -10.330752      -281.1140
  46   2.0000     -10.327569      -281.0275
  47   2.0000     -10.326818      -281.0070
  48   2.0000     -10.321645      -280.8662
  49   2.0000     -10.321434      -280.8605
  50   2.0000     -10.319499      -280.8078
  51   2.0000     -10.319176      -280.7990
  52   2.0000     -10.317989      -280.7668
  53   2.0000     -10.317741      -280.7600
  54   2.0000     -10.316187      -280.7177
  55   2.0000     -10.314453      -280.6705
  56   2.0000     -10.311984      -280.6033
  57   2.0000     -10.311732      -280.5965
  58   2.0000     -10.311075      -280.5786
  59   2.0000     -10.310978      -280.5760
  60   2.0000     -10.310735      -280.5694
  61   2.0000     -10.310698      -280.5684
  62   2.0000     -10.310031      -280.5502
  63   2.0000     -10.309480      -280.5352
  64   2.0000     -10.308957      -280.5210
  65   2.0000     -10.308854      -280.5182
  66   2.0000     -10.308261      -280.5020
  67   2.0000     -10.307229      -280.4740
  68   2.0000     -10.307017      -280.4682
  69   2.0000     -10.306836      -280.4633
  70   2.0000     -10.305153      -280.4175
  71   2.0000     -10.301223      -280.3105
  72   2.0000     -10.300702      -280.2964
  73   2.0000     -10.300646      -280.2948
  74   2.0000     -10.298363      -280.2327
  75   2.0000     -10.294243      -280.1206
  76   2.0000     -10.291353      -280.0419
  77   2.0000     -10.288865      -279.9742
  78   2.0000     -10.284838      -279.8647
  79   2.0000     -10.284816      -279.8641
  80   2.0000      -8.801367      -239.4974
  81   2.0000      -8.788101      -239.1364
  82   2.0000      -8.095197      -220.2815
  83   2.0000      -8.082520      -219.9365
  84   2.0000      -8.066739      -219.5071
  85   2.0000      -8.065849      -219.4829
  86   2.0000      -8.062959      -219.4043
  87   2.0000      -6.637743      -180.6222
  88   2.0000      -6.624394      -180.2589
  89   2.0000      -6.623069      -180.2229
  90   2.0000      -6.622845      -180.2168
  91   2.0000      -6.609837      -179.8628
  92   2.0000      -6.609649      -179.8577
  93   2.0000      -6.064820      -165.0321
  94   2.0000      -6.060456      -164.9134
  95   2.0000      -6.056674      -164.8105
  96   2.0000      -6.052166      -164.6878
  97   2.0000      -6.047909      -164.5720
  98   2.0000      -6.043779      -164.4596
  99   2.0000      -6.036474      -164.2608
 100   2.0000      -6.035550      -164.2357
 101   2.0000      -6.032592      -164.1552
 102   2.0000      -6.032420      -164.1505
 103   2.0000      -6.031263      -164.1190
 104   2.0000      -6.028593      -164.0464
 105   2.0000      -6.027630      -164.0201
 106   2.0000      -6.027064      -164.0047
 107   2.0000      -6.023964      -163.9204
 108   2.0000      -2.753569       -74.9284
 109   2.0000      -2.749492       -74.8175
 110   2.0000      -2.749342       -74.8134
 111   2.0000      -2.740218       -74.5651
 112   2.0000      -2.737671       -74.4958
 113   2.0000      -2.737651       -74.4953
 114   2.0000      -2.736170       -74.4550
 115   2.0000      -2.736089       -74.4528
 116   2.0000      -2.724487       -74.1371
 117   2.0000      -2.724461       -74.1364
 118   2.0000      -1.335508       -36.3410
 119   2.0000      -1.329208       -36.1696
 120   2.0000      -1.159281       -31.5456
 121   2.0000      -1.153425       -31.3863
 122   2.0000      -1.148649       -31.2563
 123   2.0000      -1.119329       -30.4585
 124   2.0000      -1.113957       -30.3123
 125   2.0000      -1.035423       -28.1753
 126   2.0000      -1.024960       -27.8906
 127   2.0000      -1.020608       -27.7722
 128   2.0000      -1.019879       -27.7523
 129   2.0000      -1.015660       -27.6375
 130   2.0000      -1.006233       -27.3810
 131   2.0000      -1.005714       -27.3669
 132   2.0000      -1.005288       -27.3553
 133   2.0000      -1.001761       -27.2593
 134   2.0000      -0.994620       -27.0650
 135   2.0000      -0.985553       -26.8182
 136   2.0000      -0.981470       -26.7072
 137   2.0000      -0.954025       -25.9603
 138   2.0000      -0.945606       -25.7313
 139   2.0000      -0.937095       -25.4996
 140   2.0000      -0.925278       -25.1781
 141   2.0000      -0.920834       -25.0572
 142   2.0000      -0.919594       -25.0234
 143   2.0000      -0.909588       -24.7511
 144   2.0000      -0.905888       -24.6505
 145   2.0000      -0.901248       -24.5242
 146   2.0000      -0.898233       -24.4422
 147   2.0000      -0.891176       -24.2501
 148   2.0000      -0.884173       -24.0596
 149   2.0000      -0.879101       -23.9216
 150   2.0000      -0.871066       -23.7029
 151   2.0000      -0.867147       -23.5963
 152   2.0000      -0.861499       -23.4426
 153   2.0000      -0.848528       -23.0896
 154   2.0000      -0.845639       -23.0110
 155   2.0000      -0.841749       -22.9052
 156   2.0000      -0.834708       -22.7136
 157   2.0000      -0.822704       -22.3869
 158   2.0000      -0.812383       -22.1061
 159   2.0000      -0.806616       -21.9491
 160   2.0000      -0.792059       -21.5530
 161   2.0000      -0.776877       -21.1399
 162   2.0000      -0.773320       -21.0431
 163   2.0000      -0.763136       -20.7660
 164   2.0000      -0.753193       -20.4954
 165   2.0000      -0.746617       -20.3165
 166   2.0000      -0.739043       -20.1104
 167   2.0000      -0.726347       -19.7649
 168   2.0000      -0.719333       -19.5741
 169   2.0000      -0.713312       -19.4102
 170   2.0000      -0.704279       -19.1644
 171   2.0000      -0.702871       -19.1261
 172   2.0000      -0.693715       -18.8769
 173   2.0000      -0.688944       -18.7471
 174   2.0000      -0.681743       -18.5512
 175   2.0000      -0.671103       -18.2616
 176   2.0000      -0.669140       -18.2082
 177   2.0000      -0.664115       -18.0715
 178   2.0000      -0.662060       -18.0156
 179   2.0000      -0.658525       -17.9194
 180   2.0000      -0.649996       -17.6873
 181   2.0000      -0.649010       -17.6605
 182   2.0000      -0.644258       -17.5312
 183   2.0000      -0.641155       -17.4467
 184   2.0000      -0.640204       -17.4208
 185   2.0000      -0.638007       -17.3610
 186   2.0000      -0.633170       -17.2294
 187   2.0000      -0.631033       -17.1713
 188   2.0000      -0.626120       -17.0376
 189   2.0000      -0.621596       -16.9145
 190   2.0000      -0.615958       -16.7611
 191   2.0000      -0.615571       -16.7505
 192   2.0000      -0.608027       -16.5453
 193   2.0000      -0.605525       -16.4772
 194   2.0000      -0.601838       -16.3769
 195   2.0000      -0.594326       -16.1724
 196   2.0000      -0.592613       -16.1258
 197   2.0000      -0.588721       -16.0199
 198   2.0000      -0.584003       -15.8915
 199   2.0000      -0.579646       -15.7730
 200   2.0000      -0.574180       -15.6242
 201   2.0000      -0.569898       -15.5077
 202   2.0000      -0.568383       -15.4665
 203   2.0000      -0.560111       -15.2414
 204   2.0000      -0.559422       -15.2227
 205   2.0000      -0.553179       -15.0528
 206   2.0000      -0.550003       -14.9663
 207   2.0000      -0.546129       -14.8609
 208   2.0000      -0.544325       -14.8118
 209   2.0000      -0.542484       -14.7617
 210   2.0000      -0.538780       -14.6609
 211   2.0000      -0.536600       -14.6016
 212   2.0000      -0.534962       -14.5571
 213   2.0000      -0.531309       -14.4576
 214   2.0000      -0.530200       -14.4275
 215   2.0000      -0.527480       -14.3535
 216   2.0000      -0.523891       -14.2558
 217   2.0000      -0.520177       -14.1547
 218   2.0000      -0.518681       -14.1140
 219   2.0000      -0.513672       -13.9777
 220   2.0000      -0.511984       -13.9318
 221   2.0000      -0.509961       -13.8767
 222   2.0000      -0.508980       -13.8501
 223   2.0000      -0.506579       -13.7847
 224   2.0000      -0.501226       -13.6390
 225   2.0000      -0.499447       -13.5906
 226   2.0000      -0.496289       -13.5047
 227   2.0000      -0.490899       -13.3580
 228   2.0000      -0.490444       -13.3456
 229   2.0000      -0.489532       -13.3209
 230   2.0000      -0.488172       -13.2838
 231   2.0000      -0.486867       -13.2483
 232   2.0000      -0.482529       -13.1303
 233   2.0000      -0.481523       -13.1029
 234   2.0000      -0.477934       -13.0052
 235   2.0000      -0.475202       -12.9309
 236   2.0000      -0.470739       -12.8095
 237   2.0000      -0.465490       -12.6666
 238   2.0000      -0.463582       -12.6147
 239   2.0000      -0.460897       -12.5416
 240   2.0000      -0.459710       -12.5093
 241   2.0000      -0.455906       -12.4058
 242   2.0000      -0.453724       -12.3464
 243   2.0000      -0.453383       -12.3372
 244   2.0000      -0.452538       -12.3142
 245   2.0000      -0.450490       -12.2585
 246   2.0000      -0.444300       -12.0900
 247   2.0000      -0.440986       -11.9998
 248   2.0000      -0.440051       -11.9744
 249   2.0000      -0.438166       -11.9231
 250   2.0000      -0.437923       -11.9165
 251   2.0000      -0.435954       -11.8629
 252   2.0000      -0.434733       -11.8297
 253   2.0000      -0.431850       -11.7512
 254   2.0000      -0.425127       -11.5683
 255   2.0000      -0.423706       -11.5296
 256   2.0000      -0.420954       -11.4547
 257   2.0000      -0.420469       -11.4415
 258   2.0000      -0.415966       -11.3190
 259   2.0000      -0.413581       -11.2541
 260   2.0000      -0.405818       -11.0429
 261   2.0000      -0.401655       -10.9296
 262   2.0000      -0.399992       -10.8843
 263   2.0000      -0.396867       -10.7993
 264   2.0000      -0.393753       -10.7146
 265   2.0000      -0.392585       -10.6828
 266   2.0000      -0.388537       -10.5726
 267   2.0000      -0.385522       -10.4906
 268   2.0000      -0.383615       -10.4387
 269   2.0000      -0.382480       -10.4078
 270   2.0000      -0.381571       -10.3831
 271   2.0000      -0.375998       -10.2314
 272   2.0000      -0.375581       -10.2201
 273   2.0000      -0.370554       -10.0833
 274   2.0000      -0.367384        -9.9970
 275   2.0000      -0.366130        -9.9629
 276   2.0000      -0.361036        -9.8243
 277   2.0000      -0.359122        -9.7722
 278   2.0000      -0.352190        -9.5836
 279   2.0000      -0.350074        -9.5260
 280   2.0000      -0.342577        -9.3220
 281   2.0000      -0.330165        -8.9842
 282   2.0000      -0.329162        -8.9569
 283   2.0000      -0.322791        -8.7836
 284   2.0000      -0.308877        -8.4050
 285   2.0000      -0.306094        -8.3292
 286   2.0000      -0.302862        -8.2413
 287   2.0000      -0.287787        -7.8311
 288   2.0000      -0.281034        -7.6473
 289   2.0000      -0.238791        -6.4978
 290   0.0000      -0.113273        -3.0823
 291   0.0000      -0.097618        -2.6563
 292   0.0000      -0.079962        -2.1759
 293   0.0000      -0.071962        -1.9582
 294   0.0000      -0.057694        -1.5699

MULLIKEN ATOMIC CHARGES
-----------------------
   0 C :    0.325803
   1 C :   -0.338025
   2 C :   -0.186367
   3 N :    0.155989
   4 C :   -0.196145
   5 N :    0.148542
   6 C :    0.011196
   7 C :   -0.006673
   8 C :   -0.068179
   9 C :    0.118604
  10 C :   -0.090811
  11 C :   -0.020857
  12 S :    0.195641
  13 C :   -0.123072
  14 C :    0.036489
  15 Br:    0.031574
  16 C :    0.172650
  17 O :   -0.228203
  18 C :   -0.132111
  19 C :    0.028382
  20 N :   -0.009852
  21 C :   -0.115649
  22 S :    0.185218
  23 C :    0.006304
  24 N :    0.273150
  25 O :   -0.243471
  26 O :   -0.252298
  27 C :    0.004349
  28 C :    0.119610
  29 C :   -0.030104
  30 C :    0.002279
  31 C :    0.108944
  32 C :   -0.075360
  33 C :    0.152555
  34 N :    0.247060
  35 O :   -0.229506
  36 O :   -0.235036
  37 C :    0.033461
  38 C :   -0.031930
  39 C :    0.017668
  40 C :   -0.006294
  41 C :   -0.039721
  42 C :    0.053108
  43 C :    0.036487
  44 C :   -0.045980
  45 S :    0.098924
  46 C :   -0.057246
  47 C :    0.041084
  48 C :    0.042067
  49 C :   -0.018359
  50 S :    0.108187
  51 C :   -0.001828
  52 C :    0.020326
  53 C :   -0.123337
  54 C :    0.287998
  55 C :   -0.348487
  56 C :   -0.178708
  57 N :    0.141339
  58 C :   -0.216680
  59 N :    0.160193
  60 C :    0.006329
  61 C :   -0.003044
  62 C :    0.134920
  63 O :   -0.153623
  64 C :   -0.073851
  65 C :    0.114957
  66 C :   -0.090178
  67 C :   -0.024752
  68 S :    0.181683
  69 C :   -0.125336
  70 C :    0.038674
  71 Br:    0.018418
  72 H :   -0.009937
  73 H :   -0.003641
  74 H :   -0.001217
  75 H :    0.048349
  76 H :    0.180138
  77 H :    0.016166
  78 H :    0.006515
  79 H :   -0.003406
  80 H :    0.006772
  81 H :    0.002213
  82 H :   -0.003306
  83 H :    0.017449
  84 H :    0.003573
  85 H :   -0.002977
  86 H :   -0.002718
  87 H :    0.005097
  88 H :    0.010377
  89 H :    0.015292
  90 H :   -0.012245
  91 H :   -0.006918
  92 H :   -0.004663
Sum of atomic charges:   -0.0000000

LOEWDIN ATOMIC CHARGES
----------------------
   0 C :    0.078262
   1 C :   -0.144855
   2 C :   -0.020233
   3 N :   -0.049326
   4 C :   -0.020341
   5 N :   -0.049989
   6 C :   -0.017975
   7 C :   -0.052780
   8 C :    0.025004
   9 C :   -0.033186
  10 C :   -0.142920
  11 C :   -0.006155
  12 S :    0.441062
  13 C :   -0.270151
  14 C :   -0.070101
  15 Br:    0.142779
  16 C :    0.098228
  17 O :   -0.180514
  18 C :   -0.144184
  19 C :    0.112652
  20 N :    0.076995
  21 C :   -0.111547
  22 S :    0.478203
  23 C :   -0.198988
  24 N :    0.272594
  25 O :   -0.209298
  26 O :   -0.219307
  27 C :    0.002974
  28 C :   -0.087708
  29 C :   -0.019500
  30 C :   -0.010107
  31 C :   -0.021509
  32 C :    0.010809
  33 C :   -0.025455
  34 N :    0.286104
  35 O :   -0.197752
  36 O :   -0.194332
  37 C :   -0.014201
  38 C :   -0.012374
  39 C :    0.013887
  40 C :   -0.027302
  41 C :   -0.140561
  42 C :   -0.007865
  43 C :   -0.029926
  44 C :   -0.154160
  45 S :    0.390445
  46 C :   -0.186781
  47 C :   -0.007331
  48 C :   -0.030948
  49 C :   -0.101105
  50 S :    0.399278
  51 C :   -0.066504
  52 C :    0.051616
  53 C :   -0.101921
  54 C :    0.069169
  55 C :   -0.150557
  56 C :   -0.020052
  57 N :   -0.060784
  58 C :   -0.024376
  59 N :   -0.060122
  60 C :   -0.016533
  61 C :   -0.051436
  62 C :    0.079185
  63 O :   -0.153697
  64 C :    0.019668
  65 C :   -0.035545
  66 C :   -0.144495
  67 C :   -0.015033
  68 S :    0.429040
  69 C :   -0.273996
  70 C :   -0.070387
  71 Br:    0.132680
  72 H :    0.041382
  73 H :    0.042641
  74 H :    0.039457
  75 H :    0.037037
  76 H :    0.083883
  77 H :    0.046813
  78 H :    0.030250
  79 H :    0.032791
  80 H :    0.041787
  81 H :    0.027542
  82 H :    0.035940
  83 H :    0.039163
  84 H :    0.040456
  85 H :    0.036290
  86 H :    0.036495
  87 H :    0.041438
  88 H :    0.038730
  89 H :    0.035061
  90 H :    0.040143
  91 H :    0.040038
  92 H :    0.038234

  Mayer bond orders larger than 0.100000
B(  0-C ,  1-C ) :   1.6344 B(  0-C ,  6-C ) :   1.0049 B(  0-C , 18-C ) :   1.0942
B(  1-C ,  2-C ) :   1.1412 B(  1-C ,  4-C ) :   1.1465 B(  2-C ,  3-N ) :   2.9704
B(  4-C ,  5-N ) :   2.9551 B(  6-C ,  7-C ) :   1.2719 B(  6-C , 11-C ) :   1.4236
B(  7-C ,  8-C ) :   1.4178 B(  7-C , 16-C ) :   0.9859 B(  8-C ,  9-C ) :   1.2440
B(  8-C , 72-H ) :   1.0190 B(  9-C , 10-C ) :   1.3056 B(  9-C , 14-C ) :   1.1640
B( 10-C , 11-C ) :   1.3195 B( 10-C , 12-S ) :   1.0928 B( 11-C , 73-H ) :   0.9814
B( 12-S , 13-C ) :   1.0887 B( 13-C , 14-C ) :   1.6146 B( 13-C , 15-Br) :   1.0233
B( 14-C , 74-H ) :   1.0012 B( 16-C , 17-O ) :   2.0230 B( 16-C , 18-C ) :   1.0049
B( 17-O , 76-H ) :   0.1471 B( 18-C , 19-C ) :   1.4627 B( 19-C , 20-N ) :   1.3339
B( 19-C , 75-H ) :   0.9308 B( 20-N , 21-C ) :   1.1925 B( 20-N , 76-H ) :   0.8219
B( 21-C , 22-S ) :   1.1402 B( 21-C , 28-C ) :   1.3853 B( 22-S , 23-C ) :   1.0854
B( 23-C , 24-N ) :   0.9593 B( 23-C , 27-C ) :   1.5034 B( 24-N , 25-O ) :   1.5403
B( 24-N , 26-O ) :   1.5196 B( 25-O , 26-O ) :   0.2640 B( 27-C , 28-C ) :   1.2233
B( 27-C , 77-H ) :   1.0009 B( 28-C , 29-C ) :   1.0626 B( 29-C , 30-C ) :   1.7573
B( 29-C , 78-H ) :   0.9586 B( 30-C , 31-C ) :   1.0529 B( 30-C , 79-H ) :   0.9814
B( 31-C , 32-C ) :   1.2904 B( 31-C , 39-C ) :   1.3227 B( 32-C , 33-C ) :   1.3712
B( 32-C , 80-H ) :   0.9992 B( 33-C , 34-N ) :   0.8876 B( 33-C , 37-C ) :   1.3444
B( 34-N , 35-O ) :   1.5582 B( 34-N , 36-O ) :   1.5171 B( 35-O , 36-O ) :   0.2640
B( 37-C , 38-C ) :   1.3241 B( 37-C , 40-C ) :   1.0632 B( 38-C , 39-C ) :   1.4261
B( 38-C , 81-H ) :   0.9765 B( 39-C , 82-H ) :   0.9905 B( 40-C , 41-C ) :   1.6791
B( 40-C , 83-H ) :   0.9384 B( 41-C , 42-C ) :   1.1144 B( 41-C , 45-S ) :   1.0179
B( 42-C , 43-C ) :   1.6223 B( 42-C , 84-H ) :   0.9976 B( 43-C , 44-C ) :   1.1655
B( 43-C , 85-H ) :   0.9942 B( 44-C , 45-S ) :   1.0664 B( 44-C , 46-C ) :   1.5122
B( 46-C , 47-C ) :   1.1928 B( 46-C , 50-S ) :   1.0398 B( 47-C , 48-C ) :   1.5725
B( 47-C , 86-H ) :   0.9938 B( 48-C , 49-C ) :   1.1619 B( 48-C , 87-H ) :   1.0007
B( 49-C , 50-S ) :   1.0788 B( 49-C , 51-C ) :   1.5278 B( 51-C , 52-C ) :   1.1974
B( 51-C , 88-H ) :   0.9615 B( 52-C , 53-C ) :   1.5578 B( 52-C , 89-H ) :   0.9394
B( 53-C , 54-C ) :   1.0742 B( 53-C , 62-C ) :   0.9596 B( 54-C , 55-C ) :   1.6084
B( 54-C , 60-C ) :   1.0064 B( 55-C , 56-C ) :   1.1330 B( 55-C , 58-C ) :   1.1660
B( 56-C , 57-N ) :   2.9780 B( 58-C , 59-N ) :   3.0107 B( 60-C , 61-C ) :   1.2743
B( 60-C , 67-C ) :   1.4208 B( 61-C , 62-C ) :   0.9207 B( 61-C , 64-C ) :   1.4309
B( 62-C , 63-O ) :   2.2479 B( 64-C , 65-C ) :   1.2461 B( 64-C , 90-H ) :   1.0160
B( 65-C , 66-C ) :   1.3138 B( 65-C , 70-C ) :   1.1611 B( 66-C , 67-C ) :   1.3213
B( 66-C , 68-S ) :   1.0838 B( 67-C , 91-H ) :   0.9820 B( 68-S , 69-C ) :   1.0856
B( 69-C , 70-C ) :   1.6214 B( 69-C , 71-Br) :   1.0153 B( 70-C , 92-H ) :   0.9999

-----------------------------------------------------------------------------
         ABSORPTION SPECTRUM VIA TRANSITION ELECTRIC DIPOLE MOMENTS
-----------------------------------------------------------------------------
State   Energy  Wavelength   fosc         T2         TX        TY        TZ
        (cm-1)    (nm)                  (au**2)     (au)      (au)      (au)
-----------------------------------------------------------------------------
   0   13311.5    751.2   1.486095308  36.75313   3.30326  -4.86018  -1.49006
   1   20684.2    483.5   0.224178079   3.56804   1.69310   0.73500   0.40154
   2   21922.5    456.2   0.275107088   4.13131  -1.00902   0.05947  -1.76342
   3   23574.1    424.2   0.524412888   7.32343   1.80647   0.86504   1.81984
   4   23861.8    419.1   0.016640652   0.22958   0.45698   0.07504   0.12297
   5   24714.9    404.6   0.009783553   0.13032  -0.11779  -0.31660   0.12732
   6   24836.6    402.6   0.123139643   1.63223  -0.29482   0.60690  -1.08489
   7   25512.8    392.0   0.328511691   4.23904   0.82662   0.05336  -1.88491
   8   26674.0    374.9   0.182273349   2.24962   0.89919   0.99063  -0.67803
   9   26961.8    370.9   0.204305522   2.49463  -0.42497  -0.62507   1.38684
  10   27597.7    362.3   0.022960657   0.27390   0.49159   0.10672  -0.14440
  11   28739.4    348.0   0.003489117   0.03997  -0.05840   0.04873  -0.18489
  12   28966.5    345.2   0.164105570   1.86510  -1.04805  -0.75411   0.44497
  13   29321.1    341.1   0.627935466   7.05034  -0.58475  -1.22608   2.28148
  14   30293.1    330.1   0.025281234   0.27474   0.25016  -0.32665   0.32476
  15   30423.9    328.7   0.026922420   0.29132  -0.45784   0.10595  -0.26548
  16   31520.0    317.3   0.166203125   1.73592   0.83792   0.38656  -0.94041
  17   31910.4    313.4   0.044842501   0.46263   0.14384  -0.65523  -0.11228
  18   32245.8    310.1   0.539698066   5.51002   0.70035   0.47445  -2.18962
  19   32373.7    308.9   0.052142526   0.53024  -0.56459   0.45817   0.03948
  20   32835.7    304.5   0.179518927   1.79986  -0.72373  -0.34708   1.07500
  21   33155.3    301.6   0.170266535   1.69064   0.71395   0.10090  -1.08201
  22   33262.6    300.6   0.039344056   0.38940  -0.43797  -0.35983   0.26097
  23   33605.8    297.6   0.221003939   2.16502  -0.78651  -1.10055   0.57896
  24   33890.4    295.1   0.041468302   0.40282  -0.31020  -0.22343   0.50663
  25   33931.0    294.7   0.001535935   0.01490   0.04319   0.03647  -0.10820
  26   34175.9    292.6   0.199184879   1.91872  -0.70952  -1.09311   0.46948
  27   35071.8    285.1   0.000304227   0.00286   0.02157  -0.04863   0.00512
  28   35274.6    283.5   0.035832731   0.33442   0.49312   0.07234  -0.29328
  29   35623.6    280.7   0.011437031   0.10569   0.06273  -0.31553   0.04692
  30   35684.8    280.2   0.384129746   3.54380  -0.90298  -0.96081   1.34360
  31   35955.7    278.1   0.039578931   0.36239  -0.13259   0.36426  -0.46057
  32   36244.8    275.9   0.046847214   0.42551  -0.47416  -0.42821   0.13161
  33   36380.1    274.9   0.056223501   0.50878   0.09460  -0.62835   0.32405
  34   36447.9    274.4   0.000532375   0.00481  -0.06327  -0.01603   0.02342
  35   36677.6    272.6   0.006732954   0.06043   0.19140  -0.15266   0.02224
  36   37145.6    269.2   0.054162293   0.48003  -0.16875   0.11619  -0.66185
  37   37337.1    267.8   0.246031809   2.16933  -1.34369  -0.60052  -0.05663
  38   37597.1    266.0   0.018721154   0.16393  -0.38215  -0.13375  -0.00004
  39   38047.8    262.8   0.156740028   1.35621   0.43558   0.28873   1.04072
  40   38321.5    261.0   0.099132971   0.85163  -0.64977  -0.57928   0.30637
  41   38747.8    258.1   0.148501097   1.26171   0.15770  -0.95446   0.57083
  42   38915.8    257.0   0.052079482   0.44057   0.11447   0.61435  -0.22370
  43   39078.4    255.9   0.026042379   0.21939   0.03617  -0.19649  -0.42364
  44   39142.2    255.5   0.036491802   0.30692  -0.26784   0.24853  -0.41643
  45   39325.0    254.3   0.011073692   0.09270   0.21815   0.01874   0.21157
  46   39770.2    251.4   0.019409390   0.16067  -0.27756   0.27073   0.10164
  47   39980.5    250.1   0.043138706   0.35522   0.20885   0.24546  -0.50134

FINAL SINGLE POINT ENERGY     -9963.243141789937

DIPOLE MOMENT
-------------
                                X             Y             Z
Electronic contribution:   -102.84941      46.53528     -24.65107
Nuclear contribution   :    105.47162     -45.84621      22.47608
                        -----------------------------------------
Total Dipole Moment    :      2.62221       0.68907      -2.17499
                        -----------------------------------------
Magnitude (a.u.)       :      3.47583
Magnitude (Debye)      :      8.83485

Rotational constants in cm-1:     0.000558     0.000206     0.000204
Rotational constants in MHz :    16.721635     6.182232     6.109986

                             ****ORCA TERMINATED NORMALLY****
TOTAL RUN TIME: 0 days 0 hours 8 minutes 49 seconds 441 msec
