                         Program Version 4.2.0 -  RELEASE  -
|  1> # ORCA input file
|  2> # SCF done       -213.211867891647          0.000917568249
|  3> ! CAM-B3LYP def2-SVP def2/J RIJCOSX Grid4 TightSCF
|  4> %maxcore 5000
|  5> %tddft
|  6>     Mode sTDDFT
|  7>     Ethresh 5.0
|  8>     maxcore 5000
|  9> end
| 10>
| 11> %pal
| 12>   nprocs 6
| 13>   end
| 14> * xyz 0 1
| 15>    C       -6.12416        -1.71932        -0.96179
| 16>    C       -5.24090        -2.74873        -0.78662
| 17>    C       -5.55931        -4.11054        -0.97911
| 18>    N       -5.76025        -5.23084        -1.12467
| 19>    C       -3.89095        -2.59072        -0.40691
| 20>    N       -2.78784        -2.52687        -0.09615
| 21>    C       -7.52734        -1.84647        -1.33182
| 22>    C       -8.09379        -0.55355        -1.46916
| 23>    C       -9.41645        -0.35128        -1.77866
| 24>    C      -10.22249        -1.47920        -1.96227
| 25>    C       -9.64709        -2.76763        -1.83630
| 26>    C       -8.31020        -2.97209        -1.52283
| 27>    S      -10.81955        -4.02049        -2.11006
| 28>    C      -12.04927        -2.81508        -2.38320
| 29>    C      -11.60722        -1.53904        -2.27579
| 30>   Br      -13.79853        -3.35438        -2.78726
| 31>    C       -7.05472         0.46277        -1.22708
| 32>    O       -7.11495         1.64570        -1.46640
| 33>    C       -5.85108        -0.29863        -0.77650
| 34>    C       -4.73755         0.30551        -0.31218
| 35>    C       -4.71594         1.73223        -0.00694
| 36>    C       -3.88727         2.58977        -0.73781
| 37>    C       -3.91406         3.95679        -0.55423
| 38>    C       -4.75369         4.52866         0.39697
| 39>    C       -5.53001         3.69656         1.16827
| 40>    C       -5.51631         2.30689         0.98059
| 41>    N       -6.30098         1.70123         1.94837
| 42>    C       -6.50554         0.29797         2.16673
| 43>    C       -6.87717         2.62910         2.77951
| 44>    O       -7.56357         2.36981         3.73612
| 45>    C       -6.49046         4.01304         2.27179
| 46>    C       -7.76891         4.71165         1.76100
| 47>    C       -8.28796         3.96821         0.52630
| 48>    O       -8.67066         2.82308         0.47734
| 49>    N       -8.23512         4.83342        -0.52923
| 50>    C       -8.57067         4.46108        -1.87612
| 51>    C       -7.81332         6.09353        -0.13520
| 52>    C       -7.68902         7.24182        -0.88866
| 53>    C       -7.30706         8.42719        -0.24370
| 54>    C       -7.00813         8.40624         1.12214
| 55>    C       -7.10982         7.24047         1.86476
| 56>    C       -7.53074         6.08879         1.23744
| 57>    C       -7.28454         9.65979        -1.00587
| 58>    C       -7.47079        10.87934        -0.46686
| 59>    C       -7.57166        12.09774        -1.19626
| 60>    O       -7.31382        12.18946        -2.53070
| 61>    C       -8.00112        13.33009        -0.74788
| 62>    C       -8.44827        14.07412         0.43233
| 63>    O       -8.57715        13.73763         1.58133
| 64>    N       -8.71366        15.34671        -0.06765
| 65>    C       -8.49277        15.51050        -1.43727
| 66>    O       -8.67345        16.53240        -2.04895
| 67>    C       -8.02638        14.19452        -1.86751
| 68>    C       -7.58646        13.45889        -2.95630
| 69>    C       -7.42299        13.87442        -4.29387
| 70>    C       -6.79714        13.17420        -5.28423
| 71>    C       -6.69799        13.66999        -6.59268
| 72>    C       -5.96179        13.11866        -7.61143
| 73>    C       -5.88843        13.60486        -8.94109
| 74>    C       -5.04179        12.90931        -9.74648
| 75>    C       -4.37972        11.84186        -9.09571
| 76>    S       -4.91048        11.72363        -7.43135
| 77>    C       -3.40923        11.01752        -9.62844
| 78>    C       -2.91086        11.02590       -10.95315
| 79>    C       -1.91075        10.13269       -11.17153
| 80>    C       -1.55025         9.36922       -10.02949
| 81>    S       -2.56954         9.81302        -8.67116
| 82>    C       -0.54075         8.44765        -9.97818
| 83>    C       -0.11324         7.70207        -8.86566
| 84>    S       -0.82508         7.75850        -7.26174
| 85>    C        0.27969         6.62434        -6.59527
| 86>    C        1.17585         6.19963        -7.54835
| 87>    C        0.94421         6.80892        -8.81793
| 88>    O        1.83867         6.37960        -9.73131
| 89>    C        2.63798         5.50518        -9.06163
| 90>    N        3.68768         4.88934        -9.78623
| 91>    O        4.39337         4.11826        -9.16414
| 92>    O        3.81152         5.17231       -10.95763
| 93>    C        2.29783         5.34764        -7.74523
| 94>    H       -9.81874         0.64618        -1.85529
| 95>    H       -7.92157        -3.97255        -1.43116
| 96>    H      -12.23098        -0.67442        -2.41050
| 97>    H       -3.81590        -0.24363        -0.16910
| 98>    H       -3.24667         2.16024        -1.49353
| 99>    H       -3.28166         4.58847        -1.15850
|100>    H       -4.78365         5.59862         0.53629
|101>    H       -5.55776        -0.24129         2.11797
|102>    H       -7.20237        -0.11691         1.43384
|103>    H       -6.94162         0.19366         3.16139
|104>    H       -6.05229         4.61396         3.07241
|105>    H       -8.51256         4.68068         2.56351
|106>    H       -8.63978         3.37523        -1.90190
|107>    H       -7.78292         4.78232        -2.55790
|108>    H       -9.52176         4.90529        -2.17976
|109>    H       -7.91760         7.24985        -1.94310
|110>    H       -6.68116         9.31212         1.60654
|111>    H       -6.87778         7.24226         2.91898
|112>    H       -7.18695         9.56863        -2.07974
|113>    H       -7.63957        11.00232         0.59317
|114>    H       -9.04918        16.09768         0.51840
|115>    H       -7.81380        14.86148        -4.49928
|116>    H       -6.34523        12.21677        -5.06059
|117>    H       -7.23812        14.57960        -6.82255
|118>    H       -6.46557        14.45661        -9.25468
|119>    H       -4.86241        13.14321       -10.78014
|120>    H       -3.30220        11.68878       -11.70327
|121>    H       -1.40581         9.99815       -12.11146
|122>    H        0.02008         8.27104       -10.88693
|123>    H        0.20532         6.34708        -5.56459
|124>    H        2.79087         4.71230        -7.03921
|125> *
|126>
|127>                          ****END OF INPUT****

CARTESIAN COORDINATES (ANGSTROEM)
---------------------------------
  C     -6.124160   -1.719320   -0.961790
  C     -5.240900   -2.748730   -0.786620
  C     -5.559310   -4.110540   -0.979110
  N     -5.760250   -5.230840   -1.124670
  C     -3.890950   -2.590720   -0.406910
  N     -2.787840   -2.526870   -0.096150
  C     -7.527340   -1.846470   -1.331820
  C     -8.093790   -0.553550   -1.469160
  C     -9.416450   -0.351280   -1.778660
  C    -10.222490   -1.479200   -1.962270
  C     -9.647090   -2.767630   -1.836300
  C     -8.310200   -2.972090   -1.522830
  S    -10.819550   -4.020490   -2.110060
  C    -12.049270   -2.815080   -2.383200
  C    -11.607220   -1.539040   -2.275790
  Br   -13.798530   -3.354380   -2.787260
  C     -7.054720    0.462770   -1.227080
  O     -7.114950    1.645700   -1.466400
  C     -5.851080   -0.298630   -0.776500
  C     -4.737550    0.305510   -0.312180
  C     -4.715940    1.732230   -0.006940
  C     -3.887270    2.589770   -0.737810
  C     -3.914060    3.956790   -0.554230
  C     -4.753690    4.528660    0.396970
  C     -5.530010    3.696560    1.168270
  C     -5.516310    2.306890    0.980590
  N     -6.300980    1.701230    1.948370
  C     -6.505540    0.297970    2.166730
  C     -6.877170    2.629100    2.779510
  O     -7.563570    2.369810    3.736120
  C     -6.490460    4.013040    2.271790
  C     -7.768910    4.711650    1.761000
  C     -8.287960    3.968210    0.526300
  O     -8.670660    2.823080    0.477340
  N     -8.235120    4.833420   -0.529230
  C     -8.570670    4.461080   -1.876120
  C     -7.813320    6.093530   -0.135200
  C     -7.689020    7.241820   -0.888660
  C     -7.307060    8.427190   -0.243700
  C     -7.008130    8.406240    1.122140
  C     -7.109820    7.240470    1.864760
  C     -7.530740    6.088790    1.237440
  C     -7.284540    9.659790   -1.005870
  C     -7.470790   10.879340   -0.466860
  C     -7.571660   12.097740   -1.196260
  O     -7.313820   12.189460   -2.530700
  C     -8.001120   13.330090   -0.747880
  C     -8.448270   14.074120    0.432330
  O     -8.577150   13.737630    1.581330
  N     -8.713660   15.346710   -0.067650
  C     -8.492770   15.510500   -1.437270
  O     -8.673450   16.532400   -2.048950
  C     -8.026380   14.194520   -1.867510
  C     -7.586460   13.458890   -2.956300
  C     -7.422990   13.874420   -4.293870
  C     -6.797140   13.174200   -5.284230
  C     -6.697990   13.669990   -6.592680
  C     -5.961790   13.118660   -7.611430
  C     -5.888430   13.604860   -8.941090
  C     -5.041790   12.909310   -9.746480
  C     -4.379720   11.841860   -9.095710
  S     -4.910480   11.723630   -7.431350
  C     -3.409230   11.017520   -9.628440
  C     -2.910860   11.025900  -10.953150
  C     -1.910750   10.132690  -11.171530
  C     -1.550250    9.369220  -10.029490
  S     -2.569540    9.813020   -8.671160
  C     -0.540750    8.447650   -9.978180
  C     -0.113240    7.702070   -8.865660
  S     -0.825080    7.758500   -7.261740
  C      0.279690    6.624340   -6.595270
  C      1.175850    6.199630   -7.548350
  C      0.944210    6.808920   -8.817930
  O      1.838670    6.379600   -9.731310
  C      2.637980    5.505180   -9.061630
  N      3.687680    4.889340   -9.786230
  O      4.393370    4.118260   -9.164140
  O      3.811520    5.172310  -10.957630
  C      2.297830    5.347640   -7.745230
  H     -9.818740    0.646180   -1.855290
  H     -7.921570   -3.972550   -1.431160
  H    -12.230980   -0.674420   -2.410500
  H     -3.815900   -0.243630   -0.169100
  H     -3.246670    2.160240   -1.493530
  H     -3.281660    4.588470   -1.158500
  H     -4.783650    5.598620    0.536290
  H     -5.557760   -0.241290    2.117970
  H     -7.202370   -0.116910    1.433840
  H     -6.941620    0.193660    3.161390
  H     -6.052290    4.613960    3.072410
  H     -8.512560    4.680680    2.563510
  H     -8.639780    3.375230   -1.901900
  H     -7.782920    4.782320   -2.557900
  H     -9.521760    4.905290   -2.179760
  H     -7.917600    7.249850   -1.943100
  H     -6.681160    9.312120    1.606540
  H     -6.877780    7.242260    2.918980
  H     -7.186950    9.568630   -2.079740
  H     -7.639570   11.002320    0.593170
  H     -9.049180   16.097680    0.518400
  H     -7.813800   14.861480   -4.499280
  H     -6.345230   12.216770   -5.060590
  H     -7.238120   14.579600   -6.822550
  H     -6.465570   14.456610   -9.254680
  H     -4.862410   13.143210  -10.780140
  H     -3.302200   11.688780  -11.703270
  H     -1.405810    9.998150  -12.111460
  H      0.020080    8.271040  -10.886930
  H      0.205320    6.347080   -5.564590
  H      2.790870    4.712300   -7.039210

 Total Charge           Charge          ....    0
 Multiplicity           Mult            ....    1
 Number of Electrons    NEL             ....  598
 Basis Dimension        Dim             .... 1295

ORBITAL ENERGIES
----------------

  NO   OCC          E(Eh)            E(eV)
   0   2.0000    -482.889439    -13140.0897
   1   2.0000     -88.981657     -2421.3140
   2   2.0000     -88.980134     -2421.2725
   3   2.0000     -88.957322     -2420.6518
   4   2.0000     -88.954879     -2420.5853
   5   2.0000     -62.567152     -1702.5388
   6   2.0000     -56.401104     -1534.7521
   7   2.0000     -56.398381     -1534.6780
   8   2.0000     -56.398352     -1534.6772
   9   2.0000     -19.313908      -525.5582
  10   2.0000     -19.307821      -525.3925
  11   2.0000     -19.246972      -523.7367
  12   2.0000     -19.244762      -523.6766
  13   2.0000     -19.222888      -523.0814
  14   2.0000     -19.205625      -522.6116
  15   2.0000     -19.204780      -522.5886
  16   2.0000     -19.191519      -522.2278
  17   2.0000     -19.189649      -522.1769
  18   2.0000     -14.658589      -398.8805
  19   2.0000     -14.453403      -393.2971
  20   2.0000     -14.452805      -393.2808
  21   2.0000     -14.449107      -393.1802
  22   2.0000     -14.423944      -392.4955
  23   2.0000     -14.422807      -392.4645
  24   2.0000     -10.394877      -282.8590
  25   2.0000     -10.394161      -282.8395
  26   2.0000     -10.391013      -282.7538
  27   2.0000     -10.374052      -282.2923
  28   2.0000     -10.371982      -282.2360
  29   2.0000     -10.371937      -282.2347
  30   2.0000     -10.363802      -282.0134
  31   2.0000     -10.357615      -281.8450
  32   2.0000     -10.357555      -281.8434
  33   2.0000     -10.351628      -281.6821
  34   2.0000     -10.351311      -281.6735
  35   2.0000     -10.349572      -281.6262
  36   2.0000     -10.331005      -281.1209
  37   2.0000     -10.326037      -280.9858
  38   2.0000     -10.325068      -280.9594
  39   2.0000     -10.323031      -280.9039
  40   2.0000     -10.322438      -280.8878
  41   2.0000     -10.322001      -280.8759
  42   2.0000     -10.320928      -280.8467
  43   2.0000     -10.320245      -280.8281
  44   2.0000     -10.319481      -280.8073
  45   2.0000     -10.318555      -280.7822
  46   2.0000     -10.318233      -280.7734
  47   2.0000     -10.317734      -280.7598
  48   2.0000     -10.316314      -280.7212
  49   2.0000     -10.314973      -280.6847
  50   2.0000     -10.313045      -280.6322
  51   2.0000     -10.311640      -280.5940
  52   2.0000     -10.305547      -280.4282
  53   2.0000     -10.305506      -280.4271
  54   2.0000     -10.303182      -280.3638
  55   2.0000     -10.302886      -280.3558
  56   2.0000     -10.300845      -280.3002
  57   2.0000     -10.300683      -280.2958
  58   2.0000     -10.299532      -280.2645
  59   2.0000     -10.298146      -280.2268
  60   2.0000     -10.298020      -280.2234
  61   2.0000     -10.297740      -280.2158
  62   2.0000     -10.296659      -280.1863
  63   2.0000     -10.295880      -280.1652
  64   2.0000     -10.294767      -280.1348
  65   2.0000     -10.293384      -280.0972
  66   2.0000     -10.292827      -280.0821
  67   2.0000     -10.291583      -280.0482
  68   2.0000     -10.290900      -280.0296
  69   2.0000     -10.290898      -280.0296
  70   2.0000     -10.290318      -280.0138
  71   2.0000     -10.289500      -279.9915
  72   2.0000     -10.286670      -279.9145
  73   2.0000     -10.284555      -279.8570
  74   2.0000     -10.284035      -279.8428
  75   2.0000     -10.283675      -279.8330
  76   2.0000     -10.281920      -279.7853
  77   2.0000     -10.281594      -279.7764
  78   2.0000     -10.280757      -279.7536
  79   2.0000     -10.279888      -279.7300
  80   2.0000     -10.279290      -279.7137
  81   2.0000     -10.274896      -279.5941
  82   2.0000     -10.271319      -279.4968
  83   2.0000      -8.796594      -239.3675
  84   2.0000      -8.076222      -219.7652
  85   2.0000      -8.076123      -219.7625
  86   2.0000      -8.053500      -219.1469
  87   2.0000      -8.051218      -219.0848
  88   2.0000      -6.632897      -180.4903
  89   2.0000      -6.618337      -180.0941
  90   2.0000      -6.618110      -180.0879
  91   2.0000      -6.045819      -164.5151
  92   2.0000      -6.045573      -164.5084
  93   2.0000      -6.041539      -164.3986
  94   2.0000      -6.041138      -164.3877
  95   2.0000      -6.038639      -164.3197
  96   2.0000      -6.037331      -164.2841
  97   2.0000      -6.023293      -163.9021
  98   2.0000      -6.020933      -163.8379
  99   2.0000      -6.019202      -163.7908
 100   2.0000      -6.016977      -163.7303
 101   2.0000      -6.014332      -163.6583
 102   2.0000      -6.012081      -163.5970
 103   2.0000      -2.748798       -74.7986
 104   2.0000      -2.744670       -74.6863
 105   2.0000      -2.744510       -74.6819
 106   2.0000      -2.732927       -74.3667
 107   2.0000      -2.732918       -74.3665
 108   2.0000      -1.330257       -36.1981
 109   2.0000      -1.234005       -33.5790
 110   2.0000      -1.220629       -33.2150
 111   2.0000      -1.149403       -31.2769
 112   2.0000      -1.146673       -31.2026
 113   2.0000      -1.140394       -31.0317
 114   2.0000      -1.136384       -30.9226
 115   2.0000      -1.130525       -30.7631
 116   2.0000      -1.128753       -30.7149
 117   2.0000      -1.060215       -28.8499
 118   2.0000      -1.058787       -28.8111
 119   2.0000      -1.036932       -28.2164
 120   2.0000      -1.028972       -27.9997
 121   2.0000      -1.019771       -27.7494
 122   2.0000      -1.007657       -27.4197
 123   2.0000      -1.001897       -27.2630
 124   2.0000      -1.000134       -27.2150
 125   2.0000      -0.995809       -27.0974
 126   2.0000      -0.982231       -26.7279
 127   2.0000      -0.962232       -26.1837
 128   2.0000      -0.957671       -26.0595
 129   2.0000      -0.947932       -25.7945
 130   2.0000      -0.939601       -25.5679
 131   2.0000      -0.934770       -25.4364
 132   2.0000      -0.928594       -25.2683
 133   2.0000      -0.919464       -25.0199
 134   2.0000      -0.914744       -24.8914
 135   2.0000      -0.911607       -24.8061
 136   2.0000      -0.905904       -24.6509
 137   2.0000      -0.899731       -24.4829
 138   2.0000      -0.891324       -24.2542
 139   2.0000      -0.887678       -24.1549
 140   2.0000      -0.880957       -23.9721
 141   2.0000      -0.870378       -23.6842
 142   2.0000      -0.865068       -23.5397
 143   2.0000      -0.856958       -23.3190
 144   2.0000      -0.847324       -23.0568
 145   2.0000      -0.843412       -22.9504
 146   2.0000      -0.836184       -22.7537
 147   2.0000      -0.835201       -22.7270
 148   2.0000      -0.831024       -22.6133
 149   2.0000      -0.824449       -22.4344
 150   2.0000      -0.813800       -22.1446
 151   2.0000      -0.803013       -21.8511
 152   2.0000      -0.798826       -21.7372
 153   2.0000      -0.790126       -21.5004
 154   2.0000      -0.780195       -21.2302
 155   2.0000      -0.774770       -21.0826
 156   2.0000      -0.766282       -20.8516
 157   2.0000      -0.763308       -20.7707
 158   2.0000      -0.759445       -20.6655
 159   2.0000      -0.754544       -20.5322
 160   2.0000      -0.739857       -20.1325
 161   2.0000      -0.719457       -19.5774
 162   2.0000      -0.716637       -19.5007
 163   2.0000      -0.712447       -19.3867
 164   2.0000      -0.710695       -19.3390
 165   2.0000      -0.703197       -19.1350
 166   2.0000      -0.699043       -19.0219
 167   2.0000      -0.697012       -18.9667
 168   2.0000      -0.693455       -18.8699
 169   2.0000      -0.689724       -18.7683
 170   2.0000      -0.680231       -18.5100
 171   2.0000      -0.679390       -18.4872
 172   2.0000      -0.669750       -18.2248
 173   2.0000      -0.667549       -18.1649
 174   2.0000      -0.660531       -17.9740
 175   2.0000      -0.652033       -17.7427
 176   2.0000      -0.650615       -17.7041
 177   2.0000      -0.643838       -17.5197
 178   2.0000      -0.642702       -17.4888
 179   2.0000      -0.635472       -17.2921
 180   2.0000      -0.632459       -17.2101
 181   2.0000      -0.630320       -17.1519
 182   2.0000      -0.629380       -17.1263
 183   2.0000      -0.625399       -17.0180
 184   2.0000      -0.614272       -16.7152
 185   2.0000      -0.609930       -16.5970
 186   2.0000      -0.606167       -16.4946
 187   2.0000      -0.605364       -16.4728
 188   2.0000      -0.600179       -16.3317
 189   2.0000      -0.596780       -16.2392
 190   2.0000      -0.594177       -16.1684
 191   2.0000      -0.592788       -16.1306
 192   2.0000      -0.589500       -16.0411
 193   2.0000      -0.588490       -16.0136
 194   2.0000      -0.586848       -15.9690
 195   2.0000      -0.581214       -15.8156
 196   2.0000      -0.578871       -15.7519
 197   2.0000      -0.574090       -15.6218
 198   2.0000      -0.570785       -15.5319
 199   2.0000      -0.564963       -15.3734
 200   2.0000      -0.564262       -15.3544
 201   2.0000      -0.560450       -15.2506
 202   2.0000      -0.558139       -15.1877
 203   2.0000      -0.557211       -15.1625
 204   2.0000      -0.552522       -15.0349
 205   2.0000      -0.549622       -14.9560
 206   2.0000      -0.545407       -14.8413
 207   2.0000      -0.544645       -14.8205
 208   2.0000      -0.541530       -14.7358
 209   2.0000      -0.538130       -14.6432
 210   2.0000      -0.534955       -14.5569
 211   2.0000      -0.533629       -14.5208
 212   2.0000      -0.531267       -14.4565
 213   2.0000      -0.529084       -14.3971
 214   2.0000      -0.528018       -14.3681
 215   2.0000      -0.527350       -14.3499
 216   2.0000      -0.522741       -14.2245
 217   2.0000      -0.521935       -14.2026
 218   2.0000      -0.518061       -14.0972
 219   2.0000      -0.514620       -14.0035
 220   2.0000      -0.513099       -13.9621
 221   2.0000      -0.512438       -13.9442
 222   2.0000      -0.510646       -13.8954
 223   2.0000      -0.508170       -13.8280
 224   2.0000      -0.507502       -13.8098
 225   2.0000      -0.503287       -13.6951
 226   2.0000      -0.501252       -13.6398
 227   2.0000      -0.499349       -13.5880
 228   2.0000      -0.499124       -13.5818
 229   2.0000      -0.497239       -13.5306
 230   2.0000      -0.495992       -13.4966
 231   2.0000      -0.491189       -13.3659
 232   2.0000      -0.486888       -13.2489
 233   2.0000      -0.483721       -13.1627
 234   2.0000      -0.483086       -13.1454
 235   2.0000      -0.480930       -13.0868
 236   2.0000      -0.480337       -13.0706
 237   2.0000      -0.477488       -12.9931
 238   2.0000      -0.473875       -12.8948
 239   2.0000      -0.471361       -12.8264
 240   2.0000      -0.469024       -12.7628
 241   2.0000      -0.468100       -12.7377
 242   2.0000      -0.465817       -12.6755
 243   2.0000      -0.463449       -12.6111
 244   2.0000      -0.462588       -12.5877
 245   2.0000      -0.459521       -12.5042
 246   2.0000      -0.459075       -12.4921
 247   2.0000      -0.458198       -12.4682
 248   2.0000      -0.456151       -12.4125
 249   2.0000      -0.455427       -12.3928
 250   2.0000      -0.452840       -12.3224
 251   2.0000      -0.452310       -12.3080
 252   2.0000      -0.450620       -12.2620
 253   2.0000      -0.449698       -12.2369
 254   2.0000      -0.444425       -12.0934
 255   2.0000      -0.444173       -12.0866
 256   2.0000      -0.442965       -12.0537
 257   2.0000      -0.438502       -11.9323
 258   2.0000      -0.434650       -11.8274
 259   2.0000      -0.432561       -11.7706
 260   2.0000      -0.430386       -11.7114
 261   2.0000      -0.425724       -11.5845
 262   2.0000      -0.424560       -11.5529
 263   2.0000      -0.423209       -11.5161
 264   2.0000      -0.417377       -11.3574
 265   2.0000      -0.415437       -11.3046
 266   2.0000      -0.414266       -11.2727
 267   2.0000      -0.405307       -11.0290
 268   2.0000      -0.404154       -10.9976
 269   2.0000      -0.392695       -10.6858
 270   2.0000      -0.392643       -10.6844
 271   2.0000      -0.386609       -10.5202
 272   2.0000      -0.382888       -10.4189
 273   2.0000      -0.380167       -10.3449
 274   2.0000      -0.378654       -10.3037
 275   2.0000      -0.377637       -10.2760
 276   2.0000      -0.375238       -10.2107
 277   2.0000      -0.374569       -10.1925
 278   2.0000      -0.367360        -9.9964
 279   2.0000      -0.364296        -9.9130
 280   2.0000      -0.356559        -9.7025
 281   2.0000      -0.352302        -9.5866
 282   2.0000      -0.349386        -9.5073
 283   2.0000      -0.348276        -9.4771
 284   2.0000      -0.341441        -9.2911
 285   2.0000      -0.340121        -9.2552
 286   2.0000      -0.338056        -9.1990
 287   2.0000      -0.335774        -9.1369
 288   2.0000      -0.331246        -9.0136
 289   2.0000      -0.328671        -8.9436
 290   2.0000      -0.319871        -8.7041
 291   2.0000      -0.318351        -8.6628
 292   2.0000      -0.312490        -8.5033
 293   2.0000      -0.298932        -8.1344
 294   2.0000      -0.298469        -8.1218
 295   2.0000      -0.284206        -7.7336
 296   2.0000      -0.275630        -7.5003
 297   2.0000      -0.262840        -7.1522
 298   2.0000      -0.217291        -5.9128
 299   0.0000      -0.094899        -2.5823
 300   0.0000      -0.092066        -2.5052
 301   0.0000      -0.065402        -1.7797
 302   0.0000      -0.058075        -1.5803
 303   0.0000      -0.049002        -1.3334

MULLIKEN ATOMIC CHARGES
-----------------------
   0 C :    0.327749
   1 C :   -0.345664
   2 C :   -0.184427
   3 N :    0.156130
   4 C :   -0.193472
   5 N :    0.163697
   6 C :    0.014504
   7 C :   -0.001865
   8 C :   -0.060171
   9 C :    0.116018
  10 C :   -0.088662
  11 C :   -0.026874
  12 S :    0.190078
  13 C :   -0.122982
  14 C :    0.040677
  15 Br:    0.029068
  16 C :    0.153871
  17 O :   -0.126094
  18 C :   -0.103427
  19 C :   -0.080652
  20 C :   -0.017765
  21 C :    0.000033
  22 C :    0.031030
  23 C :   -0.037244
  24 C :   -0.047691
  25 C :    0.189033
  26 N :   -0.227913
  27 C :    0.155275
  28 C :    0.131553
  29 O :   -0.190714
  30 C :    0.024416
  31 C :    0.042463
  32 C :    0.113995
  33 O :   -0.203497
  34 N :   -0.221340
  35 C :    0.125035
  36 C :    0.226935
  37 C :   -0.154301
  38 C :    0.110686
  39 C :   -0.022036
  40 C :   -0.036399
  41 C :   -0.020055
  42 C :    0.010329
  43 C :   -0.017520
  44 C :    0.090296
  45 O :   -0.217870
  46 C :   -0.041468
  47 C :    0.165068
  48 O :   -0.148604
  49 N :   -0.168672
  50 C :    0.160880
  51 O :   -0.148514
  52 C :   -0.035754
  53 C :    0.107781
  54 C :   -0.052450
  55 C :    0.036255
  56 C :   -0.033776
  57 C :   -0.006292
  58 C :    0.036563
  59 C :    0.028216
  60 C :   -0.051523
  61 S :    0.085366
  62 C :   -0.037990
  63 C :    0.027211
  64 C :    0.040047
  65 C :   -0.027690
  66 S :    0.067710
  67 C :   -0.009908
  68 C :   -0.189052
  69 S :    0.142883
  70 C :   -0.129803
  71 C :    0.122987
  72 C :    0.194858
  73 O :   -0.184794
  74 C :    0.234838
  75 N :    0.272995
  76 O :   -0.248338
  77 O :   -0.228843
  78 C :   -0.069047
  79 H :   -0.008987
  80 H :   -0.004074
  81 H :   -0.001562
  82 H :    0.044225
  83 H :   -0.025001
  84 H :   -0.021371
  85 H :   -0.015779
  86 H :    0.030191
  87 H :    0.031624
  88 H :    0.054767
  89 H :    0.038383
  90 H :    0.055437
  91 H :    0.063223
  92 H :    0.029397
  93 H :    0.023414
  94 H :   -0.041898
  95 H :   -0.017355
  96 H :   -0.023636
  97 H :   -0.001077
  98 H :    0.015775
  99 H :    0.136415
 100 H :    0.012426
 101 H :    0.007637
 102 H :   -0.007242
 103 H :   -0.007780
 104 H :   -0.009063
 105 H :   -0.010981
 106 H :   -0.006477
 107 H :    0.007446
 108 H :    0.032477
 109 H :    0.014073
Sum of atomic charges:   -0.0000000

LOEWDIN ATOMIC CHARGES
----------------------
   0 C :    0.074264
   1 C :   -0.133329
   2 C :   -0.018511
   3 N :   -0.046260
   4 C :   -0.019919
   5 N :   -0.045328
   6 C :   -0.024014
   7 C :   -0.049795
   8 C :    0.028002
   9 C :   -0.029228
  10 C :   -0.142754
  11 C :   -0.008663
  12 S :    0.434940
  13 C :   -0.269357
  14 C :   -0.069318
  15 Br:    0.140989
  16 C :    0.085979
  17 O :   -0.112650
  18 C :   -0.081335
  19 C :    0.075821
  20 C :   -0.060466
  21 C :    0.000672
  22 C :   -0.039381
  23 C :   -0.009142
  24 C :   -0.043846
  25 C :    0.053061
  26 N :   -0.003050
  27 C :    0.034895
  28 C :    0.083094
  29 O :   -0.183840
  30 C :   -0.020279
  31 C :   -0.020815
  32 C :    0.081713
  33 O :   -0.193426
  34 N :   -0.003321
  35 C :    0.032202
  36 C :    0.037940
  37 C :   -0.052756
  38 C :   -0.017152
  39 C :   -0.030540
  40 C :   -0.013854
  41 C :   -0.040438
  42 C :    0.005670
  43 C :   -0.038212
  44 C :    0.068030
  45 O :    0.006314
  46 C :   -0.098708
  47 C :    0.083842
  48 O :   -0.164986
  49 N :   -0.007689
  50 C :    0.083716
  51 O :   -0.165413
  52 C :   -0.101715
  53 C :    0.068733
  54 C :   -0.044865
  55 C :   -0.006630
  56 C :   -0.060422
  57 C :   -0.137241
  58 C :   -0.032240
  59 C :   -0.026358
  60 C :   -0.177695
  61 S :    0.370933
  62 C :   -0.173140
  63 C :   -0.035304
  64 C :   -0.025796
  65 C :   -0.152743
  66 S :    0.364228
  67 C :   -0.064822
  68 C :   -0.205186
  69 S :    0.473509
  70 C :   -0.188237
  71 C :   -0.083944
  72 C :    0.021572
  73 O :    0.001945
  74 C :    0.026291
  75 N :    0.271686
  76 O :   -0.208915
  77 O :   -0.190979
  78 C :   -0.008782
  79 H :    0.043508
  80 H :    0.041489
  81 H :    0.039760
  82 H :    0.044899
  83 H :    0.030139
  84 H :    0.027153
  85 H :    0.033365
  86 H :    0.026655
  87 H :    0.025400
  88 H :    0.040030
  89 H :    0.048971
  90 H :    0.055726
  91 H :    0.035550
  92 H :    0.028347
  93 H :    0.022144
  94 H :    0.027454
  95 H :    0.028481
  96 H :    0.031472
  97 H :    0.031621
  98 H :    0.044868
  99 H :    0.093283
 100 H :    0.045940
 101 H :    0.028109
 102 H :    0.035994
 103 H :    0.035507
 104 H :    0.033469
 105 H :    0.033054
 106 H :    0.036225
 107 H :    0.047517
 108 H :    0.029020
 109 H :    0.047598

  Mayer bond orders larger than 0.100000
B(  0-C ,  1-C ) :   1.6652 B(  0-C ,  6-C ) :   1.0160 B(  0-C , 18-C ) :   1.0241
B(  1-C ,  2-C ) :   1.1296 B(  1-C ,  4-C ) :   1.1503 B(  2-C ,  3-N ) :   2.9745
B(  4-C ,  5-N ) :   2.9734 B(  6-C ,  7-C ) :   1.2684 B(  6-C , 11-C ) :   1.3970
B(  7-C ,  8-C ) :   1.4256 B(  7-C , 16-C ) :   0.9250 B(  8-C ,  9-C ) :   1.2501
B(  8-C , 79-H ) :   1.0199 B(  9-C , 10-C ) :   1.2968 B(  9-C , 14-C ) :   1.1638
B( 10-C , 11-C ) :   1.3398 B( 10-C , 12-S ) :   1.0866 B( 11-C , 80-H ) :   0.9809
B( 12-S , 13-C ) :   1.0864 B( 13-C , 14-C ) :   1.6164 B( 13-C , 15-Br) :   1.0226
B( 14-C , 81-H ) :   1.0004 B( 16-C , 17-O ) :   2.1926 B( 16-C , 18-C ) :   0.9319
B( 18-C , 19-C ) :   1.7571 B( 19-C , 20-C ) :   0.9846 B( 19-C , 82-H ) :   0.9390
B( 20-C , 21-C ) :   1.3365 B( 20-C , 25-C ) :   1.3939 B( 21-C , 22-C ) :   1.4112
B( 21-C , 83-H ) :   0.9930 B( 22-C , 23-C ) :   1.3031 B( 22-C , 84-H ) :   0.9902
B( 23-C , 24-C ) :   1.4639 B( 23-C , 85-H ) :   1.0024 B( 24-C , 25-C ) :   1.3427
B( 24-C , 30-C ) :   0.9428 B( 25-C , 26-N ) :   1.0803 B( 26-N , 27-C ) :   0.9694
B( 26-N , 28-C ) :   1.1049 B( 27-C , 86-H ) :   0.9597 B( 27-C , 87-H ) :   0.9613
B( 27-C , 88-H ) :   0.9485 B( 28-C , 29-O ) :   2.1728 B( 28-C , 30-C ) :   0.9256
B( 30-C , 31-C ) :   1.0425 B( 30-C , 89-H ) :   0.8855 B( 31-C , 32-C ) :   0.9054
B( 31-C , 41-C ) :   0.9790 B( 31-C , 90-H ) :   0.8749 B( 32-C , 33-O ) :   2.1174
B( 32-C , 34-N ) :   1.1423 B( 34-N , 35-C ) :   0.9618 B( 34-N , 36-C ) :   1.0518
B( 35-C , 91-H ) :   0.9526 B( 35-C , 92-H ) :   0.9669 B( 35-C , 93-H ) :   0.9708
B( 36-C , 37-C ) :   1.3516 B( 36-C , 41-C ) :   1.3536 B( 37-C , 38-C ) :   1.2707
B( 37-C , 94-H ) :   1.0157 B( 38-C , 39-C ) :   1.3808 B( 38-C , 42-C ) :   1.0329
B( 39-C , 40-C ) :   1.3439 B( 39-C , 95-H ) :   0.9877 B( 40-C , 41-C ) :   1.4189
B( 40-C , 96-H ) :   1.0071 B( 42-C , 43-C ) :   1.6820 B( 42-C , 97-H ) :   0.9871
B( 43-C , 44-C ) :   1.1667 B( 43-C , 98-H ) :   0.9512 B( 44-C , 45-O ) :   1.1486
B( 44-C , 46-C ) :   1.4181 B( 45-O , 53-C ) :   1.1437 B( 46-C , 47-C ) :   0.8798
B( 46-C , 52-C ) :   1.2639 B( 47-C , 48-O ) :   2.2561 B( 47-C , 49-N ) :   1.0838
B( 49-N , 50-C ) :   1.0738 B( 49-N , 99-H ) :   0.9144 B( 50-C , 51-O ) :   2.2580
B( 50-C , 52-C ) :   0.8892 B( 52-C , 53-C ) :   1.3929 B( 53-C , 54-C ) :   1.1782
B( 54-C , 55-C ) :   1.5794 B( 54-C ,100-H ) :   0.9645 B( 55-C , 56-C ) :   1.1591
B( 55-C ,101-H ) :   0.9838 B( 56-C , 57-C ) :   1.5464 B( 56-C ,102-H ) :   0.9838
B( 57-C , 58-C ) :   1.1445 B( 57-C , 61-S ) :   1.0356 B( 58-C , 59-C ) :   1.5884
B( 58-C ,103-H ) :   1.0008 B( 59-C , 60-C ) :   1.1873 B( 59-C ,104-H ) :   0.9931
B( 60-C , 61-S ) :   1.0420 B( 60-C , 62-C ) :   1.5182 B( 62-C , 63-C ) :   1.1810
B( 62-C , 66-S ) :   1.0420 B( 63-C , 64-C ) :   1.5983 B( 63-C ,105-H ) :   0.9924
B( 64-C , 65-C ) :   1.1372 B( 64-C ,106-H ) :   1.0006 B( 65-C , 66-S ) :   1.0304
B( 65-C , 67-C ) :   1.5758 B( 67-C , 68-C ) :   1.1738 B( 67-C ,107-H ) :   0.9723
B( 68-C , 69-S ) :   1.1056 B( 68-C , 70-C ) :   0.1085 B( 68-C , 72-C ) :   1.4430
B( 69-S , 70-C ) :   1.1897 B( 70-C , 71-C ) :   1.4170 B( 70-C ,108-H ) :   0.9751
B( 71-C , 72-C ) :   1.2308 B( 71-C , 78-C ) :   1.0579 B( 72-C , 73-O ) :   1.1221
B( 73-O , 74-C ) :   1.1223 B( 74-C , 75-N ) :   0.9150 B( 74-C , 78-C ) :   1.5807
B( 75-N , 76-O ) :   1.5346 B( 75-N , 77-O ) :   1.5157 B( 76-O , 77-O ) :   0.2807
B( 78-C ,109-H ) :   1.0261

-----------------------------------------------------------------------------
         ABSORPTION SPECTRUM VIA TRANSITION ELECTRIC DIPOLE MOMENTS
-----------------------------------------------------------------------------
State   Energy  Wavelength   fosc         T2         TX        TY        TZ
        (cm-1)    (nm)                  (au**2)     (au)      (au)      (au)
-----------------------------------------------------------------------------
   0   13591.9    735.7   1.218029121  29.50203  -3.79043   2.44097   3.02925
   1   19450.7    514.1   0.141936228   2.40234   0.32305   0.34612  -1.47586
   2   19931.5    501.7   0.000656232   0.01084   0.00258  -0.08979  -0.05264
   3   21266.3    470.2   0.159103394   2.46300   0.13508   1.40501   0.68607
   4   22529.3    443.9   0.112814127   1.64851  -0.33704  -0.05933   1.23750
   5   24136.8    414.3   0.746749287  10.18521  -0.87527   2.79565  -1.26628
   6   25927.7    385.7   0.508335232   6.45449  -0.78168   1.38464  -1.98147
   7   26600.0    375.9   0.005778084   0.07151  -0.12480   0.07077   0.22568
   8   26663.3    375.0   0.007823245   0.09659   0.14991   0.22612   0.15162
   9   26973.8    370.7   0.011254388   0.13736   0.33486   0.15854   0.00963
  10   28105.6    355.8   0.386805085   4.53081   2.07342   0.07119   0.47610
  11   28456.5    351.4   0.181540227   2.10023   0.12724  -0.32675  -1.40616
  12   28588.4    349.8   0.045127036   0.51966   0.03932  -0.70124   0.16243
  13   30243.5    330.6   0.095928671   1.04422   0.86310  -0.50665   0.20636
  14   30318.9    329.8   0.004614137   0.05010  -0.20361   0.04540   0.08113
  15   30827.8    324.4   0.008341560   0.08908   0.24237   0.16014   0.06848
  16   31086.4    321.7   0.135309746   1.43296   0.38060  -1.13202   0.08150
  17   31276.6    319.7   0.003555489   0.03742   0.09582   0.13943   0.09382
  18   31359.8    318.9   0.012690104   0.13322   0.14236   0.33113  -0.05747
  19   31837.7    314.1   0.012764855   0.13199  -0.02030   0.36139  -0.03122
  20   31989.7    312.6   0.165644575   1.70468  -0.43244   1.22942  -0.07876
  21   32374.8    308.9   0.246613207   2.50775   0.26220   1.51237  -0.38955
  22   32632.5    306.4   0.060556832   0.61093  -0.34104  -0.54430  -0.44537
  23   32864.4    304.3   0.000013613   0.00014   0.00026  -0.00497  -0.01056
  24   33134.0    301.8   0.071560835   0.71101  -0.31892  -0.74249  -0.24085
  25   33526.4    298.3   0.010647166   0.10455  -0.15582   0.18906   0.21101
  26   34008.8    294.0   0.514070256   4.97630   2.09936  -0.54631   0.52012
  27   34884.5    286.7   0.054942905   0.51851  -0.62617  -0.07744  -0.34703
  28   35095.8    284.9   0.152655920   1.43197  -0.23326   0.99369   0.62461
  29   35602.0    280.9   0.042637916   0.39427  -0.44432   0.44033  -0.05443
  30   35728.3    279.9   0.000429983   0.00396   0.03608   0.01208   0.05014
  31   36028.8    277.6   0.068468102   0.62563   0.04019  -0.46062  -0.64175
  32   36174.5    276.4   0.051603948   0.46963   0.64298   0.09632   0.21663
  33   36306.3    275.4   0.183710593   1.66582  -0.94673   0.63552   0.60467
  34   36542.7    273.7   0.005077548   0.04574   0.02438  -0.15996  -0.13986
  35   36862.6    271.3   0.007083496   0.06326  -0.24058   0.01253  -0.07228
  36   37028.5    270.1   0.005568514   0.04951   0.20451   0.06578   0.05795
  37   37169.6    269.0   0.208124066   1.84336  -0.97689   0.68755   0.64523
  38   37622.2    265.8   0.006178808   0.05407  -0.04974   0.22712  -0.00347
  39   37674.9    265.4   0.020757855   0.18139   0.04563  -0.40868   0.11086
  40   37838.2    264.3   0.007475552   0.06504  -0.06100   0.15682   0.19165
  41   38232.6    261.6   0.047690803   0.41065  -0.44787   0.09029   0.44934
  42   38671.8    258.6   0.003913789   0.03332  -0.05227   0.06060   0.16405
  43   38780.7    257.9   0.014586004   0.12382  -0.16998  -0.30357  -0.05269
  44   39024.7    256.2   0.188672881   1.59164  -0.84848   0.81194   0.46096
  45   39384.0    253.9   0.154715320   1.29327   0.37218   1.02870   0.31069
  46   39468.9    253.4   0.089254423   0.74447   0.46603  -0.46867  -0.55465
  47   40011.0    249.9   0.199553567   1.64194  -0.03668   1.22979  -0.35807
  48   40232.4    248.6   0.060822414   0.49770  -0.51223  -0.46989   0.12050

FINAL SINGLE POINT ENERGY     -7434.532402227773

DIPOLE MOMENT
-------------
                                X             Y             Z
Electronic contribution:    -74.19695    -114.41479     -12.49888
Nuclear contribution   :     72.37619     116.37006      10.68010
                        -----------------------------------------
Total Dipole Moment    :     -1.82076       1.95527      -1.81878
                        -----------------------------------------
Magnitude (a.u.)       :      3.23206
Magnitude (Debye)      :      8.21525

Rotational constants in cm-1:     0.000534     0.000284     0.000224
Rotational constants in MHz :    16.022987     8.526831     6.701892

                             ****ORCA TERMINATED NORMALLY****
TOTAL RUN TIME: 0 days 0 hours 12 minutes 42 seconds 601 msec
