                         Program Version 4.2.0 -  RELEASE  -
|  1> # ORCA input file
|  2> # SCF done       -172.319781073073          0.000232467202
|  3> ! CAM-B3LYP def2-SVP def2/J RIJCOSX Grid4 TightSCF
|  4> %maxcore 5000
|  5> %tddft
|  6>     Mode sTDDFT
|  7>     Ethresh 5.0
|  8>     maxcore 5000
|  9> end
| 10>
| 11> %pal
| 12>   nprocs 6
| 13>   end
| 14> * xyz 0 1
| 15>    C       -3.83902         0.82784        -2.73376
| 16>    C       -3.56757        -0.50514        -2.58773
| 17>    C       -3.07931        -1.32834        -3.62614
| 18>    N       -2.67949        -2.04259        -4.42999
| 19>    C       -3.75893        -1.24867        -1.40250
| 20>    N       -3.90221        -1.92245        -0.48483
| 21>    C       -3.72696         1.59014        -3.97031
| 22>    C       -4.20282         2.90483        -3.73979
| 23>    C       -4.26183         3.86429        -4.72215
| 24>    C       -3.82996         3.50840        -6.00195
| 25>    C       -3.33989         2.19726        -6.22724
| 26>    C       -3.27985         1.22997        -5.23054
| 27>    S       -2.85809         1.97824        -7.88183
| 28>    C       -3.32493         3.62015        -8.24596
| 29>    C       -3.81126         4.30091        -7.17952
| 30>   Br       -3.13683         4.29084        -9.99022
| 31>    C       -4.62508         3.04639        -2.34127
| 32>    O       -5.04287         4.05779        -1.82368
| 33>    C       -4.36721         1.71777        -1.70381
| 34>    C       -4.46585         1.46296        -0.37806
| 35>    C       -5.04877         2.36535         0.57582
| 36>    C       -6.11289         3.24587         0.50576
| 37>    C       -7.09018         3.48434        -0.56920
| 38>    O       -7.69747         4.50620        -0.73698
| 39>    O       -7.29321         2.38787        -1.31942
| 40>    C       -6.07472         3.91059         1.76927
| 41>    N       -5.10827         3.42868         2.50580
| 42>    O       -4.49105         2.47306         1.79428
| 43>    C       -6.87021         5.09066         2.03849
| 44>    O       -8.21386         5.04803         1.88909
| 45>    C       -6.46146         6.39666         2.07218
| 46>    C       -5.29217         7.28624         2.14802
| 47>    O       -4.12244         7.05425         2.28573
| 48>    N       -5.84733         8.55545         2.00788
| 49>    C       -7.22978         8.59524         1.82113
| 50>    O       -7.87063         9.59932         1.64633
| 51>    C       -7.62609         7.18782         1.87307
| 52>    C       -8.68657         6.31367         1.75026
| 53>    C      -10.04730         6.53313         1.37916
| 54>    C      -10.34224         7.54247         0.52484
| 55>    C      -11.59694         7.79198        -0.07864
| 56>    C      -11.67918         8.36666        -1.31890
| 57>    C      -12.83652         8.67149        -2.08423
| 58>    C      -12.57457         9.07363        -3.35699
| 59>    C      -11.19530         9.07877        -3.68218
| 60>    S      -10.23710         8.66329        -2.28116
| 61>    C      -10.60425         9.24581        -4.91858
| 62>    C      -11.21045         9.54099        -6.16184
| 63>    C      -10.35064         9.50871        -7.21501
| 64>    C       -9.01371         9.17330        -6.86858
| 65>    S       -8.88634         8.96555        -5.13171
| 66>    C       -7.97797         8.98283        -7.74352
| 67>    C       -6.66498         8.58512        -7.43158
| 68>    S       -6.04798         8.31116        -5.80971
| 69>    C       -4.47551         7.87147        -6.34856
| 70>    C       -4.39888         7.92376        -7.72193
| 71>    C       -5.63285         8.32235        -8.31871
| 72>    O       -5.53264         8.34213        -9.66421
| 73>    C       -4.25459         7.96178        -9.93274
| 74>    N       -3.86208         7.87278       -11.29161
| 75>    O       -2.71484         7.52833       -11.49913
| 76>    O       -4.68517         8.14112       -12.13841
| 77>    C       -3.51382         7.69736        -8.81298
| 78>    H       -4.64033         4.85154        -4.50766
| 79>    H       -2.89880         0.24730        -5.45274
| 80>    H       -4.14557         5.32120        -7.21880
| 81>    H       -4.04585         0.56126         0.04748
| 82>    H       -7.96252         2.58154        -1.99502
| 83>    H       -5.28199         9.39278         2.01164
| 84>    H      -10.77943         5.79416         1.66829
| 85>    H       -9.52352         8.16530         0.18587
| 86>    H      -12.50472         7.45641         0.40287
| 87>    H      -13.82316         8.57446        -1.66667
| 88>    H      -13.32841         9.33561        -4.07777
| 89>    H      -12.25951         9.76213        -6.24262
| 90>    H      -10.62949         9.69592        -8.23672
| 91>    H       -8.17594         9.12484        -8.79781
| 92>    H       -3.71573         7.62191        -5.63686
| 93>    H       -2.48958         7.38777        -8.79611
| 94> *
| 95>
| 96>                          ****END OF INPUT****

CARTESIAN COORDINATES (ANGSTROEM)
---------------------------------
  C     -3.839020    0.827840   -2.733760
  C     -3.567570   -0.505140   -2.587730
  C     -3.079310   -1.328340   -3.626140
  N     -2.679490   -2.042590   -4.429990
  C     -3.758930   -1.248670   -1.402500
  N     -3.902210   -1.922450   -0.484830
  C     -3.726960    1.590140   -3.970310
  C     -4.202820    2.904830   -3.739790
  C     -4.261830    3.864290   -4.722150
  C     -3.829960    3.508400   -6.001950
  C     -3.339890    2.197260   -6.227240
  C     -3.279850    1.229970   -5.230540
  S     -2.858090    1.978240   -7.881830
  C     -3.324930    3.620150   -8.245960
  C     -3.811260    4.300910   -7.179520
  Br    -3.136830    4.290840   -9.990220
  C     -4.625080    3.046390   -2.341270
  O     -5.042870    4.057790   -1.823680
  C     -4.367210    1.717770   -1.703810
  C     -4.465850    1.462960   -0.378060
  C     -5.048770    2.365350    0.575820
  C     -6.112890    3.245870    0.505760
  C     -7.090180    3.484340   -0.569200
  O     -7.697470    4.506200   -0.736980
  O     -7.293210    2.387870   -1.319420
  C     -6.074720    3.910590    1.769270
  N     -5.108270    3.428680    2.505800
  O     -4.491050    2.473060    1.794280
  C     -6.870210    5.090660    2.038490
  O     -8.213860    5.048030    1.889090
  C     -6.461460    6.396660    2.072180
  C     -5.292170    7.286240    2.148020
  O     -4.122440    7.054250    2.285730
  N     -5.847330    8.555450    2.007880
  C     -7.229780    8.595240    1.821130
  O     -7.870630    9.599320    1.646330
  C     -7.626090    7.187820    1.873070
  C     -8.686570    6.313670    1.750260
  C    -10.047300    6.533130    1.379160
  C    -10.342240    7.542470    0.524840
  C    -11.596940    7.791980   -0.078640
  C    -11.679180    8.366660   -1.318900
  C    -12.836520    8.671490   -2.084230
  C    -12.574570    9.073630   -3.356990
  C    -11.195300    9.078770   -3.682180
  S    -10.237100    8.663290   -2.281160
  C    -10.604250    9.245810   -4.918580
  C    -11.210450    9.540990   -6.161840
  C    -10.350640    9.508710   -7.215010
  C     -9.013710    9.173300   -6.868580
  S     -8.886340    8.965550   -5.131710
  C     -7.977970    8.982830   -7.743520
  C     -6.664980    8.585120   -7.431580
  S     -6.047980    8.311160   -5.809710
  C     -4.475510    7.871470   -6.348560
  C     -4.398880    7.923760   -7.721930
  C     -5.632850    8.322350   -8.318710
  O     -5.532640    8.342130   -9.664210
  C     -4.254590    7.961780   -9.932740
  N     -3.862080    7.872780  -11.291610
  O     -2.714840    7.528330  -11.499130
  O     -4.685170    8.141120  -12.138410
  C     -3.513820    7.697360   -8.812980
  H     -4.640330    4.851540   -4.507660
  H     -2.898800    0.247300   -5.452740
  H     -4.145570    5.321200   -7.218800
  H     -4.045850    0.561260    0.047480
  H     -7.962520    2.581540   -1.995020
  H     -5.281990    9.392780    2.011640
  H    -10.779430    5.794160    1.668290
  H     -9.523520    8.165300    0.185870
  H    -12.504720    7.456410    0.402870
  H    -13.823160    8.574460   -1.666670
  H    -13.328410    9.335610   -4.077770
  H    -12.259510    9.762130   -6.242620
  H    -10.629490    9.695920   -8.236720
  H     -8.175940    9.124840   -8.797810
  H     -3.715730    7.621910   -5.636860
  H     -2.489580    7.387770   -8.796110

 Total Charge           Charge          ....    0
 Multiplicity           Mult            ....    1
 Number of Electrons    NEL             ....  488
 Basis Dimension        Dim             ....  996

ORBITAL ENERGIES
----------------

  NO   OCC          E(Eh)            E(eV)
   0   2.0000    -482.895522    -13140.2552
   1   2.0000     -88.988310     -2421.4950
   2   2.0000     -88.985490     -2421.4183
   3   2.0000     -88.956513     -2420.6298
   4   2.0000     -88.950822     -2420.4749
   5   2.0000     -62.572896     -1702.6951
   6   2.0000     -56.406913     -1534.9101
   7   2.0000     -56.404125     -1534.8343
   8   2.0000     -56.404052     -1534.8323
   9   2.0000     -19.335670      -526.1503
  10   2.0000     -19.317526      -525.6566
  11   2.0000     -19.307814      -525.3923
  12   2.0000     -19.275359      -524.5092
  13   2.0000     -19.252086      -523.8759
  14   2.0000     -19.250591      -523.8352
  15   2.0000     -19.237946      -523.4911
  16   2.0000     -19.217708      -522.9404
  17   2.0000     -19.203260      -522.5473
  18   2.0000     -19.203165      -522.5447
  19   2.0000     -14.663711      -399.0199
  20   2.0000     -14.479527      -394.0080
  21   2.0000     -14.447481      -393.1359
  22   2.0000     -14.432198      -392.7201
  23   2.0000     -14.431776      -392.7086
  24   2.0000     -10.423987      -283.6511
  25   2.0000     -10.394827      -282.8576
  26   2.0000     -10.393512      -282.8218
  27   2.0000     -10.392928      -282.8059
  28   2.0000     -10.389233      -282.7054
  29   2.0000     -10.373024      -282.2643
  30   2.0000     -10.370946      -282.2078
  31   2.0000     -10.363640      -282.0090
  32   2.0000     -10.360172      -281.9146
  33   2.0000     -10.359642      -281.9002
  34   2.0000     -10.357325      -281.8371
  35   2.0000     -10.354377      -281.7569
  36   2.0000     -10.340946      -281.3914
  37   2.0000     -10.340880      -281.3896
  38   2.0000     -10.339891      -281.3627
  39   2.0000     -10.333690      -281.1940
  40   2.0000     -10.333034      -281.1762
  41   2.0000     -10.329239      -281.0729
  42   2.0000     -10.327287      -281.0198
  43   2.0000     -10.325917      -280.9825
  44   2.0000     -10.321921      -280.8738
  45   2.0000     -10.321626      -280.8657
  46   2.0000     -10.321507      -280.8625
  47   2.0000     -10.320428      -280.8331
  48   2.0000     -10.320425      -280.8330
  49   2.0000     -10.319987      -280.8211
  50   2.0000     -10.319914      -280.8191
  51   2.0000     -10.318035      -280.7680
  52   2.0000     -10.316581      -280.7284
  53   2.0000     -10.313154      -280.6352
  54   2.0000     -10.309013      -280.5225
  55   2.0000     -10.308156      -280.4992
  56   2.0000     -10.305864      -280.4368
  57   2.0000     -10.300096      -280.2799
  58   2.0000     -10.299066      -280.2518
  59   2.0000     -10.297466      -280.2083
  60   2.0000     -10.295740      -280.1613
  61   2.0000     -10.295018      -280.1417
  62   2.0000     -10.290489      -280.0185
  63   2.0000     -10.289045      -279.9791
  64   2.0000     -10.288730      -279.9706
  65   2.0000     -10.287675      -279.9419
  66   2.0000     -10.280420      -279.7444
  67   2.0000      -8.802209      -239.5203
  68   2.0000      -8.084171      -219.9815
  69   2.0000      -8.079730      -219.8606
  70   2.0000      -8.052673      -219.1244
  71   2.0000      -8.047369      -218.9801
  72   2.0000      -6.638608      -180.6457
  73   2.0000      -6.623913      -180.2458
  74   2.0000      -6.623639      -180.2384
  75   2.0000      -6.053841      -164.7334
  76   2.0000      -6.049559      -164.6169
  77   2.0000      -6.049067      -164.6035
  78   2.0000      -6.045446      -164.5050
  79   2.0000      -6.044634      -164.4828
  80   2.0000      -6.042224      -164.4173
  81   2.0000      -6.022482      -163.8801
  82   2.0000      -6.018334      -163.7672
  83   2.0000      -6.017119      -163.7341
  84   2.0000      -6.013519      -163.6362
  85   2.0000      -6.013096      -163.6247
  86   2.0000      -6.008115      -163.4891
  87   2.0000      -2.754438       -74.9521
  88   2.0000      -2.750360       -74.8411
  89   2.0000      -2.750150       -74.8354
  90   2.0000      -2.738480       -74.5178
  91   2.0000      -2.738464       -74.5174
  92   2.0000      -1.335778       -36.3484
  93   2.0000      -1.276532       -34.7362
  94   2.0000      -1.237405       -33.6715
  95   2.0000      -1.225570       -33.3495
  96   2.0000      -1.203658       -32.7532
  97   2.0000      -1.155298       -31.4372
  98   2.0000      -1.152498       -31.3611
  99   2.0000      -1.148568       -31.2541
 100   2.0000      -1.128012       -30.6948
 101   2.0000      -1.108113       -30.1533
 102   2.0000      -1.038830       -28.2680
 103   2.0000      -1.035323       -28.1726
 104   2.0000      -1.028113       -27.9764
 105   2.0000      -1.010074       -27.4855
 106   2.0000      -1.009265       -27.4635
 107   2.0000      -1.006699       -27.3937
 108   2.0000      -1.001932       -27.2640
 109   2.0000      -0.991306       -26.9748
 110   2.0000      -0.982445       -26.7337
 111   2.0000      -0.961240       -26.1567
 112   2.0000      -0.944354       -25.6972
 113   2.0000      -0.943335       -25.6695
 114   2.0000      -0.927778       -25.2461
 115   2.0000      -0.923215       -25.1219
 116   2.0000      -0.914006       -24.8714
 117   2.0000      -0.907615       -24.6975
 118   2.0000      -0.902305       -24.5530
 119   2.0000      -0.900637       -24.5076
 120   2.0000      -0.891647       -24.2629
 121   2.0000      -0.879172       -23.9235
 122   2.0000      -0.864360       -23.5204
 123   2.0000      -0.860765       -23.4226
 124   2.0000      -0.845006       -22.9938
 125   2.0000      -0.843200       -22.9447
 126   2.0000      -0.835422       -22.7330
 127   2.0000      -0.822853       -22.3910
 128   2.0000      -0.802618       -21.8403
 129   2.0000      -0.796432       -21.6720
 130   2.0000      -0.787801       -21.4372
 131   2.0000      -0.779697       -21.2166
 132   2.0000      -0.775054       -21.0903
 133   2.0000      -0.763460       -20.7748
 134   2.0000      -0.761296       -20.7159
 135   2.0000      -0.747876       -20.3507
 136   2.0000      -0.731253       -19.8984
 137   2.0000      -0.721953       -19.6453
 138   2.0000      -0.715822       -19.4785
 139   2.0000      -0.708592       -19.2818
 140   2.0000      -0.707657       -19.2563
 141   2.0000      -0.698296       -19.0016
 142   2.0000      -0.694221       -18.8907
 143   2.0000      -0.687778       -18.7154
 144   2.0000      -0.682307       -18.5665
 145   2.0000      -0.671838       -18.2816
 146   2.0000      -0.663061       -18.0428
 147   2.0000      -0.653786       -17.7904
 148   2.0000      -0.649514       -17.6742
 149   2.0000      -0.646881       -17.6025
 150   2.0000      -0.643365       -17.5068
 151   2.0000      -0.638880       -17.3848
 152   2.0000      -0.635253       -17.2861
 153   2.0000      -0.630849       -17.1663
 154   2.0000      -0.625180       -17.0120
 155   2.0000      -0.621385       -16.9087
 156   2.0000      -0.610225       -16.6051
 157   2.0000      -0.608101       -16.5473
 158   2.0000      -0.607054       -16.5188
 159   2.0000      -0.597513       -16.2592
 160   2.0000      -0.594313       -16.1721
 161   2.0000      -0.593091       -16.1388
 162   2.0000      -0.589865       -16.0510
 163   2.0000      -0.588385       -16.0108
 164   2.0000      -0.586657       -15.9638
 165   2.0000      -0.581065       -15.8116
 166   2.0000      -0.574993       -15.6464
 167   2.0000      -0.570540       -15.5252
 168   2.0000      -0.565164       -15.3789
 169   2.0000      -0.564669       -15.3654
 170   2.0000      -0.561480       -15.2786
 171   2.0000      -0.558638       -15.2013
 172   2.0000      -0.553596       -15.0641
 173   2.0000      -0.550770       -14.9872
 174   2.0000      -0.547702       -14.9037
 175   2.0000      -0.543180       -14.7807
 176   2.0000      -0.541920       -14.7464
 177   2.0000      -0.537723       -14.6322
 178   2.0000      -0.535030       -14.5589
 179   2.0000      -0.528702       -14.3867
 180   2.0000      -0.526744       -14.3334
 181   2.0000      -0.522881       -14.2283
 182   2.0000      -0.520903       -14.1745
 183   2.0000      -0.516135       -14.0447
 184   2.0000      -0.513825       -13.9819
 185   2.0000      -0.509607       -13.8671
 186   2.0000      -0.508110       -13.8264
 187   2.0000      -0.507184       -13.8012
 188   2.0000      -0.504156       -13.7188
 189   2.0000      -0.503502       -13.7010
 190   2.0000      -0.500687       -13.6244
 191   2.0000      -0.495232       -13.4759
 192   2.0000      -0.491656       -13.3786
 193   2.0000      -0.489796       -13.3280
 194   2.0000      -0.485980       -13.2242
 195   2.0000      -0.484264       -13.1775
 196   2.0000      -0.480108       -13.0644
 197   2.0000      -0.476642       -12.9701
 198   2.0000      -0.472650       -12.8615
 199   2.0000      -0.471821       -12.8389
 200   2.0000      -0.463955       -12.6249
 201   2.0000      -0.463115       -12.6020
 202   2.0000      -0.462468       -12.5844
 203   2.0000      -0.460725       -12.5370
 204   2.0000      -0.459053       -12.4915
 205   2.0000      -0.458430       -12.4745
 206   2.0000      -0.452323       -12.3083
 207   2.0000      -0.450498       -12.2587
 208   2.0000      -0.442971       -12.0539
 209   2.0000      -0.439658       -11.9637
 210   2.0000      -0.439202       -11.9513
 211   2.0000      -0.435135       -11.8406
 212   2.0000      -0.426746       -11.6123
 213   2.0000      -0.424781       -11.5589
 214   2.0000      -0.421755       -11.4765
 215   2.0000      -0.416003       -11.3200
 216   2.0000      -0.409938       -11.1550
 217   2.0000      -0.406701       -11.0669
 218   2.0000      -0.401645       -10.9293
 219   2.0000      -0.400399       -10.8954
 220   2.0000      -0.397941       -10.8285
 221   2.0000      -0.396968       -10.8020
 222   2.0000      -0.392119       -10.6701
 223   2.0000      -0.391168       -10.6442
 224   2.0000      -0.384138       -10.4529
 225   2.0000      -0.380091       -10.3428
 226   2.0000      -0.376762       -10.2522
 227   2.0000      -0.373983       -10.1766
 228   2.0000      -0.370478       -10.0812
 229   2.0000      -0.367036        -9.9875
 230   2.0000      -0.362306        -9.8588
 231   2.0000      -0.357131        -9.7180
 232   2.0000      -0.353940        -9.6312
 233   2.0000      -0.348842        -9.4925
 234   2.0000      -0.348516        -9.4836
 235   2.0000      -0.338133        -9.2011
 236   2.0000      -0.336978        -9.1696
 237   2.0000      -0.329871        -8.9762
 238   2.0000      -0.323600        -8.8056
 239   2.0000      -0.322799        -8.7838
 240   2.0000      -0.306638        -8.3441
 241   2.0000      -0.306463        -8.3393
 242   2.0000      -0.277829        -7.5601
 243   2.0000      -0.222980        -6.0676
 244   0.0000      -0.110437        -3.0051
 245   0.0000      -0.092335        -2.5126
 246   0.0000      -0.079438        -2.1616
 247   0.0000      -0.068026        -1.8511
 248   0.0000      -0.033481        -0.9111

MULLIKEN ATOMIC CHARGES
-----------------------
   0 C :    0.288051
   1 C :   -0.330738
   2 C :   -0.181001
   3 N :    0.162580
   4 C :   -0.195454
   5 N :    0.175565
   6 C :    0.026087
   7 C :   -0.022447
   8 C :   -0.064912
   9 C :    0.126303
  10 C :   -0.092716
  11 C :   -0.017997
  12 S :    0.196073
  13 C :   -0.123491
  14 C :    0.055653
  15 Br:    0.044274
  16 C :    0.147191
  17 O :   -0.141655
  18 C :   -0.033793
  19 C :   -0.033072
  20 C :    0.182985
  21 C :   -0.048038
  22 C :    0.152258
  23 O :   -0.167826
  24 O :   -0.187076
  25 C :   -0.049225
  26 N :    0.067357
  27 O :   -0.155805
  28 C :    0.054776
  29 O :   -0.189656
  30 C :   -0.017132
  31 C :    0.170781
  32 O :   -0.129232
  33 N :   -0.169012
  34 C :    0.171763
  35 O :   -0.152346
  36 C :   -0.083400
  37 C :    0.130114
  38 C :   -0.004452
  39 C :    0.013832
  40 C :   -0.011293
  41 C :   -0.018496
  42 C :    0.037427
  43 C :    0.037027
  44 C :   -0.053332
  45 S :    0.086620
  46 C :   -0.037961
  47 C :    0.033283
  48 C :    0.036220
  49 C :   -0.025758
  50 S :    0.062663
  51 C :   -0.008810
  52 C :   -0.191702
  53 S :    0.149293
  54 C :   -0.144406
  55 C :    0.109777
  56 C :    0.195187
  57 O :   -0.181321
  58 C :    0.237792
  59 N :    0.272069
  60 O :   -0.250099
  61 O :   -0.227182
  62 C :   -0.078943
  63 H :   -0.011593
  64 H :   -0.002756
  65 H :   -0.026329
  66 H :    0.047459
  67 H :    0.194801
  68 H :    0.137061
  69 H :   -0.001728
  70 H :    0.038957
  71 H :   -0.005092
  72 H :   -0.005908
  73 H :   -0.007794
  74 H :   -0.009458
  75 H :   -0.006296
  76 H :    0.005789
  77 H :    0.036461
  78 H :    0.013202
Sum of atomic charges:    0.0000000

LOEWDIN ATOMIC CHARGES
----------------------
   0 C :    0.070930
   1 C :   -0.121131
   2 C :   -0.017436
   3 N :   -0.038300
   4 C :   -0.023923
   5 N :   -0.032678
   6 C :   -0.020896
   7 C :   -0.053421
   8 C :    0.026629
   9 C :   -0.028926
  10 C :   -0.140653
  11 C :   -0.006712
  12 S :    0.440193
  13 C :   -0.267343
  14 C :   -0.074224
  15 Br:    0.157872
  16 C :    0.087637
  17 O :   -0.117215
  18 C :   -0.051874
  19 C :    0.052759
  20 C :    0.050442
  21 C :   -0.086840
  22 C :    0.077750
  23 O :   -0.155004
  24 O :   -0.039254
  25 C :   -0.034624
  26 N :    0.002602
  27 O :    0.049409
  28 C :    0.043975
  29 O :    0.032655
  30 C :   -0.071061
  31 C :    0.085758
  32 O :   -0.148510
  33 N :   -0.006318
  34 C :    0.084576
  35 O :   -0.164107
  36 C :   -0.108567
  37 C :    0.079724
  38 C :   -0.039728
  39 C :    0.008986
  40 C :   -0.055709
  41 C :   -0.129269
  42 C :   -0.029836
  43 C :   -0.024161
  44 C :   -0.173485
  45 S :    0.384687
  46 C :   -0.177243
  47 C :   -0.031877
  48 C :   -0.029769
  49 C :   -0.148204
  50 S :    0.366427
  51 C :   -0.073729
  52 C :   -0.199334
  53 S :    0.478637
  54 C :   -0.206950
  55 C :   -0.089122
  56 C :    0.017763
  57 O :    0.003172
  58 C :    0.025962
  59 N :    0.271401
  60 O :   -0.211837
  61 O :   -0.188756
  62 C :   -0.016327
  63 H :    0.040960
  64 H :    0.042312
  65 H :    0.037995
  66 H :    0.056204
  67 H :    0.102648
  68 H :    0.093524
  69 H :    0.035837
  70 H :    0.031731
  71 H :    0.035157
  72 H :    0.035759
  73 H :    0.033785
  74 H :    0.033659
  75 H :    0.035714
  76 H :    0.046424
  77 H :    0.027913
  78 H :    0.044779

  Mayer bond orders larger than 0.100000
B(  0-C ,  1-C ) :   1.6692 B(  0-C ,  6-C ) :   1.0163 B(  0-C , 18-C ) :   1.0437
B(  1-C ,  2-C ) :   1.1389 B(  1-C ,  4-C ) :   1.1364 B(  2-C ,  3-N ) :   2.9723
B(  4-C ,  5-N ) :   2.9882 B(  6-C ,  7-C ) :   1.2629 B(  6-C , 11-C ) :   1.3980
B(  7-C ,  8-C ) :   1.4173 B(  7-C , 16-C ) :   0.9580 B(  8-C ,  9-C ) :   1.2480
B(  8-C , 63-H ) :   1.0157 B(  9-C , 10-C ) :   1.2853 B(  9-C , 14-C ) :   1.1738
B( 10-C , 11-C ) :   1.3383 B( 10-C , 12-S ) :   1.0934 B( 11-C , 64-H ) :   0.9808
B( 12-S , 13-C ) :   1.0850 B( 13-C , 14-C ) :   1.6068 B( 13-C , 15-Br) :   1.0316
B( 14-C , 65-H ) :   1.0003 B( 16-C , 17-O ) :   2.1841 B( 16-C , 18-C ) :   0.9159
B( 18-C , 19-C ) :   1.7121 B( 19-C , 20-C ) :   1.0761 B( 19-C , 66-H ) :   0.9328
B( 20-C , 21-C ) :   1.4953 B( 20-C , 27-O ) :   1.1600 B( 21-C , 22-C ) :   0.8973
B( 21-C , 25-C ) :   1.2613 B( 22-C , 23-O ) :   2.1579 B( 22-C , 24-O ) :   1.2601
B( 24-O , 67-H ) :   0.9428 B( 25-C , 26-N ) :   1.7181 B( 25-C , 28-C ) :   0.9722
B( 26-N , 27-O ) :   1.0187 B( 28-C , 29-O ) :   1.1477 B( 28-C , 30-C ) :   1.5898
B( 29-O , 37-C ) :   1.1372 B( 30-C , 31-C ) :   0.8502 B( 30-C , 36-C ) :   1.2541
B( 31-C , 32-O ) :   2.2932 B( 31-C , 33-N ) :   1.0771 B( 33-N , 34-C ) :   1.0782
B( 33-N , 68-H ) :   0.9160 B( 34-C , 35-O ) :   2.2314 B( 34-C , 36-C ) :   0.8879
B( 36-C , 37-C ) :   1.4521 B( 37-C , 38-C ) :   1.1204 B( 38-C , 39-C ) :   1.6875
B( 38-C , 69-H ) :   0.9627 B( 39-C , 40-C ) :   1.1352 B( 39-C , 70-H ) :   0.9522
B( 40-C , 41-C ) :   1.6066 B( 40-C , 71-H ) :   0.9819 B( 41-C , 42-C ) :   1.1300
B( 41-C , 45-S ) :   1.0376 B( 42-C , 43-C ) :   1.6107 B( 42-C , 72-H ) :   0.9980
B( 43-C , 44-C ) :   1.1738 B( 43-C , 73-H ) :   0.9935 B( 44-C , 45-S ) :   1.0551
B( 44-C , 46-C ) :   1.5248 B( 46-C , 47-C ) :   1.1785 B( 46-C , 50-S ) :   1.0388
B( 47-C , 48-C ) :   1.6024 B( 47-C , 74-H ) :   0.9927 B( 48-C , 49-C ) :   1.1352
B( 48-C , 75-H ) :   1.0008 B( 49-C , 50-S ) :   1.0379 B( 49-C , 51-C ) :   1.5724
B( 51-C , 52-C ) :   1.1716 B( 51-C , 76-H ) :   0.9740 B( 52-C , 53-S ) :   1.1114
B( 52-C , 54-C ) :   0.1078 B( 52-C , 56-C ) :   1.4412 B( 53-S , 54-C ) :   1.1788
B( 54-C , 55-C ) :   1.4024 B( 54-C , 77-H ) :   0.9746 B( 55-C , 56-C ) :   1.2335
B( 55-C , 62-C ) :   1.0508 B( 56-C , 57-O ) :   1.1241 B( 57-O , 58-C ) :   1.1288
B( 58-C , 59-N ) :   0.9158 B( 58-C , 62-C ) :   1.5703 B( 59-N , 60-O ) :   1.5330
B( 59-N , 61-O ) :   1.5167 B( 60-O , 61-O ) :   0.2784 B( 62-C , 78-H ) :   1.0290

-----------------------------------------------------------------------------
         ABSORPTION SPECTRUM VIA TRANSITION ELECTRIC DIPOLE MOMENTS
-----------------------------------------------------------------------------
State   Energy  Wavelength   fosc         T2         TX        TY        TZ
        (cm-1)    (nm)                  (au**2)     (au)      (au)      (au)
-----------------------------------------------------------------------------
   0   13239.6    755.3   0.010404221   0.25871   0.02183   0.21567  -0.46013
   1   14618.5    684.1   0.784145696  17.65913   1.74820   0.54108  -3.78288
   2   19167.9    521.7   0.003984443   0.06843  -0.16301   0.12458  -0.16230
   3   19476.2    513.4   0.175290478   2.96299   0.51429  -0.59978   1.52930
   4   23573.0    424.2   0.009681392   0.13521  -0.31076   0.18245  -0.07313
   5   24148.7    414.1   0.053937027   0.73531  -0.31857   0.32602  -0.72632
   6   25108.4    398.3   0.170166126   2.23116   0.72306  -1.03816  -0.79408
   7   26063.3    383.7   0.264429076   3.34007   0.14472   0.79314  -1.64014
   8   27274.3    366.6   0.906867406  10.94625   3.18680  -0.81219   0.36183
   9   28568.4    350.0   0.009484026   0.10929   0.15154   0.03242  -0.29202
  10   29176.1    342.7   0.233444371   2.63410   1.14106  -1.14640  -0.13361
  11   29534.5    338.6   0.021314951   0.23759  -0.40835   0.22997  -0.13398
  12   30021.2    333.1   0.108261232   1.18719  -0.27596   0.66928   0.81431
  13   30303.0    330.0   0.054240201   0.58927  -0.68094  -0.00528   0.35434
  14   30518.4    327.7   0.011731141   0.12655  -0.08178   0.21704  -0.26973
  15   30920.3    323.4   0.010213356   0.10874   0.26027  -0.19374  -0.05887
  16   31509.8    317.4   0.016213191   0.16939  -0.32639  -0.05767   0.24400
  17   31691.6    315.5   0.067027797   0.69628  -0.38177  -0.04169   0.74081
  18   31874.3    313.7   0.172235157   1.77892   0.28639   0.82291  -1.00981
  19   31943.5    313.1   0.697251892   7.18593  -0.01578   1.57198  -2.17130
  20   33360.5    299.8   0.354640475   3.49970   0.59223  -0.79725  -1.58535
  21   33503.4    298.5   0.008251019   0.08108   0.11204  -0.15367  -0.21192
  22   33951.9    294.5   0.007517319   0.07289  -0.03581  -0.22642   0.14264
  23   34401.0    290.7   0.001604047   0.01535  -0.03854   0.04236   0.10987
  24   34793.7    287.4   0.004116786   0.03895   0.16152  -0.01396   0.11256
  25   35501.8    281.7   0.025030459   0.23211  -0.15922   0.15689   0.42678
  26   35654.2    280.5   0.004159604   0.03841   0.09722  -0.12404  -0.11648
  27   35729.0    279.9   0.182456191   1.68118  -0.45247   0.41508   1.14200
  28   36225.9    276.0   0.001880614   0.01709  -0.06597   0.10940  -0.02776
  29   36376.0    274.9   0.291347602   2.63677  -0.63703   0.16223   1.48480
  30   36559.7    273.5   0.011827759   0.10651  -0.01283   0.03793   0.32389
  31   36849.1    271.4   0.171129554   1.52888  -0.53529   0.95320   0.57771
  32   36873.3    271.2   0.027984401   0.24985   0.19408   0.19027  -0.41950
  33   36959.4    270.6   0.060320823   0.53730   0.29956   0.66847   0.02671
  34   37563.1    266.2   0.033069910   0.28983  -0.41017   0.30096  -0.17612
  35   37748.3    264.9   0.001259442   0.01098   0.09989   0.00290   0.03157
  36   38399.4    260.4   0.258514584   2.21634   0.14138  -0.30597   1.45008
  37   38503.3    259.7   0.001984218   0.01697   0.02450   0.12755  -0.00985
  38   38623.3    258.9   0.002723272   0.02321  -0.11814  -0.03592   0.08925
  39   38789.1    257.8   0.066641794   0.56560   0.00443  -0.59019   0.46612
  40   38868.0    257.3   0.007804926   0.06611   0.04578  -0.20330   0.15060
  41   39405.4    253.8   0.001969180   0.01645  -0.02958   0.07026  -0.10315
  42   39833.2    251.0   0.048094460   0.39749  -0.12275   0.36440   0.49963
  43   39994.2    250.0   0.010587799   0.08715   0.20043  -0.20916  -0.05686
  44   40098.0    249.4   0.012015972   0.09865  -0.00193  -0.21528  -0.22870
  45   40313.4    248.1   0.020245397   0.16533  -0.02013   0.24283   0.32552

FINAL SINGLE POINT ENERGY     -6836.943362564770

DIPOLE MOMENT
-------------
                                X             Y             Z
Electronic contribution:     51.77939     -27.00637     -61.99214
Nuclear contribution   :    -54.33337      27.98922      60.84518
                        -----------------------------------------
Total Dipole Moment    :     -2.55398       0.98285      -1.14696
                        -----------------------------------------
Magnitude (a.u.)       :      2.96720
Magnitude (Debye)      :      7.54203

Rotational constants in cm-1:     0.001050     0.000781     0.000502
Rotational constants in MHz :    31.472724    23.407739    15.040161

                             ****ORCA TERMINATED NORMALLY****
TOTAL RUN TIME: 0 days 0 hours 7 minutes 16 seconds 729 msec
