                         Program Version 4.2.0 -  RELEASE  -
|  1> # ORCA input file
|  2> # SCF done       -194.374063162115          0.000460119552
|  3> ! CAM-B3LYP def2-SVP def2/J RIJCOSX Grid4 TightSCF
|  4> %maxcore 5000
|  5> %tddft
|  6>     Mode sTDDFT
|  7>     Ethresh 5.0
|  8>     maxcore 5000
|  9> end
| 10>
| 11> %pal
| 12>   nprocs 6
| 13>   end
| 14> * xyz 0 1
| 15>    C       -7.40404         8.01613         4.44039
| 16>    C       -6.80225         7.90904         5.66927
| 17>    C       -7.31886         8.46417         6.85642
| 18>    N       -7.69481         8.89241         7.85341
| 19>    C       -5.58609         7.23383         5.89325
| 20>    N       -4.59648         6.69721         6.11934
| 21>    C       -8.65793         8.71353         4.16082
| 22>    C       -8.93537         8.62243         2.77217
| 23>    C      -10.05483         9.17645         2.20086
| 24>    C      -10.94751         9.85280         3.03958
| 25>    C      -10.66326         9.93971         4.42249
| 26>    C       -9.52855         9.37995         5.00026
| 27>    S      -11.89873        10.81364         5.27482
| 28>    C      -12.76873        11.04817         3.78195
| 29>    C      -12.16661        10.50046         2.69967
| 30>   Br      -14.39063        11.99023         3.79284
| 31>    C       -7.86197         7.85782         2.12585
| 32>    O       -7.75949         7.57699         0.93397
| 33>    C       -6.92998         7.47855         3.18900
| 34>    C       -5.82399         6.70085         2.92770
| 35>    N       -5.57701         6.30075         1.67610
| 36>    C       -4.59035         5.48025         1.24535
| 37>    S       -3.44280         4.76558         2.33576
| 38>    C       -2.74009         3.91706         0.99572
| 39>    N       -1.64820         3.07616         1.24961
| 40>    O       -1.17190         2.47178         0.30660
| 41>    O       -1.25972         3.01058         2.40197
| 42>    C       -3.34842         4.17190        -0.20307
| 43>    C       -4.42049         5.08007        -0.09057
| 44>    C       -5.23561         5.55694        -1.16601
| 45>    C       -5.29322         5.00481        -2.40094
| 46>    C       -6.11237         5.50333        -3.44288
| 47>    S       -6.94323         7.02271        -3.30266
| 48>    C       -7.69400         6.83161        -4.86707
| 49>    C       -7.32048         5.61361        -5.44252
| 50>    C       -6.40604         4.90017        -4.66250
| 51>    C       -5.78919         3.60479        -5.09802
| 52>    C       -5.92124         3.40190        -6.60943
| 53>    C       -4.89844         4.24993        -7.35719
| 54>    F       -4.89114         5.54826        -7.03338
| 55>    F       -3.64910         3.80561        -7.12747
| 56>    F       -5.07776         4.19367        -8.68767
| 57>    C       -7.35374         3.68736        -7.05956
| 58>    C       -7.78424         5.12793        -6.78083
| 59>    C       -8.47913         7.90936        -5.32171
| 60>    C       -9.29433         7.97375        -6.41993
| 61>    C       -9.96971         9.13671        -6.80159
| 62>    C      -10.89849         9.18756        -7.81894
| 63>    C      -11.55915        10.32801        -8.32358
| 64>    C      -12.45866        10.06372        -9.31704
| 65>    C      -12.57708         8.69631        -9.63044
| 66>    S      -11.46824         7.75441        -8.65716
| 67>    C      -13.45411         8.09460       -10.51816
| 68>    C      -14.36634         8.71430       -11.39678
| 69>    C      -15.12914         7.83582       -12.10697
| 70>    C      -14.88169         6.47039       -11.82101
| 71>    S      -13.59114         6.35759       -10.63193
| 72>    C      -15.57028         5.41406       -12.36347
| 73>    C      -15.46176         4.03774       -12.08267
| 74>    C      -16.26927         3.05146       -12.66292
| 75>    C      -15.92053         1.79387       -12.11779
| 76>    C      -16.41785         0.52601       -12.33145
| 77>    C      -15.85230        -0.52940       -11.59972
| 78>    C      -16.13044        -1.88919       -11.57933
| 79>    C      -15.25918        -2.52999       -10.64359
| 80>    C      -14.44160        -1.56253       -10.08726
| 81>    C      -14.77510        -0.29339       -10.65323
| 82>    C      -14.27479         0.96224       -10.43937
| 83>    C      -14.84541         2.02793       -11.16882
| 84>    C      -14.57668         3.38188       -11.15867
| 85>    C      -15.22106        -3.93511       -10.31731
| 86>    C      -16.00593        -4.87338       -10.84016
| 87>    H      -10.23830         9.08984         1.14144
| 88>    H       -9.35880         9.47133         6.05994
| 89>    H      -12.56478        10.54904         1.70267
| 90>    H       -5.13738         6.38214         3.70098
| 91>    H       -6.27634         6.64059         0.98840
| 92>    H       -3.00832         3.72816        -1.12041
| 93>    H       -5.86454         6.41501        -0.96914
| 94>    H       -4.72306         4.11383        -2.62075
| 95>    H       -6.28622         2.77256        -4.59055
| 96>    H       -4.73396         3.57999        -4.81569
| 97>    H       -5.66071         2.36765        -6.86219
| 98>    H       -8.00544         3.00223        -6.51373
| 99>    H       -7.46054         3.47674        -8.12482
|100>    H       -8.87398         5.16763        -6.83090
|101>    H       -7.39527         5.79830        -7.55342
|102>    H       -8.42425         8.79554        -4.70004
|103>    H       -9.45916         7.10436        -7.03655
|104>    H       -9.75628        10.05952        -6.27859
|105>    H      -11.34840        11.31140        -7.94174
|106>    H      -13.04916        10.81371        -9.81213
|107>    H      -14.43390         9.78366       -11.48547
|108>    H      -15.87837         8.12665       -12.82244
|109>    H      -16.32895         5.68132       -13.09025
|110>    H      -17.03572         3.22270       -13.39635
|111>    H      -17.21927         0.34330       -13.03336
|112>    H      -16.87974        -2.38347       -12.16986
|113>    H      -13.67840        -1.72670        -9.34841
|114>    H      -13.47547         1.14868        -9.73593
|115>    H      -13.83142         3.86735       -10.55715
|116>    H      -14.47776        -4.21040        -9.57912
|117>    H      -16.75894        -4.64894       -11.57592
|118>    H      -15.92096        -5.90545       -10.54734
|119> *
|120>
|121>                          ****END OF INPUT****

CARTESIAN COORDINATES (ANGSTROEM)
---------------------------------
  C     -7.404040    8.016130    4.440390
  C     -6.802250    7.909040    5.669270
  C     -7.318860    8.464170    6.856420
  N     -7.694810    8.892410    7.853410
  C     -5.586090    7.233830    5.893250
  N     -4.596480    6.697210    6.119340
  C     -8.657930    8.713530    4.160820
  C     -8.935370    8.622430    2.772170
  C    -10.054830    9.176450    2.200860
  C    -10.947510    9.852800    3.039580
  C    -10.663260    9.939710    4.422490
  C     -9.528550    9.379950    5.000260
  S    -11.898730   10.813640    5.274820
  C    -12.768730   11.048170    3.781950
  C    -12.166610   10.500460    2.699670
  Br   -14.390630   11.990230    3.792840
  C     -7.861970    7.857820    2.125850
  O     -7.759490    7.576990    0.933970
  C     -6.929980    7.478550    3.189000
  C     -5.823990    6.700850    2.927700
  N     -5.577010    6.300750    1.676100
  C     -4.590350    5.480250    1.245350
  S     -3.442800    4.765580    2.335760
  C     -2.740090    3.917060    0.995720
  N     -1.648200    3.076160    1.249610
  O     -1.171900    2.471780    0.306600
  O     -1.259720    3.010580    2.401970
  C     -3.348420    4.171900   -0.203070
  C     -4.420490    5.080070   -0.090570
  C     -5.235610    5.556940   -1.166010
  C     -5.293220    5.004810   -2.400940
  C     -6.112370    5.503330   -3.442880
  S     -6.943230    7.022710   -3.302660
  C     -7.694000    6.831610   -4.867070
  C     -7.320480    5.613610   -5.442520
  C     -6.406040    4.900170   -4.662500
  C     -5.789190    3.604790   -5.098020
  C     -5.921240    3.401900   -6.609430
  C     -4.898440    4.249930   -7.357190
  F     -4.891140    5.548260   -7.033380
  F     -3.649100    3.805610   -7.127470
  F     -5.077760    4.193670   -8.687670
  C     -7.353740    3.687360   -7.059560
  C     -7.784240    5.127930   -6.780830
  C     -8.479130    7.909360   -5.321710
  C     -9.294330    7.973750   -6.419930
  C     -9.969710    9.136710   -6.801590
  C    -10.898490    9.187560   -7.818940
  C    -11.559150   10.328010   -8.323580
  C    -12.458660   10.063720   -9.317040
  C    -12.577080    8.696310   -9.630440
  S    -11.468240    7.754410   -8.657160
  C    -13.454110    8.094600  -10.518160
  C    -14.366340    8.714300  -11.396780
  C    -15.129140    7.835820  -12.106970
  C    -14.881690    6.470390  -11.821010
  S    -13.591140    6.357590  -10.631930
  C    -15.570280    5.414060  -12.363470
  C    -15.461760    4.037740  -12.082670
  C    -16.269270    3.051460  -12.662920
  C    -15.920530    1.793870  -12.117790
  C    -16.417850    0.526010  -12.331450
  C    -15.852300   -0.529400  -11.599720
  C    -16.130440   -1.889190  -11.579330
  C    -15.259180   -2.529990  -10.643590
  C    -14.441600   -1.562530  -10.087260
  C    -14.775100   -0.293390  -10.653230
  C    -14.274790    0.962240  -10.439370
  C    -14.845410    2.027930  -11.168820
  C    -14.576680    3.381880  -11.158670
  C    -15.221060   -3.935110  -10.317310
  C    -16.005930   -4.873380  -10.840160
  H    -10.238300    9.089840    1.141440
  H     -9.358800    9.471330    6.059940
  H    -12.564780   10.549040    1.702670
  H     -5.137380    6.382140    3.700980
  H     -6.276340    6.640590    0.988400
  H     -3.008320    3.728160   -1.120410
  H     -5.864540    6.415010   -0.969140
  H     -4.723060    4.113830   -2.620750
  H     -6.286220    2.772560   -4.590550
  H     -4.733960    3.579990   -4.815690
  H     -5.660710    2.367650   -6.862190
  H     -8.005440    3.002230   -6.513730
  H     -7.460540    3.476740   -8.124820
  H     -8.873980    5.167630   -6.830900
  H     -7.395270    5.798300   -7.553420
  H     -8.424250    8.795540   -4.700040
  H     -9.459160    7.104360   -7.036550
  H     -9.756280   10.059520   -6.278590
  H    -11.348400   11.311400   -7.941740
  H    -13.049160   10.813710   -9.812130
  H    -14.433900    9.783660  -11.485470
  H    -15.878370    8.126650  -12.822440
  H    -16.328950    5.681320  -13.090250
  H    -17.035720    3.222700  -13.396350
  H    -17.219270    0.343300  -13.033360
  H    -16.879740   -2.383470  -12.169860
  H    -13.678400   -1.726700   -9.348410
  H    -13.475470    1.148680   -9.735930
  H    -13.831420    3.867350  -10.557150
  H    -14.477760   -4.210400   -9.579120
  H    -16.758940   -4.648940  -11.575920
  H    -15.920960   -5.905450  -10.547340

 Total Charge           Charge          ....    0
 Multiplicity           Mult            ....    1
 Number of Electrons    NEL             ....  562
 Basis Dimension        Dim             .... 1206

ORBITAL ENERGIES
----------------

  NO   OCC          E(Eh)            E(eV)
   0   2.0000    -482.888618    -13140.0673
   1   2.0000     -88.988107     -2421.4895
   2   2.0000     -88.979542     -2421.2564
   3   2.0000     -88.947714     -2420.3903
   4   2.0000     -88.943653     -2420.2799
   5   2.0000     -88.940905     -2420.2051
   6   2.0000     -62.566329     -1702.5164
   7   2.0000     -56.400287     -1534.7298
   8   2.0000     -56.397559     -1534.6556
   9   2.0000     -56.397525     -1534.6547
  10   2.0000     -24.797689      -674.7794
  11   2.0000     -24.794855      -674.7023
  12   2.0000     -24.792547      -674.6395
  13   2.0000     -19.237969      -523.4917
  14   2.0000     -19.237006      -523.4655
  15   2.0000     -19.233515      -523.3705
  16   2.0000     -14.649350      -398.6291
  17   2.0000     -14.495675      -394.4474
  18   2.0000     -14.419558      -392.3761
  19   2.0000     -14.415468      -392.2648
  20   2.0000     -10.507022      -285.9106
  21   2.0000     -10.380096      -282.4568
  22   2.0000     -10.370109      -282.1850
  23   2.0000     -10.368142      -282.1315
  24   2.0000     -10.362304      -281.9726
  25   2.0000     -10.347145      -281.5601
  26   2.0000     -10.346686      -281.5476
  27   2.0000     -10.342487      -281.4334
  28   2.0000     -10.329739      -281.0865
  29   2.0000     -10.321995      -280.8758
  30   2.0000     -10.318775      -280.7882
  31   2.0000     -10.313036      -280.6320
  32   2.0000     -10.311604      -280.5930
  33   2.0000     -10.310019      -280.5499
  34   2.0000     -10.309843      -280.5451
  35   2.0000     -10.308763      -280.5157
  36   2.0000     -10.307399      -280.4786
  37   2.0000     -10.305741      -280.4335
  38   2.0000     -10.304683      -280.4047
  39   2.0000     -10.303228      -280.3651
  40   2.0000     -10.303227      -280.3651
  41   2.0000     -10.302218      -280.3376
  42   2.0000     -10.301480      -280.3175
  43   2.0000     -10.301143      -280.3084
  44   2.0000     -10.300522      -280.2914
  45   2.0000     -10.299319      -280.2587
  46   2.0000     -10.299277      -280.2576
  47   2.0000     -10.299121      -280.2533
  48   2.0000     -10.295579      -280.1569
  49   2.0000     -10.292466      -280.0722
  50   2.0000     -10.289320      -279.9866
  51   2.0000     -10.288279      -279.9583
  52   2.0000     -10.287472      -279.9363
  53   2.0000     -10.285085      -279.8714
  54   2.0000     -10.284524      -279.8561
  55   2.0000     -10.283245      -279.8213
  56   2.0000     -10.282503      -279.8011
  57   2.0000     -10.281547      -279.7751
  58   2.0000     -10.281238      -279.7667
  59   2.0000     -10.280990      -279.7600
  60   2.0000     -10.279542      -279.7206
  61   2.0000     -10.278947      -279.7044
  62   2.0000     -10.276550      -279.6391
  63   2.0000     -10.276456      -279.6366
  64   2.0000     -10.276237      -279.6306
  65   2.0000     -10.275877      -279.6208
  66   2.0000     -10.275385      -279.6074
  67   2.0000     -10.273461      -279.5551
  68   2.0000     -10.272626      -279.5324
  69   2.0000     -10.271036      -279.4891
  70   2.0000     -10.270550      -279.4759
  71   2.0000     -10.268349      -279.4160
  72   2.0000     -10.267423      -279.3908
  73   2.0000     -10.267306      -279.3876
  74   2.0000     -10.266784      -279.3734
  75   2.0000     -10.259775      -279.1827
  76   2.0000      -8.795757      -239.3447
  77   2.0000      -8.083279      -219.9572
  78   2.0000      -8.075541      -219.7466
  79   2.0000      -8.043436      -218.8730
  80   2.0000      -8.039538      -218.7670
  81   2.0000      -8.037128      -218.7014
  82   2.0000      -6.632099      -180.4686
  83   2.0000      -6.617460      -180.0703
  84   2.0000      -6.617276      -180.0652
  85   2.0000      -6.052913      -164.7081
  86   2.0000      -6.048601      -164.5908
  87   2.0000      -6.045204      -164.4984
  88   2.0000      -6.044738      -164.4857
  89   2.0000      -6.040947      -164.3825
  90   2.0000      -6.036784      -164.2692
  91   2.0000      -6.012573      -163.6104
  92   2.0000      -6.009299      -163.5213
  93   2.0000      -6.008796      -163.5077
  94   2.0000      -6.006815      -163.4538
  95   2.0000      -6.005463      -163.4170
  96   2.0000      -6.005273      -163.4118
  97   2.0000      -6.002913      -163.3476
  98   2.0000      -6.000495      -163.2818
  99   2.0000      -5.998072      -163.2158
 100   2.0000      -2.747930       -74.7750
 101   2.0000      -2.743875       -74.6646
 102   2.0000      -2.743715       -74.6603
 103   2.0000      -2.732091       -74.3440
 104   2.0000      -2.732074       -74.3435
 105   2.0000      -1.385428       -37.6994
 106   2.0000      -1.319089       -35.8942
 107   2.0000      -1.288601       -35.0646
 108   2.0000      -1.284991       -34.9664
 109   2.0000      -1.148225       -31.2448
 110   2.0000      -1.138034       -30.9675
 111   2.0000      -1.103004       -30.0143
 112   2.0000      -1.027127       -27.9495
 113   2.0000      -1.016484       -27.6599
 114   2.0000      -1.008856       -27.4524
 115   2.0000      -0.996917       -27.1275
 116   2.0000      -0.993199       -27.0263
 117   2.0000      -0.992709       -27.0130
 118   2.0000      -0.989815       -26.9342
 119   2.0000      -0.988510       -26.8987
 120   2.0000      -0.970891       -26.4193
 121   2.0000      -0.961637       -26.1675
 122   2.0000      -0.945904       -25.7394
 123   2.0000      -0.938943       -25.5499
 124   2.0000      -0.924081       -25.1455
 125   2.0000      -0.912720       -24.8364
 126   2.0000      -0.909797       -24.7568
 127   2.0000      -0.902875       -24.5685
 128   2.0000      -0.897929       -24.4339
 129   2.0000      -0.890227       -24.2243
 130   2.0000      -0.885151       -24.0862
 131   2.0000      -0.876791       -23.8587
 132   2.0000      -0.868650       -23.6372
 133   2.0000      -0.866051       -23.5665
 134   2.0000      -0.854839       -23.2614
 135   2.0000      -0.852213       -23.1899
 136   2.0000      -0.848486       -23.0885
 137   2.0000      -0.845166       -22.9981
 138   2.0000      -0.839982       -22.8571
 139   2.0000      -0.833924       -22.6922
 140   2.0000      -0.831034       -22.6136
 141   2.0000      -0.818465       -22.2716
 142   2.0000      -0.804041       -21.8791
 143   2.0000      -0.799973       -21.7684
 144   2.0000      -0.797017       -21.6879
 145   2.0000      -0.784850       -21.3568
 146   2.0000      -0.775812       -21.1109
 147   2.0000      -0.766981       -20.8706
 148   2.0000      -0.763448       -20.7745
 149   2.0000      -0.750887       -20.4327
 150   2.0000      -0.746199       -20.3051
 151   2.0000      -0.737210       -20.0605
 152   2.0000      -0.730105       -19.8672
 153   2.0000      -0.727762       -19.8034
 154   2.0000      -0.717640       -19.5280
 155   2.0000      -0.710445       -19.3322
 156   2.0000      -0.701773       -19.0962
 157   2.0000      -0.693954       -18.8834
 158   2.0000      -0.689018       -18.7491
 159   2.0000      -0.680191       -18.5090
 160   2.0000      -0.674398       -18.3513
 161   2.0000      -0.671121       -18.2621
 162   2.0000      -0.670428       -18.2433
 163   2.0000      -0.666853       -18.1460
 164   2.0000      -0.662689       -18.0327
 165   2.0000      -0.657646       -17.8955
 166   2.0000      -0.652545       -17.7566
 167   2.0000      -0.644605       -17.5406
 168   2.0000      -0.644300       -17.5323
 169   2.0000      -0.639960       -17.4142
 170   2.0000      -0.635565       -17.2946
 171   2.0000      -0.630712       -17.1625
 172   2.0000      -0.626989       -17.0612
 173   2.0000      -0.626525       -17.0486
 174   2.0000      -0.623150       -16.9568
 175   2.0000      -0.621615       -16.9150
 176   2.0000      -0.617302       -16.7976
 177   2.0000      -0.609622       -16.5887
 178   2.0000      -0.607696       -16.5363
 179   2.0000      -0.605492       -16.4763
 180   2.0000      -0.596161       -16.2224
 181   2.0000      -0.593001       -16.1364
 182   2.0000      -0.583454       -15.8766
 183   2.0000      -0.582189       -15.8422
 184   2.0000      -0.581368       -15.8198
 185   2.0000      -0.577781       -15.7222
 186   2.0000      -0.568894       -15.4804
 187   2.0000      -0.565191       -15.3796
 188   2.0000      -0.560752       -15.2588
 189   2.0000      -0.559195       -15.2165
 190   2.0000      -0.554725       -15.0948
 191   2.0000      -0.550920       -14.9913
 192   2.0000      -0.549698       -14.9580
 193   2.0000      -0.547207       -14.8903
 194   2.0000      -0.545319       -14.8389
 195   2.0000      -0.543670       -14.7940
 196   2.0000      -0.541004       -14.7215
 197   2.0000      -0.540078       -14.6963
 198   2.0000      -0.535833       -14.5807
 199   2.0000      -0.533821       -14.5260
 200   2.0000      -0.531903       -14.4738
 201   2.0000      -0.528257       -14.3746
 202   2.0000      -0.524897       -14.2832
 203   2.0000      -0.522128       -14.2078
 204   2.0000      -0.519668       -14.1409
 205   2.0000      -0.515753       -14.0343
 206   2.0000      -0.512145       -13.9362
 207   2.0000      -0.508144       -13.8273
 208   2.0000      -0.504234       -13.7209
 209   2.0000      -0.501865       -13.6564
 210   2.0000      -0.500493       -13.6191
 211   2.0000      -0.500225       -13.6118
 212   2.0000      -0.498223       -13.5573
 213   2.0000      -0.498122       -13.5546
 214   2.0000      -0.494312       -13.4509
 215   2.0000      -0.492916       -13.4129
 216   2.0000      -0.492613       -13.4047
 217   2.0000      -0.490404       -13.3446
 218   2.0000      -0.485443       -13.2096
 219   2.0000      -0.483631       -13.1603
 220   2.0000      -0.482537       -13.1305
 221   2.0000      -0.480551       -13.0765
 222   2.0000      -0.478929       -13.0323
 223   2.0000      -0.477247       -12.9865
 224   2.0000      -0.475750       -12.9458
 225   2.0000      -0.473283       -12.8787
 226   2.0000      -0.467999       -12.7349
 227   2.0000      -0.466872       -12.7042
 228   2.0000      -0.465196       -12.6586
 229   2.0000      -0.463275       -12.6064
 230   2.0000      -0.457776       -12.4567
 231   2.0000      -0.455366       -12.3911
 232   2.0000      -0.452971       -12.3260
 233   2.0000      -0.452569       -12.3150
 234   2.0000      -0.452285       -12.3073
 235   2.0000      -0.451323       -12.2811
 236   2.0000      -0.449670       -12.2361
 237   2.0000      -0.447065       -12.1653
 238   2.0000      -0.445675       -12.1274
 239   2.0000      -0.445084       -12.1114
 240   2.0000      -0.442911       -12.0522
 241   2.0000      -0.439844       -11.9688
 242   2.0000      -0.429632       -11.6909
 243   2.0000      -0.429251       -11.6805
 244   2.0000      -0.427810       -11.6413
 245   2.0000      -0.426925       -11.6172
 246   2.0000      -0.422696       -11.5021
 247   2.0000      -0.419270       -11.4089
 248   2.0000      -0.415563       -11.3080
 249   2.0000      -0.413795       -11.2599
 250   2.0000      -0.412450       -11.2233
 251   2.0000      -0.411214       -11.1897
 252   2.0000      -0.407290       -11.0829
 253   2.0000      -0.403845       -10.9892
 254   2.0000      -0.401858       -10.9351
 255   2.0000      -0.400139       -10.8883
 256   2.0000      -0.392421       -10.6783
 257   2.0000      -0.392337       -10.6760
 258   2.0000      -0.388833       -10.5807
 259   2.0000      -0.385030       -10.4772
 260   2.0000      -0.378104       -10.2887
 261   2.0000      -0.377389       -10.2693
 262   2.0000      -0.374631       -10.1942
 263   2.0000      -0.369079       -10.0431
 264   2.0000      -0.367970       -10.0130
 265   2.0000      -0.366331        -9.9684
 266   2.0000      -0.356529        -9.7016
 267   2.0000      -0.347880        -9.4663
 268   2.0000      -0.341192        -9.2843
 269   2.0000      -0.335677        -9.1342
 270   2.0000      -0.324888        -8.8407
 271   2.0000      -0.321678        -8.7533
 272   2.0000      -0.321570        -8.7504
 273   2.0000      -0.308850        -8.4042
 274   2.0000      -0.302978        -8.2444
 275   2.0000      -0.297498        -8.0953
 276   2.0000      -0.283898        -7.7253
 277   2.0000      -0.270862        -7.3705
 278   2.0000      -0.260947        -7.1007
 279   2.0000      -0.240105        -6.5336
 280   2.0000      -0.196363        -5.3433
 281   0.0000      -0.099533        -2.7084
 282   0.0000      -0.090299        -2.4572
 283   0.0000      -0.078045        -2.1237
 284   0.0000      -0.069669        -1.8958
 285   0.0000      -0.043588        -1.1861

MULLIKEN ATOMIC CHARGES
-----------------------
   0 C :    0.324970
   1 C :   -0.346639
   2 C :   -0.185560
   3 N :    0.153249
   4 C :   -0.198990
   5 N :    0.146463
   6 C :    0.009575
   7 C :   -0.003403
   8 C :   -0.070497
   9 C :    0.116386
  10 C :   -0.091238
  11 C :   -0.021398
  12 S :    0.191127
  13 C :   -0.121837
  14 C :    0.035960
  15 Br:    0.025528
  16 C :    0.166521
  17 O :   -0.220859
  18 C :   -0.133637
  19 C :    0.029056
  20 N :   -0.005551
  21 C :   -0.125908
  22 S :    0.176230
  23 C :    0.002963
  24 N :    0.273987
  25 O :   -0.248980
  26 O :   -0.255223
  27 C :    0.003343
  28 C :    0.145028
  29 C :   -0.076295
  30 C :    0.007729
  31 C :   -0.100181
  32 S :    0.104756
  33 C :   -0.103180
  34 C :   -0.048819
  35 C :   -0.089390
  36 C :    0.140175
  37 C :   -0.162212
  38 C :    0.479519
  39 F :   -0.154757
  40 F :   -0.170601
  41 F :   -0.166660
  42 C :    0.064999
  43 C :    0.069363
  44 C :    0.024563
  45 C :   -0.009587
  46 C :   -0.014729
  47 C :   -0.019374
  48 C :    0.031218
  49 C :    0.026458
  50 C :   -0.048959
  51 S :    0.053513
  52 C :   -0.028487
  53 C :    0.022468
  54 C :    0.034589
  55 C :   -0.027618
  56 S :    0.044856
  57 C :   -0.011245
  58 C :    0.058780
  59 C :   -0.041200
  60 C :    0.069620
  61 C :   -0.001691
  62 C :    0.047569
  63 C :   -0.018950
  64 C :    0.061926
  65 C :   -0.028889
  66 C :    0.061286
  67 C :   -0.000838
  68 C :    0.039741
  69 C :   -0.027011
  70 C :    0.011608
  71 C :   -0.027437
  72 H :   -0.008742
  73 H :   -0.004735
  74 H :   -0.002766
  75 H :    0.045598
  76 H :    0.185190
  77 H :    0.011305
  78 H :    0.004650
  79 H :   -0.016776
  80 H :    0.026987
  81 H :    0.032093
  82 H :    0.030359
  83 H :    0.011652
  84 H :    0.020656
  85 H :    0.039632
  86 H :    0.037156
  87 H :   -0.021058
  88 H :   -0.006388
  89 H :   -0.020204
  90 H :   -0.017054
  91 H :   -0.015638
  92 H :   -0.015321
  93 H :   -0.013589
  94 H :   -0.023776
  95 H :   -0.029193
  96 H :   -0.024872
  97 H :   -0.023007
  98 H :   -0.027773
  99 H :   -0.025425
 100 H :   -0.006972
 101 H :   -0.019011
 102 H :    0.008426
 103 H :    0.021304
Sum of atomic charges:   -0.0000000

LOEWDIN ATOMIC CHARGES
----------------------
   0 C :    0.078644
   1 C :   -0.150048
   2 C :   -0.019989
   3 N :   -0.055099
   4 C :   -0.020900
   5 N :   -0.053725
   6 C :   -0.017758
   7 C :   -0.050966
   8 C :    0.023763
   9 C :   -0.034335
  10 C :   -0.143863
  11 C :   -0.007798
  12 S :    0.436912
  13 C :   -0.271627
  14 C :   -0.069999
  15 Br:    0.138101
  16 C :    0.095714
  17 O :   -0.175762
  18 C :   -0.147957
  19 C :    0.111341
  20 N :    0.083472
  21 C :   -0.120819
  22 S :    0.468060
  23 C :   -0.199460
  24 N :    0.273259
  25 O :   -0.215119
  26 O :   -0.222469
  27 C :    0.001116
  28 C :   -0.078918
  29 C :   -0.052955
  30 C :   -0.022687
  31 C :   -0.184730
  32 S :    0.433890
  33 C :   -0.157303
  34 C :   -0.061391
  35 C :   -0.053132
  36 C :   -0.017906
  37 C :   -0.065746
  38 C :    0.163170
  39 F :   -0.050264
  40 F :   -0.068677
  41 F :   -0.065004
  42 C :   -0.019373
  43 C :   -0.031885
  44 C :   -0.051643
  45 C :   -0.030834
  46 C :   -0.065208
  47 C :   -0.142112
  48 C :   -0.043003
  49 C :   -0.030059
  50 C :   -0.188001
  51 S :    0.361120
  52 C :   -0.173502
  53 C :   -0.044274
  54 C :   -0.027296
  55 C :   -0.158668
  56 S :    0.373172
  57 C :   -0.040770
  58 C :   -0.064874
  59 C :    0.012590
  60 C :   -0.060080
  61 C :    0.072703
  62 C :   -0.063420
  63 C :    0.048906
  64 C :   -0.059497
  65 C :    0.015503
  66 C :   -0.059363
  67 C :    0.070765
  68 C :   -0.062237
  69 C :    0.030131
  70 C :   -0.021290
  71 C :   -0.054507
  72 H :    0.041797
  73 H :    0.042046
  74 H :    0.039074
  75 H :    0.036435
  76 H :    0.085924
  77 H :    0.044473
  78 H :    0.021840
  79 H :    0.029958
  80 H :    0.039654
  81 H :    0.033997
  82 H :    0.044552
  83 H :    0.029624
  84 H :    0.030607
  85 H :    0.035191
  86 H :    0.034802
  87 H :    0.026378
  88 H :    0.019494
  89 H :    0.030752
  90 H :    0.031802
  91 H :    0.031061
  92 H :    0.030929
  93 H :    0.032663
  94 H :    0.035078
  95 H :    0.023240
  96 H :    0.034755
  97 H :    0.025315
  98 H :    0.024008
  99 H :    0.034814
 100 H :    0.013945
 101 H :    0.029309
 102 H :    0.017754
 103 H :    0.024702

  Mayer bond orders larger than 0.100000
B(  0-C ,  1-C ) :   1.6243 B(  0-C ,  6-C ) :   0.9995 B(  0-C , 18-C ) :   1.1046
B(  1-C ,  2-C ) :   1.1444 B(  1-C ,  4-C ) :   1.1502 B(  2-C ,  3-N ) :   2.9688
B(  4-C ,  5-N ) :   2.9558 B(  6-C ,  7-C ) :   1.2736 B(  6-C , 11-C ) :   1.4255
B(  7-C ,  8-C ) :   1.4243 B(  7-C , 16-C ) :   0.9817 B(  8-C ,  9-C ) :   1.2388
B(  8-C , 72-H ) :   1.0189 B(  9-C , 10-C ) :   1.3120 B(  9-C , 14-C ) :   1.1629
B( 10-C , 11-C ) :   1.3164 B( 10-C , 12-S ) :   1.0908 B( 11-C , 73-H ) :   0.9809
B( 12-S , 13-C ) :   1.0881 B( 13-C , 14-C ) :   1.6163 B( 13-C , 15-Br) :   1.0193
B( 14-C , 74-H ) :   1.0009 B( 16-C , 17-O ) :   2.0297 B( 16-C , 18-C ) :   1.0083
B( 17-O , 76-H ) :   0.1456 B( 18-C , 19-C ) :   1.4388 B( 19-C , 20-N ) :   1.3517
B( 19-C , 75-H ) :   0.9318 B( 20-N , 21-C ) :   1.1916 B( 20-N , 76-H ) :   0.8187
B( 21-C , 22-S ) :   1.1270 B( 21-C , 28-C ) :   1.3691 B( 22-S , 23-C ) :   1.0848
B( 23-C , 24-N ) :   0.9648 B( 23-C , 27-C ) :   1.4998 B( 24-N , 25-O ) :   1.5341
B( 24-N , 26-O ) :   1.5170 B( 25-O , 26-O ) :   0.2620 B( 27-C , 28-C ) :   1.2166
B( 27-C , 77-H ) :   1.0003 B( 28-C , 29-C ) :   1.0806 B( 29-C , 30-C ) :   1.6804
B( 29-C , 78-H ) :   0.9651 B( 30-C , 31-C ) :   1.1675 B( 30-C , 79-H ) :   0.9668
B( 31-C , 32-S ) :   1.1059 B( 31-C , 35-C ) :   1.4591 B( 32-S , 33-C ) :   1.1190
B( 33-C , 34-C ) :   1.4617 B( 33-C , 44-C ) :   1.1581 B( 34-C , 35-C ) :   1.3428
B( 34-C , 43-C ) :   1.0557 B( 35-C , 36-C ) :   1.0424 B( 36-C , 37-C ) :   1.0409
B( 36-C , 80-H ) :   0.9053 B( 36-C , 81-H ) :   0.9118 B( 37-C , 38-C ) :   0.9818
B( 37-C , 42-C ) :   1.0426 B( 37-C , 82-H ) :   0.9009 B( 38-C , 39-F ) :   1.1441
B( 38-C , 40-F ) :   1.1365 B( 38-C , 41-F ) :   1.1461 B( 42-C , 43-C ) :   1.0807
B( 42-C , 83-H ) :   0.9388 B( 42-C , 84-H ) :   0.9321 B( 43-C , 85-H ) :   0.9070
B( 43-C , 86-H ) :   0.9058 B( 44-C , 45-C ) :   1.6056 B( 44-C , 87-H ) :   0.9540
B( 45-C , 46-C ) :   1.1861 B( 45-C , 88-H ) :   0.9655 B( 46-C , 47-C ) :   1.5230
B( 46-C , 89-H ) :   0.9854 B( 47-C , 48-C ) :   1.1593 B( 47-C , 51-S ) :   1.0389
B( 48-C , 49-C ) :   1.5667 B( 48-C , 90-H ) :   1.0000 B( 49-C , 50-C ) :   1.2076
B( 49-C , 91-H ) :   0.9936 B( 50-C , 51-S ) :   1.0385 B( 50-C , 52-C ) :   1.4852
B( 52-C , 53-C ) :   1.1967 B( 52-C , 56-S ) :   1.0479 B( 53-C , 54-C ) :   1.5799
B( 53-C , 92-H ) :   0.9933 B( 54-C , 55-C ) :   1.1480 B( 54-C , 93-H ) :   0.9994
B( 55-C , 56-S ) :   1.0184 B( 55-C , 57-C ) :   1.5670 B( 57-C , 58-C ) :   1.1411
B( 57-C , 94-H ) :   0.9697 B( 58-C , 59-C ) :   1.4226 B( 58-C , 69-C ) :   1.1348
B( 59-C , 60-C ) :   1.1222 B( 59-C , 95-H ) :   1.0206 B( 60-C , 61-C ) :   1.4189
B( 60-C , 68-C ) :   1.1302 B( 61-C , 62-C ) :   1.1451 B( 61-C , 96-H ) :   1.0059
B( 62-C , 63-C ) :   1.4223 B( 62-C , 66-C ) :   1.1264 B( 63-C , 64-C ) :   1.1548
B( 63-C , 97-H ) :   1.0081 B( 64-C , 65-C ) :   1.4954 B( 64-C , 70-C ) :   1.0844
B( 65-C , 66-C ) :   1.0894 B( 65-C , 98-H ) :   1.0178 B( 66-C , 67-C ) :   1.4600
B( 67-C , 68-C ) :   1.1256 B( 67-C , 99-H ) :   1.0053 B( 68-C , 69-C ) :   1.4585
B( 69-C ,100-H ) :   0.9900 B( 70-C , 71-C ) :   1.9320 B( 70-C ,101-H ) :   0.9670
B( 71-C ,102-H ) :   0.9533 B( 71-C ,103-H ) :   0.9498

-----------------------------------------------------------------------------
         ABSORPTION SPECTRUM VIA TRANSITION ELECTRIC DIPOLE MOMENTS
-----------------------------------------------------------------------------
State   Energy  Wavelength   fosc         T2         TX        TY        TZ
        (cm-1)    (nm)                  (au**2)     (au)      (au)      (au)
-----------------------------------------------------------------------------
   0    5665.6   1765.0   0.022849964   1.32774  -0.67613  -0.67884  -0.64013
   1   12073.9    828.2   1.490360655  40.63665   3.63082   2.16278   4.77244
   2   13976.3    715.5   0.020774167   0.48934   0.51155   0.12556   0.46031
   3   14666.8    681.8   0.238916108   5.36272   2.09631   0.90067   0.39625
   4   17645.8    566.7   0.028838645   0.53803   0.69321   0.22798  -0.07426
   5   20379.6    490.7   0.203819403   3.29250  -0.65678   0.58091   1.58861
   6   21453.9    466.1   0.285918810   4.38745  -0.80604  -0.73131   1.78968
   7   22192.5    450.6   0.043358462   0.64320   0.76067  -0.24896  -0.05095
   8   22912.6    436.4   1.043410902  14.99187   1.15361  -3.51817   1.13294
   9   23166.8    431.7   0.044689437   0.63506   0.44273   0.65903   0.06874
  10   24623.9    406.1   0.056407562   0.75415   0.75861  -0.42241  -0.01504
  11   25146.9    397.7   0.880374185  11.52546  -1.03167   3.14818  -0.74168
  12   26081.3    383.4   0.219583346   2.77169   0.94025  -1.11943  -0.79655
  13   27023.4    370.0   0.216651365   2.63935  -1.09211   1.17883   0.23875
  14   27753.7    360.3   0.000040412   0.00048   0.01864  -0.00069   0.01146
  15   28528.0    350.5   0.027651943   0.31910   0.15735  -0.47878   0.25518
  16   29048.2    344.3   0.051669535   0.58559   0.69148   0.00075   0.32779
  17   29579.0    338.1   0.380527405   4.23524   0.60368  -1.95771   0.19542
  18   29943.0    334.0   0.418898174   4.60563   1.37942  -1.64226  -0.07636
  19   30029.4    333.0   0.351480770   3.85328  -1.86795  -0.00216  -0.60335
  20   30827.4    324.4   0.011822663   0.12626  -0.14460  -0.24188  -0.21643
  21   31046.4    322.1   0.112404116   1.19192  -0.80322   0.57616  -0.46346
  22   31286.9    319.6   0.065385213   0.68801  -0.77047   0.11856   0.28341
  23   32468.2    308.0   0.028536259   0.28934  -0.08374  -0.53125   0.01046
  24   32636.7    306.4   0.069940201   0.70550   0.27717   0.79288  -0.00410
  25   33033.5    302.7   0.025185157   0.25100   0.19574  -0.39301   0.24130
  26   33209.2    301.1   0.015011288   0.14881  -0.34552  -0.12463  -0.11787
  27   33463.8    298.8   0.076137482   0.74903   0.00686   0.83694   0.22028
  28   33643.1    297.2   0.004022407   0.03936  -0.01648  -0.19587  -0.02692
  29   33706.1    296.7   0.030515280   0.29805  -0.13721  -0.20933   0.48518
  30   33759.8    296.2   0.001553892   0.01515   0.00550  -0.05241   0.11125
  31   34020.1    293.9   0.071406683   0.69100  -0.29099  -0.75736  -0.18090
  32   34195.8    292.4   0.195603274   1.88312   0.96270   0.42247   0.88196
  33   34370.3    290.9   0.393107575   3.76534   1.26529  -0.86309   1.19141
  34   34404.2    290.7   0.028757232   0.27518  -0.34280   0.25395  -0.30525
  35   34872.0    286.8   0.015576285   0.14705  -0.13119   0.34272  -0.11127
  36   35503.2    281.7   0.014749143   0.13676   0.17320   0.23228   0.22981
  37   35835.8    279.1   0.031712389   0.29133   0.18296  -0.32249   0.39225
  38   35927.4    278.3   0.000305448   0.00280  -0.05216   0.00878   0.00086
  39   36425.8    274.5   0.044488030   0.40208   0.19669   0.16386   0.58012
  40   36517.3    273.8   0.037946137   0.34209   0.25577  -0.10099   0.51621
  41   36853.1    271.3   0.101429129   0.90607   0.20036  -0.60965   0.70303
  42   36899.2    271.0   0.014552129   0.12983   0.02791   0.32392  -0.15533
  43   37059.9    269.8   0.042362063   0.37631  -0.30475   0.21322  -0.48783
  44   37371.7    267.6   0.058335419   0.51388  -0.21716   0.64916  -0.21288
  45   37598.4    266.0   0.017582703   0.15395   0.11049  -0.15739   0.34202
  46   37713.1    265.2   0.099197247   0.86593  -0.08711   0.51629  -0.76927
  47   37877.9    264.0   0.059192284   0.51446   0.00434   0.44208  -0.56481
  48   38155.3    262.1   0.195780055   1.68923  -0.93076   0.84896   0.31966
  49   38520.7    259.6   0.071693826   0.61272  -0.06251  -0.12680   0.76989
  50   38657.4    258.7   0.009851786   0.08390  -0.04238   0.27693  -0.07359
  51   38959.8    256.7   0.034028873   0.28755  -0.06649   0.52809  -0.06512
  52   39368.2    254.0   0.002927876   0.02448  -0.11515   0.10379   0.02126
  53   39560.0    252.8   0.019914571   0.16573  -0.02031  -0.16238  -0.37276
  54   39742.7    251.6   0.063235353   0.52381  -0.15555   0.23265  -0.66745
  55   39968.1    250.2   0.026252154   0.21624   0.22476   0.36344   0.18338
  56   40117.2    249.3   0.000462459   0.00380   0.04615   0.01881   0.03621

FINAL SINGLE POINT ENERGY     -7457.935256776984

DIPOLE MOMENT
-------------
                                X             Y             Z
Electronic contribution:     -2.02839      99.00929     146.80524
Nuclear contribution   :     -2.31411     -98.44963    -150.38987
                        -----------------------------------------
Total Dipole Moment    :     -4.34250       0.55966      -3.58463
                        -----------------------------------------
Magnitude (a.u.)       :      5.65863
Magnitude (Debye)      :     14.38309

Rotational constants in cm-1:     0.000645     0.000267     0.000223
Rotational constants in MHz :    19.322931     8.009081     6.690446

                             ****ORCA TERMINATED NORMALLY****
TOTAL RUN TIME: 0 days 0 hours 12 minutes 40 seconds 594 msec
