                         Program Version 4.2.0 -  RELEASE  -
|  1> # ORCA input file
|  2> # SCF done       -173.890328961916          0.000552666779
|  3> ! CAM-B3LYP def2-SVP def2/J RIJCOSX Grid4 TightSCF
|  4> %maxcore 5000
|  5> %tddft
|  6>     Mode sTDDFT
|  7>     Ethresh 5.0
|  8>     maxcore 5000
|  9> end
| 10>
| 11> %pal
| 12>   nprocs 6
| 13>   end
| 14> * xyz 0 1
| 15>    C       -9.15665        -1.14918         0.58919
| 16>    C       -8.02049        -1.69439         0.04526
| 17>    C       -7.74517        -3.07621         0.01226
| 18>    N       -7.47325        -4.18996        -0.04924
| 19>    C       -6.96689        -0.94685        -0.51989
| 20>    N       -6.06371        -0.39842        -0.97009
| 21>    C      -10.20962        -1.88283         1.28160
| 22>    C      -11.14392        -0.95194         1.79824
| 23>    C      -12.25365        -1.33464         2.51066
| 24>    C      -12.44854        -2.70302         2.72871
| 25>    C      -11.51090        -3.62557         2.20716
| 26>    C      -10.38959        -3.23794         1.48331
| 27>    S      -11.94658        -5.26395         2.58765
| 28>    C      -13.36133        -4.69513         3.43298
| 29>    C      -13.50287        -3.34832         3.43097
| 30>   Br      -14.51892        -5.93295         4.23609
| 31>    C      -10.72558         0.41865         1.44002
| 32>    O      -11.34029         1.44214         1.66301
| 33>    C       -9.47591         0.25898         0.66374
| 34>    C       -8.87656         1.25648        -0.06626
| 35>    C       -9.03725         2.63882         0.11160
| 36>    S       -8.84992         3.68386        -1.26761
| 37>    C       -9.23194         5.10500        -0.37220
| 38>    C       -9.43915         4.79236         0.98589
| 39>    C       -9.30248         3.40070         1.26506
| 40>    C       -9.33486         2.95002         2.59613
| 41>    C       -9.60064         3.85016         3.58893
| 42>    F       -9.63069         3.44569         4.86640
| 43>    C       -9.82175         5.21530         3.30243
| 44>    F      -10.09154         6.05763         4.31222
| 45>    C       -9.72370         5.69420         2.02732
| 46>    C       -9.28680         6.39005        -0.96442
| 47>    C       -9.00762         6.65807        -2.25937
| 48>    C       -9.01293         7.98951        -2.81554
| 49>    C       -8.64217         8.23242        -4.08615
| 50>    C       -9.39604         9.06055        -1.96867
| 51>    C       -9.71793         9.97315        -1.24392
| 52>    C      -10.07369        11.08217        -0.46508
| 53>    C       -9.16300        11.87995         0.12033
| 54>    C       -9.53159        13.07884         0.81673
| 55>    C       -8.70463        14.01154         1.31514
| 56>    C       -7.21396        13.95534         1.30748
| 57>    C       -9.28497        15.30318         1.84165
| 58>    N       -9.29497        16.32166         0.80229
| 59>    C       -9.70602        16.09451        -0.44294
| 60>    C       -9.83396        17.03948        -1.42274
| 61>    C      -10.30772        16.76196        -2.71229
| 62>    C      -10.44874        15.56221        -3.37350
| 63>    C       -9.84769        14.26480        -3.22598
| 64>    C       -8.61092        13.95749        -2.70254
| 65>    C       -8.00679        12.69176        -2.81646
| 66>    N       -7.45620        11.68601        -2.89317
| 67>    C       -7.76185        14.88867        -2.08699
| 68>    N       -7.03314        15.60507        -1.55993
| 69>    C      -10.64580        13.31865        -4.00528
| 70>    C      -11.56646        14.04543        -4.79624
| 71>    C      -11.42126        15.48696        -4.48842
| 72>    O      -12.00588        16.41147        -5.01102
| 73>    C      -12.44017        13.43063        -5.65829
| 74>    C      -12.41475        12.03195        -5.72530
| 75>    C      -11.50999        11.31694        -4.90799
| 76>    C      -10.61505        11.93966        -4.04613
| 77>    S      -11.66763         9.59903        -5.12491
| 78>    C      -12.92455         9.86315        -6.30586
| 79>    C      -13.21468        11.16694        -6.52333
| 80>   Br      -13.73276         8.38728        -7.13683
| 81>    H      -12.94735        -0.60180         2.89183
| 82>    H       -9.70655        -3.97843         1.10183
| 83>    H      -14.31663        -2.82969         3.90400
| 84>    H       -8.26109         0.96654        -0.90998
| 85>    H       -9.13228         1.92317         2.84724
| 86>    H       -9.85340         6.74770         1.84182
| 87>    H       -9.55426         7.20985        -0.31136
| 88>    H       -8.73250         5.85561        -2.93105
| 89>    H       -8.34536         7.43184        -4.74124
| 90>    H       -8.60919         9.23254        -4.48062
| 91>    H      -11.13484        11.29034        -0.38363
| 92>    H       -8.11593        11.63916         0.01262
| 93>    H      -10.60126        13.24614         0.89903
| 94>    H       -6.84156        12.99109         0.97924
| 95>    H       -6.82854        14.15436         2.30714
| 96>    H       -6.81854        14.72152         0.63842
| 97>    H       -8.68604        15.68175         2.67131
| 98>    H      -10.31031        15.14115         2.19862
| 99>    H       -8.94748        17.24077         1.02973
|100>    H      -10.01711        15.07802        -0.64221
|101>    H       -9.63944        18.07387        -1.17621
|102>    H      -10.70898        17.60729        -3.26349
|103>    H      -13.12529        14.00611        -6.26068
|104>    H       -9.95351        11.35201        -3.43135
|105>    H      -13.96142        11.50832        -7.21677
|106> *
|107>
|108>                          ****END OF INPUT****

CARTESIAN COORDINATES (ANGSTROEM)
---------------------------------
  C     -9.156650   -1.149180    0.589190
  C     -8.020490   -1.694390    0.045260
  C     -7.745170   -3.076210    0.012260
  N     -7.473250   -4.189960   -0.049240
  C     -6.966890   -0.946850   -0.519890
  N     -6.063710   -0.398420   -0.970090
  C    -10.209620   -1.882830    1.281600
  C    -11.143920   -0.951940    1.798240
  C    -12.253650   -1.334640    2.510660
  C    -12.448540   -2.703020    2.728710
  C    -11.510900   -3.625570    2.207160
  C    -10.389590   -3.237940    1.483310
  S    -11.946580   -5.263950    2.587650
  C    -13.361330   -4.695130    3.432980
  C    -13.502870   -3.348320    3.430970
  Br   -14.518920   -5.932950    4.236090
  C    -10.725580    0.418650    1.440020
  O    -11.340290    1.442140    1.663010
  C     -9.475910    0.258980    0.663740
  C     -8.876560    1.256480   -0.066260
  C     -9.037250    2.638820    0.111600
  S     -8.849920    3.683860   -1.267610
  C     -9.231940    5.105000   -0.372200
  C     -9.439150    4.792360    0.985890
  C     -9.302480    3.400700    1.265060
  C     -9.334860    2.950020    2.596130
  C     -9.600640    3.850160    3.588930
  F     -9.630690    3.445690    4.866400
  C     -9.821750    5.215300    3.302430
  F    -10.091540    6.057630    4.312220
  C     -9.723700    5.694200    2.027320
  C     -9.286800    6.390050   -0.964420
  C     -9.007620    6.658070   -2.259370
  C     -9.012930    7.989510   -2.815540
  C     -8.642170    8.232420   -4.086150
  C     -9.396040    9.060550   -1.968670
  C     -9.717930    9.973150   -1.243920
  C    -10.073690   11.082170   -0.465080
  C     -9.163000   11.879950    0.120330
  C     -9.531590   13.078840    0.816730
  C     -8.704630   14.011540    1.315140
  C     -7.213960   13.955340    1.307480
  C     -9.284970   15.303180    1.841650
  N     -9.294970   16.321660    0.802290
  C     -9.706020   16.094510   -0.442940
  C     -9.833960   17.039480   -1.422740
  C    -10.307720   16.761960   -2.712290
  C    -10.448740   15.562210   -3.373500
  C     -9.847690   14.264800   -3.225980
  C     -8.610920   13.957490   -2.702540
  C     -8.006790   12.691760   -2.816460
  N     -7.456200   11.686010   -2.893170
  C     -7.761850   14.888670   -2.086990
  N     -7.033140   15.605070   -1.559930
  C    -10.645800   13.318650   -4.005280
  C    -11.566460   14.045430   -4.796240
  C    -11.421260   15.486960   -4.488420
  O    -12.005880   16.411470   -5.011020
  C    -12.440170   13.430630   -5.658290
  C    -12.414750   12.031950   -5.725300
  C    -11.509990   11.316940   -4.907990
  C    -10.615050   11.939660   -4.046130
  S    -11.667630    9.599030   -5.124910
  C    -12.924550    9.863150   -6.305860
  C    -13.214680   11.166940   -6.523330
  Br   -13.732760    8.387280   -7.136830
  H    -12.947350   -0.601800    2.891830
  H     -9.706550   -3.978430    1.101830
  H    -14.316630   -2.829690    3.904000
  H     -8.261090    0.966540   -0.909980
  H     -9.132280    1.923170    2.847240
  H     -9.853400    6.747700    1.841820
  H     -9.554260    7.209850   -0.311360
  H     -8.732500    5.855610   -2.931050
  H     -8.345360    7.431840   -4.741240
  H     -8.609190    9.232540   -4.480620
  H    -11.134840   11.290340   -0.383630
  H     -8.115930   11.639160    0.012620
  H    -10.601260   13.246140    0.899030
  H     -6.841560   12.991090    0.979240
  H     -6.828540   14.154360    2.307140
  H     -6.818540   14.721520    0.638420
  H     -8.686040   15.681750    2.671310
  H    -10.310310   15.141150    2.198620
  H     -8.947480   17.240770    1.029730
  H    -10.017110   15.078020   -0.642210
  H     -9.639440   18.073870   -1.176210
  H    -10.708980   17.607290   -3.263490
  H    -13.125290   14.006110   -6.260680
  H     -9.953510   11.352010   -3.431350
  H    -13.961420   11.508320   -7.216770

 Total Charge           Charge          ....    0
 Multiplicity           Mult            ....    1
 Number of Electrons    NEL             ....  524
 Basis Dimension        Dim             .... 1097

ORBITAL ENERGIES
----------------

  NO   OCC          E(Eh)            E(eV)
   0   2.0000    -482.882371    -13139.8973
   1   2.0000    -482.882151    -13139.8914
   2   2.0000     -88.981540     -2421.3108
   3   2.0000     -88.971560     -2421.0392
   4   2.0000     -88.970841     -2421.0197
   5   2.0000     -62.560089     -1702.3466
   6   2.0000     -62.559810     -1702.3390
   7   2.0000     -56.394035     -1534.5597
   8   2.0000     -56.393740     -1534.5517
   9   2.0000     -56.391328     -1534.4860
  10   2.0000     -56.391294     -1534.4851
  11   2.0000     -56.391048     -1534.4784
  12   2.0000     -56.391027     -1534.4779
  13   2.0000     -24.791121      -674.6007
  14   2.0000     -24.790838      -674.5930
  15   2.0000     -19.208747      -522.6966
  16   2.0000     -19.199806      -522.4533
  17   2.0000     -14.474382      -393.8680
  18   2.0000     -14.412611      -392.1871
  19   2.0000     -14.408757      -392.0822
  20   2.0000     -14.408664      -392.0797
  21   2.0000     -14.406480      -392.0203
  22   2.0000     -10.374200      -282.2963
  23   2.0000     -10.372919      -282.2615
  24   2.0000     -10.359814      -281.9049
  25   2.0000     -10.354912      -281.7715
  26   2.0000     -10.353218      -281.7254
  27   2.0000     -10.352124      -281.6956
  28   2.0000     -10.349543      -281.6254
  29   2.0000     -10.336237      -281.2633
  30   2.0000     -10.334686      -281.2211
  31   2.0000     -10.334129      -281.2060
  32   2.0000     -10.333922      -281.2003
  33   2.0000     -10.333462      -281.1878
  34   2.0000     -10.327112      -281.0150
  35   2.0000     -10.320720      -280.8411
  36   2.0000     -10.318510      -280.7809
  37   2.0000     -10.318298      -280.7752
  38   2.0000     -10.316371      -280.7227
  39   2.0000     -10.316203      -280.7182
  40   2.0000     -10.312100      -280.6065
  41   2.0000     -10.312008      -280.6040
  42   2.0000     -10.311521      -280.5908
  43   2.0000     -10.309235      -280.5286
  44   2.0000     -10.308458      -280.5074
  45   2.0000     -10.305321      -280.4221
  46   2.0000     -10.303304      -280.3672
  47   2.0000     -10.302841      -280.3546
  48   2.0000     -10.302341      -280.3410
  49   2.0000     -10.301662      -280.3225
  50   2.0000     -10.300975      -280.3038
  51   2.0000     -10.300535      -280.2918
  52   2.0000     -10.300393      -280.2879
  53   2.0000     -10.300350      -280.2868
  54   2.0000     -10.298673      -280.2411
  55   2.0000     -10.297497      -280.2091
  56   2.0000     -10.297255      -280.2026
  57   2.0000     -10.296555      -280.1835
  58   2.0000     -10.295734      -280.1612
  59   2.0000     -10.293646      -280.1044
  60   2.0000     -10.293447      -280.0989
  61   2.0000     -10.292920      -280.0846
  62   2.0000     -10.292413      -280.0708
  63   2.0000     -10.291828      -280.0549
  64   2.0000     -10.290818      -280.0274
  65   2.0000     -10.288763      -279.9715
  66   2.0000     -10.287281      -279.9311
  67   2.0000     -10.287054      -279.9250
  68   2.0000     -10.283164      -279.8191
  69   2.0000     -10.279784      -279.7271
  70   2.0000     -10.276838      -279.6470
  71   2.0000     -10.275675      -279.6153
  72   2.0000     -10.275286      -279.6048
  73   2.0000     -10.272019      -279.5158
  74   2.0000      -8.789514      -239.1748
  75   2.0000      -8.789222      -239.1669
  76   2.0000      -8.076853      -219.7823
  77   2.0000      -8.067502      -219.5279
  78   2.0000      -8.066350      -219.4965
  79   2.0000      -6.625795      -180.2970
  80   2.0000      -6.625477      -180.2884
  81   2.0000      -6.611255      -179.9014
  82   2.0000      -6.611071      -179.8964
  83   2.0000      -6.610980      -179.8939
  84   2.0000      -6.610783      -179.8885
  85   2.0000      -6.045772      -164.5138
  86   2.0000      -6.041758      -164.4046
  87   2.0000      -6.039608      -164.3461
  88   2.0000      -6.037212      -164.2809
  89   2.0000      -6.036072      -164.2499
  90   2.0000      -6.032905      -164.1637
  91   2.0000      -6.031738      -164.1319
  92   2.0000      -6.028737      -164.0503
  93   2.0000      -6.027656      -164.0209
  94   2.0000      -2.741672       -74.6047
  95   2.0000      -2.741362       -74.5963
  96   2.0000      -2.737584       -74.4935
  97   2.0000      -2.737447       -74.4897
  98   2.0000      -2.737232       -74.4839
  99   2.0000      -2.737198       -74.4829
 100   2.0000      -2.725894       -74.1754
 101   2.0000      -2.725878       -74.1749
 102   2.0000      -2.725628       -74.1681
 103   2.0000      -2.725612       -74.1677
 104   2.0000      -1.313507       -35.7423
 105   2.0000      -1.298452       -35.3327
 106   2.0000      -1.123940       -30.5840
 107   2.0000      -1.114931       -30.3388
 108   2.0000      -1.071315       -29.1520
 109   2.0000      -1.018217       -27.7071
 110   2.0000      -1.016171       -27.6514
 111   2.0000      -1.015897       -27.6440
 112   2.0000      -1.007810       -27.4239
 113   2.0000      -1.007500       -27.4155
 114   2.0000      -0.989469       -26.9248
 115   2.0000      -0.987729       -26.8775
 116   2.0000      -0.983859       -26.7722
 117   2.0000      -0.980879       -26.6911
 118   2.0000      -0.954535       -25.9742
 119   2.0000      -0.944051       -25.6889
 120   2.0000      -0.939774       -25.5725
 121   2.0000      -0.936374       -25.4800
 122   2.0000      -0.934754       -25.4359
 123   2.0000      -0.913018       -24.8445
 124   2.0000      -0.909123       -24.7385
 125   2.0000      -0.903327       -24.5808
 126   2.0000      -0.901167       -24.5220
 127   2.0000      -0.895174       -24.3589
 128   2.0000      -0.881837       -23.9960
 129   2.0000      -0.880256       -23.9530
 130   2.0000      -0.878763       -23.9123
 131   2.0000      -0.869458       -23.6592
 132   2.0000      -0.859743       -23.3948
 133   2.0000      -0.852530       -23.1985
 134   2.0000      -0.842515       -22.9260
 135   2.0000      -0.839259       -22.8374
 136   2.0000      -0.824517       -22.4362
 137   2.0000      -0.823280       -22.4026
 138   2.0000      -0.821355       -22.3502
 139   2.0000      -0.800029       -21.7699
 140   2.0000      -0.792666       -21.5695
 141   2.0000      -0.787465       -21.4280
 142   2.0000      -0.767706       -20.8903
 143   2.0000      -0.761187       -20.7130
 144   2.0000      -0.752872       -20.4867
 145   2.0000      -0.747271       -20.3343
 146   2.0000      -0.742966       -20.2171
 147   2.0000      -0.727819       -19.8050
 148   2.0000      -0.724548       -19.7160
 149   2.0000      -0.712848       -19.3976
 150   2.0000      -0.705302       -19.1923
 151   2.0000      -0.694146       -18.8887
 152   2.0000      -0.686514       -18.6810
 153   2.0000      -0.684636       -18.6299
 154   2.0000      -0.680234       -18.5101
 155   2.0000      -0.677918       -18.4471
 156   2.0000      -0.665276       -18.1031
 157   2.0000      -0.662167       -18.0185
 158   2.0000      -0.659729       -17.9521
 159   2.0000      -0.651414       -17.7259
 160   2.0000      -0.649212       -17.6659
 161   2.0000      -0.637559       -17.3489
 162   2.0000      -0.627784       -17.0829
 163   2.0000      -0.623997       -16.9798
 164   2.0000      -0.620498       -16.8846
 165   2.0000      -0.618161       -16.8210
 166   2.0000      -0.615390       -16.7456
 167   2.0000      -0.613904       -16.7052
 168   2.0000      -0.612410       -16.6645
 169   2.0000      -0.599783       -16.3209
 170   2.0000      -0.597034       -16.2461
 171   2.0000      -0.591755       -16.1025
 172   2.0000      -0.587895       -15.9974
 173   2.0000      -0.581415       -15.8211
 174   2.0000      -0.577920       -15.7260
 175   2.0000      -0.571000       -15.5377
 176   2.0000      -0.567930       -15.4542
 177   2.0000      -0.566418       -15.4130
 178   2.0000      -0.561212       -15.2713
 179   2.0000      -0.559775       -15.2322
 180   2.0000      -0.548645       -14.9294
 181   2.0000      -0.546797       -14.8791
 182   2.0000      -0.543306       -14.7841
 183   2.0000      -0.540967       -14.7205
 184   2.0000      -0.540135       -14.6978
 185   2.0000      -0.537217       -14.6184
 186   2.0000      -0.532472       -14.4893
 187   2.0000      -0.530707       -14.4413
 188   2.0000      -0.530162       -14.4265
 189   2.0000      -0.524856       -14.2821
 190   2.0000      -0.524420       -14.2702
 191   2.0000      -0.521255       -14.1841
 192   2.0000      -0.517064       -14.0700
 193   2.0000      -0.513649       -13.9771
 194   2.0000      -0.511483       -13.9182
 195   2.0000      -0.509201       -13.8561
 196   2.0000      -0.507036       -13.7972
 197   2.0000      -0.502527       -13.6744
 198   2.0000      -0.501873       -13.6566
 199   2.0000      -0.499637       -13.5958
 200   2.0000      -0.495302       -13.4779
 201   2.0000      -0.493319       -13.4239
 202   2.0000      -0.491450       -13.3730
 203   2.0000      -0.490543       -13.3484
 204   2.0000      -0.489413       -13.3176
 205   2.0000      -0.487074       -13.2540
 206   2.0000      -0.484508       -13.1841
 207   2.0000      -0.480692       -13.0803
 208   2.0000      -0.478729       -13.0269
 209   2.0000      -0.475355       -12.9351
 210   2.0000      -0.472369       -12.8538
 211   2.0000      -0.468188       -12.7400
 212   2.0000      -0.464425       -12.6376
 213   2.0000      -0.463770       -12.6198
 214   2.0000      -0.461948       -12.5702
 215   2.0000      -0.459289       -12.4979
 216   2.0000      -0.455833       -12.4038
 217   2.0000      -0.453885       -12.3508
 218   2.0000      -0.451366       -12.2823
 219   2.0000      -0.446834       -12.1590
 220   2.0000      -0.445553       -12.1241
 221   2.0000      -0.443424       -12.0662
 222   2.0000      -0.442863       -12.0509
 223   2.0000      -0.440666       -11.9911
 224   2.0000      -0.438904       -11.9432
 225   2.0000      -0.437990       -11.9183
 226   2.0000      -0.436073       -11.8662
 227   2.0000      -0.435667       -11.8551
 228   2.0000      -0.434754       -11.8303
 229   2.0000      -0.433233       -11.7889
 230   2.0000      -0.428625       -11.6635
 231   2.0000      -0.422057       -11.4848
 232   2.0000      -0.419487       -11.4148
 233   2.0000      -0.417167       -11.3517
 234   2.0000      -0.416241       -11.3265
 235   2.0000      -0.414203       -11.2710
 236   2.0000      -0.412546       -11.2259
 237   2.0000      -0.404504       -11.0071
 238   2.0000      -0.403434       -10.9780
 239   2.0000      -0.400649       -10.9022
 240   2.0000      -0.397400       -10.8138
 241   2.0000      -0.383124       -10.4253
 242   2.0000      -0.382818       -10.4170
 243   2.0000      -0.374166       -10.1816
 244   2.0000      -0.371857       -10.1187
 245   2.0000      -0.371650       -10.1131
 246   2.0000      -0.370169       -10.0728
 247   2.0000      -0.363637        -9.8951
 248   2.0000      -0.350492        -9.5374
 249   2.0000      -0.345097        -9.3906
 250   2.0000      -0.336655        -9.1608
 251   2.0000      -0.323745        -8.8096
 252   2.0000      -0.322631        -8.7792
 253   2.0000      -0.317567        -8.6414
 254   2.0000      -0.311442        -8.4748
 255   2.0000      -0.309904        -8.4329
 256   2.0000      -0.308270        -8.3885
 257   2.0000      -0.290386        -7.9018
 258   2.0000      -0.289319        -7.8728
 259   2.0000      -0.288390        -7.8475
 260   2.0000      -0.264588        -7.1998
 261   2.0000      -0.252694        -6.8762
 262   0.0000      -0.100235        -2.7275
 263   0.0000      -0.074905        -2.0383
 264   0.0000      -0.064234        -1.7479
 265   0.0000      -0.043754        -1.1906
 266   0.0000      -0.035039        -0.9535

MULLIKEN ATOMIC CHARGES
-----------------------
   0 C :    0.298084
   1 C :   -0.346624
   2 C :   -0.182783
   3 N :    0.142527
   4 C :   -0.211594
   5 N :    0.159911
   6 C :    0.020262
   7 C :   -0.017017
   8 C :   -0.071689
   9 C :    0.118013
  10 C :   -0.094034
  11 C :   -0.022608
  12 S :    0.183933
  13 C :   -0.122871
  14 C :    0.037669
  15 Br:    0.020065
  16 C :    0.122640
  17 O :   -0.151455
  18 C :   -0.120422
  19 C :    0.014324
  20 C :   -0.143736
  21 S :    0.180986
  22 C :   -0.060484
  23 C :    0.103104
  24 C :    0.164439
  25 C :   -0.060797
  26 C :    0.216060
  27 F :   -0.173458
  28 C :    0.231523
  29 F :   -0.177634
  30 C :   -0.112840
  31 C :    0.011010
  32 C :    0.018714
  33 C :   -0.052896
  34 C :    0.012213
  35 C :    0.046083
  36 C :    0.002477
  37 C :   -0.148888
  38 C :    0.053893
  39 C :    0.013589
  40 C :   -0.223484
  41 C :    0.102140
  42 C :    0.209829
  43 N :   -0.127246
  44 C :    0.091724
  45 C :   -0.015194
  46 C :    0.048717
  47 C :   -0.164517
  48 C :    0.275032
  49 C :   -0.376052
  50 C :   -0.187459
  51 N :    0.148318
  52 C :   -0.165155
  53 N :    0.127077
  54 C :   -0.006943
  55 C :    0.014248
  56 C :    0.127725
  57 O :   -0.157559
  58 C :   -0.079609
  59 C :    0.104394
  60 C :   -0.078252
  61 C :   -0.018462
  62 S :    0.169900
  63 C :   -0.122842
  64 C :    0.040992
  65 Br:    0.014131
  66 H :   -0.012237
  67 H :   -0.007776
  68 H :   -0.003712
  69 H :    0.027928
  70 H :   -0.003773
  71 H :   -0.006910
  72 H :    0.009535
  73 H :   -0.011118
  74 H :    0.024663
  75 H :    0.041419
  76 H :    0.025964
  77 H :    0.022279
  78 H :   -0.013832
  79 H :    0.021073
  80 H :    0.014593
  81 H :    0.047430
  82 H :    0.016106
  83 H :    0.029561
  84 H :    0.134162
  85 H :    0.033233
  86 H :   -0.017265
  87 H :    0.023973
  88 H :   -0.012622
  89 H :   -0.029029
  90 H :   -0.004783
Sum of atomic charges:   -0.0000000

LOEWDIN ATOMIC CHARGES
----------------------
   0 C :    0.074363
   1 C :   -0.147413
   2 C :   -0.018860
   3 N :   -0.058595
   4 C :   -0.025619
   5 N :   -0.056676
   6 C :   -0.021461
   7 C :   -0.048943
   8 C :    0.018828
   9 C :   -0.033723
  10 C :   -0.145774
  11 C :   -0.010718
  12 S :    0.431014
  13 C :   -0.272899
  14 C :   -0.070752
  15 Br:    0.134219
  16 C :    0.072031
  17 O :   -0.145203
  18 C :   -0.114597
  19 C :    0.040549
  20 C :   -0.188235
  21 S :    0.500673
  22 C :   -0.135754
  23 C :   -0.046854
  24 C :   -0.010742
  25 C :   -0.020428
  26 C :    0.073523
  27 F :   -0.050332
  28 C :    0.062494
  29 F :   -0.055912
  30 C :   -0.035888
  31 C :   -0.043297
  32 C :    0.015031
  33 C :   -0.049666
  34 C :    0.011947
  35 C :   -0.024267
  36 C :   -0.035460
  37 C :   -0.049371
  38 C :    0.009113
  39 C :   -0.051440
  40 C :   -0.025724
  41 C :   -0.050202
  42 C :    0.052801
  43 N :    0.043283
  44 C :    0.108049
  45 C :   -0.125617
  46 C :    0.082416
  47 C :   -0.140910
  48 C :    0.070070
  49 C :   -0.174066
  50 C :   -0.019065
  51 N :   -0.073734
  52 C :   -0.003910
  53 N :   -0.071356
  54 C :   -0.019576
  55 C :   -0.049654
  56 C :    0.079731
  57 O :   -0.159413
  58 C :    0.017713
  59 C :   -0.036584
  60 C :   -0.145769
  61 C :   -0.017144
  62 S :    0.433268
  63 C :   -0.275792
  64 C :   -0.070064
  65 Br:    0.129496
  66 H :    0.040152
  67 H :    0.040658
  68 H :    0.038477
  69 H :    0.044142
  70 H :    0.042567
  71 H :    0.042101
  72 H :    0.040473
  73 H :    0.027444
  74 H :    0.028314
  75 H :    0.030920
  76 H :    0.039989
  77 H :    0.037500
  78 H :    0.024997
  79 H :    0.032958
  80 H :    0.034246
  81 H :    0.041300
  82 H :    0.033406
  83 H :    0.028054
  84 H :    0.090472
  85 H :    0.038282
  86 H :    0.027991
  87 H :    0.045625
  88 H :    0.039711
  89 H :    0.039017
  90 H :    0.038051

  Mayer bond orders larger than 0.100000
B(  0-C ,  1-C ) :   1.6241 B(  0-C ,  6-C ) :   1.0021 B(  0-C , 18-C ) :   1.0898
B(  1-C ,  2-C ) :   1.1405 B(  1-C ,  4-C ) :   1.1453 B(  2-C ,  3-N ) :   2.9696
B(  4-C ,  5-N ) :   2.9965 B(  6-C ,  7-C ) :   1.2734 B(  6-C , 11-C ) :   1.4138
B(  7-C ,  8-C ) :   1.4316 B(  7-C , 16-C ) :   0.9326 B(  8-C ,  9-C ) :   1.2400
B(  8-C , 66-H ) :   1.0164 B(  9-C , 10-C ) :   1.3111 B(  9-C , 14-C ) :   1.1634
B( 10-C , 11-C ) :   1.3247 B( 10-C , 12-S ) :   1.0846 B( 11-C , 67-H ) :   0.9805
B( 12-S , 13-C ) :   1.0867 B( 13-C , 14-C ) :   1.6182 B( 13-C , 15-Br) :   1.0161
B( 14-C , 68-H ) :   0.9997 B( 16-C , 17-O ) :   2.2071 B( 16-C , 18-C ) :   0.9653
B( 18-C , 19-C ) :   1.5210 B( 19-C , 20-C ) :   1.2587 B( 19-C , 69-H ) :   0.9327
B( 20-C , 21-S ) :   1.1061 B( 20-C , 24-C ) :   1.3073 B( 21-S , 22-C ) :   1.1955
B( 22-C , 23-C ) :   1.2960 B( 22-C , 31-C ) :   1.1654 B( 23-C , 24-C ) :   1.2404
B( 23-C , 30-C ) :   1.1662 B( 24-C , 25-C ) :   1.1886 B( 25-C , 26-C ) :   1.4996
B( 25-C , 30-C ) :   0.1088 B( 25-C , 70-H ) :   0.9856 B( 26-C , 27-F ) :   1.1319
B( 26-C , 28-C ) :   1.1624 B( 28-C , 29-F ) :   1.1300 B( 28-C , 30-C ) :   1.5002
B( 30-C , 71-H ) :   0.9977 B( 31-C , 32-C ) :   1.6641 B( 31-C , 72-H ) :   0.9533
B( 32-C , 33-C ) :   1.0972 B( 32-C , 73-H ) :   0.9854 B( 33-C , 34-C ) :   1.8722
B( 33-C , 35-C ) :   0.8480 B( 34-C , 74-H ) :   0.9481 B( 34-C , 75-H ) :   0.9411
B( 35-C , 36-C ) :   2.3111 B( 36-C , 37-C ) :   0.9267 B( 37-C , 38-C ) :   1.7597
B( 37-C , 76-H ) :   0.9674 B( 38-C , 39-C ) :   1.1051 B( 38-C , 77-H ) :   0.9671
B( 39-C , 40-C ) :   1.7676 B( 39-C , 78-H ) :   0.9603 B( 40-C , 41-C ) :   1.0837
B( 40-C , 42-C ) :   1.0341 B( 41-C , 79-H ) :   0.9529 B( 41-C , 80-H ) :   0.9401
B( 41-C , 81-H ) :   0.9291 B( 42-C , 43-N ) :   0.9824 B( 42-C , 82-H ) :   0.9367
B( 42-C , 83-H ) :   0.9433 B( 43-N , 44-C ) :   1.3613 B( 43-N , 84-H ) :   0.9355
B( 44-C , 45-C ) :   1.4491 B( 44-C , 85-H ) :   0.9486 B( 45-C , 46-C ) :   1.3154
B( 45-C , 86-H ) :   0.9618 B( 46-C , 47-C ) :   1.4950 B( 46-C , 87-H ) :   0.9342
B( 47-C , 48-C ) :   1.1081 B( 47-C , 56-C ) :   0.9772 B( 48-C , 49-C ) :   1.5759
B( 48-C , 54-C ) :   0.9969 B( 49-C , 50-C ) :   1.1431 B( 49-C , 52-C ) :   1.1971
B( 50-C , 51-N ) :   2.9634 B( 52-C , 53-N ) :   2.8818 B( 54-C , 55-C ) :   1.2808
B( 54-C , 61-C ) :   1.4243 B( 55-C , 56-C ) :   0.9104 B( 55-C , 58-C ) :   1.4319
B( 56-C , 57-O ) :   2.2519 B( 58-C , 59-C ) :   1.2449 B( 58-C , 88-H ) :   1.0167
B( 59-C , 60-C ) :   1.3177 B( 59-C , 64-C ) :   1.1593 B( 60-C , 61-C ) :   1.3255
B( 60-C , 62-S ) :   1.0771 B( 61-C , 89-H ) :   0.9814 B( 62-S , 63-C ) :   1.0825
B( 63-C , 64-C ) :   1.6214 B( 63-C , 65-Br) :   1.0130 B( 64-C , 90-H ) :   1.0005

-----------------------------------------------------------------------------
         ABSORPTION SPECTRUM VIA TRANSITION ELECTRIC DIPOLE MOMENTS
-----------------------------------------------------------------------------
State   Energy  Wavelength   fosc         T2         TX        TY        TZ
        (cm-1)    (nm)                  (au**2)     (au)      (au)      (au)
-----------------------------------------------------------------------------
   0   17217.3    580.8   1.110185180  21.22781  -0.16179  -4.50742   0.94064
   1   21783.3    459.1   0.233920462   3.53524  -0.46094   1.32071   1.25639
   2   23866.5    419.0   0.022092440   0.30474   0.31793   0.14203  -0.42836
   3   25783.3    387.8   0.091318088   1.16599   0.61895   0.58994  -0.65944
   4   26692.6    374.6   0.193708089   2.38909  -1.14433  -0.71426   0.75461
   5   26804.0    373.1   0.003879761   0.04765  -0.13857  -0.03768   0.16441
   6   27513.0    363.5   0.003501217   0.04189   0.14220   0.14336  -0.03350
   7   27721.9    360.7   0.007412267   0.08802   0.18515   0.20644   0.10549
   8   28311.4    353.2   0.056299758   0.65467  -0.21768  -0.09009   0.77406
   9   28419.0    351.9   0.003048813   0.03532  -0.00201   0.04532   0.18237
  10   29085.3    343.8   0.040744750   0.46118  -0.01094  -0.48710   0.47307
  11   29390.5    340.2   0.035901785   0.40215   0.09323   0.20376  -0.59324
  12   30131.3    331.9   0.171874268   1.87788   0.78232   0.79816   0.79297
  13   30435.7    328.6   0.336997549   3.64518  -1.07375  -0.93565  -1.27153
  14   30804.9    324.6   0.074973863   0.80125   0.04898  -0.19166   0.87299
  15   30926.7    323.3   0.038179982   0.40642  -0.25043  -0.39467  -0.43353
  16   31434.1    318.1   0.012036592   0.12606  -0.09517   0.08746   0.33069
  17   31479.4    317.7   0.142771893   1.49311   0.43001  -0.16123  -1.13235
  18   31681.0    315.6   0.034856026   0.36221  -0.30146   0.06985  -0.51618
  19   31820.5    314.3   0.139601644   1.44431   0.74874   0.11649   0.93281
  20   32298.1    309.6   0.263392900   2.68474  -1.01730  -0.37688   1.22793
  21   32323.4    309.4   0.381130472   3.88179  -1.83290  -0.68680  -0.22484
  22   33562.6    298.0   0.010612293   0.10409  -0.02084   0.00837   0.32185
  23   33775.6    296.1   0.166490691   1.62279   0.96201   0.82988  -0.09290
  24   34278.8    291.7   0.005664092   0.05440   0.01164   0.19947  -0.12031
  25   35197.1    284.1   0.232316850   2.17295  -1.17127  -0.44355  -0.77739
  26   35704.6    280.1   0.149485762   1.37832   0.54536  -0.43215   0.94559
  27   36172.8    276.5   0.326768085   2.97395  -0.11030   1.64901  -0.49248
  28   36325.5    275.3   0.074880389   0.67863   0.49056  -0.12101  -0.65064
  29   36711.1    272.4   0.005388051   0.04832  -0.09317   0.10518  -0.16904
  30   36790.1    271.8   0.004280651   0.03830  -0.17754   0.08210   0.00657
  31   36816.1    271.6   0.002571804   0.02300   0.04068  -0.08094  -0.12162
  32   37396.6    267.4   0.179369501   1.57904   0.66346   0.23965  -1.03992
  33   38576.4    259.2   0.044983472   0.38389  -0.57019   0.24205   0.01381
  34   39098.7    255.8   0.007504495   0.06319   0.01886   0.00677   0.25057
  35   39134.9    255.5   0.017473684   0.14699   0.35970  -0.10084  -0.08624
  36   39580.4    252.7   0.088090920   0.73270   0.36104  -0.05893  -0.77387
  37   39693.7    251.9   0.134703189   1.11720  -0.44601   0.08316   0.95465
  38   39882.4    250.7   0.062322558   0.51445  -0.67132  -0.24616   0.05645
  39   39920.0    250.5   0.005616085   0.04631  -0.18076  -0.10784  -0.04485
  40   40268.1    248.3   0.194982697   1.59408   0.29129  -1.18896  -0.30920

FINAL SINGLE POINT ENERGY     -8959.108766479805

DIPOLE MOMENT
-------------
                                X             Y             Z
Electronic contribution:    -85.16044    -178.42008      -7.47013
Nuclear contribution   :     82.79111     181.53397       9.04663
                        -----------------------------------------
Total Dipole Moment    :     -2.36932       3.11389       1.57650
                        -----------------------------------------
Magnitude (a.u.)       :      4.21845
Magnitude (Debye)      :     10.72246

Rotational constants in cm-1:     0.001427     0.000263     0.000245
Rotational constants in MHz :    42.793599     7.899514     7.349522

                             ****ORCA TERMINATED NORMALLY****
TOTAL RUN TIME: 0 days 0 hours 11 minutes 19 seconds 27 msec
