                         Program Version 4.2.0 -  RELEASE  -
|  1> # ORCA input file
|  2> # SCF done       -186.071213131462          0.000835332988
|  3> ! CAM-B3LYP def2-SVP def2/J RIJCOSX Grid4 TightSCF
|  4> %maxcore 5000
|  5> %tddft
|  6>     Mode sTDDFT
|  7>     Ethresh 5.0
|  8>     maxcore 5000
|  9> end
| 10>
| 11> %pal
| 12>   nprocs 6
| 13>   end
| 14> * xyz 0 1
| 15>    C       -8.76510        -0.46013         4.15218
| 16>    C       -8.39314        -1.62374         3.51647
| 17>    C       -8.70284        -2.91272         3.98809
| 18>    N       -8.93217        -3.98885         4.31942
| 19>    C       -7.63158        -1.68975         2.33396
| 20>    N       -6.99093        -1.82846         1.38956
| 21>    C       -9.44657        -0.38533         5.44275
| 22>    C       -9.57877         0.97805         5.79757
| 23>    C      -10.16496         1.38618         6.96891
| 24>    C      -10.64086         0.39723         7.83876
| 25>    C      -10.50785        -0.96123         7.47436
| 26>    C       -9.91646        -1.37343         6.28474
| 27>    S      -11.16825        -2.01620         8.68871
| 28>    C      -11.60346        -0.63331         9.65718
| 29>    C      -11.27400         0.55660         9.10218
| 30>   Br      -12.45226        -0.89051        11.31152
| 31>    C       -8.99704         1.81705         4.72631
| 32>    O       -9.02606         3.03731         4.68683
| 33>    C       -8.47840         0.88324         3.72422
| 34>    C       -7.98415         1.23317         2.47564
| 35>    C       -7.44170         2.44640         2.07066
| 36>    S       -7.43880         2.80587         0.35696
| 37>    C       -6.73815         4.37079         0.58328
| 38>    C       -6.45027         4.59135         1.94482
| 39>    C       -6.81792         3.49874         2.78097
| 40>    C       -6.47162         3.51629         4.13420
| 41>    C       -5.90324         4.64290         4.68646
| 42>    S       -5.63519         4.78523         6.41806
| 43>    C       -6.94785         3.73978         7.13690
| 44>    C       -6.46883         2.35130         7.51929
| 45>    C       -5.54182         5.73274         3.85624
| 46>    S       -4.77530         7.18769         4.52321
| 47>    C       -3.18218         6.51726         5.15774
| 48>    C       -2.88493         7.04679         6.54513
| 49>    C       -5.80494         5.70211         2.51115
| 50>    C       -6.49726         5.25302        -0.49385
| 51>    C       -6.67453         4.91617        -1.79602
| 52>    C       -6.42589         5.72893        -2.94682
| 53>    C       -6.43633         7.07059        -3.06158
| 54>    C       -6.85506         8.03027        -1.99608
| 55>    C       -6.12376         7.70009        -4.39758
| 56>    N       -7.33857         8.13823        -5.04707
| 57>    C       -7.76064         9.41819        -5.07976
| 58>    C       -9.02070         9.80091        -5.42747
| 59>    C       -9.40840        11.14115        -5.57819
| 60>    C      -10.66281        11.55097        -5.95778
| 61>    C      -11.10329        12.87492        -6.17935
| 62>    C      -12.40253        12.97517        -6.58415
| 63>    C      -13.06610        11.73646        -6.69258
| 64>    S      -11.98586        10.43024        -6.26873
| 65>    C      -14.37802        11.50062        -7.07250
| 66>    C      -15.34197        12.43205        -7.49908
| 67>    C      -16.54658        11.87070        -7.81624
| 68>    C      -16.60038        10.47116        -7.64564
| 69>    S      -15.05363         9.88309        -7.07580
| 70>    C      -17.70084         9.67112        -7.88543
| 71>    C      -17.81596         8.29986        -7.69355
| 72>    S      -16.52980         7.31759        -7.05429
| 73>    C      -17.48001         5.86675        -7.10670
| 74>    C      -18.75971         6.12955        -7.61384
| 75>    C      -18.95834         7.49927        -7.94893
| 76>    C      -20.18611         7.90575        -8.47626
| 77>    C      -21.20860         6.99949        -8.67392
| 78>    C      -22.47828         7.43966        -9.24484
| 79>    C      -23.01288         8.64257        -9.07460
| 80>    C      -21.01252         5.62933        -8.33546
| 81>    C      -22.12174         4.63900        -8.52599
| 82>    C      -19.81416         5.21850        -7.81596
| 83>    C      -16.95395         4.61715        -6.66822
| 84>    C      -15.72321         4.43255        -6.18060
| 85>    H      -10.25475         2.43362         7.21237
| 86>    H       -9.84216        -2.42213         6.05066
| 87>    H      -11.47045         1.50830         9.56148
| 88>    H       -8.07178         0.48897         1.69224
| 89>    H       -6.64275         2.64041         4.73270
| 90>    H       -7.76591         3.71794         6.41723
| 91>    H       -7.26579         4.28659         8.02542
| 92>    H       -6.10502         1.79880         6.65517
| 93>    H       -7.29101         1.78996         7.96105
| 94>    H       -5.66046         2.41451         8.24484
| 95>    H       -2.41685         6.82463         4.44438
| 96>    H       -3.26720         5.43290         5.15572
| 97>    H       -2.83515         8.13295         6.53451
| 98>    H       -1.93086         6.65518         6.89213
| 99>    H       -3.66405         6.73959         7.23780
|100>    H       -5.50706         6.53947         1.90073
|101>    H       -6.10201         6.22126        -0.22973
|102>    H       -6.97518         3.89658        -2.00829
|103>    H       -6.21047         5.15967        -3.84448
|104>    H       -7.54030         7.56338        -1.29287
|105>    H       -7.34791         8.89298        -2.44439
|106>    H       -5.98840         8.39637        -1.44415
|107>    H       -5.61727         6.98111        -5.04965
|108>    H       -5.47476         8.56952        -4.26628
|109>    H       -8.04185         7.42473        -5.18054
|110>    H       -7.00285        10.16179        -4.86962
|111>    H       -9.76568         9.04150        -5.62543
|112>    H       -8.66860        11.91132        -5.40190
|113>    H      -10.44447        13.71419        -6.03990
|114>    H      -12.89807        13.90446        -6.80102
|115>    H      -15.12874        13.48357        -7.57043
|116>    H      -17.40031        12.42537        -8.16459
|117>    H      -18.57926        10.18025        -8.25998
|118>    H      -20.33215         8.93700        -8.75818
|119>    H      -23.00761         6.70980        -9.84246
|120>    H      -22.55047         9.39552        -8.45841
|121>    H      -23.94951         8.91306        -9.53137
|122>    H      -22.33694         4.50151        -9.58593
|123>    H      -21.84614         3.67376        -8.10831
|124>    H      -23.03268         4.98225        -8.03798
|125>    H      -19.67175         4.18002        -7.55601
|126>    H      -17.62942         3.77561        -6.74812
|127>    H      -15.02824         5.25056        -6.08819
|128>    H      -15.38188         3.46360        -5.86356
|129> *
|130>
|131>                          ****END OF INPUT****

CARTESIAN COORDINATES (ANGSTROEM)
---------------------------------
  C     -8.765100   -0.460130    4.152180
  C     -8.393140   -1.623740    3.516470
  C     -8.702840   -2.912720    3.988090
  N     -8.932170   -3.988850    4.319420
  C     -7.631580   -1.689750    2.333960
  N     -6.990930   -1.828460    1.389560
  C     -9.446570   -0.385330    5.442750
  C     -9.578770    0.978050    5.797570
  C    -10.164960    1.386180    6.968910
  C    -10.640860    0.397230    7.838760
  C    -10.507850   -0.961230    7.474360
  C     -9.916460   -1.373430    6.284740
  S    -11.168250   -2.016200    8.688710
  C    -11.603460   -0.633310    9.657180
  C    -11.274000    0.556600    9.102180
  Br   -12.452260   -0.890510   11.311520
  C     -8.997040    1.817050    4.726310
  O     -9.026060    3.037310    4.686830
  C     -8.478400    0.883240    3.724220
  C     -7.984150    1.233170    2.475640
  C     -7.441700    2.446400    2.070660
  S     -7.438800    2.805870    0.356960
  C     -6.738150    4.370790    0.583280
  C     -6.450270    4.591350    1.944820
  C     -6.817920    3.498740    2.780970
  C     -6.471620    3.516290    4.134200
  C     -5.903240    4.642900    4.686460
  S     -5.635190    4.785230    6.418060
  C     -6.947850    3.739780    7.136900
  C     -6.468830    2.351300    7.519290
  C     -5.541820    5.732740    3.856240
  S     -4.775300    7.187690    4.523210
  C     -3.182180    6.517260    5.157740
  C     -2.884930    7.046790    6.545130
  C     -5.804940    5.702110    2.511150
  C     -6.497260    5.253020   -0.493850
  C     -6.674530    4.916170   -1.796020
  C     -6.425890    5.728930   -2.946820
  C     -6.436330    7.070590   -3.061580
  C     -6.855060    8.030270   -1.996080
  C     -6.123760    7.700090   -4.397580
  N     -7.338570    8.138230   -5.047070
  C     -7.760640    9.418190   -5.079760
  C     -9.020700    9.800910   -5.427470
  C     -9.408400   11.141150   -5.578190
  C    -10.662810   11.550970   -5.957780
  C    -11.103290   12.874920   -6.179350
  C    -12.402530   12.975170   -6.584150
  C    -13.066100   11.736460   -6.692580
  S    -11.985860   10.430240   -6.268730
  C    -14.378020   11.500620   -7.072500
  C    -15.341970   12.432050   -7.499080
  C    -16.546580   11.870700   -7.816240
  C    -16.600380   10.471160   -7.645640
  S    -15.053630    9.883090   -7.075800
  C    -17.700840    9.671120   -7.885430
  C    -17.815960    8.299860   -7.693550
  S    -16.529800    7.317590   -7.054290
  C    -17.480010    5.866750   -7.106700
  C    -18.759710    6.129550   -7.613840
  C    -18.958340    7.499270   -7.948930
  C    -20.186110    7.905750   -8.476260
  C    -21.208600    6.999490   -8.673920
  C    -22.478280    7.439660   -9.244840
  C    -23.012880    8.642570   -9.074600
  C    -21.012520    5.629330   -8.335460
  C    -22.121740    4.639000   -8.525990
  C    -19.814160    5.218500   -7.815960
  C    -16.953950    4.617150   -6.668220
  C    -15.723210    4.432550   -6.180600
  H    -10.254750    2.433620    7.212370
  H     -9.842160   -2.422130    6.050660
  H    -11.470450    1.508300    9.561480
  H     -8.071780    0.488970    1.692240
  H     -6.642750    2.640410    4.732700
  H     -7.765910    3.717940    6.417230
  H     -7.265790    4.286590    8.025420
  H     -6.105020    1.798800    6.655170
  H     -7.291010    1.789960    7.961050
  H     -5.660460    2.414510    8.244840
  H     -2.416850    6.824630    4.444380
  H     -3.267200    5.432900    5.155720
  H     -2.835150    8.132950    6.534510
  H     -1.930860    6.655180    6.892130
  H     -3.664050    6.739590    7.237800
  H     -5.507060    6.539470    1.900730
  H     -6.102010    6.221260   -0.229730
  H     -6.975180    3.896580   -2.008290
  H     -6.210470    5.159670   -3.844480
  H     -7.540300    7.563380   -1.292870
  H     -7.347910    8.892980   -2.444390
  H     -5.988400    8.396370   -1.444150
  H     -5.617270    6.981110   -5.049650
  H     -5.474760    8.569520   -4.266280
  H     -8.041850    7.424730   -5.180540
  H     -7.002850   10.161790   -4.869620
  H     -9.765680    9.041500   -5.625430
  H     -8.668600   11.911320   -5.401900
  H    -10.444470   13.714190   -6.039900
  H    -12.898070   13.904460   -6.801020
  H    -15.128740   13.483570   -7.570430
  H    -17.400310   12.425370   -8.164590
  H    -18.579260   10.180250   -8.259980
  H    -20.332150    8.937000   -8.758180
  H    -23.007610    6.709800   -9.842460
  H    -22.550470    9.395520   -8.458410
  H    -23.949510    8.913060   -9.531370
  H    -22.336940    4.501510   -9.585930
  H    -21.846140    3.673760   -8.108310
  H    -23.032680    4.982250   -8.037980
  H    -19.671750    4.180020   -7.556010
  H    -17.629420    3.775610   -6.748120
  H    -15.028240    5.250560   -6.088190
  H    -15.381880    3.463600   -5.863560

 Total Charge           Charge          ....    0
 Multiplicity           Mult            ....    1
 Number of Electrons    NEL             ....  568
 Basis Dimension        Dim             .... 1246

ORBITAL ENERGIES
----------------

  NO   OCC          E(Eh)            E(eV)
   0   2.0000    -482.882039    -13139.8883
   1   2.0000     -88.980128     -2421.2724
   2   2.0000     -88.970631     -2421.0140
   3   2.0000     -88.940708     -2420.1997
   4   2.0000     -88.930385     -2419.9188
   5   2.0000     -88.930210     -2419.9140
   6   2.0000     -88.928859     -2419.8773
   7   2.0000     -88.916705     -2419.5465
   8   2.0000     -62.559759     -1702.3376
   9   2.0000     -56.393707     -1534.5508
  10   2.0000     -56.390997     -1534.4770
  11   2.0000     -56.390963     -1534.4761
  12   2.0000     -19.206932      -522.6472
  13   2.0000     -14.449117      -393.1805
  14   2.0000     -14.405946      -392.0057
  15   2.0000     -14.405103      -391.9828
  16   2.0000     -10.357111      -281.8313
  17   2.0000     -10.354302      -281.7549
  18   2.0000     -10.339408      -281.3496
  19   2.0000     -10.331475      -281.1337
  20   2.0000     -10.329597      -281.0826
  21   2.0000     -10.329413      -281.0776
  22   2.0000     -10.324995      -280.9574
  23   2.0000     -10.319362      -280.8041
  24   2.0000     -10.316338      -280.7218
  25   2.0000     -10.315912      -280.7102
  26   2.0000     -10.315546      -280.7003
  27   2.0000     -10.309801      -280.5439
  28   2.0000     -10.308886      -280.5191
  29   2.0000     -10.308695      -280.5139
  30   2.0000     -10.307839      -280.4906
  31   2.0000     -10.306890      -280.4647
  32   2.0000     -10.304834      -280.4088
  33   2.0000     -10.302127      -280.3351
  34   2.0000     -10.301269      -280.3118
  35   2.0000     -10.300332      -280.2863
  36   2.0000     -10.299104      -280.2529
  37   2.0000     -10.298693      -280.2417
  38   2.0000     -10.298139      -280.2266
  39   2.0000     -10.295581      -280.1570
  40   2.0000     -10.293783      -280.1081
  41   2.0000     -10.293515      -280.1008
  42   2.0000     -10.292734      -280.0795
  43   2.0000     -10.291977      -280.0589
  44   2.0000     -10.291849      -280.0555
  45   2.0000     -10.289912      -280.0027
  46   2.0000     -10.288190      -279.9559
  47   2.0000     -10.287650      -279.9412
  48   2.0000     -10.286401      -279.9072
  49   2.0000     -10.285916      -279.8940
  50   2.0000     -10.285725      -279.8888
  51   2.0000     -10.285101      -279.8718
  52   2.0000     -10.283480      -279.8277
  53   2.0000     -10.278071      -279.6805
  54   2.0000     -10.274357      -279.5795
  55   2.0000     -10.274195      -279.5751
  56   2.0000     -10.270883      -279.4849
  57   2.0000     -10.268974      -279.4330
  58   2.0000     -10.265052      -279.3263
  59   2.0000     -10.265020      -279.3254
  60   2.0000     -10.264918      -279.3226
  61   2.0000     -10.262413      -279.2545
  62   2.0000     -10.262025      -279.2439
  63   2.0000     -10.261759      -279.2367
  64   2.0000     -10.259128      -279.1651
  65   2.0000     -10.258962      -279.1605
  66   2.0000     -10.258473      -279.1472
  67   2.0000     -10.258091      -279.1368
  68   2.0000     -10.257699      -279.1262
  69   2.0000     -10.256324      -279.0888
  70   2.0000     -10.252112      -278.9742
  71   2.0000     -10.251125      -278.9473
  72   2.0000     -10.250394      -278.9274
  73   2.0000     -10.244782      -278.7747
  74   2.0000      -8.789180      -239.1658
  75   2.0000      -8.075521      -219.7461
  76   2.0000      -8.066670      -219.5053
  77   2.0000      -8.035540      -218.6582
  78   2.0000      -8.026765      -218.4194
  79   2.0000      -8.026095      -218.4012
  80   2.0000      -8.023957      -218.3430
  81   2.0000      -8.011966      -218.0167
  82   2.0000      -6.625470      -180.2882
  83   2.0000      -6.610911      -179.8920
  84   2.0000      -6.610738      -179.8873
  85   2.0000      -6.044463      -164.4782
  86   2.0000      -6.040553      -164.3718
  87   2.0000      -6.038080      -164.3045
  88   2.0000      -6.036365      -164.2579
  89   2.0000      -6.032095      -164.1416
  90   2.0000      -6.027865      -164.0266
  91   2.0000      -6.004556      -163.3923
  92   2.0000      -6.000492      -163.2817
  93   2.0000      -5.998236      -163.2203
  94   2.0000      -5.996468      -163.1722
  95   2.0000      -5.995836      -163.1550
  96   2.0000      -5.994200      -163.1105
  97   2.0000      -5.992543      -163.0654
  98   2.0000      -5.991686      -163.0421
  99   2.0000      -5.989882      -162.9930
 100   2.0000      -5.987646      -162.9321
 101   2.0000      -5.987165      -162.9190
 102   2.0000      -5.984243      -162.8395
 103   2.0000      -5.982429      -162.7902
 104   2.0000      -5.978714      -162.6891
 105   2.0000      -5.971262      -162.4863
 106   2.0000      -2.741330       -74.5954
 107   2.0000      -2.737267       -74.4848
 108   2.0000      -2.737110       -74.4805
 109   2.0000      -2.725559       -74.1662
 110   2.0000      -2.725544       -74.1658
 111   2.0000      -1.120125       -30.4801
 112   2.0000      -1.051134       -28.6028
 113   2.0000      -1.016689       -27.6655
 114   2.0000      -1.014813       -27.6145
 115   2.0000      -1.005094       -27.3500
 116   2.0000      -0.984411       -26.7872
 117   2.0000      -0.981973       -26.7208
 118   2.0000      -0.980665       -26.6853
 119   2.0000      -0.973100       -26.4794
 120   2.0000      -0.966135       -26.2899
 121   2.0000      -0.956527       -26.0284
 122   2.0000      -0.943891       -25.6846
 123   2.0000      -0.936205       -25.4754
 124   2.0000      -0.923642       -25.1336
 125   2.0000      -0.916718       -24.9452
 126   2.0000      -0.904855       -24.6224
 127   2.0000      -0.901623       -24.5344
 128   2.0000      -0.896475       -24.3943
 129   2.0000      -0.893745       -24.3200
 130   2.0000      -0.883947       -24.0534
 131   2.0000      -0.880238       -23.9525
 132   2.0000      -0.879028       -23.9196
 133   2.0000      -0.866682       -23.5836
 134   2.0000      -0.858721       -23.3670
 135   2.0000      -0.853636       -23.2286
 136   2.0000      -0.850562       -23.1450
 137   2.0000      -0.846668       -23.0390
 138   2.0000      -0.838591       -22.8192
 139   2.0000      -0.829507       -22.5720
 140   2.0000      -0.826122       -22.4799
 141   2.0000      -0.824324       -22.4310
 142   2.0000      -0.821820       -22.3629
 143   2.0000      -0.808743       -22.0070
 144   2.0000      -0.805775       -21.9262
 145   2.0000      -0.800248       -21.7759
 146   2.0000      -0.792114       -21.5545
 147   2.0000      -0.783719       -21.3261
 148   2.0000      -0.779752       -21.2181
 149   2.0000      -0.772754       -21.0277
 150   2.0000      -0.757009       -20.5993
 151   2.0000      -0.752389       -20.4736
 152   2.0000      -0.748327       -20.3630
 153   2.0000      -0.738415       -20.0933
 154   2.0000      -0.720227       -19.5984
 155   2.0000      -0.719929       -19.5903
 156   2.0000      -0.718583       -19.5536
 157   2.0000      -0.703671       -19.1479
 158   2.0000      -0.697312       -18.9748
 159   2.0000      -0.693809       -18.8795
 160   2.0000      -0.686720       -18.6866
 161   2.0000      -0.683606       -18.6019
 162   2.0000      -0.675735       -18.3877
 163   2.0000      -0.672077       -18.2881
 164   2.0000      -0.665764       -18.1164
 165   2.0000      -0.659174       -17.9370
 166   2.0000      -0.653641       -17.7865
 167   2.0000      -0.648886       -17.6571
 168   2.0000      -0.644573       -17.5397
 169   2.0000      -0.644227       -17.5303
 170   2.0000      -0.627194       -17.0668
 171   2.0000      -0.621416       -16.9096
 172   2.0000      -0.619155       -16.8481
 173   2.0000      -0.618026       -16.8174
 174   2.0000      -0.612527       -16.6677
 175   2.0000      -0.612328       -16.6623
 176   2.0000      -0.608236       -16.5509
 177   2.0000      -0.603397       -16.4193
 178   2.0000      -0.593365       -16.1463
 179   2.0000      -0.588879       -16.0242
 180   2.0000      -0.585477       -15.9316
 181   2.0000      -0.583380       -15.8746
 182   2.0000      -0.577514       -15.7149
 183   2.0000      -0.575503       -15.6602
 184   2.0000      -0.571759       -15.5584
 185   2.0000      -0.567239       -15.4354
 186   2.0000      -0.559703       -15.2303
 187   2.0000      -0.557399       -15.1676
 188   2.0000      -0.549376       -14.9493
 189   2.0000      -0.549167       -14.9436
 190   2.0000      -0.544954       -14.8289
 191   2.0000      -0.537946       -14.6382
 192   2.0000      -0.537207       -14.6182
 193   2.0000      -0.534456       -14.5433
 194   2.0000      -0.533943       -14.5293
 195   2.0000      -0.530490       -14.4354
 196   2.0000      -0.529671       -14.4131
 197   2.0000      -0.527799       -14.3622
 198   2.0000      -0.519163       -14.1271
 199   2.0000      -0.517654       -14.0861
 200   2.0000      -0.515437       -14.0257
 201   2.0000      -0.513749       -13.9798
 202   2.0000      -0.512028       -13.9330
 203   2.0000      -0.510045       -13.8790
 204   2.0000      -0.505644       -13.7593
 205   2.0000      -0.505429       -13.7534
 206   2.0000      -0.504078       -13.7166
 207   2.0000      -0.502253       -13.6670
 208   2.0000      -0.499443       -13.5905
 209   2.0000      -0.498599       -13.5676
 210   2.0000      -0.492893       -13.4123
 211   2.0000      -0.489080       -13.3085
 212   2.0000      -0.486603       -13.2411
 213   2.0000      -0.485502       -13.2112
 214   2.0000      -0.483959       -13.1692
 215   2.0000      -0.483457       -13.1555
 216   2.0000      -0.481749       -13.1091
 217   2.0000      -0.479073       -13.0363
 218   2.0000      -0.476436       -12.9645
 219   2.0000      -0.473060       -12.8726
 220   2.0000      -0.471536       -12.8311
 221   2.0000      -0.471221       -12.8226
 222   2.0000      -0.469063       -12.7639
 223   2.0000      -0.468688       -12.7536
 224   2.0000      -0.466609       -12.6971
 225   2.0000      -0.464709       -12.6454
 226   2.0000      -0.462990       -12.5986
 227   2.0000      -0.462273       -12.5791
 228   2.0000      -0.454778       -12.3751
 229   2.0000      -0.452852       -12.3227
 230   2.0000      -0.451584       -12.2882
 231   2.0000      -0.450576       -12.2608
 232   2.0000      -0.449437       -12.2298
 233   2.0000      -0.446228       -12.1425
 234   2.0000      -0.443184       -12.0596
 235   2.0000      -0.440838       -11.9958
 236   2.0000      -0.440413       -11.9842
 237   2.0000      -0.436540       -11.8789
 238   2.0000      -0.435697       -11.8559
 239   2.0000      -0.435409       -11.8481
 240   2.0000      -0.433535       -11.7971
 241   2.0000      -0.432971       -11.7818
 242   2.0000      -0.430055       -11.7024
 243   2.0000      -0.427305       -11.6276
 244   2.0000      -0.425714       -11.5843
 245   2.0000      -0.421300       -11.4642
 246   2.0000      -0.421055       -11.4575
 247   2.0000      -0.417928       -11.3724
 248   2.0000      -0.415094       -11.2953
 249   2.0000      -0.413089       -11.2407
 250   2.0000      -0.410953       -11.1826
 251   2.0000      -0.404509       -11.0072
 252   2.0000      -0.404344       -11.0028
 253   2.0000      -0.399508       -10.8712
 254   2.0000      -0.399452       -10.8696
 255   2.0000      -0.396454       -10.7881
 256   2.0000      -0.395213       -10.7543
 257   2.0000      -0.393387       -10.7046
 258   2.0000      -0.391138       -10.6434
 259   2.0000      -0.385005       -10.4765
 260   2.0000      -0.382201       -10.4002
 261   2.0000      -0.376692       -10.2503
 262   2.0000      -0.371607       -10.1119
 263   2.0000      -0.367465        -9.9992
 264   2.0000      -0.366734        -9.9793
 265   2.0000      -0.359906        -9.7935
 266   2.0000      -0.352998        -9.6056
 267   2.0000      -0.347843        -9.4653
 268   2.0000      -0.339833        -9.2473
 269   2.0000      -0.330725        -8.9995
 270   2.0000      -0.324066        -8.8183
 271   2.0000      -0.319570        -8.6960
 272   2.0000      -0.317671        -8.6443
 273   2.0000      -0.312021        -8.4905
 274   2.0000      -0.309704        -8.4275
 275   2.0000      -0.305012        -8.2998
 276   2.0000      -0.290498        -7.9049
 277   2.0000      -0.287500        -7.8233
 278   2.0000      -0.284310        -7.7365
 279   2.0000      -0.279219        -7.5979
 280   2.0000      -0.276552        -7.5254
 281   2.0000      -0.249851        -6.7988
 282   2.0000      -0.232032        -6.3139
 283   2.0000      -0.179163        -4.8753
 284   0.0000      -0.104423        -2.8415
 285   0.0000      -0.066720        -1.8155
 286   0.0000      -0.063570        -1.7298
 287   0.0000      -0.034018        -0.9257
 288   0.0000      -0.014047        -0.3822

MULLIKEN ATOMIC CHARGES
-----------------------
   0 C :    0.309611
   1 C :   -0.358040
   2 C :   -0.183550
   3 N :    0.139618
   4 C :   -0.210309
   5 N :    0.151839
   6 C :    0.020813
   7 C :   -0.002332
   8 C :   -0.096025
   9 C :    0.122470
  10 C :   -0.088525
  11 C :   -0.033992
  12 S :    0.183702
  13 C :   -0.122018
  14 C :    0.031048
  15 Br:    0.018573
  16 C :    0.125239
  17 O :   -0.174036
  18 C :   -0.122144
  19 C :    0.023440
  20 C :   -0.135713
  21 S :    0.166938
  22 C :   -0.072215
  23 C :    0.105860
  24 C :    0.173520
  25 C :   -0.012832
  26 C :   -0.027791
  27 S :    0.006902
  28 C :   -0.142977
  29 C :    0.034755
  30 C :   -0.094168
  31 S :   -0.020917
  32 C :   -0.121835
  33 C :    0.028075
  34 C :   -0.026624
  35 C :   -0.004181
  36 C :    0.026866
  37 C :    0.000705
  38 C :   -0.192590
  39 C :    0.079460
  40 C :    0.201785
  41 N :   -0.140791
  42 C :    0.047241
  43 C :   -0.026542
  44 C :   -0.006815
  45 C :   -0.039209
  46 C :    0.041577
  47 C :    0.008723
  48 C :   -0.038361
  49 S :    0.058129
  50 C :   -0.043033
  51 C :    0.022602
  52 C :    0.019192
  53 C :   -0.033219
  54 S :    0.058915
  55 C :   -0.034813
  56 C :   -0.082947
  57 S :    0.103751
  58 C :   -0.116587
  59 C :    0.139812
  60 C :    0.131603
  61 C :   -0.109329
  62 C :    0.080953
  63 C :   -0.038251
  64 C :   -0.014845
  65 C :   -0.073987
  66 C :    0.099642
  67 C :   -0.104769
  68 C :    0.000279
  69 C :   -0.040127
  70 H :   -0.015278
  71 H :   -0.007585
  72 H :   -0.006844
  73 H :    0.024044
  74 H :   -0.043050
  75 H :    0.083602
  76 H :    0.051442
  77 H :    0.025404
  78 H :    0.025753
  79 H :    0.021763
  80 H :    0.051432
  81 H :    0.057949
  82 H :    0.022607
  83 H :    0.020392
  84 H :    0.031596
  85 H :   -0.032949
  86 H :   -0.007463
  87 H :    0.009685
  88 H :   -0.009542
  89 H :    0.036898
  90 H :    0.027358
  91 H :    0.039493
  92 H :    0.017123
  93 H :    0.020889
  94 H :    0.121698
  95 H :    0.002302
  96 H :   -0.011629
  97 H :   -0.024541
  98 H :   -0.021035
  99 H :   -0.021197
 100 H :   -0.021769
 101 H :   -0.021511
 102 H :   -0.024611
 103 H :   -0.042056
 104 H :   -0.008598
 105 H :    0.014232
 106 H :    0.015376
 107 H :    0.027751
 108 H :    0.004346
 109 H :    0.026511
 110 H :   -0.049492
 111 H :   -0.015875
 112 H :    0.015478
 113 H :    0.012699
Sum of atomic charges:   -0.0000000

LOEWDIN ATOMIC CHARGES
----------------------
   0 C :    0.075770
   1 C :   -0.154374
   2 C :   -0.018916
   3 N :   -0.064041
   4 C :   -0.025598
   5 N :   -0.062951
   6 C :   -0.020508
   7 C :   -0.047361
   8 C :    0.010899
   9 C :   -0.036248
  10 C :   -0.146678
  11 C :   -0.010913
  12 S :    0.429988
  13 C :   -0.273448
  14 C :   -0.072192
  15 Br:    0.132309
  16 C :    0.070866
  17 O :   -0.158989
  18 C :   -0.125361
  19 C :    0.040649
  20 C :   -0.183646
  21 S :    0.486835
  22 C :   -0.121553
  23 C :   -0.054874
  24 C :   -0.004512
  25 C :   -0.025875
  26 C :   -0.147579
  27 S :    0.322311
  28 C :   -0.136675
  29 C :   -0.073261
  30 C :   -0.175725
  31 S :    0.258746
  32 C :   -0.130497
  33 C :   -0.071660
  34 C :   -0.018772
  35 C :   -0.047038
  36 C :    0.003937
  37 C :   -0.061491
  38 C :   -0.014579
  39 C :   -0.053191
  40 C :    0.048705
  41 N :    0.004603
  42 C :    0.038322
  43 C :   -0.120656
  44 C :   -0.036174
  45 C :   -0.175425
  46 C :   -0.029417
  47 C :   -0.051084
  48 C :   -0.168057
  49 S :    0.358494
  50 C :   -0.197871
  51 C :   -0.040414
  52 C :   -0.047309
  53 C :   -0.154479
  54 S :    0.366588
  55 C :   -0.086172
  56 C :   -0.168348
  57 S :    0.459112
  58 C :   -0.198216
  59 C :   -0.038896
  60 C :   -0.052199
  61 C :   -0.002932
  62 C :   -0.038459
  63 C :   -0.019634
  64 C :   -0.048271
  65 C :   -0.018376
  66 C :   -0.045625
  67 C :   -0.031952
  68 C :   -0.038796
  69 C :   -0.072961
  70 H :    0.037366
  71 H :    0.040729
  72 H :    0.037471
  73 H :    0.043380
  74 H :    0.027672
  75 H :    0.026865
  76 H :    0.028052
  77 H :    0.022409
  78 H :    0.028296
  79 H :    0.026512
  80 H :    0.021008
  81 H :    0.020169
  82 H :    0.024462
  83 H :    0.028269
  84 H :    0.021363
  85 H :    0.027055
  86 H :    0.035130
  87 H :    0.027737
  88 H :    0.030497
  89 H :    0.037955
  90 H :    0.036217
  91 H :    0.040968
  92 H :    0.027433
  93 H :    0.033222
  94 H :    0.081553
  95 H :    0.026377
  96 H :    0.019203
  97 H :    0.029358
  98 H :    0.030041
  99 H :    0.028788
 100 H :    0.028547
 101 H :    0.029480
 102 H :    0.035178
 103 H :    0.023305
 104 H :    0.026640
 105 H :    0.019202
 106 H :    0.022041
 107 H :    0.032938
 108 H :    0.028252
 109 H :    0.033427
 110 H :    0.021212
 111 H :    0.031438
 112 H :    0.013825
 113 H :    0.021053

  Mayer bond orders larger than 0.100000
B(  0-C ,  1-C ) :   1.6023 B(  0-C ,  6-C ) :   0.9891 B(  0-C , 18-C ) :   1.1192
B(  1-C ,  2-C ) :   1.1477 B(  1-C ,  4-C ) :   1.1475 B(  2-C ,  3-N ) :   2.9643
B(  4-C ,  5-N ) :   2.9893 B(  6-C ,  7-C ) :   1.2766 B(  6-C , 11-C ) :   1.4145
B(  7-C ,  8-C ) :   1.4250 B(  7-C , 16-C ) :   0.9270 B(  8-C ,  9-C ) :   1.2296
B(  8-C , 70-H ) :   1.0185 B(  9-C , 10-C ) :   1.3204 B(  9-C , 14-C ) :   1.1601
B( 10-C , 11-C ) :   1.3139 B( 10-C , 12-S ) :   1.0842 B( 11-C , 71-H ) :   0.9817
B( 12-S , 13-C ) :   1.0874 B( 13-C , 14-C ) :   1.6184 B( 13-C , 15-Br) :   1.0158
B( 14-C , 72-H ) :   1.0019 B( 16-C , 17-O ) :   2.1213 B( 16-C , 18-C ) :   1.0082
B( 18-C , 19-C ) :   1.4332 B( 19-C , 20-C ) :   1.3375 B( 19-C , 73-H ) :   0.9263
B( 20-C , 21-S ) :   1.0814 B( 20-C , 24-C ) :   1.2520 B( 21-S , 22-C ) :   1.1963
B( 22-C , 23-C ) :   1.2709 B( 22-C , 35-C ) :   1.1937 B( 23-C , 24-C ) :   1.2268
B( 23-C , 34-C ) :   1.2011 B( 24-C , 25-C ) :   1.2817 B( 25-C , 26-C ) :   1.4732
B( 25-C , 74-H ) :   0.9756 B( 26-C , 27-S ) :   1.0546 B( 26-C , 30-C ) :   1.2606
B( 27-S , 28-C ) :   0.9962 B( 28-C , 29-C ) :   1.0597 B( 28-C , 75-H ) :   0.9318
B( 28-C , 76-H ) :   0.9515 B( 29-C , 77-H ) :   0.9708 B( 29-C , 78-H ) :   0.9593
B( 29-C , 79-H ) :   0.9643 B( 30-C , 31-S ) :   1.0348 B( 30-C , 34-C ) :   1.5520
B( 31-S , 32-C ) :   0.9681 B( 32-C , 33-C ) :   1.0706 B( 32-C , 80-H ) :   0.9552
B( 32-C , 81-H ) :   0.9530 B( 33-C , 82-H ) :   0.9713 B( 33-C , 83-H ) :   0.9642
B( 33-C , 84-H ) :   0.9714 B( 34-C , 85-H ) :   0.9873 B( 35-C , 36-C ) :   1.6641
B( 35-C , 86-H ) :   0.9623 B( 36-C , 37-C ) :   1.1243 B( 36-C , 87-H ) :   0.9577
B( 37-C , 38-C ) :   1.7882 B( 37-C , 88-H ) :   0.9514 B( 38-C , 39-C ) :   1.0765
B( 38-C , 40-C ) :   1.0417 B( 39-C , 89-H ) :   0.9476 B( 39-C , 90-H ) :   0.9451
B( 39-C , 91-H ) :   0.9359 B( 40-C , 41-N ) :   1.0101 B( 40-C , 92-H ) :   0.9401
B( 40-C , 93-H ) :   0.9314 B( 41-N , 42-C ) :   1.2231 B( 41-N , 94-H ) :   0.9354
B( 42-C , 43-C ) :   1.5895 B( 42-C , 95-H ) :   0.9642 B( 43-C , 44-C ) :   1.1797
B( 43-C , 96-H ) :   0.9629 B( 44-C , 45-C ) :   1.5714 B( 44-C , 97-H ) :   0.9781
B( 45-C , 46-C ) :   1.1577 B( 45-C , 49-S ) :   1.0129 B( 46-C , 47-C ) :   1.5691
B( 46-C , 98-H ) :   0.9981 B( 47-C , 48-C ) :   1.2072 B( 47-C , 99-H ) :   0.9943
B( 48-C , 49-S ) :   1.0565 B( 48-C , 50-C ) :   1.4770 B( 50-C , 51-C ) :   1.2129
B( 50-C , 54-S ) :   1.0306 B( 51-C , 52-C ) :   1.5534 B( 51-C ,100-H ) :   0.9935
B( 52-C , 53-C ) :   1.1771 B( 52-C ,101-H ) :   0.9988 B( 53-C , 54-S ) :   1.0478
B( 53-C , 55-C ) :   1.5020 B( 55-C , 56-C ) :   1.2677 B( 55-C ,102-H ) :   0.9608
B( 56-C , 57-S ) :   1.1273 B( 56-C , 60-C ) :   1.2513 B( 57-S , 58-C ) :   1.1105
B( 58-C , 59-C ) :   1.3271 B( 58-C , 68-C ) :   1.1645 B( 59-C , 60-C ) :   1.2197
B( 59-C , 67-C ) :   1.1850 B( 60-C , 61-C ) :   1.2244 B( 61-C , 62-C ) :   1.4914
B( 61-C ,103-H ) :   0.9892 B( 62-C , 63-C ) :   1.0362 B( 62-C , 65-C ) :   1.2106
B( 63-C , 64-C ) :   1.9725 B( 63-C ,104-H ) :   0.9508 B( 64-C ,105-H ) :   0.9559
B( 64-C ,106-H ) :   0.9494 B( 65-C , 66-C ) :   1.0860 B( 65-C , 67-C ) :   1.5549
B( 66-C ,107-H ) :   0.9408 B( 66-C ,108-H ) :   0.9542 B( 66-C ,109-H ) :   0.9445
B( 67-C ,110-H ) :   0.9893 B( 68-C , 69-C ) :   1.8856 B( 68-C ,111-H ) :   0.9579
B( 69-C ,112-H ) :   0.9555 B( 69-C ,113-H ) :   0.9483

-----------------------------------------------------------------------------
         ABSORPTION SPECTRUM VIA TRANSITION ELECTRIC DIPOLE MOMENTS
-----------------------------------------------------------------------------
State   Energy  Wavelength   fosc         T2         TX        TY        TZ
        (cm-1)    (nm)                  (au**2)     (au)      (au)      (au)
-----------------------------------------------------------------------------
   0    7396.4   1352.0   0.104243972   4.63989  -1.41150   0.74318  -1.44749
   1   11978.0    834.9   0.887791204  24.40071  -4.41278  -1.80330  -1.29467
   2   15567.2    642.4   1.016182291  21.49000   1.84300   3.67146  -2.14795
   3   17929.0    557.8   0.004679253   0.08592  -0.05136   0.22008  -0.18667
   4   18783.4    532.4   0.027967147   0.49017   0.31094  -0.46579   0.42015
   5   19835.4    504.2   0.004150819   0.06889  -0.19195  -0.03761  -0.17502
   6   22802.5    438.5   0.247733560   3.57667   0.31815  -1.32324   1.31320
   7   23031.5    434.2   0.012657768   0.18093  -0.02603  -0.00956   0.42445
   8   23321.6    428.8   0.311739384   4.40056  -1.31459   1.04378  -1.25815
   9   23607.7    423.6   0.201379690   2.80826   0.31625   0.07468   1.64398
  10   24191.8    413.4   0.458143690   6.23461   1.68792  -1.80132   0.37522
  11   26030.4    384.2   0.354210794   4.47978   0.94567   0.15479  -1.88720
  12   26510.3    377.2   0.022291719   0.27682  -0.11888  -0.39448   0.32723
  13   27491.4    363.8   0.005656286   0.06773   0.07447  -0.19546   0.15487
  14   27944.4    357.9   0.006143863   0.07238  -0.09981   0.19008   0.16214
  15   28767.9    347.6   0.052797173   0.60420   0.38856  -0.13788   0.65895
  16   28809.3    347.1   0.025707601   0.29377   0.14166  -0.49718   0.16282
  17   29040.1    344.4   0.107117415   1.21433   0.76925  -0.73518   0.28653
  18   29433.1    339.8   0.088979929   0.99525  -0.62878  -0.43551  -0.64048
  19   29473.5    339.3   0.022033880   0.24611  -0.14520   0.45921   0.11897
  20   29710.0    336.6   0.005462976   0.06053  -0.16108   0.06124  -0.17561
  21   30903.4    323.6   0.066005700   0.70315   0.57315  -0.26963   0.54951
  22   30940.3    323.2   0.101202086   1.07681   0.44421  -0.77706  -0.52505
  23   31469.2    317.8   0.015331302   0.16039   0.09613   0.38252   0.06945
  24   31747.9    315.0   0.047074984   0.48815   0.17230  -0.55184  -0.39234
  25   32004.8    312.5   0.291319876   2.99661  -1.09581   0.18816   1.32680
  26   32035.8    312.2   0.174099831   1.78912  -0.98469   0.36048  -0.83039
  27   32228.9    310.3   0.057007466   0.58232  -0.30248   0.19956   0.67157
  28   32717.6    305.6   0.026055140   0.26217   0.16475  -0.18920  -0.44635
  29   32868.5    304.2   0.326440484   3.26963   1.28866  -1.26337   0.11355
  30   32930.4    303.7   0.100372985   1.00345  -0.65328  -0.49748   0.57375
  31   33454.9    298.9   0.064351101   0.63325   0.44516   0.65240  -0.09721
  32   34213.6    292.3   0.139240302   1.33981   1.07740   0.26813   0.32729
  33   35003.1    285.7   0.128837213   1.21174   0.31993   0.58123  -0.87838
  34   35172.1    284.3   0.013479342   0.12617  -0.16231   0.19139  -0.25138
  35   35271.1    283.5   0.064392348   0.60102   0.12125   0.09248   0.76011
  36   35776.2    279.5   0.028820412   0.26521  -0.21811  -0.37333  -0.27975
  37   35907.0    278.5   0.175356376   1.60775  -0.14595   1.03981   0.71081
  38   36372.6    274.9   0.054423280   0.49259  -0.50362   0.45954  -0.16666
  39   36511.8    273.9   0.030751148   0.27727   0.06958  -0.41857  -0.31182
  40   37054.3    269.9   0.067236806   0.59737  -0.71736  -0.18718  -0.21846
  41   37519.1    266.5   0.113647313   0.99720  -0.40063   0.51551  -0.75561
  42   37714.7    265.1   0.075358365   0.65780   0.72372   0.28389   0.23118
  43   37823.1    264.4   0.329494155   2.86791  -0.07552   0.73570   1.52347
  44   38400.1    260.4   0.132144905   1.13291  -0.29957  -0.84865  -0.56829
  45   38546.5    259.4   0.014675791   0.12534   0.19024   0.01059   0.29839
  46   38747.8    258.1   0.004807995   0.04085   0.03382   0.09343   0.17600
  47   38832.5    257.5   0.003666353   0.03108  -0.09056  -0.06347  -0.13731
  48   39107.0    255.7   0.018064717   0.15207  -0.38601  -0.01409  -0.05358
  49   39210.9    255.0   0.005006579   0.04203  -0.18296  -0.09246  -0.00348
  50   39348.0    254.1   0.014157910   0.11845  -0.07204   0.31248  -0.12499
  51   39739.3    251.6   0.003198749   0.02650  -0.04065  -0.12567  -0.09515
  52   39838.8    251.0   0.009365902   0.07740   0.16832   0.21637   0.04740
  53   39997.6    250.0   0.003458945   0.02847   0.07846  -0.14868   0.01450
  54   40060.2    249.6   0.133762915   1.09925   0.43016   0.83630  -0.46347
  55   40142.5    249.1   0.021978647   0.18025  -0.03720  -0.41933  -0.05504

FINAL SINGLE POINT ENERGY     -7833.249716659990

DIPOLE MOMENT
-------------
                                X             Y             Z
Electronic contribution:    -13.69686    -114.70334     173.09750
Nuclear contribution   :     15.97199     117.70636    -172.66166
                        -----------------------------------------
Total Dipole Moment    :      2.27514       3.00302       0.43584
                        -----------------------------------------
Magnitude (a.u.)       :      3.79267
Magnitude (Debye)      :      9.64020

Rotational constants in cm-1:     0.000707     0.000217     0.000182
Rotational constants in MHz :    21.189893     6.511823     5.450579

                             ****ORCA TERMINATED NORMALLY****
TOTAL RUN TIME: 0 days 0 hours 11 minutes 56 seconds 31 msec
