                         Program Version 4.2.0 -  RELEASE  -
|  1> # ORCA input file
|  2> # SCF done       -198.248823231679          0.000805153951
|  3> ! CAM-B3LYP def2-SVP def2/J RIJCOSX Grid4 TightSCF
|  4> %maxcore 5000
|  5> %tddft
|  6>     Mode sTDDFT
|  7>     Ethresh 5.0
|  8>     maxcore 5000
|  9> end
| 10>
| 11> %pal
| 12>   nprocs 6
| 13>   end
| 14> * xyz 0 1
| 15>    C      -11.00356       -10.72407        -7.24619
| 16>    C      -10.20838       -11.07169        -6.17894
| 17>    C       -9.33103       -12.17417        -6.17463
| 18>    N       -8.59631       -13.05498        -6.10755
| 19>    C      -10.16199       -10.41040        -4.93520
| 20>    N      -10.06964        -9.94638        -3.88779
| 21>    C      -11.08335       -11.45790        -8.50798
| 22>    C      -12.05597       -10.84001        -9.33096
| 23>    C      -12.36486       -11.29948       -10.58719
| 24>    C      -11.67727       -12.42336       -11.05860
| 25>    C      -10.70642       -13.03297       -10.23081
| 26>    C      -10.39645       -12.56913        -8.95752
| 27>    S       -9.97284       -14.40348       -11.00841
| 28>    C      -10.96745       -14.14070       -12.41624
| 29>    C      -11.80666       -13.08359       -12.31148
| 30>   Br      -10.80389       -15.28760       -13.89188
| 31>    C      -12.62554        -9.67498        -8.62164
| 32>    O      -13.49146        -8.93201        -9.04167
| 33>    C      -11.91842        -9.61311        -7.32673
| 34>    C      -12.08755        -8.61589        -6.38852
| 35>    C      -12.98269        -7.55522        -6.50266
| 36>    C      -13.08122        -6.55297        -5.55726
| 37>    C      -13.95420        -5.43971        -5.59798
| 38>    C      -13.82116        -4.59077        -4.53932
| 39>    C      -12.83409        -4.99366        -3.61294
| 40>    S      -12.08993        -6.49102        -4.11737
| 41>    C      -12.42699        -4.35182        -2.45514
| 42>    C      -12.89016        -3.12171        -1.92783
| 43>    C      -12.25622        -2.75374        -0.78351
| 44>    C      -11.25509        -3.66963        -0.35371
| 45>    S      -11.16154        -5.01714        -1.45944
| 46>    C      -10.51854        -3.54495         0.79753
| 47>    C       -9.49531        -4.39679         1.25371
| 48>    O       -9.14570        -4.28698         2.57523
| 49>    C       -8.70348        -5.38713         0.68266
| 50>    C       -8.28735        -6.02490        -0.56940
| 51>    O       -8.59513        -5.80647        -1.71448
| 52>    N       -7.33419        -6.95916        -0.17349
| 53>    C       -7.01324        -6.94449         1.17981
| 54>    O       -6.19251        -7.64449         1.71336
| 55>    C       -7.88850        -5.90239         1.72229
| 56>    C       -8.18391        -5.19955         2.87092
| 57>    C       -7.62173        -5.30262         4.17469
| 58>    C       -7.88934        -4.44143         5.17512
| 59>    C       -7.33411        -4.58570         6.50501
| 60>    C       -7.29921        -5.81531         7.09718
| 61>    S       -6.69765        -5.82059         8.70279
| 62>    C       -6.41866        -4.10940         8.60104
| 63>    C       -6.80113        -3.55879         7.36977
| 64>    C       -6.53920        -2.18989         7.12437
| 65>    C       -6.87311        -1.63628         5.76318
| 66>    C       -8.28558        -1.04678         5.72140
| 67>    C       -5.97582        -1.39109         8.11127
| 68>    C       -5.71241         0.06904         7.84420
| 69>    C       -4.23520         0.32010         7.53553
| 70>    C       -5.60415        -1.94951         9.36177
| 71>    C       -4.92568        -1.37946        10.50923
| 72>    C       -4.69972        -2.31566        11.48004
| 73>    S       -5.27689        -3.88518        11.11959
| 74>    C       -5.83196        -3.31953         9.57529
| 75>    C       -4.47448        -0.02225        10.71679
| 76>    C       -3.36968         0.29861        11.41734
| 77>    C       -2.93894         1.64249        11.61994
| 78>    O       -3.64000         2.69293        11.11185
| 79>    C       -1.83278         2.13776        12.27540
| 80>    C       -0.64202         1.77090        13.04165
| 81>    O       -0.21481         0.69930        13.38478
| 82>    N       -0.04440         3.00021        13.32489
| 83>    C       -0.71111         4.12035        12.83314
| 84>    O       -0.35101         5.25944        12.97538
| 85>    C       -1.87795         3.55252        12.14996
| 86>    C       -3.00609         3.85543        11.42542
| 87>    C       -3.53196         5.12347        11.00467
| 88>    C       -4.64715         5.26780        10.29188
| 89>    H      -13.11230       -10.80684       -11.18915
| 90>    H       -9.64651       -13.06910        -8.36800
| 91>    H      -12.48859       -12.77933       -13.08439
| 92>    H      -11.47333        -8.63943        -5.49654
| 93>    H      -13.62493        -7.50318        -7.37007
| 94>    H      -14.64631        -5.30170        -6.40951
| 95>    H      -14.39856        -3.69379        -4.40499
| 96>    H      -13.66545        -2.54975        -2.40469
| 97>    H      -12.46283        -1.85304        -0.23300
| 98>    H      -10.77274        -2.73453         1.46779
| 99>    H       -6.87737        -7.56838        -0.83736
|100>    H       -6.91141        -6.10684         4.29775
|101>    H       -8.58365        -3.63396         4.99515
|102>    H       -7.65642        -6.73384         6.67365
|103>    H       -6.79057        -2.44151         5.03180
|104>    H       -6.15051        -0.87481         5.47084
|105>    H       -9.01737        -1.77075         6.07297
|106>    H       -8.54254        -0.75290         4.70590
|107>    H       -8.36028        -0.17116         6.36223
|108>    H       -6.02487         0.65611         8.70620
|109>    H       -6.31048         0.42065         7.00736
|110>    H       -3.60323        -0.01370         8.35445
|111>    H       -4.05768         1.38077         7.37235
|112>    H       -3.94205        -0.22196         6.63902
|113>    H       -4.24208        -2.14265        12.43434
|114>    H       -5.05638         0.78727        10.30678
|115>    H       -2.71823        -0.45151        11.83960
|116>    H        0.81430         3.07262        13.85193
|117>    H       -2.93926         5.97130        11.31634
|118>    H       -5.23038         4.41572         9.98587
|119>    H       -5.00463         6.23791         9.99681
|120> *
|121>
|122>                          ****END OF INPUT****

CARTESIAN COORDINATES (ANGSTROEM)
---------------------------------
  C    -11.003560  -10.724070   -7.246190
  C    -10.208380  -11.071690   -6.178940
  C     -9.331030  -12.174170   -6.174630
  N     -8.596310  -13.054980   -6.107550
  C    -10.161990  -10.410400   -4.935200
  N    -10.069640   -9.946380   -3.887790
  C    -11.083350  -11.457900   -8.507980
  C    -12.055970  -10.840010   -9.330960
  C    -12.364860  -11.299480  -10.587190
  C    -11.677270  -12.423360  -11.058600
  C    -10.706420  -13.032970  -10.230810
  C    -10.396450  -12.569130   -8.957520
  S     -9.972840  -14.403480  -11.008410
  C    -10.967450  -14.140700  -12.416240
  C    -11.806660  -13.083590  -12.311480
  Br   -10.803890  -15.287600  -13.891880
  C    -12.625540   -9.674980   -8.621640
  O    -13.491460   -8.932010   -9.041670
  C    -11.918420   -9.613110   -7.326730
  C    -12.087550   -8.615890   -6.388520
  C    -12.982690   -7.555220   -6.502660
  C    -13.081220   -6.552970   -5.557260
  C    -13.954200   -5.439710   -5.597980
  C    -13.821160   -4.590770   -4.539320
  C    -12.834090   -4.993660   -3.612940
  S    -12.089930   -6.491020   -4.117370
  C    -12.426990   -4.351820   -2.455140
  C    -12.890160   -3.121710   -1.927830
  C    -12.256220   -2.753740   -0.783510
  C    -11.255090   -3.669630   -0.353710
  S    -11.161540   -5.017140   -1.459440
  C    -10.518540   -3.544950    0.797530
  C     -9.495310   -4.396790    1.253710
  O     -9.145700   -4.286980    2.575230
  C     -8.703480   -5.387130    0.682660
  C     -8.287350   -6.024900   -0.569400
  O     -8.595130   -5.806470   -1.714480
  N     -7.334190   -6.959160   -0.173490
  C     -7.013240   -6.944490    1.179810
  O     -6.192510   -7.644490    1.713360
  C     -7.888500   -5.902390    1.722290
  C     -8.183910   -5.199550    2.870920
  C     -7.621730   -5.302620    4.174690
  C     -7.889340   -4.441430    5.175120
  C     -7.334110   -4.585700    6.505010
  C     -7.299210   -5.815310    7.097180
  S     -6.697650   -5.820590    8.702790
  C     -6.418660   -4.109400    8.601040
  C     -6.801130   -3.558790    7.369770
  C     -6.539200   -2.189890    7.124370
  C     -6.873110   -1.636280    5.763180
  C     -8.285580   -1.046780    5.721400
  C     -5.975820   -1.391090    8.111270
  C     -5.712410    0.069040    7.844200
  C     -4.235200    0.320100    7.535530
  C     -5.604150   -1.949510    9.361770
  C     -4.925680   -1.379460   10.509230
  C     -4.699720   -2.315660   11.480040
  S     -5.276890   -3.885180   11.119590
  C     -5.831960   -3.319530    9.575290
  C     -4.474480   -0.022250   10.716790
  C     -3.369680    0.298610   11.417340
  C     -2.938940    1.642490   11.619940
  O     -3.640000    2.692930   11.111850
  C     -1.832780    2.137760   12.275400
  C     -0.642020    1.770900   13.041650
  O     -0.214810    0.699300   13.384780
  N     -0.044400    3.000210   13.324890
  C     -0.711110    4.120350   12.833140
  O     -0.351010    5.259440   12.975380
  C     -1.877950    3.552520   12.149960
  C     -3.006090    3.855430   11.425420
  C     -3.531960    5.123470   11.004670
  C     -4.647150    5.267800   10.291880
  H    -13.112300  -10.806840  -11.189150
  H     -9.646510  -13.069100   -8.368000
  H    -12.488590  -12.779330  -13.084390
  H    -11.473330   -8.639430   -5.496540
  H    -13.624930   -7.503180   -7.370070
  H    -14.646310   -5.301700   -6.409510
  H    -14.398560   -3.693790   -4.404990
  H    -13.665450   -2.549750   -2.404690
  H    -12.462830   -1.853040   -0.233000
  H    -10.772740   -2.734530    1.467790
  H     -6.877370   -7.568380   -0.837360
  H     -6.911410   -6.106840    4.297750
  H     -8.583650   -3.633960    4.995150
  H     -7.656420   -6.733840    6.673650
  H     -6.790570   -2.441510    5.031800
  H     -6.150510   -0.874810    5.470840
  H     -9.017370   -1.770750    6.072970
  H     -8.542540   -0.752900    4.705900
  H     -8.360280   -0.171160    6.362230
  H     -6.024870    0.656110    8.706200
  H     -6.310480    0.420650    7.007360
  H     -3.603230   -0.013700    8.354450
  H     -4.057680    1.380770    7.372350
  H     -3.942050   -0.221960    6.639020
  H     -4.242080   -2.142650   12.434340
  H     -5.056380    0.787270   10.306780
  H     -2.718230   -0.451510   11.839600
  H      0.814300    3.072620   13.851930
  H     -2.939260    5.971300   11.316340
  H     -5.230380    4.415720    9.985870
  H     -5.004630    6.237910    9.996810

 Total Charge           Charge          ....    0
 Multiplicity           Mult            ....    1
 Number of Electrons    NEL             ....  572
 Basis Dimension        Dim             .... 1229

ORBITAL ENERGIES
----------------

  NO   OCC          E(Eh)            E(eV)
   0   2.0000    -482.878893    -13139.8027
   1   2.0000     -88.966881     -2420.9119
   2   2.0000     -88.960369     -2420.7347
   3   2.0000     -88.960283     -2420.7324
   4   2.0000     -88.959513     -2420.7114
   5   2.0000     -88.958807     -2420.6922
   6   2.0000     -62.556604     -1702.2517
   7   2.0000     -56.390543     -1534.4647
   8   2.0000     -56.387849     -1534.3914
   9   2.0000     -56.387811     -1534.3903
  10   2.0000     -19.311314      -525.4876
  11   2.0000     -19.309011      -525.4249
  12   2.0000     -19.206047      -522.6231
  13   2.0000     -19.205853      -522.6178
  14   2.0000     -19.205585      -522.6105
  15   2.0000     -19.205441      -522.6066
  16   2.0000     -19.204162      -522.5718
  17   2.0000     -14.449921      -393.2023
  18   2.0000     -14.449510      -393.1912
  19   2.0000     -14.403739      -391.9457
  20   2.0000     -14.401769      -391.8921
  21   2.0000     -10.396945      -282.9153
  22   2.0000     -10.395684      -282.8809
  23   2.0000     -10.395222      -282.8684
  24   2.0000     -10.394873      -282.8589
  25   2.0000     -10.366545      -282.0880
  26   2.0000     -10.362453      -281.9767
  27   2.0000     -10.358777      -281.8767
  28   2.0000     -10.357227      -281.8345
  29   2.0000     -10.354465      -281.7593
  30   2.0000     -10.350590      -281.6539
  31   2.0000     -10.332910      -281.1728
  32   2.0000     -10.331117      -281.1240
  33   2.0000     -10.328983      -281.0659
  34   2.0000     -10.327533      -281.0265
  35   2.0000     -10.326583      -281.0006
  36   2.0000     -10.326382      -280.9951
  37   2.0000     -10.315698      -280.7044
  38   2.0000     -10.308328      -280.5039
  39   2.0000     -10.307215      -280.4736
  40   2.0000     -10.307183      -280.4727
  41   2.0000     -10.306456      -280.4529
  42   2.0000     -10.305904      -280.4379
  43   2.0000     -10.305772      -280.4343
  44   2.0000     -10.304951      -280.4120
  45   2.0000     -10.304332      -280.3951
  46   2.0000     -10.302814      -280.3538
  47   2.0000     -10.302174      -280.3364
  48   2.0000     -10.301789      -280.3259
  49   2.0000     -10.298509      -280.2367
  50   2.0000     -10.297755      -280.2162
  51   2.0000     -10.297353      -280.2052
  52   2.0000     -10.296948      -280.1942
  53   2.0000     -10.294841      -280.1369
  54   2.0000     -10.294809      -280.1360
  55   2.0000     -10.294549      -280.1289
  56   2.0000     -10.292550      -280.0745
  57   2.0000     -10.292007      -280.0598
  58   2.0000     -10.290845      -280.0281
  59   2.0000     -10.290730      -280.0250
  60   2.0000     -10.290447      -280.0173
  61   2.0000     -10.289594      -279.9941
  62   2.0000     -10.288863      -279.9742
  63   2.0000     -10.288782      -279.9720
  64   2.0000     -10.287557      -279.9387
  65   2.0000     -10.285917      -279.8940
  66   2.0000     -10.285138      -279.8728
  67   2.0000     -10.284384      -279.8523
  68   2.0000     -10.283043      -279.8158
  69   2.0000     -10.281946      -279.7860
  70   2.0000     -10.281876      -279.7841
  71   2.0000     -10.280888      -279.7572
  72   2.0000     -10.280875      -279.7568
  73   2.0000     -10.278556      -279.6937
  74   2.0000     -10.272025      -279.5160
  75   2.0000     -10.271777      -279.5093
  76   2.0000     -10.266615      -279.3688
  77   2.0000     -10.259505      -279.1753
  78   2.0000      -8.786030      -239.0800
  79   2.0000      -8.062937      -219.4037
  80   2.0000      -8.056406      -219.2259
  81   2.0000      -8.056352      -219.2245
  82   2.0000      -8.055681      -219.2062
  83   2.0000      -8.055079      -219.1898
  84   2.0000      -6.622276      -180.2013
  85   2.0000      -6.607773      -179.8066
  86   2.0000      -6.607617      -179.8024
  87   2.0000      -6.032633      -164.1563
  88   2.0000      -6.028364      -164.0401
  89   2.0000      -6.026029      -163.9766
  90   2.0000      -6.025968      -163.9749
  91   2.0000      -6.025136      -163.9523
  92   2.0000      -6.024541      -163.9361
  93   2.0000      -6.024124      -163.9247
  94   2.0000      -6.021937      -163.8652
  95   2.0000      -6.021791      -163.8613
  96   2.0000      -6.020873      -163.8363
  97   2.0000      -6.020324      -163.8214
  98   2.0000      -6.017529      -163.7453
  99   2.0000      -6.017502      -163.7446
 100   2.0000      -6.017358      -163.7406
 101   2.0000      -6.016776      -163.7248
 102   2.0000      -2.738178       -74.5096
 103   2.0000      -2.734086       -74.3983
 104   2.0000      -2.733941       -74.3943
 105   2.0000      -2.722425       -74.0810
 106   2.0000      -2.722416       -74.0807
 107   2.0000      -1.225934       -33.3594
 108   2.0000      -1.224174       -33.3115
 109   2.0000      -1.151572       -31.3359
 110   2.0000      -1.150462       -31.3057
 111   2.0000      -1.130583       -30.7647
 112   2.0000      -1.129934       -30.7471
 113   2.0000      -1.117608       -30.4116
 114   2.0000      -1.039077       -28.2747
 115   2.0000      -1.037588       -28.2342
 116   2.0000      -1.014172       -27.5970
 117   2.0000      -1.012165       -27.5424
 118   2.0000      -1.009375       -27.4665
 119   2.0000      -1.001998       -27.2657
 120   2.0000      -0.991805       -26.9884
 121   2.0000      -0.981683       -26.7130
 122   2.0000      -0.980177       -26.6720
 123   2.0000      -0.977715       -26.6050
 124   2.0000      -0.935303       -25.4509
 125   2.0000      -0.933347       -25.3977
 126   2.0000      -0.932061       -25.3627
 127   2.0000      -0.928721       -25.2718
 128   2.0000      -0.923514       -25.1301
 129   2.0000      -0.919114       -25.0104
 130   2.0000      -0.912421       -24.8282
 131   2.0000      -0.902271       -24.5520
 132   2.0000      -0.897812       -24.4307
 133   2.0000      -0.895349       -24.3637
 134   2.0000      -0.879574       -23.9344
 135   2.0000      -0.875731       -23.8298
 136   2.0000      -0.872112       -23.7314
 137   2.0000      -0.867247       -23.5990
 138   2.0000      -0.864866       -23.5342
 139   2.0000      -0.855243       -23.2723
 140   2.0000      -0.847116       -23.0512
 141   2.0000      -0.840223       -22.8636
 142   2.0000      -0.835929       -22.7468
 143   2.0000      -0.821125       -22.3439
 144   2.0000      -0.818974       -22.2854
 145   2.0000      -0.815536       -22.1919
 146   2.0000      -0.800015       -21.7695
 147   2.0000      -0.788071       -21.4445
 148   2.0000      -0.784525       -21.3480
 149   2.0000      -0.772499       -21.0208
 150   2.0000      -0.766269       -20.8512
 151   2.0000      -0.763457       -20.7747
 152   2.0000      -0.757903       -20.6236
 153   2.0000      -0.754606       -20.5339
 154   2.0000      -0.747080       -20.3291
 155   2.0000      -0.733230       -19.9522
 156   2.0000      -0.728319       -19.8186
 157   2.0000      -0.722301       -19.6548
 158   2.0000      -0.713335       -19.4108
 159   2.0000      -0.704825       -19.1793
 160   2.0000      -0.701823       -19.0976
 161   2.0000      -0.700366       -19.0579
 162   2.0000      -0.695268       -18.9192
 163   2.0000      -0.691603       -18.8195
 164   2.0000      -0.685468       -18.6525
 165   2.0000      -0.679888       -18.5007
 166   2.0000      -0.677484       -18.4353
 167   2.0000      -0.662043       -18.0151
 168   2.0000      -0.655358       -17.8332
 169   2.0000      -0.653695       -17.7879
 170   2.0000      -0.647773       -17.6268
 171   2.0000      -0.635974       -17.3057
 172   2.0000      -0.634961       -17.2782
 173   2.0000      -0.627943       -17.0872
 174   2.0000      -0.621662       -16.9163
 175   2.0000      -0.616323       -16.7710
 176   2.0000      -0.613114       -16.6837
 177   2.0000      -0.612574       -16.6690
 178   2.0000      -0.608223       -16.5506
 179   2.0000      -0.602442       -16.3933
 180   2.0000      -0.594311       -16.1720
 181   2.0000      -0.590021       -16.0553
 182   2.0000      -0.588663       -16.0183
 183   2.0000      -0.585937       -15.9442
 184   2.0000      -0.584136       -15.8951
 185   2.0000      -0.584058       -15.8930
 186   2.0000      -0.583351       -15.8738
 187   2.0000      -0.581345       -15.8192
 188   2.0000      -0.575149       -15.6506
 189   2.0000      -0.567635       -15.4461
 190   2.0000      -0.562292       -15.3007
 191   2.0000      -0.560991       -15.2653
 192   2.0000      -0.553652       -15.0656
 193   2.0000      -0.546387       -14.8679
 194   2.0000      -0.544031       -14.8038
 195   2.0000      -0.542388       -14.7591
 196   2.0000      -0.540090       -14.6966
 197   2.0000      -0.539204       -14.6725
 198   2.0000      -0.537320       -14.6212
 199   2.0000      -0.534117       -14.5341
 200   2.0000      -0.532018       -14.4770
 201   2.0000      -0.531531       -14.4637
 202   2.0000      -0.528539       -14.3823
 203   2.0000      -0.524029       -14.2595
 204   2.0000      -0.520624       -14.1669
 205   2.0000      -0.519525       -14.1370
 206   2.0000      -0.517458       -14.0807
 207   2.0000      -0.515430       -14.0256
 208   2.0000      -0.513473       -13.9723
 209   2.0000      -0.512087       -13.9346
 210   2.0000      -0.511063       -13.9067
 211   2.0000      -0.510484       -13.8910
 212   2.0000      -0.508511       -13.8373
 213   2.0000      -0.503512       -13.7012
 214   2.0000      -0.501304       -13.6412
 215   2.0000      -0.499160       -13.5828
 216   2.0000      -0.499013       -13.5788
 217   2.0000      -0.498204       -13.5568
 218   2.0000      -0.497268       -13.5313
 219   2.0000      -0.490857       -13.3569
 220   2.0000      -0.486366       -13.2347
 221   2.0000      -0.484020       -13.1709
 222   2.0000      -0.483182       -13.1481
 223   2.0000      -0.481718       -13.1082
 224   2.0000      -0.481334       -13.0978
 225   2.0000      -0.479126       -13.0377
 226   2.0000      -0.478448       -13.0192
 227   2.0000      -0.477197       -12.9852
 228   2.0000      -0.476741       -12.9728
 229   2.0000      -0.471275       -12.8240
 230   2.0000      -0.467835       -12.7304
 231   2.0000      -0.465568       -12.6687
 232   2.0000      -0.463125       -12.6023
 233   2.0000      -0.461827       -12.5669
 234   2.0000      -0.457946       -12.4613
 235   2.0000      -0.454423       -12.3655
 236   2.0000      -0.450804       -12.2670
 237   2.0000      -0.450456       -12.2575
 238   2.0000      -0.448953       -12.2166
 239   2.0000      -0.448911       -12.2155
 240   2.0000      -0.441762       -12.0209
 241   2.0000      -0.439235       -11.9522
 242   2.0000      -0.438535       -11.9331
 243   2.0000      -0.436494       -11.8776
 244   2.0000      -0.434334       -11.8188
 245   2.0000      -0.432053       -11.7568
 246   2.0000      -0.431389       -11.7387
 247   2.0000      -0.429286       -11.6815
 248   2.0000      -0.426758       -11.6127
 249   2.0000      -0.424520       -11.5518
 250   2.0000      -0.415158       -11.2970
 251   2.0000      -0.415025       -11.2934
 252   2.0000      -0.413870       -11.2620
 253   2.0000      -0.412806       -11.2330
 254   2.0000      -0.411466       -11.1966
 255   2.0000      -0.406946       -11.0736
 256   2.0000      -0.396059       -10.7773
 257   2.0000      -0.395753       -10.7690
 258   2.0000      -0.394524       -10.7355
 259   2.0000      -0.387053       -10.5322
 260   2.0000      -0.383434       -10.4338
 261   2.0000      -0.381283       -10.3752
 262   2.0000      -0.377464       -10.2713
 263   2.0000      -0.371192       -10.1006
 264   2.0000      -0.368543       -10.0286
 265   2.0000      -0.368387       -10.0243
 266   2.0000      -0.367611       -10.0032
 267   2.0000      -0.364571        -9.9205
 268   2.0000      -0.357726        -9.7342
 269   2.0000      -0.356103        -9.6901
 270   2.0000      -0.354403        -9.6438
 271   2.0000      -0.351300        -9.5594
 272   2.0000      -0.345171        -9.3926
 273   2.0000      -0.340796        -9.2735
 274   2.0000      -0.339916        -9.2496
 275   2.0000      -0.331952        -9.0329
 276   2.0000      -0.328350        -8.9349
 277   2.0000      -0.324263        -8.8236
 278   2.0000      -0.314494        -8.5578
 279   2.0000      -0.306009        -8.3269
 280   2.0000      -0.292529        -7.9601
 281   2.0000      -0.289295        -7.8721
 282   2.0000      -0.283412        -7.7120
 283   2.0000      -0.267376        -7.2757
 284   2.0000      -0.259285        -7.0555
 285   2.0000      -0.229371        -6.2415
 286   0.0000      -0.113939        -3.1004
 287   0.0000      -0.063379        -1.7246
 288   0.0000      -0.047693        -1.2978
 289   0.0000      -0.046815        -1.2739
 290   0.0000      -0.041964        -1.1419

MULLIKEN ATOMIC CHARGES
-----------------------
   0 C :    0.324856
   1 C :   -0.357067
   2 C :   -0.187878
   3 N :    0.139371
   4 C :   -0.195332
   5 N :    0.137666
   6 C :    0.014553
   7 C :   -0.007711
   8 C :   -0.078138
   9 C :    0.117468
  10 C :   -0.089767
  11 C :   -0.026899
  12 S :    0.181178
  13 C :   -0.122310
  14 C :    0.036080
  15 Br:    0.016758
  16 C :    0.140437
  17 O :   -0.165628
  18 C :   -0.087059
  19 C :   -0.038551
  20 C :   -0.022231
  21 C :    0.004062
  22 C :    0.028354
  23 C :    0.044079
  24 C :   -0.049192
  25 S :    0.122168
  26 C :   -0.038958
  27 C :    0.032343
  28 C :    0.042763
  29 C :   -0.026727
  30 S :    0.169840
  31 C :   -0.035964
  32 C :    0.122224
  33 O :   -0.219661
  34 C :   -0.071275
  35 C :    0.170227
  36 O :   -0.149108
  37 N :   -0.156300
  38 C :    0.169005
  39 O :   -0.143826
  40 C :   -0.042206
  41 C :    0.086101
  42 C :   -0.039727
  43 C :   -0.009462
  44 C :    0.059691
  45 C :   -0.105697
  46 S :    0.138610
  47 C :   -0.143122
  48 C :    0.116944
  49 C :   -0.116391
  50 C :    0.007465
  51 C :    0.040730
  52 C :   -0.120703
  53 C :    0.027505
  54 C :    0.035390
  55 C :    0.126873
  56 C :    0.072202
  57 C :   -0.113102
  58 S :    0.142633
  59 C :   -0.155258
  60 C :   -0.007889
  61 C :   -0.031406
  62 C :    0.075329
  63 O :   -0.216457
  64 C :   -0.032298
  65 C :    0.162598
  66 O :   -0.144743
  67 N :   -0.168179
  68 C :    0.164227
  69 O :   -0.144917
  70 C :   -0.038781
  71 C :    0.062183
  72 C :   -0.018713
  73 C :    0.014367
  74 H :   -0.014376
  75 H :   -0.008408
  76 H :   -0.005714
  77 H :    0.018802
  78 H :    0.018851
  79 H :    0.002575
  80 H :   -0.005343
  81 H :   -0.005142
  82 H :   -0.004567
  83 H :   -0.000254
  84 H :    0.143972
  85 H :    0.018201
  86 H :    0.015931
  87 H :    0.026408
  88 H :    0.015920
  89 H :    0.006325
  90 H :    0.015397
  91 H :    0.015827
  92 H :    0.009120
  93 H :    0.003319
  94 H :   -0.004699
  95 H :    0.025378
  96 H :    0.015010
  97 H :    0.008416
  98 H :    0.027201
  99 H :    0.010449
 100 H :    0.010522
 101 H :    0.137316
 102 H :    0.016824
 103 H :    0.028235
 104 H :    0.030858
Sum of atomic charges:   -0.0000000

LOEWDIN ATOMIC CHARGES
----------------------
   0 C :    0.072583
   1 C :   -0.151734
   2 C :   -0.018576
   3 N :   -0.065407
   4 C :   -0.021996
   5 N :   -0.062348
   6 C :   -0.018230
   7 C :   -0.049113
   8 C :    0.018034
   9 C :   -0.035292
  10 C :   -0.145002
  11 C :   -0.013032
  12 S :    0.428705
  13 C :   -0.274045
  14 C :   -0.071029
  15 Br:    0.131382
  16 C :    0.082907
  17 O :   -0.156729
  18 C :   -0.102418
  19 C :    0.050387
  20 C :   -0.066908
  21 C :   -0.105559
  22 C :   -0.035207
  23 C :   -0.009749
  24 C :   -0.182006
  25 S :    0.421120
  26 C :   -0.158041
  27 C :   -0.029997
  28 C :   -0.018353
  29 C :   -0.137045
  30 S :    0.461580
  31 C :   -0.066957
  32 C :    0.058183
  33 O :    0.006718
  34 C :   -0.103785
  35 C :    0.076280
  36 O :   -0.163371
  37 N :    0.000266
  38 C :    0.082523
  39 O :   -0.160780
  40 C :   -0.098668
  41 C :    0.072797
  42 C :   -0.045998
  43 C :    0.011583
  44 C :   -0.066512
  45 C :   -0.158170
  46 S :    0.423238
  47 C :   -0.177756
  48 C :   -0.042177
  49 C :   -0.020118
  50 C :   -0.032205
  51 C :   -0.051005
  52 C :   -0.019252
  53 C :   -0.031103
  54 C :   -0.049396
  55 C :   -0.038718
  56 C :   -0.067863
  57 C :   -0.158276
  58 S :    0.428076
  59 C :   -0.176990
  60 C :    0.010792
  61 C :   -0.044261
  62 C :    0.071855
  63 O :    0.012534
  64 C :   -0.105481
  65 C :    0.083884
  66 O :   -0.163590
  67 N :   -0.007325
  68 C :    0.083979
  69 O :   -0.161821
  70 C :   -0.098422
  71 C :    0.066319
  72 C :   -0.036881
  73 C :   -0.016481
  74 H :    0.039163
  75 H :    0.040339
  76 H :    0.037804
  77 H :    0.032557
  78 H :    0.039163
  79 H :    0.039614
  80 H :    0.035394
  81 H :    0.034724
  82 H :    0.036402
  83 H :    0.044661
  84 H :    0.098302
  85 H :    0.046333
  86 H :    0.033186
  87 H :    0.026669
  88 H :    0.030870
  89 H :    0.027387
  90 H :    0.021913
  91 H :    0.024395
  92 H :    0.023776
  93 H :    0.023814
  94 H :    0.025292
  95 H :    0.025736
  96 H :    0.024907
  97 H :    0.024927
  98 H :    0.026197
  99 H :    0.030013
 100 H :    0.043403
 101 H :    0.093803
 102 H :    0.047385
 103 H :    0.026577
 104 H :    0.030745

  Mayer bond orders larger than 0.100000
B(  0-C ,  1-C ) :   1.5927 B(  0-C ,  6-C ) :   0.9903 B(  0-C , 18-C ) :   1.1045
B(  1-C ,  2-C ) :   1.1474 B(  1-C ,  4-C ) :   1.1518 B(  2-C ,  3-N ) :   2.9634
B(  4-C ,  5-N ) :   2.9630 B(  6-C ,  7-C ) :   1.2789 B(  6-C , 11-C ) :   1.4181
B(  7-C ,  8-C ) :   1.4268 B(  7-C , 16-C ) :   0.9381 B(  8-C ,  9-C ) :   1.2406
B(  8-C , 74-H ) :   1.0169 B(  9-C , 10-C ) :   1.3147 B(  9-C , 14-C ) :   1.1607
B( 10-C , 11-C ) :   1.3205 B( 10-C , 12-S ) :   1.0843 B( 11-C , 75-H ) :   0.9798
B( 12-S , 13-C ) :   1.0852 B( 13-C , 14-C ) :   1.6198 B( 13-C , 15-Br) :   1.0149
B( 14-C , 76-H ) :   1.0001 B( 16-C , 17-O ) :   2.1845 B( 16-C , 18-C ) :   0.9621
B( 18-C , 19-C ) :   1.4988 B( 19-C , 20-C ) :   1.2443 B( 19-C , 77-H ) :   0.9438
B( 20-C , 21-C ) :   1.4320 B( 20-C , 78-H ) :   0.9775 B( 21-C , 22-C ) :   1.1688
B( 21-C , 25-S ) :   1.0831 B( 22-C , 23-C ) :   1.5536 B( 22-C , 79-H ) :   1.0020
B( 23-C , 24-C ) :   1.2044 B( 23-C , 80-H ) :   0.9949 B( 24-C , 25-S ) :   1.0546
B( 24-C , 26-C ) :   1.4731 B( 26-C , 27-C ) :   1.1754 B( 26-C , 30-S ) :   1.0958
B( 27-C , 28-C ) :   1.6013 B( 27-C , 81-H ) :   0.9938 B( 28-C , 29-C ) :   1.1333
B( 28-C , 82-H ) :   0.9993 B( 29-C , 30-S ) :   1.0712 B( 29-C , 31-C ) :   1.5506
B( 31-C , 32-C ) :   1.1867 B( 31-C , 83-H ) :   0.9542 B( 32-C , 33-O ) :   1.1089
B( 32-C , 34-C ) :   1.3996 B( 33-O , 41-C ) :   1.1554 B( 34-C , 35-C ) :   0.8868
B( 34-C , 40-C ) :   1.2684 B( 35-C , 36-O ) :   2.2040 B( 35-C , 37-N ) :   1.0874
B( 37-N , 38-C ) :   1.0814 B( 37-N , 84-H ) :   0.9137 B( 38-C , 39-O ) :   2.2630
B( 38-C , 40-C ) :   0.8808 B( 40-C , 41-C ) :   1.4124 B( 41-C , 42-C ) :   1.1569
B( 42-C , 43-C ) :   1.7071 B( 42-C , 85-H ) :   0.9634 B( 43-C , 44-C ) :   0.9945
B( 43-C , 86-H ) :   0.9593 B( 44-C , 45-C ) :   1.6127 B( 44-C , 48-C ) :   1.1519
B( 45-C , 46-S ) :   1.1251 B( 45-C , 87-H ) :   0.9649 B( 46-S , 47-C ) :   1.0783
B( 47-C , 48-C ) :   1.3713 B( 47-C , 59-C ) :   1.3778 B( 48-C , 49-C ) :   1.2651
B( 49-C , 50-C ) :   1.0555 B( 49-C , 52-C ) :   1.5237 B( 50-C , 51-C ) :   1.1104
B( 50-C , 88-H ) :   0.9183 B( 50-C , 89-H ) :   0.9132 B( 51-C , 90-H ) :   0.9573
B( 51-C , 91-H ) :   0.9669 B( 51-C , 92-H ) :   0.9589 B( 52-C , 53-C ) :   1.0621
B( 52-C , 55-C ) :   1.2502 B( 53-C , 54-C ) :   1.1077 B( 53-C , 93-H ) :   0.9263
B( 53-C , 94-H ) :   0.9091 B( 54-C , 95-H ) :   0.9646 B( 54-C , 96-H ) :   0.9657
B( 54-C , 97-H ) :   0.9568 B( 55-C , 56-C ) :   1.1435 B( 55-C , 59-C ) :   1.3746
B( 56-C , 57-C ) :   1.6015 B( 56-C , 60-C ) :   1.0071 B( 57-C , 58-S ) :   1.1293
B( 57-C , 98-H ) :   0.9623 B( 58-S , 59-C ) :   1.0812 B( 60-C , 61-C ) :   1.7005
B( 60-C , 99-H ) :   0.9702 B( 61-C , 62-C ) :   1.1541 B( 61-C ,100-H ) :   0.9628
B( 62-C , 63-O ) :   1.1489 B( 62-C , 64-C ) :   1.4224 B( 63-O , 71-C ) :   1.1420
B( 64-C , 65-C ) :   0.8834 B( 64-C , 70-C ) :   1.2491 B( 65-C , 66-O ) :   2.2688
B( 65-C , 67-N ) :   1.0734 B( 67-N , 68-C ) :   1.0799 B( 67-N ,101-H ) :   0.9141
B( 68-C , 69-O ) :   2.2668 B( 68-C , 70-C ) :   0.8762 B( 70-C , 71-C ) :   1.4535
B( 71-C , 72-C ) :   1.1445 B( 72-C , 73-C ) :   1.9003 B( 72-C ,102-H ) :   0.9515
B( 73-C ,103-H ) :   0.9592 B( 73-C ,104-H ) :   0.9452

-----------------------------------------------------------------------------
         ABSORPTION SPECTRUM VIA TRANSITION ELECTRIC DIPOLE MOMENTS
-----------------------------------------------------------------------------
State   Energy  Wavelength   fosc         T2         TX        TY        TZ
        (cm-1)    (nm)                  (au**2)     (au)      (au)      (au)
-----------------------------------------------------------------------------
   0   11320.8    883.3   1.215070691  35.33453   1.24311   3.13007   4.89815
   1   20873.5    479.1   0.024925308   0.39312  -0.23177   0.57477   0.09506
   2   21748.0    459.8   0.601072983   9.09878  -2.16523   1.61137  -1.34687
   3   24016.2    416.4   0.177375576   2.43144  -0.96239   0.25454  -1.20019
   4   24349.2    410.7   0.001933116   0.02614   0.04913   0.10834   0.10948
   5   24569.4    407.0   0.025703239   0.34440   0.07612   0.31082   0.49194
   6   25752.4    388.3   0.270056648   3.45233  -0.74058   1.39873   0.97336
   7   26301.2    380.2   0.262095134   3.28065  -0.21201  -0.68816  -1.66197
   8   26623.3    375.6   0.002078736   0.02570   0.11609  -0.10589   0.03185
   9   27618.8    362.1   0.173235822   2.06494  -0.94276   1.07993   0.09948
  10   28026.0    356.8   0.006259085   0.07352  -0.12007  -0.05451  -0.23693
  11   28896.2    346.1   0.871041862   9.92372   1.34958   2.74742   0.74433
  12   30345.5    329.5   0.158576437   1.72036   0.49717  -1.08007  -0.55373
  13   30763.4    325.1   0.019582250   0.20956   0.33843  -0.27215   0.14476
  14   31090.8    321.6   0.030791904   0.32605  -0.18181   0.53273   0.09585
  15   31898.4    313.5   0.023422198   0.24173   0.06607   0.18228   0.45182
  16   31999.8    312.5   0.528311062   5.43524  -0.35531  -0.87725  -2.13059
  17   32298.9    309.6   0.332654920   3.39064   0.19949   0.20696   1.81880
  18   32441.5    308.2   0.001434004   0.01455   0.02037   0.08929  -0.07852
  19   32692.9    305.9   0.211700490   2.13179  -1.17264   0.51185  -0.70336
  20   32831.1    304.6   0.129673317   1.30029   0.24843   0.28541   1.07569
  21   33380.6    299.6   0.009504083   0.09373   0.01034   0.22784   0.20425
  22   33554.5    298.0   0.002713110   0.02662   0.09135   0.10352   0.08693
  23   34351.1    291.1   0.025452468   0.24393  -0.07089   0.01233   0.48862
  24   34701.5    288.2   0.000873709   0.00829  -0.06390  -0.05220  -0.03848
  25   35510.2    281.6   0.116959559   1.08432   0.67856  -0.51924   0.59521
  26   36131.6    276.8   0.001063093   0.00969  -0.05800  -0.07690  -0.02024
  27   36289.6    275.6   0.049251250   0.44680  -0.26067   0.61209   0.06474
  28   36484.3    274.1   0.063367576   0.57179   0.35094   0.65704   0.13011
  29   36599.4    273.2   0.024253418   0.21816  -0.14986   0.40391  -0.18045
  30   36697.9    272.5   0.061989957   0.55610   0.01995   0.73881  -0.09934
  31   36826.9    271.5   0.018432260   0.16477   0.16906   0.00179  -0.36904
  32   37024.4    270.1   0.027829704   0.24745   0.03026   0.46520   0.17358
  33   37289.9    268.2   0.001512082   0.01335  -0.06206   0.00631   0.09726
  34   37613.3    265.9   0.021014863   0.18393   0.28020   0.04772  -0.32117
  35   37725.3    265.1   0.074197030   0.64749   0.55220  -0.20134   0.54956
  36   37917.5    263.7   0.350293069   3.04136  -0.69184  -0.19724  -1.58865
  37   38063.8    262.7   0.003297155   0.02852  -0.11983  -0.01900  -0.11746
  38   38526.8    259.6   0.174310944   1.48949  -0.20168  -0.66987  -1.00004
  39   38663.1    258.6   0.055803821   0.47516   0.39100  -0.56424   0.06257
  40   38933.1    256.9   0.058581540   0.49536   0.40463  -0.52360   0.23973
  41   39151.1    255.4   0.014990849   0.12605  -0.21457  -0.11081  -0.26026
  42   39770.8    251.4   0.041077871   0.34003  -0.06686   0.49565   0.29982

FINAL SINGLE POINT ENERGY     -7496.915265869622

DIPOLE MOMENT
-------------
                                X             Y             Z
Electronic contribution:    -38.43065    -176.22114    -214.44484
Nuclear contribution   :     35.54359     179.58223     214.47950
                        -----------------------------------------
Total Dipole Moment    :     -2.88706       3.36109       0.03466
                        -----------------------------------------
Magnitude (a.u.)       :      4.43094
Magnitude (Debye)      :     11.26255

Rotational constants in cm-1:     0.001921     0.000131     0.000127
Rotational constants in MHz :    57.582870     3.919560     3.811245

                             ****ORCA TERMINATED NORMALLY****
TOTAL RUN TIME: 0 days 0 hours 10 minutes 5 seconds 439 msec
