                         Program Version 4.2.0 -  RELEASE  -
|  1> # ORCA input file
|  2> # SCF done       -180.993204015281          0.000300317061
|  3> ! CAM-B3LYP def2-SVP def2/J RIJCOSX Grid4 TightSCF
|  4> %maxcore 5000
|  5> %tddft
|  6>     Mode sTDDFT
|  7>     Ethresh 5.0
|  8>     maxcore 5000
|  9> end
| 10>
| 11> %pal
| 12>   nprocs 6
| 13>   end
| 14> * xyz 0 1
| 15>    C       -7.28957        -5.18526        -8.99749
| 16>    C       -7.27669        -6.10067        -7.96770
| 17>    C       -6.73840        -7.39772        -8.07004
| 18>    N       -6.31897        -8.46762        -8.08121
| 19>    C       -7.79038        -5.89623        -6.67271
| 20>    N       -8.17885        -5.82612        -5.59269
| 21>    C       -6.74962        -5.42429       -10.33589
| 22>    C       -6.95333        -4.26280       -11.11921
| 23>    C       -6.55117        -4.16985       -12.42798
| 24>    C       -5.91404        -5.27951       -12.99520
| 25>    C       -5.71488        -6.43526       -12.20624
| 26>    C       -6.12331        -6.52846       -10.88023
| 27>    S       -4.90814        -7.68840       -13.10119
| 28>    C       -4.85076        -6.65413       -14.50374
| 29>    C       -5.40603        -5.43418       -14.31449
| 30>   Br       -4.06184        -7.28282       -16.08595
| 31>    C       -7.63431        -3.23758       -10.29963
| 32>    O       -7.95878        -2.12514       -10.66977
| 33>    C       -7.82166        -3.84997        -8.97125
| 34>    C       -8.40300        -3.21137        -7.88922
| 35>    C       -8.89933        -1.91592        -7.90682
| 36>    C       -9.44413        -1.29679        -6.79260
| 37>    C       -9.94808         0.01673        -6.72205
| 38>    C      -10.39852         0.37529        -5.47979
| 39>    C      -10.27096        -0.64391        -4.52087
| 40>    S       -9.57232        -2.07628        -5.23239
| 41>    C      -10.60557        -0.60060        -3.16936
| 42>    C      -11.11524         0.48236        -2.43228
| 43>    C      -11.29876         0.20226        -1.10501
| 44>    C      -10.94796        -1.11247        -0.74226
| 45>    S      -10.38281        -1.99288        -2.14308
| 46>    C      -11.00715        -1.65342         0.53051
| 47>    C      -10.67427        -2.94709         0.89810
| 48>    S      -10.15930        -4.22738        -0.18704
| 49>    C       -9.98511        -5.44179         1.08540
| 50>    C      -10.30058        -4.83869         2.32993
| 51>    C      -10.67777        -3.48380         2.19243
| 52>    O      -10.94030        -2.92082         3.37842
| 53>    C      -10.72274        -3.90034         4.29537
| 54>    N      -10.88609        -3.57880         5.66127
| 55>    O      -10.59706        -4.44697         6.46263
| 56>    O      -11.28662        -2.46668         5.93637
| 57>    C      -10.33362        -5.08731         3.72176
| 58>    C       -9.58410        -6.69616         0.66904
| 59>    C       -9.43835        -7.89040         1.36261
| 60>    C       -8.98741        -9.09004         0.77475
| 61>    C       -8.93923       -10.15510         1.63227
| 62>    C       -9.36210        -9.84268         2.93599
| 63>    S       -9.81163        -8.15997         3.04337
| 64>    C       -9.45475       -10.67687         4.04208
| 65>    C       -9.10143       -12.03761         4.14437
| 66>    C       -9.32661       -12.57430         5.37755
| 67>    C       -9.88715       -11.66786         6.31181
| 68>    S      -10.07884       -10.08897         5.56291
| 69>    C      -10.17400       -11.92747         7.62569
| 70>    C      -10.81764       -11.04491         8.52818
| 71>    O      -10.51426       -11.15221         9.83797
| 72>    C      -11.12687       -10.15293        10.49476
| 73>    C      -11.83891        -9.37384         9.64116
| 74>    C      -11.68392        -9.95725         8.35005
| 75>    C      -12.46518        -9.50950         7.21346
| 76>    O      -12.73553        -8.36814         6.94556
| 77>    C      -13.18963       -10.62532         6.38423
| 78>    F      -12.83377       -11.88432         6.68360
| 79>    F      -14.50551       -10.54340         6.63014
| 80>    F      -13.02750       -10.48093         5.06480
| 81>    H       -6.72077        -3.26956       -12.99758
| 82>    H       -5.94640        -7.43288       -10.32283
| 83>    H       -5.45631        -4.67321       -15.07177
| 84>    H       -8.47327        -3.75074        -6.95240
| 85>    H       -8.85416        -1.34905        -8.82558
| 86>    H       -9.96029         0.65997        -7.58370
| 87>    H      -10.81279         1.33843        -5.24207
| 88>    H      -11.32604         1.43510        -2.88277
| 89>    H      -11.67323         0.90521        -0.38228
| 90>    H      -11.33992        -1.00566         1.33130
| 91>    H      -10.11224        -5.98000         4.26623
| 92>    H       -9.36161        -6.76610        -0.38975
| 93>    H       -8.71011        -9.13621        -0.26332
| 94>    H       -8.62133       -11.14280         1.35269
| 95>    H       -8.68748       -12.58138         3.31455
| 96>    H       -9.12624       -13.59626         5.64435
| 97>    H       -9.82937       -12.86110         8.04680
| 98>    H      -10.97884       -10.10138        11.55510
| 99>    H      -12.43648        -8.51603         9.86785
|100> *
|101>
|102>                          ****END OF INPUT****

CARTESIAN COORDINATES (ANGSTROEM)
---------------------------------
  C     -7.289570   -5.185260   -8.997490
  C     -7.276690   -6.100670   -7.967700
  C     -6.738400   -7.397720   -8.070040
  N     -6.318970   -8.467620   -8.081210
  C     -7.790380   -5.896230   -6.672710
  N     -8.178850   -5.826120   -5.592690
  C     -6.749620   -5.424290  -10.335890
  C     -6.953330   -4.262800  -11.119210
  C     -6.551170   -4.169850  -12.427980
  C     -5.914040   -5.279510  -12.995200
  C     -5.714880   -6.435260  -12.206240
  C     -6.123310   -6.528460  -10.880230
  S     -4.908140   -7.688400  -13.101190
  C     -4.850760   -6.654130  -14.503740
  C     -5.406030   -5.434180  -14.314490
  Br    -4.061840   -7.282820  -16.085950
  C     -7.634310   -3.237580  -10.299630
  O     -7.958780   -2.125140  -10.669770
  C     -7.821660   -3.849970   -8.971250
  C     -8.403000   -3.211370   -7.889220
  C     -8.899330   -1.915920   -7.906820
  C     -9.444130   -1.296790   -6.792600
  C     -9.948080    0.016730   -6.722050
  C    -10.398520    0.375290   -5.479790
  C    -10.270960   -0.643910   -4.520870
  S     -9.572320   -2.076280   -5.232390
  C    -10.605570   -0.600600   -3.169360
  C    -11.115240    0.482360   -2.432280
  C    -11.298760    0.202260   -1.105010
  C    -10.947960   -1.112470   -0.742260
  S    -10.382810   -1.992880   -2.143080
  C    -11.007150   -1.653420    0.530510
  C    -10.674270   -2.947090    0.898100
  S    -10.159300   -4.227380   -0.187040
  C     -9.985110   -5.441790    1.085400
  C    -10.300580   -4.838690    2.329930
  C    -10.677770   -3.483800    2.192430
  O    -10.940300   -2.920820    3.378420
  C    -10.722740   -3.900340    4.295370
  N    -10.886090   -3.578800    5.661270
  O    -10.597060   -4.446970    6.462630
  O    -11.286620   -2.466680    5.936370
  C    -10.333620   -5.087310    3.721760
  C     -9.584100   -6.696160    0.669040
  C     -9.438350   -7.890400    1.362610
  C     -8.987410   -9.090040    0.774750
  C     -8.939230  -10.155100    1.632270
  C     -9.362100   -9.842680    2.935990
  S     -9.811630   -8.159970    3.043370
  C     -9.454750  -10.676870    4.042080
  C     -9.101430  -12.037610    4.144370
  C     -9.326610  -12.574300    5.377550
  C     -9.887150  -11.667860    6.311810
  S    -10.078840  -10.088970    5.562910
  C    -10.174000  -11.927470    7.625690
  C    -10.817640  -11.044910    8.528180
  O    -10.514260  -11.152210    9.837970
  C    -11.126870  -10.152930   10.494760
  C    -11.838910   -9.373840    9.641160
  C    -11.683920   -9.957250    8.350050
  C    -12.465180   -9.509500    7.213460
  O    -12.735530   -8.368140    6.945560
  C    -13.189630  -10.625320    6.384230
  F    -12.833770  -11.884320    6.683600
  F    -14.505510  -10.543400    6.630140
  F    -13.027500  -10.480930    5.064800
  H     -6.720770   -3.269560  -12.997580
  H     -5.946400   -7.432880  -10.322830
  H     -5.456310   -4.673210  -15.071770
  H     -8.473270   -3.750740   -6.952400
  H     -8.854160   -1.349050   -8.825580
  H     -9.960290    0.659970   -7.583700
  H    -10.812790    1.338430   -5.242070
  H    -11.326040    1.435100   -2.882770
  H    -11.673230    0.905210   -0.382280
  H    -11.339920   -1.005660    1.331300
  H    -10.112240   -5.980000    4.266230
  H     -9.361610   -6.766100   -0.389750
  H     -8.710110   -9.136210   -0.263320
  H     -8.621330  -11.142800    1.352690
  H     -8.687480  -12.581380    3.314550
  H     -9.126240  -13.596260    5.644350
  H     -9.829370  -12.861100    8.046800
  H    -10.978840  -10.101380   11.555100
  H    -12.436480   -8.516030    9.867850

 Total Charge           Charge          ....    0
 Multiplicity           Mult            ....    1
 Number of Electrons    NEL             ....  528
 Basis Dimension        Dim             .... 1061

ORBITAL ENERGIES
----------------

  NO   OCC          E(Eh)            E(eV)
   0   2.0000    -482.874511    -13139.6835
   1   2.0000     -88.978857     -2421.2378
   2   2.0000     -88.970264     -2421.0040
   3   2.0000     -88.966973     -2420.9144
   4   2.0000     -88.966033     -2420.8888
   5   2.0000     -88.961614     -2420.7686
   6   2.0000     -88.955700     -2420.6077
   7   2.0000     -62.552221     -1702.1325
   8   2.0000     -56.386154     -1534.3452
   9   2.0000     -56.383471     -1534.2723
  10   2.0000     -56.383431     -1534.2712
  11   2.0000     -24.806011      -675.0059
  12   2.0000     -24.799785      -674.8365
  13   2.0000     -24.798731      -674.8078
  14   2.0000     -19.321893      -525.7754
  15   2.0000     -19.310654      -525.4696
  16   2.0000     -19.241822      -523.5966
  17   2.0000     -19.240492      -523.5604
  18   2.0000     -19.235833      -523.4336
  19   2.0000     -19.194612      -522.3119
  20   2.0000     -14.654824      -398.7780
  21   2.0000     -14.396991      -391.7621
  22   2.0000     -14.394046      -391.6819
  23   2.0000     -10.514574      -286.1161
  24   2.0000     -10.391300      -282.7616
  25   2.0000     -10.387866      -282.6682
  26   2.0000     -10.364132      -282.0224
  27   2.0000     -10.361439      -281.9491
  28   2.0000     -10.345188      -281.5069
  29   2.0000     -10.344624      -281.4915
  30   2.0000     -10.340491      -281.3791
  31   2.0000     -10.340334      -281.3748
  32   2.0000     -10.334928      -281.2277
  33   2.0000     -10.333328      -281.1842
  34   2.0000     -10.332938      -281.1735
  35   2.0000     -10.332733      -281.1680
  36   2.0000     -10.330611      -281.1102
  37   2.0000     -10.328072      -281.0411
  38   2.0000     -10.321501      -280.8623
  39   2.0000     -10.320638      -280.8388
  40   2.0000     -10.318548      -280.7820
  41   2.0000     -10.317569      -280.7553
  42   2.0000     -10.316783      -280.7339
  43   2.0000     -10.315889      -280.7096
  44   2.0000     -10.314168      -280.6628
  45   2.0000     -10.310797      -280.5710
  46   2.0000     -10.309222      -280.5282
  47   2.0000     -10.309163      -280.5266
  48   2.0000     -10.306377      -280.4508
  49   2.0000     -10.306369      -280.4506
  50   2.0000     -10.306161      -280.4449
  51   2.0000     -10.305638      -280.4307
  52   2.0000     -10.303360      -280.3687
  53   2.0000     -10.301576      -280.3201
  54   2.0000     -10.300990      -280.3042
  55   2.0000     -10.299911      -280.2748
  56   2.0000     -10.299006      -280.2502
  57   2.0000     -10.298474      -280.2357
  58   2.0000     -10.297588      -280.2116
  59   2.0000     -10.291063      -280.0341
  60   2.0000     -10.291021      -280.0329
  61   2.0000     -10.289583      -279.9938
  62   2.0000     -10.289437      -279.9898
  63   2.0000     -10.287637      -279.9408
  64   2.0000     -10.286632      -279.9135
  65   2.0000     -10.283641      -279.8321
  66   2.0000     -10.283612      -279.8313
  67   2.0000     -10.273022      -279.5431
  68   2.0000     -10.269776      -279.4548
  69   2.0000     -10.267600      -279.3956
  70   2.0000      -8.781644      -238.9607
  71   2.0000      -8.073521      -219.6917
  72   2.0000      -8.066263      -219.4942
  73   2.0000      -8.062949      -219.4040
  74   2.0000      -8.062123      -219.3815
  75   2.0000      -8.057550      -219.2571
  76   2.0000      -8.051705      -219.0980
  77   2.0000      -6.617860      -180.0811
  78   2.0000      -6.603404      -179.6878
  79   2.0000      -6.603253      -179.6836
  80   2.0000      -6.043070      -164.4403
  81   2.0000      -6.038933      -164.3277
  82   2.0000      -6.035890      -164.2449
  83   2.0000      -6.035092      -164.2232
  84   2.0000      -6.032739      -164.1592
  85   2.0000      -6.031789      -164.1333
  86   2.0000      -6.031746      -164.1321
  87   2.0000      -6.028639      -164.0476
  88   2.0000      -6.027553      -164.0181
  89   2.0000      -6.027499      -164.0166
  90   2.0000      -6.027235      -164.0094
  91   2.0000      -6.023768      -163.9151
  92   2.0000      -6.023335      -163.9033
  93   2.0000      -6.022991      -163.8939
  94   2.0000      -6.021230      -163.8460
  95   2.0000      -6.018786      -163.7795
  96   2.0000      -6.017223      -163.7370
  97   2.0000      -6.013013      -163.6224
  98   2.0000      -2.733764       -74.3895
  99   2.0000      -2.729670       -74.2781
 100   2.0000      -2.729571       -74.2754
 101   2.0000      -2.718078       -73.9627
 102   2.0000      -2.718054       -73.9620
 103   2.0000      -1.391894       -37.8753
 104   2.0000      -1.325658       -36.0730
 105   2.0000      -1.295471       -35.2516
 106   2.0000      -1.291769       -35.1508
 107   2.0000      -1.243275       -33.8312
 108   2.0000      -1.230678       -33.4884
 109   2.0000      -1.153329       -31.3837
 110   2.0000      -1.141807       -31.0702
 111   2.0000      -1.107936       -30.1485
 112   2.0000      -1.018794       -27.7228
 113   2.0000      -1.013465       -27.5778
 114   2.0000      -1.005534       -27.3620
 115   2.0000      -1.004978       -27.3468
 116   2.0000      -0.995189       -27.0805
 117   2.0000      -0.994658       -27.0660
 118   2.0000      -0.985519       -26.8173
 119   2.0000      -0.974916       -26.5288
 120   2.0000      -0.969995       -26.3949
 121   2.0000      -0.943838       -25.6831
 122   2.0000      -0.931480       -25.3469
 123   2.0000      -0.926455       -25.2101
 124   2.0000      -0.918620       -24.9969
 125   2.0000      -0.913031       -24.8448
 126   2.0000      -0.903938       -24.5974
 127   2.0000      -0.899342       -24.4723
 128   2.0000      -0.891033       -24.2462
 129   2.0000      -0.884059       -24.0565
 130   2.0000      -0.873134       -23.7592
 131   2.0000      -0.869128       -23.6502
 132   2.0000      -0.864054       -23.5121
 133   2.0000      -0.859049       -23.3759
 134   2.0000      -0.855351       -23.2753
 135   2.0000      -0.845941       -23.0192
 136   2.0000      -0.840690       -22.8763
 137   2.0000      -0.834094       -22.6969
 138   2.0000      -0.827975       -22.5304
 139   2.0000      -0.819200       -22.2916
 140   2.0000      -0.812894       -22.1200
 141   2.0000      -0.802097       -21.8262
 142   2.0000      -0.794564       -21.6212
 143   2.0000      -0.779278       -21.2052
 144   2.0000      -0.764302       -20.7977
 145   2.0000      -0.752170       -20.4676
 146   2.0000      -0.745211       -20.2782
 147   2.0000      -0.739411       -20.1204
 148   2.0000      -0.726296       -19.7635
 149   2.0000      -0.719996       -19.5921
 150   2.0000      -0.703493       -19.1430
 151   2.0000      -0.699350       -19.0303
 152   2.0000      -0.694770       -18.9056
 153   2.0000      -0.689418       -18.7600
 154   2.0000      -0.682859       -18.5815
 155   2.0000      -0.678291       -18.4572
 156   2.0000      -0.675902       -18.3922
 157   2.0000      -0.672823       -18.3084
 158   2.0000      -0.671641       -18.2763
 159   2.0000      -0.668843       -18.2002
 160   2.0000      -0.657567       -17.8933
 161   2.0000      -0.653755       -17.7896
 162   2.0000      -0.649383       -17.6706
 163   2.0000      -0.641786       -17.4639
 164   2.0000      -0.640957       -17.4413
 165   2.0000      -0.640207       -17.4209
 166   2.0000      -0.635776       -17.3003
 167   2.0000      -0.631167       -17.1749
 168   2.0000      -0.628542       -17.1035
 169   2.0000      -0.616532       -16.7767
 170   2.0000      -0.614950       -16.7336
 171   2.0000      -0.609993       -16.5988
 172   2.0000      -0.606101       -16.4928
 173   2.0000      -0.605112       -16.4659
 174   2.0000      -0.599083       -16.3019
 175   2.0000      -0.585498       -15.9322
 176   2.0000      -0.582111       -15.8401
 177   2.0000      -0.580723       -15.8023
 178   2.0000      -0.577406       -15.7120
 179   2.0000      -0.577092       -15.7035
 180   2.0000      -0.574322       -15.6281
 181   2.0000      -0.567979       -15.4555
 182   2.0000      -0.564896       -15.3716
 183   2.0000      -0.554945       -15.1008
 184   2.0000      -0.551568       -15.0089
 185   2.0000      -0.549799       -14.9608
 186   2.0000      -0.546499       -14.8710
 187   2.0000      -0.542638       -14.7659
 188   2.0000      -0.535560       -14.5733
 189   2.0000      -0.531875       -14.4730
 190   2.0000      -0.529719       -14.4144
 191   2.0000      -0.527214       -14.3462
 192   2.0000      -0.525121       -14.2893
 193   2.0000      -0.520759       -14.1706
 194   2.0000      -0.520571       -14.1655
 195   2.0000      -0.516728       -14.0609
 196   2.0000      -0.514344       -13.9960
 197   2.0000      -0.513308       -13.9678
 198   2.0000      -0.512151       -13.9363
 199   2.0000      -0.511227       -13.9112
 200   2.0000      -0.511010       -13.9053
 201   2.0000      -0.508432       -13.8351
 202   2.0000      -0.506479       -13.7820
 203   2.0000      -0.504943       -13.7402
 204   2.0000      -0.499901       -13.6030
 205   2.0000      -0.497184       -13.5291
 206   2.0000      -0.493476       -13.4282
 207   2.0000      -0.492473       -13.4009
 208   2.0000      -0.490998       -13.3607
 209   2.0000      -0.489638       -13.3237
 210   2.0000      -0.487392       -13.2626
 211   2.0000      -0.486626       -13.2418
 212   2.0000      -0.481756       -13.1093
 213   2.0000      -0.480166       -13.0660
 214   2.0000      -0.477633       -12.9971
 215   2.0000      -0.476391       -12.9633
 216   2.0000      -0.473962       -12.8972
 217   2.0000      -0.472793       -12.8654
 218   2.0000      -0.470259       -12.7964
 219   2.0000      -0.467456       -12.7201
 220   2.0000      -0.459314       -12.4986
 221   2.0000      -0.454756       -12.3745
 222   2.0000      -0.450852       -12.2683
 223   2.0000      -0.450607       -12.2616
 224   2.0000      -0.445627       -12.1261
 225   2.0000      -0.444868       -12.1055
 226   2.0000      -0.442369       -12.0375
 227   2.0000      -0.434131       -11.8133
 228   2.0000      -0.433264       -11.7897
 229   2.0000      -0.430429       -11.7126
 230   2.0000      -0.425960       -11.5910
 231   2.0000      -0.424577       -11.5533
 232   2.0000      -0.422822       -11.5056
 233   2.0000      -0.420115       -11.4319
 234   2.0000      -0.410877       -11.1805
 235   2.0000      -0.408436       -11.1141
 236   2.0000      -0.405633       -11.0378
 237   2.0000      -0.404222       -10.9994
 238   2.0000      -0.403790       -10.9877
 239   2.0000      -0.390855       -10.6357
 240   2.0000      -0.388989       -10.5849
 241   2.0000      -0.388775       -10.5791
 242   2.0000      -0.380589       -10.3563
 243   2.0000      -0.376551       -10.2465
 244   2.0000      -0.375035       -10.2052
 245   2.0000      -0.371653       -10.1132
 246   2.0000      -0.370430       -10.0799
 247   2.0000      -0.364146        -9.9089
 248   2.0000      -0.363978        -9.9043
 249   2.0000      -0.356047        -9.6885
 250   2.0000      -0.355993        -9.6871
 251   2.0000      -0.350347        -9.5334
 252   2.0000      -0.347867        -9.4659
 253   2.0000      -0.341986        -9.3059
 254   2.0000      -0.337405        -9.1813
 255   2.0000      -0.328471        -8.9381
 256   2.0000      -0.323096        -8.7919
 257   2.0000      -0.314971        -8.5708
 258   2.0000      -0.306033        -8.3276
 259   2.0000      -0.299606        -8.1527
 260   2.0000      -0.282563        -7.6889
 261   2.0000      -0.276595        -7.5265
 262   2.0000      -0.242866        -6.6087
 263   2.0000      -0.206907        -5.6302
 264   0.0000      -0.126087        -3.4310
 265   0.0000      -0.089572        -2.4374
 266   0.0000      -0.061117        -1.6631
 267   0.0000      -0.053120        -1.4455
 268   0.0000      -0.039695        -1.0801

MULLIKEN ATOMIC CHARGES
-----------------------
   0 C :    0.333625
   1 C :   -0.374841
   2 C :   -0.190092
   3 N :    0.129890
   4 C :   -0.188213
   5 N :    0.121197
   6 C :    0.015375
   7 C :   -0.005686
   8 C :   -0.083692
   9 C :    0.122380
  10 C :   -0.092393
  11 C :   -0.030817
  12 S :    0.176196
  13 C :   -0.123769
  14 C :    0.034840
  15 Br:    0.011693
  16 C :    0.134373
  17 O :   -0.168377
  18 C :   -0.091885
  19 C :   -0.043737
  20 C :   -0.026031
  21 C :    0.006107
  22 C :    0.020672
  23 C :    0.040285
  24 C :   -0.052492
  25 S :    0.109389
  26 C :   -0.015104
  27 C :    0.017091
  28 C :    0.049378
  29 C :   -0.048933
  30 S :    0.096470
  31 C :    0.013546
  32 C :   -0.151363
  33 S :    0.134664
  34 C :   -0.118183
  35 C :    0.121854
  36 C :    0.170905
  37 O :   -0.167106
  38 C :    0.219008
  39 N :    0.280631
  40 O :   -0.246900
  41 O :   -0.238320
  42 C :   -0.086106
  43 C :    0.024057
  44 C :   -0.021579
  45 C :    0.028016
  46 C :    0.033681
  47 C :   -0.029670
  48 S :    0.083079
  49 C :   -0.037955
  50 C :    0.037371
  51 C :    0.045212
  52 C :   -0.034037
  53 S :    0.087285
  54 C :   -0.026835
  55 C :    0.148551
  56 O :   -0.178532
  57 C :    0.143163
  58 C :    0.000412
  59 C :   -0.047919
  60 C :   -0.019166
  61 O :   -0.136063
  62 C :    0.500499
  63 F :   -0.154919
  64 F :   -0.160185
  65 F :   -0.153576
  66 H :   -0.017345
  67 H :   -0.011623
  68 H :   -0.006931
  69 H :    0.010477
  70 H :    0.015781
  71 H :   -0.001936
  72 H :   -0.008257
  73 H :   -0.008914
  74 H :   -0.001657
  75 H :    0.014699
  76 H :    0.023316
  77 H :    0.002845
  78 H :    0.005252
  79 H :   -0.003745
  80 H :   -0.003228
  81 H :   -0.001113
  82 H :    0.009188
  83 H :    0.024381
  84 H :    0.012389
Sum of atomic charges:   -0.0000000

LOEWDIN ATOMIC CHARGES
----------------------
   0 C :    0.072441
   1 C :   -0.163700
   2 C :   -0.019217
   3 N :   -0.076270
   4 C :   -0.019695
   5 N :   -0.077628
   6 C :   -0.017125
   7 C :   -0.047955
   8 C :    0.015685
   9 C :   -0.037015
  10 C :   -0.146609
  11 C :   -0.015578
  12 S :    0.424929
  13 C :   -0.276084
  14 C :   -0.071146
  15 Br:    0.127354
  16 C :    0.080966
  17 O :   -0.161208
  18 C :   -0.112579
  19 C :    0.043696
  20 C :   -0.073641
  21 C :   -0.106639
  22 C :   -0.046082
  23 C :   -0.011535
  24 C :   -0.196345
  25 S :    0.414688
  26 C :   -0.148134
  27 C :   -0.047809
  28 C :   -0.012006
  29 C :   -0.171071
  30 S :    0.402666
  31 C :   -0.033698
  32 C :   -0.207764
  33 S :    0.451444
  34 C :   -0.138937
  35 C :   -0.086502
  36 C :    0.038412
  37 O :    0.019814
  38 C :    0.016869
  39 N :    0.271738
  40 O :   -0.207316
  41 O :   -0.199866
  42 C :   -0.011772
  43 C :   -0.080404
  44 C :   -0.138494
  45 C :   -0.028077
  46 C :   -0.024805
  47 C :   -0.178511
  48 S :    0.420845
  49 C :   -0.163461
  50 C :   -0.022460
  51 C :   -0.020652
  52 C :   -0.133899
  53 S :    0.411079
  54 C :   -0.063405
  55 C :    0.043220
  56 O :    0.031033
  57 C :    0.047101
  58 C :   -0.034254
  59 C :   -0.125248
  60 C :    0.018632
  61 O :   -0.093000
  62 C :    0.133651
  63 F :   -0.054612
  64 F :   -0.054769
  65 F :   -0.052013
  66 H :    0.038112
  67 H :    0.039381
  68 H :    0.037117
  69 H :    0.030418
  70 H :    0.038099
  71 H :    0.037837
  72 H :    0.034302
  73 H :    0.034050
  74 H :    0.038297
  75 H :    0.051124
  76 H :    0.031564
  77 H :    0.043091
  78 H :    0.040418
  79 H :    0.036289
  80 H :    0.036836
  81 H :    0.038463
  82 H :    0.045590
  83 H :    0.029170
  84 H :    0.042567

  Mayer bond orders larger than 0.100000
B(  0-C ,  1-C ) :   1.5620 B(  0-C ,  6-C ) :   0.9845 B(  0-C , 18-C ) :   1.1317
B(  1-C ,  2-C ) :   1.1530 B(  1-C ,  4-C ) :   1.1582 B(  2-C ,  3-N ) :   2.9592
B(  4-C ,  5-N ) :   2.9536 B(  6-C ,  7-C ) :   1.2793 B(  6-C , 11-C ) :   1.4236
B(  7-C ,  8-C ) :   1.4314 B(  7-C , 16-C ) :   0.9344 B(  8-C ,  9-C ) :   1.2359
B(  8-C , 66-H ) :   1.0166 B(  9-C , 10-C ) :   1.3187 B(  9-C , 14-C ) :   1.1598
B( 10-C , 11-C ) :   1.3166 B( 10-C , 12-S ) :   1.0824 B( 11-C , 67-H ) :   0.9792
B( 12-S , 13-C ) :   1.0850 B( 13-C , 14-C ) :   1.6206 B( 13-C , 15-Br) :   1.0120
B( 14-C , 68-H ) :   1.0004 B( 16-C , 17-O ) :   2.1801 B( 16-C , 18-C ) :   0.9712
B( 18-C , 19-C ) :   1.4419 B( 19-C , 20-C ) :   1.2958 B( 19-C , 69-H ) :   0.9444
B( 20-C , 21-C ) :   1.3751 B( 20-C , 70-H ) :   0.9772 B( 21-C , 22-C ) :   1.2110
B( 21-C , 25-S ) :   1.0915 B( 22-C , 23-C ) :   1.4985 B( 22-C , 71-H ) :   1.0028
B( 23-C , 24-C ) :   1.2555 B( 23-C , 72-H ) :   0.9951 B( 24-C , 25-S ) :   1.0551
B( 24-C , 26-C ) :   1.4039 B( 26-C , 27-C ) :   1.2413 B( 26-C , 30-S ) :   1.0906
B( 27-C , 28-C ) :   1.5229 B( 27-C , 73-H ) :   0.9939 B( 28-C , 29-C ) :   1.2012
B( 28-C , 74-H ) :   1.0001 B( 29-C , 30-S ) :   1.0419 B( 29-C , 31-C ) :   1.4542
B( 31-C , 32-C ) :   1.2847 B( 31-C , 75-H ) :   0.9746 B( 32-C , 33-S ) :   1.0507
B( 32-C , 36-C ) :   1.3497 B( 33-S , 34-C ) :   1.1332 B( 34-C , 35-C ) :   1.2134
B( 34-C , 43-C ) :   1.3105 B( 35-C , 36-C ) :   1.2831 B( 35-C , 42-C ) :   1.1227
B( 36-C , 37-O ) :   1.1674 B( 37-O , 38-C ) :   1.1135 B( 38-C , 39-N ) :   0.9276
B( 38-C , 42-C ) :   1.5425 B( 39-N , 40-O ) :   1.5260 B( 39-N , 41-O ) :   1.4991
B( 40-O , 41-O ) :   0.2769 B( 42-C , 76-H ) :   1.0079 B( 43-C , 44-C ) :   1.4865
B( 43-C , 77-H ) :   0.9375 B( 44-C , 45-C ) :   1.1945 B( 44-C , 48-S ) :   1.0630
B( 45-C , 46-C ) :   1.5388 B( 45-C , 78-H ) :   1.0009 B( 46-C , 47-C ) :   1.2215
B( 46-C , 79-H ) :   0.9937 B( 47-C , 48-S ) :   1.0569 B( 47-C , 49-C ) :   1.4561
B( 49-C , 50-C ) :   1.2054 B( 49-C , 53-S ) :   1.0617 B( 50-C , 51-C ) :   1.5785
B( 50-C , 80-H ) :   0.9930 B( 51-C , 52-C ) :   1.1486 B( 51-C , 81-H ) :   0.9990
B( 52-C , 53-S ) :   1.0428 B( 52-C , 54-C ) :   1.5890 B( 54-C , 55-C ) :   1.1502
B( 54-C , 82-H ) :   0.9555 B( 55-C , 56-O ) :   1.1736 B( 55-C , 59-C ) :   1.4010
B( 56-O , 57-C ) :   1.1243 B( 57-C , 58-C ) :   1.5494 B( 57-C , 83-H ) :   1.0038
B( 58-C , 59-C ) :   1.2474 B( 58-C , 84-H ) :   1.0129 B( 59-C , 60-C ) :   0.9365
B( 60-C , 61-O ) :   2.2228 B( 60-C , 62-C ) :   0.8723 B( 62-C , 63-F ) :   1.1351
B( 62-C , 64-F ) :   1.1603 B( 62-C , 65-F ) :   1.1518

-----------------------------------------------------------------------------
         ABSORPTION SPECTRUM VIA TRANSITION ELECTRIC DIPOLE MOMENTS
-----------------------------------------------------------------------------
State   Energy  Wavelength   fosc         T2         TX        TY        TZ
        (cm-1)    (nm)                  (au**2)     (au)      (au)      (au)
-----------------------------------------------------------------------------
   0    6079.7   1644.8   0.950210006  51.45307   1.00289   3.03940  -6.41945
   1   12459.3    802.6   0.042624726   1.12627   0.32703  -0.51946  -0.86573
   2   13781.4    725.6   0.624966705  14.92928   1.07749  -3.57425  -0.99650
   3   17898.6    558.7   0.075820564   1.39458  -0.41187   0.09932   1.10231
   4   19991.1    500.2   0.206329292   3.39781  -0.33962   1.41144  -1.13592
   5   21307.7    469.3   0.657595602  10.16012  -1.41924   2.66230   1.02860
   6   21554.3    463.9   0.069831181   1.06657  -0.44299   0.92658   0.10858
   7   22633.7    441.8   0.113636413   1.65287   0.27731   0.19390  -1.24031
   8   23316.9    428.9   0.249714049   3.52573   0.77878  -1.05913  -1.34070
   9   24521.9    407.8   0.211766089   2.84301  -0.71060   0.78418   1.31267
  10   26157.8    382.3   0.000938715   0.01181  -0.01493   0.01175   0.10702
  11   26427.8    378.4   0.064313948   0.80116   0.06789  -0.07691  -0.88918
  12   27149.9    368.3   0.073966779   0.89690   0.39065  -0.73728  -0.44801
  13   27381.9    365.2   0.031968885   0.38436  -0.31598   0.43404   0.31005
  14   28069.3    356.3   0.018499131   0.21697   0.17383  -0.43165  -0.02059
  15   28674.2    348.7   0.168426289   1.93372  -0.43738   0.22328   1.30099
  16   29333.0    340.9   0.017651575   0.19811  -0.06148   0.35060  -0.26722
  17   29559.3    338.3   0.047738143   0.53168   0.27109  -0.67207   0.08070
  18   29677.4    337.0   0.058629558   0.65038   0.06341   0.11247  -0.79606
  19   30015.8    333.2   0.161325567   1.76941  -0.27837   0.02047   1.30058
  20   30118.5    332.0   0.172457030   1.88505  -0.49241   0.41073   1.21404
  21   30967.2    322.9   0.033594075   0.35714   0.35476  -0.04136  -0.47914
  22   31818.9    314.3   0.008979913   0.09291  -0.08272  -0.00971   0.29321
  23   31884.0    313.6   0.150999142   1.55911   0.24529   0.00403  -1.22431
  24   31967.9    312.8   0.044867735   0.46206   0.23878  -0.07167  -0.63238
  25   32181.9    310.7   0.056347621   0.57642  -0.34637   0.29001   0.61020
  26   32915.7    303.8   0.096477478   0.96494   0.13734  -0.16291  -0.95892
  27   33099.9    302.1   0.091595939   0.91101  -0.21727  -0.19129   0.90952
  28   33250.6    300.7   0.083144379   0.82321  -0.26890  -0.08190   0.86267
  29   33770.1    296.1   0.049317617   0.48078  -0.13817   0.29851  -0.61040
  30   33869.2    295.3   0.048151330   0.46804  -0.30663   0.60385   0.09683
  31   33882.7    295.1   0.060678927   0.58957  -0.22442   0.33293   0.65450
  32   34293.7    291.6   0.000329970   0.00317  -0.03794  -0.03925  -0.01371
  33   34503.2    289.8   0.016549374   0.15791  -0.16703   0.35525   0.06166
  34   35087.3    285.0   0.182286956   1.71033   0.12137   0.34157  -1.25656
  35   35238.4    283.8   0.233855014   2.18477  -0.26618  -0.49378   1.36752
  36   36006.4    277.7   0.019220164   0.17573  -0.17433   0.29422  -0.24243
  37   36274.9    275.7   0.000165592   0.00150   0.00756  -0.01865  -0.03314
  38   36821.5    271.6   0.019070383   0.17050   0.04341   0.28539  -0.29525
  39   36916.4    270.9   0.022191985   0.19790   0.08226  -0.02838  -0.43627
  40   37186.3    268.9   0.038976072   0.34506  -0.13164  -0.21879   0.52902
  41   37611.9    265.9   0.039446960   0.34527  -0.00458   0.34379  -0.47651
  42   38151.4    262.1   0.014164330   0.12223  -0.10725   0.32811  -0.05536
  43   38644.8    258.8   0.026060800   0.22201  -0.10892   0.45155  -0.07904
  44   39035.9    256.2   0.027357785   0.23072  -0.08626   0.46886  -0.05872
  45   39194.8    255.1   0.117321897   0.98543   0.13285  -0.56439   0.80576
  46   39608.9    252.5   0.008074202   0.06711  -0.13089   0.20251  -0.09468
  47   39692.4    251.9   0.152599894   1.26567   0.21516   0.02599  -1.10395
  48   39979.3    250.1   0.127064910   1.04632  -0.35711   0.85284   0.43756
  49   40081.3    249.5   0.049401217   0.40576   0.22528  -0.53835  -0.25533

FINAL SINGLE POINT ENERGY     -7676.396692034227

DIPOLE MOMENT
-------------
                                X             Y             Z
Electronic contribution:     39.56231     -32.66240    -119.07415
Nuclear contribution   :    -39.69744      32.37113     121.26054
                        -----------------------------------------
Total Dipole Moment    :     -0.13512      -0.29127       2.18638
                        -----------------------------------------
Magnitude (a.u.)       :      2.20983
Magnitude (Debye)      :      5.61695

Rotational constants in cm-1:     0.001317     0.000229     0.000199
Rotational constants in MHz :    39.471448     6.865865     5.955544

                             ****ORCA TERMINATED NORMALLY****
TOTAL RUN TIME: 0 days 0 hours 8 minutes 7 seconds 323 msec
