                         Program Version 4.2.0 -  RELEASE  -
|  1> # ORCA input file
|  2> # SCF done       -198.622457073802          0.000558457771
|  3> ! CAM-B3LYP def2-SVP def2/J RIJCOSX Grid4 TightSCF
|  4> %maxcore 5000
|  5> %tddft
|  6>     Mode sTDDFT
|  7>     Ethresh 5.0
|  8>     maxcore 5000
|  9> end
| 10>
| 11> %pal
| 12>   nprocs 6
| 13>   end
| 14> * xyz 0 1
| 15>    C      -17.54270       -14.68444         4.34764
| 16>    C      -17.16533       -14.51721         3.03435
| 17>    C      -17.52914       -15.39028         1.99066
| 18>    N      -17.78981       -16.05974         1.09397
| 19>    C      -16.36467       -13.47186         2.53418
| 20>    N      -15.71692       -12.65956         2.04197
| 21>    C      -18.36607       -15.78388         4.84963
| 22>    C      -18.52882       -15.62607         6.24713
| 23>    C      -19.25431       -16.50350         7.01366
| 24>    C      -19.84900       -17.59477         6.37026
| 25>    C      -19.68008       -17.74569         4.97487
| 26>    C      -18.94649       -16.85534         4.19888
| 27>    S      -20.49452       -19.16251         4.38207
| 28>    C      -21.04289       -19.52629         5.99670
| 29>    C      -20.63905       -18.63521         6.93230
| 30>   Br      -22.09644       -21.04998         6.29523
| 31>    C      -17.80710       -14.41285         6.68694
| 32>    O      -17.74116       -13.99267         7.82668
| 33>    C      -17.20332       -13.84517         5.46722
| 34>    C      -16.43662       -12.69671         5.43516
| 35>    C      -16.09693       -11.93447         6.54714
| 36>    C      -15.30572       -10.80432         6.47412
| 37>    C      -14.87441       -10.01014         7.56108
| 38>    C      -14.07070        -8.96719         7.20685
| 39>    C      -13.83706        -8.87934         5.81761
| 40>    S      -14.67131       -10.16795         4.97431
| 41>    C      -13.06810        -7.94559         5.14828
| 42>    C      -12.30422        -6.89400         5.70817
| 43>    C      -11.63383        -6.14474         4.79377
| 44>    C      -11.83776        -6.55562         3.45071
| 45>    S      -12.91565        -7.95345         3.40905
| 46>    C      -11.30174        -5.97483         2.34162
| 47>    N      -11.54665        -6.37889         1.07118
| 48>    C      -10.95040        -5.87288        -0.05052
| 49>    S      -11.86662        -5.83326        -1.52984
| 50>    C      -10.56760        -4.97825        -2.29511
| 51>    N      -10.71323        -4.63467        -3.64225
| 52>    O       -9.80121        -4.02709        -4.17332
| 53>    O      -11.75263        -4.97140        -4.18509
| 54>    C       -9.50588        -4.74665        -1.45954
| 55>    C       -9.69268        -5.27661        -0.17109
| 56>    C       -8.64427        -5.26861         0.83419
| 57>    C       -8.40963        -6.29394         1.66694
| 58>    C       -7.40964        -6.35914         2.70941
| 59>    C       -6.72328        -5.22595         3.16965
| 60>    C       -5.82284        -5.35284         4.19810
| 61>    C       -5.57101        -6.60637         4.78332
| 62>    C       -6.23951        -7.73516         4.33311
| 63>    C       -7.15611        -7.59841         3.31058
| 64>    C       -4.59590        -6.43541         5.83779
| 65>    C       -4.25242        -5.07547         5.91438
| 66>    C       -5.00537        -4.27696         4.87505
| 67>    C       -4.04367        -3.59214         3.88697
| 68>    C       -3.10870        -4.57699         3.19565
| 69>    C       -5.91310        -3.21892         5.52993
| 70>    C       -6.90508        -3.82106         6.51805
| 71>    C       -3.34771        -4.63694         6.84885
| 72>    C       -2.75285        -5.55091         7.73420
| 73>    C       -3.10530        -6.90422         7.63846
| 74>    C       -4.01676        -7.35105         6.70443
| 75>    C       -1.81364        -5.04978         8.71112
| 76>    C       -1.09474        -5.78044         9.58371
| 77>    C       -0.18384        -5.25212        10.55510
| 78>    C        0.56230        -6.01435        11.44040
| 79>    C        1.33653        -5.14271        12.26352
| 80>    C        2.21814        -5.39030        13.28551
| 81>    C        2.81839        -4.28225        13.91304
| 82>    C        3.72588        -4.19759        14.95889
| 83>    C        4.01301        -2.82001        15.21795
| 84>    C        3.28114        -2.05800        14.32677
| 85>    C        2.51642        -2.93103        13.48953
| 86>    C        1.63827        -2.68266        12.46740
| 87>    C        1.03389        -3.79143        11.84049
| 88>    C        0.11498        -3.87342        10.80675
| 89>    C        4.90248        -2.29658        16.22685
| 90>    C        5.60160        -3.02169        17.09558
| 91>    H      -19.35977       -16.35468         8.07693
| 92>    H      -18.84902       -17.01605         3.13841
| 93>    H      -20.88626       -18.70644         7.97581
| 94>    H      -16.05523       -12.35996         4.47890
| 95>    H      -16.45043       -12.24133         7.52083
| 96>    H      -15.16723       -10.24034         8.56988
| 97>    H      -13.64868        -8.26507         7.90316
| 98>    H      -12.26658        -6.72826         6.76922
| 99>    H      -10.99720        -5.31178         5.03192
|100>    H      -10.62842        -5.13941         2.45565
|101>    H      -12.30026        -7.04411         0.93720
|102>    H       -8.61414        -4.24217        -1.78542
|103>    H       -8.00102        -4.40056         0.82258
|104>    H       -9.01587        -7.18634         1.56816
|105>    H       -6.91963        -4.25923         2.73078
|106>    H       -6.05509        -8.70107         4.77878
|107>    H       -7.69204        -8.46734         2.95539
|108>    H       -3.45257        -2.85240         4.43096
|109>    H       -4.63201        -3.06117         3.13522
|110>    H       -2.49876        -5.10371         3.92613
|111>    H       -2.44806        -4.04913         2.51180
|112>    H       -3.67564        -5.31231         2.62881
|113>    H       -6.45810        -2.68953         4.74501
|114>    H       -5.28455        -2.49140         6.04740
|115>    H       -7.55449        -4.53938         6.02154
|116>    H       -7.52287        -3.03859         6.95327
|117>    H       -6.38128        -4.33355         7.32176
|118>    H       -3.08321        -3.59045         6.91252
|119>    H       -2.66082        -7.61737         8.31498
|120>    H       -4.27557        -8.39835         6.65152
|121>    H       -1.69595        -3.97381         8.71482
|122>    H       -1.18014        -6.85886         9.58820
|123>    H        0.56276        -7.08733        11.50568
|124>    H        2.44955        -6.39628        13.60719
|125>    H        4.14699        -5.03061        15.49164
|126>    H        3.27761        -0.98481        14.26437
|127>    H        1.40618        -1.67664        12.14598
|128>    H       -0.30961        -3.03799        10.28033
|129>    H        4.97924        -1.21631        16.24869
|130>    H        5.55685        -4.09712        17.11460
|131>    H        6.24548        -2.56078        17.82438
|132> *
|133>
|134>                          ****END OF INPUT****

CARTESIAN COORDINATES (ANGSTROEM)
---------------------------------
  C    -17.542700  -14.684440    4.347640
  C    -17.165330  -14.517210    3.034350
  C    -17.529140  -15.390280    1.990660
  N    -17.789810  -16.059740    1.093970
  C    -16.364670  -13.471860    2.534180
  N    -15.716920  -12.659560    2.041970
  C    -18.366070  -15.783880    4.849630
  C    -18.528820  -15.626070    6.247130
  C    -19.254310  -16.503500    7.013660
  C    -19.849000  -17.594770    6.370260
  C    -19.680080  -17.745690    4.974870
  C    -18.946490  -16.855340    4.198880
  S    -20.494520  -19.162510    4.382070
  C    -21.042890  -19.526290    5.996700
  C    -20.639050  -18.635210    6.932300
  Br   -22.096440  -21.049980    6.295230
  C    -17.807100  -14.412850    6.686940
  O    -17.741160  -13.992670    7.826680
  C    -17.203320  -13.845170    5.467220
  C    -16.436620  -12.696710    5.435160
  C    -16.096930  -11.934470    6.547140
  C    -15.305720  -10.804320    6.474120
  C    -14.874410  -10.010140    7.561080
  C    -14.070700   -8.967190    7.206850
  C    -13.837060   -8.879340    5.817610
  S    -14.671310  -10.167950    4.974310
  C    -13.068100   -7.945590    5.148280
  C    -12.304220   -6.894000    5.708170
  C    -11.633830   -6.144740    4.793770
  C    -11.837760   -6.555620    3.450710
  S    -12.915650   -7.953450    3.409050
  C    -11.301740   -5.974830    2.341620
  N    -11.546650   -6.378890    1.071180
  C    -10.950400   -5.872880   -0.050520
  S    -11.866620   -5.833260   -1.529840
  C    -10.567600   -4.978250   -2.295110
  N    -10.713230   -4.634670   -3.642250
  O     -9.801210   -4.027090   -4.173320
  O    -11.752630   -4.971400   -4.185090
  C     -9.505880   -4.746650   -1.459540
  C     -9.692680   -5.276610   -0.171090
  C     -8.644270   -5.268610    0.834190
  C     -8.409630   -6.293940    1.666940
  C     -7.409640   -6.359140    2.709410
  C     -6.723280   -5.225950    3.169650
  C     -5.822840   -5.352840    4.198100
  C     -5.571010   -6.606370    4.783320
  C     -6.239510   -7.735160    4.333110
  C     -7.156110   -7.598410    3.310580
  C     -4.595900   -6.435410    5.837790
  C     -4.252420   -5.075470    5.914380
  C     -5.005370   -4.276960    4.875050
  C     -4.043670   -3.592140    3.886970
  C     -3.108700   -4.576990    3.195650
  C     -5.913100   -3.218920    5.529930
  C     -6.905080   -3.821060    6.518050
  C     -3.347710   -4.636940    6.848850
  C     -2.752850   -5.550910    7.734200
  C     -3.105300   -6.904220    7.638460
  C     -4.016760   -7.351050    6.704430
  C     -1.813640   -5.049780    8.711120
  C     -1.094740   -5.780440    9.583710
  C     -0.183840   -5.252120   10.555100
  C      0.562300   -6.014350   11.440400
  C      1.336530   -5.142710   12.263520
  C      2.218140   -5.390300   13.285510
  C      2.818390   -4.282250   13.913040
  C      3.725880   -4.197590   14.958890
  C      4.013010   -2.820010   15.217950
  C      3.281140   -2.058000   14.326770
  C      2.516420   -2.931030   13.489530
  C      1.638270   -2.682660   12.467400
  C      1.033890   -3.791430   11.840490
  C      0.114980   -3.873420   10.806750
  C      4.902480   -2.296580   16.226850
  C      5.601600   -3.021690   17.095580
  H    -19.359770  -16.354680    8.076930
  H    -18.849020  -17.016050    3.138410
  H    -20.886260  -18.706440    7.975810
  H    -16.055230  -12.359960    4.478900
  H    -16.450430  -12.241330    7.520830
  H    -15.167230  -10.240340    8.569880
  H    -13.648680   -8.265070    7.903160
  H    -12.266580   -6.728260    6.769220
  H    -10.997200   -5.311780    5.031920
  H    -10.628420   -5.139410    2.455650
  H    -12.300260   -7.044110    0.937200
  H     -8.614140   -4.242170   -1.785420
  H     -8.001020   -4.400560    0.822580
  H     -9.015870   -7.186340    1.568160
  H     -6.919630   -4.259230    2.730780
  H     -6.055090   -8.701070    4.778780
  H     -7.692040   -8.467340    2.955390
  H     -3.452570   -2.852400    4.430960
  H     -4.632010   -3.061170    3.135220
  H     -2.498760   -5.103710    3.926130
  H     -2.448060   -4.049130    2.511800
  H     -3.675640   -5.312310    2.628810
  H     -6.458100   -2.689530    4.745010
  H     -5.284550   -2.491400    6.047400
  H     -7.554490   -4.539380    6.021540
  H     -7.522870   -3.038590    6.953270
  H     -6.381280   -4.333550    7.321760
  H     -3.083210   -3.590450    6.912520
  H     -2.660820   -7.617370    8.314980
  H     -4.275570   -8.398350    6.651520
  H     -1.695950   -3.973810    8.714820
  H     -1.180140   -6.858860    9.588200
  H      0.562760   -7.087330   11.505680
  H      2.449550   -6.396280   13.607190
  H      4.146990   -5.030610   15.491640
  H      3.277610   -0.984810   14.264370
  H      1.406180   -1.676640   12.145980
  H     -0.309610   -3.037990   10.280330
  H      4.979240   -1.216310   16.248690
  H      5.556850   -4.097120   17.114600
  H      6.245480   -2.560780   17.824380

 Total Charge           Charge          ....    0
 Multiplicity           Mult            ....    1
 Number of Electrons    NEL             ....  576
 Basis Dimension        Dim             .... 1303

ORBITAL ENERGIES
----------------

  NO   OCC          E(Eh)            E(eV)
   0   2.0000    -482.875545    -13139.7116
   1   2.0000     -88.990199     -2421.5464
   2   2.0000     -88.971156     -2421.0282
   3   2.0000     -88.962954     -2420.8050
   4   2.0000     -88.957647     -2420.6606
   5   2.0000     -62.553253     -1702.1605
   6   2.0000     -56.387190     -1534.3734
   7   2.0000     -56.384501     -1534.3003
   8   2.0000     -56.384460     -1534.2992
   9   2.0000     -19.239567      -523.5352
  10   2.0000     -19.238962      -523.5188
  11   2.0000     -19.197032      -522.3778
  12   2.0000     -14.651181      -398.6789
  13   2.0000     -14.499833      -394.5605
  14   2.0000     -14.398810      -391.8115
  15   2.0000     -14.395730      -391.7277
  16   2.0000     -10.374305      -282.2992
  17   2.0000     -10.356999      -281.8283
  18   2.0000     -10.347696      -281.5751
  19   2.0000     -10.347324      -281.5650
  20   2.0000     -10.346643      -281.5465
  21   2.0000     -10.340861      -281.3891
  22   2.0000     -10.325825      -280.9800
  23   2.0000     -10.324769      -280.9513
  24   2.0000     -10.321232      -280.8550
  25   2.0000     -10.318879      -280.7910
  26   2.0000     -10.318833      -280.7897
  27   2.0000     -10.313271      -280.6384
  28   2.0000     -10.313239      -280.6375
  29   2.0000     -10.310892      -280.5736
  30   2.0000     -10.307843      -280.4907
  31   2.0000     -10.304430      -280.3978
  32   2.0000     -10.303065      -280.3606
  33   2.0000     -10.303041      -280.3600
  34   2.0000     -10.300290      -280.2851
  35   2.0000     -10.298735      -280.2428
  36   2.0000     -10.298605      -280.2393
  37   2.0000     -10.294783      -280.1353
  38   2.0000     -10.292967      -280.0859
  39   2.0000     -10.292637      -280.0769
  40   2.0000     -10.291422      -280.0438
  41   2.0000     -10.290614      -280.0219
  42   2.0000     -10.289633      -279.9952
  43   2.0000     -10.289488      -279.9912
  44   2.0000     -10.286599      -279.9126
  45   2.0000     -10.285555      -279.8842
  46   2.0000     -10.284974      -279.8684
  47   2.0000     -10.283792      -279.8362
  48   2.0000     -10.283542      -279.8294
  49   2.0000     -10.283280      -279.8223
  50   2.0000     -10.279666      -279.7239
  51   2.0000     -10.279023      -279.7064
  52   2.0000     -10.278370      -279.6887
  53   2.0000     -10.277913      -279.6762
  54   2.0000     -10.277364      -279.6613
  55   2.0000     -10.275243      -279.6036
  56   2.0000     -10.275164      -279.6014
  57   2.0000     -10.274308      -279.5781
  58   2.0000     -10.272682      -279.5339
  59   2.0000     -10.272505      -279.5291
  60   2.0000     -10.271846      -279.5111
  61   2.0000     -10.271629      -279.5052
  62   2.0000     -10.271601      -279.5045
  63   2.0000     -10.270900      -279.4854
  64   2.0000     -10.270586      -279.4769
  65   2.0000     -10.270253      -279.4678
  66   2.0000     -10.270010      -279.4612
  67   2.0000     -10.269036      -279.4347
  68   2.0000     -10.268985      -279.4333
  69   2.0000     -10.268911      -279.4313
  70   2.0000     -10.268573      -279.4221
  71   2.0000     -10.268428      -279.4181
  72   2.0000     -10.267256      -279.3862
  73   2.0000     -10.265060      -279.3265
  74   2.0000     -10.264610      -279.3142
  75   2.0000     -10.264438      -279.3096
  76   2.0000     -10.264195      -279.3029
  77   2.0000     -10.257653      -279.1249
  78   2.0000     -10.255224      -279.0588
  79   2.0000     -10.250486      -278.9299
  80   2.0000      -8.782673      -238.9887
  81   2.0000      -8.085988      -220.0309
  82   2.0000      -8.067496      -219.5277
  83   2.0000      -8.058889      -219.2935
  84   2.0000      -8.053590      -219.1493
  85   2.0000      -6.618920      -180.1100
  86   2.0000      -6.604411      -179.7152
  87   2.0000      -6.604266      -179.7112
  88   2.0000      -6.055610      -164.7815
  89   2.0000      -6.051225      -164.6622
  90   2.0000      -6.047456      -164.5596
  91   2.0000      -6.037252      -164.2820
  92   2.0000      -6.033230      -164.1725
  93   2.0000      -6.028599      -164.0465
  94   2.0000      -6.028354      -164.0399
  95   2.0000      -6.024311      -163.9298
  96   2.0000      -6.023159      -163.8985
  97   2.0000      -6.020120      -163.8158
  98   2.0000      -6.019218      -163.7913
  99   2.0000      -6.014763      -163.6700
 100   2.0000      -2.734786       -74.4173
 101   2.0000      -2.730750       -74.3075
 102   2.0000      -2.730594       -74.3032
 103   2.0000      -2.719083       -73.9900
 104   2.0000      -2.719069       -73.9896
 105   2.0000      -1.320009       -35.9193
 106   2.0000      -1.139116       -30.9969
 107   2.0000      -1.110404       -30.2156
 108   2.0000      -1.103767       -30.0350
 109   2.0000      -1.016599       -27.6631
 110   2.0000      -1.007875       -27.4257
 111   2.0000      -1.007210       -27.4076
 112   2.0000      -0.996884       -27.1266
 113   2.0000      -0.992775       -27.0148
 114   2.0000      -0.987556       -26.8728
 115   2.0000      -0.986354       -26.8401
 116   2.0000      -0.976621       -26.5752
 117   2.0000      -0.971969       -26.4486
 118   2.0000      -0.960749       -26.1433
 119   2.0000      -0.952453       -25.9176
 120   2.0000      -0.929239       -25.2859
 121   2.0000      -0.928460       -25.2647
 122   2.0000      -0.917252       -24.9597
 123   2.0000      -0.910992       -24.7893
 124   2.0000      -0.900739       -24.5104
 125   2.0000      -0.898549       -24.4507
 126   2.0000      -0.892759       -24.2932
 127   2.0000      -0.887322       -24.1453
 128   2.0000      -0.878437       -23.9035
 129   2.0000      -0.870971       -23.7003
 130   2.0000      -0.868957       -23.6455
 131   2.0000      -0.863058       -23.4850
 132   2.0000      -0.862362       -23.4661
 133   2.0000      -0.860336       -23.4109
 134   2.0000      -0.851117       -23.1601
 135   2.0000      -0.843609       -22.9558
 136   2.0000      -0.840294       -22.8656
 137   2.0000      -0.838154       -22.8073
 138   2.0000      -0.835953       -22.7474
 139   2.0000      -0.833006       -22.6673
 140   2.0000      -0.831262       -22.6198
 141   2.0000      -0.814700       -22.1691
 142   2.0000      -0.806778       -21.9535
 143   2.0000      -0.797650       -21.7051
 144   2.0000      -0.796175       -21.6650
 145   2.0000      -0.777945       -21.1690
 146   2.0000      -0.768763       -20.9191
 147   2.0000      -0.766449       -20.8561
 148   2.0000      -0.761645       -20.7254
 149   2.0000      -0.746212       -20.3055
 150   2.0000      -0.742261       -20.1980
 151   2.0000      -0.738902       -20.1065
 152   2.0000      -0.731626       -19.9085
 153   2.0000      -0.722723       -19.6663
 154   2.0000      -0.715615       -19.4729
 155   2.0000      -0.704618       -19.1736
 156   2.0000      -0.695687       -18.9306
 157   2.0000      -0.686920       -18.6920
 158   2.0000      -0.681309       -18.5394
 159   2.0000      -0.680528       -18.5181
 160   2.0000      -0.679050       -18.4779
 161   2.0000      -0.675967       -18.3940
 162   2.0000      -0.672832       -18.3087
 163   2.0000      -0.668840       -18.2001
 164   2.0000      -0.664600       -18.0847
 165   2.0000      -0.657363       -17.8878
 166   2.0000      -0.654348       -17.8057
 167   2.0000      -0.643738       -17.5170
 168   2.0000      -0.642339       -17.4789
 169   2.0000      -0.641383       -17.4529
 170   2.0000      -0.636502       -17.3201
 171   2.0000      -0.632430       -17.2093
 172   2.0000      -0.631605       -17.1868
 173   2.0000      -0.629747       -17.1363
 174   2.0000      -0.621779       -16.9195
 175   2.0000      -0.620357       -16.8808
 176   2.0000      -0.618202       -16.8221
 177   2.0000      -0.607759       -16.5380
 178   2.0000      -0.604037       -16.4367
 179   2.0000      -0.597101       -16.2479
 180   2.0000      -0.596953       -16.2439
 181   2.0000      -0.593773       -16.1574
 182   2.0000      -0.590937       -16.0802
 183   2.0000      -0.584673       -15.9098
 184   2.0000      -0.579132       -15.7590
 185   2.0000      -0.578983       -15.7549
 186   2.0000      -0.578382       -15.7386
 187   2.0000      -0.574759       -15.6400
 188   2.0000      -0.562224       -15.2989
 189   2.0000      -0.560979       -15.2650
 190   2.0000      -0.550981       -14.9930
 191   2.0000      -0.548959       -14.9379
 192   2.0000      -0.545739       -14.8503
 193   2.0000      -0.544774       -14.8241
 194   2.0000      -0.541460       -14.7339
 195   2.0000      -0.537080       -14.6147
 196   2.0000      -0.533553       -14.5187
 197   2.0000      -0.530616       -14.4388
 198   2.0000      -0.529795       -14.4165
 199   2.0000      -0.526847       -14.3362
 200   2.0000      -0.524008       -14.2590
 201   2.0000      -0.523516       -14.2456
 202   2.0000      -0.522729       -14.2242
 203   2.0000      -0.520525       -14.1642
 204   2.0000      -0.517347       -14.0777
 205   2.0000      -0.515720       -14.0335
 206   2.0000      -0.514449       -13.9989
 207   2.0000      -0.510982       -13.9045
 208   2.0000      -0.508505       -13.8371
 209   2.0000      -0.506542       -13.7837
 210   2.0000      -0.503753       -13.7078
 211   2.0000      -0.500351       -13.6152
 212   2.0000      -0.494657       -13.4603
 213   2.0000      -0.493893       -13.4395
 214   2.0000      -0.493248       -13.4219
 215   2.0000      -0.491821       -13.3831
 216   2.0000      -0.490286       -13.3413
 217   2.0000      -0.489827       -13.3289
 218   2.0000      -0.482450       -13.1281
 219   2.0000      -0.482192       -13.1211
 220   2.0000      -0.481135       -13.0924
 221   2.0000      -0.478604       -13.0235
 222   2.0000      -0.476636       -12.9699
 223   2.0000      -0.476066       -12.9544
 224   2.0000      -0.475032       -12.9263
 225   2.0000      -0.474116       -12.9013
 226   2.0000      -0.471853       -12.8398
 227   2.0000      -0.471240       -12.8231
 228   2.0000      -0.464604       -12.6425
 229   2.0000      -0.463728       -12.6187
 230   2.0000      -0.459232       -12.4963
 231   2.0000      -0.456725       -12.4281
 232   2.0000      -0.454681       -12.3725
 233   2.0000      -0.453525       -12.3410
 234   2.0000      -0.452658       -12.3175
 235   2.0000      -0.450468       -12.2579
 236   2.0000      -0.444950       -12.1077
 237   2.0000      -0.444587       -12.0978
 238   2.0000      -0.442753       -12.0479
 239   2.0000      -0.442265       -12.0347
 240   2.0000      -0.436852       -11.8873
 241   2.0000      -0.433817       -11.8048
 242   2.0000      -0.433245       -11.7892
 243   2.0000      -0.431459       -11.7406
 244   2.0000      -0.430980       -11.7276
 245   2.0000      -0.427155       -11.6235
 246   2.0000      -0.425787       -11.5862
 247   2.0000      -0.424827       -11.5601
 248   2.0000      -0.420658       -11.4467
 249   2.0000      -0.417625       -11.3642
 250   2.0000      -0.414962       -11.2917
 251   2.0000      -0.413463       -11.2509
 252   2.0000      -0.412742       -11.2313
 253   2.0000      -0.412528       -11.2254
 254   2.0000      -0.409605       -11.1459
 255   2.0000      -0.406619       -11.0647
 256   2.0000      -0.403974       -10.9927
 257   2.0000      -0.397276       -10.8104
 258   2.0000      -0.395267       -10.7558
 259   2.0000      -0.393561       -10.7093
 260   2.0000      -0.392125       -10.6703
 261   2.0000      -0.390527       -10.6268
 262   2.0000      -0.387570       -10.5463
 263   2.0000      -0.387004       -10.5309
 264   2.0000      -0.379992       -10.3401
 265   2.0000      -0.375741       -10.2244
 266   2.0000      -0.373471       -10.1627
 267   2.0000      -0.367797       -10.0083
 268   2.0000      -0.366814        -9.9815
 269   2.0000      -0.365456        -9.9446
 270   2.0000      -0.365162        -9.9366
 271   2.0000      -0.357211        -9.7202
 272   2.0000      -0.353630        -9.6228
 273   2.0000      -0.346862        -9.4386
 274   2.0000      -0.337613        -9.1869
 275   2.0000      -0.331177        -9.0118
 276   2.0000      -0.326823        -8.8933
 277   2.0000      -0.319329        -8.6894
 278   2.0000      -0.317397        -8.6368
 279   2.0000      -0.316754        -8.6193
 280   2.0000      -0.301359        -8.2004
 281   2.0000      -0.297300        -8.0899
 282   2.0000      -0.285833        -7.7779
 283   2.0000      -0.278657        -7.5827
 284   2.0000      -0.267168        -7.2700
 285   2.0000      -0.264201        -7.1893
 286   2.0000      -0.231542        -6.3006
 287   2.0000      -0.225519        -6.1367
 288   0.0000      -0.102835        -2.7983
 289   0.0000      -0.094323        -2.5667
 290   0.0000      -0.062118        -1.6903
 291   0.0000      -0.050551        -1.3756
 292   0.0000      -0.046252        -1.2586

MULLIKEN ATOMIC CHARGES
-----------------------
   0 C :    0.332919
   1 C :   -0.367050
   2 C :   -0.186972
   3 N :    0.132269
   4 C :   -0.188427
   5 N :    0.124965
   6 C :    0.011605
   7 C :   -0.007770
   8 C :   -0.078882
   9 C :    0.116093
  10 C :   -0.092680
  11 C :   -0.025961
  12 S :    0.178203
  13 C :   -0.124052
  14 C :    0.038347
  15 Br:    0.012921
  16 C :    0.135675
  17 O :   -0.169046
  18 C :   -0.090534
  19 C :   -0.039396
  20 C :   -0.028906
  21 C :    0.007370
  22 C :    0.023836
  23 C :    0.043641
  24 C :   -0.060987
  25 S :    0.104830
  26 C :   -0.029297
  27 C :    0.014886
  28 C :    0.059885
  29 C :   -0.069263
  30 S :    0.088264
  31 C :    0.058499
  32 N :   -0.034186
  33 C :   -0.131363
  34 S :    0.187632
  35 C :   -0.011172
  36 N :    0.277593
  37 O :   -0.248838
  38 O :   -0.263024
  39 C :    0.008118
  40 C :    0.102103
  41 C :   -0.050761
  42 C :   -0.003128
  43 C :    0.104175
  44 C :   -0.091922
  45 C :    0.010875
  46 C :    0.113668
  47 C :   -0.049568
  48 C :   -0.017706
  49 C :    0.101182
  50 C :    0.021511
  51 C :   -0.139815
  52 C :    0.067638
  53 C :    0.023748
  54 C :    0.069688
  55 C :    0.024681
  56 C :   -0.116964
  57 C :    0.139270
  58 C :   -0.018774
  59 C :   -0.042707
  60 C :   -0.020970
  61 C :    0.038937
  62 C :    0.076465
  63 C :   -0.043894
  64 C :    0.063516
  65 C :   -0.002214
  66 C :    0.042974
  67 C :   -0.021957
  68 C :    0.062489
  69 C :   -0.034548
  70 C :    0.059439
  71 C :   -0.002535
  72 C :    0.048865
  73 C :   -0.031017
  74 C :    0.010896
  75 C :   -0.027450
  76 H :   -0.015778
  77 H :   -0.009198
  78 H :   -0.007098
  79 H :    0.011225
  80 H :    0.014382
  81 H :   -0.002431
  82 H :   -0.007228
  83 H :   -0.005650
  84 H :    0.000441
  85 H :    0.042283
  86 H :    0.149629
  87 H :    0.011392
  88 H :   -0.000599
  89 H :   -0.001360
  90 H :   -0.046788
  91 H :   -0.032743
  92 H :   -0.026148
  93 H :   -0.001076
  94 H :   -0.005423
  95 H :    0.025342
  96 H :    0.009976
  97 H :    0.020488
  98 H :   -0.006196
  99 H :   -0.000826
 100 H :    0.013468
 101 H :    0.006827
 102 H :    0.025950
 103 H :   -0.045198
 104 H :   -0.032014
 105 H :   -0.038194
 106 H :   -0.036541
 107 H :   -0.029406
 108 H :   -0.030159
 109 H :   -0.027301
 110 H :   -0.025763
 111 H :   -0.028835
 112 H :   -0.028208
 113 H :   -0.026564
 114 H :   -0.018888
 115 H :    0.008092
 116 H :    0.020181
Sum of atomic charges:   -0.0000000

LOEWDIN ATOMIC CHARGES
----------------------
   0 C :    0.073845
   1 C :   -0.159475
   2 C :   -0.019041
   3 N :   -0.070928
   4 C :   -0.019622
   5 N :   -0.072334
   6 C :   -0.018039
   7 C :   -0.048358
   8 C :    0.016209
   9 C :   -0.036418
  10 C :   -0.146166
  11 C :   -0.014060
  12 S :    0.426491
  13 C :   -0.275290
  14 C :   -0.071151
  15 Br:    0.128573
  16 C :    0.081722
  17 O :   -0.160758
  18 C :   -0.112462
  19 C :    0.050113
  20 C :   -0.079230
  21 C :   -0.101572
  22 C :   -0.046648
  23 C :   -0.006861
  24 C :   -0.204116
  25 S :    0.406108
  26 C :   -0.139656
  27 C :   -0.050374
  28 C :   -0.002021
  29 C :   -0.201901
  30 S :    0.371788
  31 C :    0.038193
  32 N :    0.038522
  33 C :   -0.117389
  34 S :    0.461274
  35 C :   -0.207834
  36 N :    0.273942
  37 O :   -0.215388
  38 O :   -0.228611
  39 C :    0.002610
  40 C :   -0.093641
  41 C :   -0.046075
  42 C :   -0.006800
  43 C :   -0.035524
  44 C :   -0.020376
  45 C :    0.004475
  46 C :   -0.010725
  47 C :   -0.019774
  48 C :   -0.015331
  49 C :   -0.026366
  50 C :    0.002651
  51 C :   -0.035484
  52 C :   -0.012008
  53 C :   -0.057468
  54 C :   -0.011644
  55 C :   -0.058448
  56 C :   -0.026391
  57 C :   -0.016288
  58 C :   -0.016814
  59 C :   -0.015416
  60 C :   -0.034886
  61 C :   -0.011830
  62 C :   -0.058717
  63 C :    0.005553
  64 C :   -0.058874
  65 C :    0.068205
  66 C :   -0.063703
  67 C :    0.044028
  68 C :   -0.059065
  69 C :    0.009060
  70 C :   -0.057292
  71 C :    0.066586
  72 C :   -0.061427
  73 C :    0.036452
  74 C :   -0.020755
  75 C :   -0.055960
  76 H :    0.038488
  77 H :    0.040028
  78 H :    0.037215
  79 H :    0.030918
  80 H :    0.037781
  81 H :    0.038007
  82 H :    0.034430
  83 H :    0.035268
  84 H :    0.039238
  85 H :    0.045765
  86 H :    0.090224
  87 H :    0.046871
  88 H :    0.028394
  89 H :    0.029302
  90 H :    0.020900
  91 H :    0.028071
  92 H :    0.027409
  93 H :    0.020316
  94 H :    0.018351
  95 H :    0.027045
  96 H :    0.024348
  97 H :    0.025060
  98 H :    0.017957
  99 H :    0.020732
 100 H :    0.021760
 101 H :    0.022700
 102 H :    0.027526
 103 H :    0.022083
 104 H :    0.024903
 105 H :    0.026425
 106 H :    0.021815
 107 H :    0.026257
 108 H :    0.022416
 109 H :    0.033909
 110 H :    0.024248
 111 H :    0.023157
 112 H :    0.033493
 113 H :    0.022587
 114 H :    0.029189
 115 H :    0.017596
 116 H :    0.024207

  Mayer bond orders larger than 0.100000
B(  0-C ,  1-C ) :   1.5761 B(  0-C ,  6-C ) :   0.9893 B(  0-C , 18-C ) :   1.1180
B(  1-C ,  2-C ) :   1.1494 B(  1-C ,  4-C ) :   1.1560 B(  2-C ,  3-N ) :   2.9596
B(  4-C ,  5-N ) :   2.9532 B(  6-C ,  7-C ) :   1.2787 B(  6-C , 11-C ) :   1.4204
B(  7-C ,  8-C ) :   1.4313 B(  7-C , 16-C ) :   0.9351 B(  8-C ,  9-C ) :   1.2377
B(  8-C , 76-H ) :   1.0162 B(  9-C , 10-C ) :   1.3175 B(  9-C , 14-C ) :   1.1612
B( 10-C , 11-C ) :   1.3200 B( 10-C , 12-S ) :   1.0820 B( 11-C , 77-H ) :   0.9790
B( 12-S , 13-C ) :   1.0858 B( 13-C , 14-C ) :   1.6204 B( 13-C , 15-Br) :   1.0120
B( 14-C , 78-H ) :   0.9998 B( 16-C , 17-O ) :   2.1807 B( 16-C , 18-C ) :   0.9683
B( 18-C , 19-C ) :   1.4676 B( 19-C , 20-C ) :   1.2683 B( 19-C , 79-H ) :   0.9438
B( 20-C , 21-C ) :   1.4067 B( 20-C , 80-H ) :   0.9783 B( 21-C , 22-C ) :   1.1817
B( 21-C , 25-S ) :   1.0909 B( 22-C , 23-C ) :   1.5399 B( 22-C , 81-H ) :   1.0025
B( 23-C , 24-C ) :   1.2174 B( 23-C , 82-H ) :   0.9940 B( 24-C , 25-S ) :   1.0364
B( 24-C , 26-C ) :   1.4757 B( 26-C , 27-C ) :   1.1950 B( 26-C , 30-S ) :   1.0818
B( 27-C , 28-C ) :   1.5944 B( 27-C , 83-H ) :   0.9936 B( 28-C , 29-C ) :   1.1584
B( 28-C , 84-H ) :   0.9972 B( 29-C , 30-S ) :   1.0002 B( 29-C , 31-C ) :   1.5969
B( 31-C , 32-N ) :   1.1933 B( 31-C , 85-H ) :   0.9513 B( 32-N , 33-C ) :   1.1411
B( 32-N , 86-H ) :   0.9031 B( 33-C , 34-S ) :   1.1389 B( 33-C , 40-C ) :   1.4202
B( 34-S , 35-C ) :   1.0939 B( 35-C , 36-N ) :   0.9697 B( 35-C , 39-C ) :   1.4806
B( 36-N , 37-O ) :   1.5363 B( 36-N , 38-O ) :   1.5106 B( 37-O , 38-O ) :   0.2604
B( 39-C , 40-C ) :   1.2375 B( 39-C , 87-H ) :   1.0063 B( 40-C , 41-C ) :   1.0237
B( 41-C , 42-C ) :   1.7559 B( 41-C , 88-H ) :   0.9624 B( 42-C , 43-C ) :   1.0725
B( 42-C , 89-H ) :   0.9660 B( 43-C , 44-C ) :   1.3011 B( 43-C , 48-C ) :   1.3428
B( 44-C , 45-C ) :   1.4077 B( 44-C , 90-H ) :   0.9988 B( 45-C , 46-C ) :   1.3551
B( 45-C , 51-C ) :   0.9155 B( 46-C , 47-C ) :   1.3442 B( 46-C , 49-C ) :   0.9976
B( 47-C , 48-C ) :   1.3705 B( 47-C , 91-H ) :   0.9923 B( 48-C , 92-H ) :   0.9942
B( 49-C , 50-C ) :   1.3722 B( 49-C , 59-C ) :   1.3280 B( 50-C , 51-C ) :   0.9152
B( 50-C , 56-C ) :   1.3759 B( 51-C , 52-C ) :   1.0370 B( 51-C , 54-C ) :   1.0379
B( 52-C , 53-C ) :   1.1005 B( 52-C , 93-H ) :   0.9395 B( 52-C , 94-H ) :   0.9392
B( 53-C , 95-H ) :   0.9647 B( 53-C , 96-H ) :   0.9641 B( 53-C , 97-H ) :   0.9644
B( 54-C , 55-C ) :   1.1004 B( 54-C , 98-H ) :   0.9391 B( 54-C , 99-H ) :   0.9393
B( 55-C ,100-H ) :   0.9640 B( 55-C ,101-H ) :   0.9644 B( 55-C ,102-H ) :   0.9641
B( 56-C , 57-C ) :   1.2856 B( 56-C ,103-H ) :   1.0140 B( 57-C , 58-C ) :   1.3441
B( 57-C , 60-C ) :   1.0649 B( 58-C , 59-C ) :   1.4034 B( 58-C ,104-H ) :   0.9845
B( 59-C ,105-H ) :   0.9898 B( 60-C , 61-C ) :   1.6821 B( 60-C ,106-H ) :   0.9841
B( 61-C , 62-C ) :   1.0931 B( 61-C ,107-H ) :   0.9717 B( 62-C , 63-C ) :   1.4824
B( 62-C , 73-C ) :   1.1425 B( 63-C , 64-C ) :   1.0884 B( 63-C ,108-H ) :   1.0181
B( 64-C , 65-C ) :   1.4557 B( 64-C , 72-C ) :   1.1337 B( 65-C , 66-C ) :   1.1293
B( 65-C ,109-H ) :   1.0054 B( 66-C , 67-C ) :   1.4404 B( 66-C , 70-C ) :   1.1317
B( 67-C , 68-C ) :   1.1443 B( 67-C ,110-H ) :   1.0077 B( 68-C , 69-C ) :   1.5117
B( 68-C , 74-C ) :   1.0846 B( 69-C , 70-C ) :   1.0817 B( 69-C ,111-H ) :   1.0163
B( 70-C , 71-C ) :   1.4713 B( 71-C , 72-C ) :   1.1199 B( 71-C ,112-H ) :   1.0051
B( 72-C , 73-C ) :   1.4440 B( 73-C ,113-H ) :   1.0075 B( 74-C , 75-C ) :   1.9332
B( 74-C ,114-H ) :   0.9663 B( 75-C ,115-H ) :   0.9527 B( 75-C ,116-H ) :   0.9494

-----------------------------------------------------------------------------
         ABSORPTION SPECTRUM VIA TRANSITION ELECTRIC DIPOLE MOMENTS
-----------------------------------------------------------------------------
State   Energy  Wavelength   fosc         T2         TX        TY        TZ
        (cm-1)    (nm)                  (au**2)     (au)      (au)      (au)
-----------------------------------------------------------------------------
   0    8968.8   1115.0   0.004110468   0.15088  -0.28884  -0.07187  -0.24957
   1   12571.4    795.5   1.439793987  37.70455  -3.76722  -4.68034   1.26766
   2   19584.8    510.6   0.034388080   0.57805  -0.50723   0.53110  -0.19671
   3   21815.8    458.4   0.235317803   3.55107  -0.59595   0.05936   1.78673
   4   22355.7    447.3   0.039790464   0.58596  -0.25879  -0.71767   0.06277
   5   22863.9    437.4   0.237951237   3.42621   1.06855   0.53110   1.41505
   6   23353.5    428.2   0.125588959   1.77041   0.98992  -0.00709   0.88906
   7   23781.1    420.5   0.007897600   0.10933   0.19070   0.21405  -0.16476
   8   23854.0    419.2   0.186617468   2.57553  -0.14460   0.33716   1.56235
   9   25522.6    391.8   0.243955538   3.14675   1.32019   0.98407  -0.65989
  10   25944.0    385.4   2.020375641  25.63724  -3.11781  -0.18028  -3.98547
  11   26892.2    371.9   0.316293150   3.87203  -1.27500   0.15002  -1.49127
  12   27302.5    366.3   0.686672585   8.27985   1.49134   1.12771   2.18724
  13   27558.5    362.9   0.000056857   0.00068   0.01487   0.00345   0.02112
  14   28698.0    348.5   0.041502071   0.47610   0.21629  -0.00069   0.65522
  15   29137.8    343.2   0.059300483   0.67000  -0.04255  -0.04476  -0.81621
  16   29421.3    339.9   0.119963390   1.34234   0.03593   0.10642   1.15314
  17   29942.5    334.0   0.003815224   0.04195  -0.02823   0.08297   0.18511
  18   30204.9    331.1   0.121542557   1.32473  -0.53785   0.64888  -0.78384
  19   31552.7    316.9   0.047124342   0.49168  -0.25446   0.03005  -0.65271
  20   32116.6    311.4   0.200358764   2.05378   0.88417   0.97140   0.57307
  21   32310.0    309.5   0.081326662   0.82865   0.68050   0.47621  -0.37255
  22   32493.0    307.8   0.007452374   0.07551   0.12851   0.19141   0.14951
  23   32708.5    305.7   0.007504948   0.07554   0.26057   0.07956  -0.03624
  24   32780.1    305.1   0.455223970   4.57184   1.16139   1.62755  -0.75769
  25   33274.9    300.5   0.050710183   0.50171  -0.25538  -0.18349   0.63468
  26   33749.5    296.3   0.023663876   0.23083  -0.12869   0.35032  -0.30256
  27   34291.1    291.6   0.005774696   0.05544  -0.10715  -0.11445   0.17567
  28   34691.5    288.3   0.297709483   2.82517  -1.03327  -0.07077  -1.32383
  29   34821.8    287.2   0.358307393   3.38750   1.08337  -0.10895   1.48389
  30   35057.6    285.2   0.060003733   0.56347   0.60310   0.44690   0.00487
  31   35358.9    282.8   0.167637175   1.56080  -0.48517  -0.59624   0.98484
  32   35791.1    279.4   0.025504859   0.23460  -0.31680   0.03066  -0.36509
  33   36085.9    277.1   0.005798881   0.05290  -0.10934  -0.19230  -0.06301
  34   36235.2    276.0   0.004993687   0.04537   0.02236  -0.14219   0.15701
  35   36616.4    273.1   0.078439211   0.70523  -0.30425  -0.05312  -0.78093
  36   36891.5    271.1   0.021336622   0.19040   0.15184   0.30358   0.27421
  37   36992.6    270.3   0.117812689   1.04846  -0.03687   0.14217   1.01336
  38   37357.1    267.7   0.012562779   0.11071  -0.06909  -0.25450   0.20289
  39   37388.9    267.5   0.011317157   0.09965  -0.21794  -0.13084   0.18716
  40   37722.0    265.1   0.033058566   0.28851  -0.15752   0.00347  -0.51351
  41   37882.8    264.0   0.082046840   0.71301   0.43316   0.54292  -0.48022
  42   37948.3    263.5   0.025502902   0.22124   0.15964   0.01648   0.44214
  43   38673.7    258.6   0.052288862   0.44511   0.10729  -0.10608  -0.64988
  44   39036.2    256.2   0.034916157   0.29447   0.23519   0.17491   0.45668
  45   39117.8    255.6   0.019003848   0.15993   0.00821   0.11274   0.38361
  46   39201.1    255.1   0.028949800   0.24312   0.12012   0.28173   0.38642
  47   39433.1    253.6   0.002080273   0.01737   0.06631   0.10504   0.04400
  48   39504.4    253.1   0.019816782   0.16514  -0.05647   0.23501   0.32669
  49   39725.6    251.7   0.046976234   0.38930   0.38454   0.24446   0.42622
  50   40212.9    248.7   0.054392867   0.44530  -0.08387  -0.23516  -0.61884

FINAL SINGLE POINT ENERGY     -7070.472344135579

DIPOLE MOMENT
-------------
                                X             Y             Z
Electronic contribution:   -272.91969    -222.44210     -47.67632
Nuclear contribution   :    276.00519     225.46643      51.70175
                        -----------------------------------------
Total Dipole Moment    :      3.08550       3.02433       4.02543
                        -----------------------------------------
Magnitude (a.u.)       :      5.90516
Magnitude (Debye)      :     15.00973

Rotational constants in cm-1:     0.000667     0.000159     0.000132
Rotational constants in MHz :    19.999187     4.757859     3.959333

                             ****ORCA TERMINATED NORMALLY****
TOTAL RUN TIME: 0 days 0 hours 12 minutes 49 seconds 482 msec
