                         Program Version 4.2.0 -  RELEASE  -
|  1> # ORCA input file
|  2> # SCF done       -181.103151825389          0.000397487126
|  3> ! CAM-B3LYP def2-SVP def2/J RIJCOSX Grid4 TightSCF
|  4> %maxcore 5000
|  5> %tddft
|  6>     Mode sTDDFT
|  7>     Ethresh 5.0
|  8>     maxcore 5000
|  9> end
| 10>
| 11> %pal
| 12>   nprocs 6
| 13>   end
| 14> * xyz 0 1
| 15>    C      -10.83786        -0.35765        -1.63132
| 16>    C      -11.69739         0.63525        -2.03414
| 17>    C      -13.05700         0.42042        -2.34368
| 18>    N      -14.16833         0.31349        -2.61209
| 19>    C      -11.39221         2.00379        -2.15748
| 20>    N      -11.25215         3.13990        -2.27284
| 21>    C      -11.20233        -1.75653        -1.43101
| 22>    C      -10.11305        -2.42883        -0.82445
| 23>    C      -10.15387        -3.76100        -0.49669
| 24>    C      -11.32135        -4.47183        -0.79674
| 25>    C      -12.40111        -3.79502        -1.41132
| 26>    C      -12.36376        -2.44361        -1.73232
| 27>    S      -13.74292        -4.86164        -1.69882
| 28>    C      -12.84744        -6.18284        -0.99742
| 29>    C      -11.60726        -5.84574        -0.57029
| 30>   Br      -13.63237        -7.88310        -0.89737
| 31>    C       -9.00413        -1.47326        -0.61272
| 32>    O       -7.99971        -1.66765         0.03343
| 33>    C       -9.44282        -0.21581        -1.26915
| 34>    C       -8.68053         0.90079        -1.46231
| 35>    C       -7.27513         1.01565        -1.27435
| 36>    C       -6.67864         2.24449        -1.04800
| 37>    O       -5.31955         2.41567        -1.03475
| 38>    C       -4.58597         1.26442        -1.11611
| 39>    C       -5.20526        -0.00707        -1.29258
| 40>    C       -4.31220        -1.02655        -1.31992
| 41>    S       -2.69939        -0.44713        -1.13590
| 42>    C       -3.23585         1.18564        -1.01652
| 43>    O       -6.55066        -0.13416        -1.45013
| 44>    C       -7.41435         3.44580        -0.84060
| 45>    C       -8.66417         3.47570        -0.30840
| 46>    C       -9.58739         4.55956        -0.28092
| 47>    C       -9.46290         5.78759        -0.95022
| 48>    O       -8.31738         5.98246        -1.62873
| 49>    C       -8.26601         6.83144        -2.76473
| 50>    C      -10.47960         6.78725        -0.86764
| 51>    O      -10.19501         8.04052        -1.37605
| 52>    C       -9.79487         8.97635        -0.39000
| 53>    C      -11.71683         6.57492        -0.26580
| 54>    C      -11.87358         5.32290         0.38380
| 55>    C      -10.81828         4.35091         0.39357
| 56>    N      -11.25839         3.30837         1.06962
| 57>    O      -12.49984         3.60995         1.45394
| 58>    N      -12.88742         4.81771         1.05235
| 59>    C      -12.78915         7.51838        -0.25198
| 60>    S      -14.06251         7.34478         0.93065
| 61>    C      -14.92161         8.73580         0.32144
| 62>    C      -14.24919         9.26628        -0.76465
| 63>    C      -13.05078         8.59430        -1.08492
| 64>    S      -12.20394         9.17464        -2.48672
| 65>    C      -13.35489        10.44233        -2.88464
| 66>    S      -13.14624        11.41543        -4.17115
| 67>    S      -14.70726        10.60354        -1.77791
| 68>    C      -16.12788         9.21798         0.88702
| 69>    C      -16.75840         8.63325         1.93216
| 70>    C      -17.95736         9.13739         2.50080
| 71>    S      -18.76382         8.32501         3.82392
| 72>    C      -20.02785         9.47591         3.93061
| 73>    C      -19.86023        10.46448         2.99062
| 74>    C      -18.69145        10.26307         2.19039
| 75>    O      -18.55537        11.25473         1.28453
| 76>    C      -19.61705        12.08066         1.49659
| 77>    N      -19.72329        13.23177         0.67351
| 78>    O      -20.67948        13.95368         0.87765
| 79>    O      -18.86390        13.41061        -0.15985
| 80>    C      -20.44299        11.66857         2.50446
| 81>    H       -9.31055        -4.24245        -0.02707
| 82>    H      -13.21292        -1.97440        -2.20009
| 83>    H      -10.92141        -6.53598        -0.11404
| 84>    H       -9.16112         1.78821        -1.85085
| 85>    H       -4.51225        -2.07078        -1.43482
| 86>    H       -2.53620         1.98370        -0.88226
| 87>    H       -6.90048         4.35700        -1.10266
| 88>    H       -9.04816         2.58513         0.17204
| 89>    H       -8.01223         7.85658        -2.48872
| 90>    H       -9.20735         6.82664        -3.31397
| 91>    H       -7.47294         6.42147        -3.39144
| 92>    H       -9.66288         9.92158        -0.91286
| 93>    H       -8.85064         8.67398         0.07391
| 94>    H      -10.55429         9.09143         0.38927
| 95>    H      -16.53995        10.10938         0.43309
| 96>    H      -16.34965         7.73490         2.37386
| 97>    H      -20.80199         9.36155         4.66077
| 98>    H      -21.33047        12.16612         2.83626
| 99> *
|100>
|101>                          ****END OF INPUT****

CARTESIAN COORDINATES (ANGSTROEM)
---------------------------------
  C    -10.837860   -0.357650   -1.631320
  C    -11.697390    0.635250   -2.034140
  C    -13.057000    0.420420   -2.343680
  N    -14.168330    0.313490   -2.612090
  C    -11.392210    2.003790   -2.157480
  N    -11.252150    3.139900   -2.272840
  C    -11.202330   -1.756530   -1.431010
  C    -10.113050   -2.428830   -0.824450
  C    -10.153870   -3.761000   -0.496690
  C    -11.321350   -4.471830   -0.796740
  C    -12.401110   -3.795020   -1.411320
  C    -12.363760   -2.443610   -1.732320
  S    -13.742920   -4.861640   -1.698820
  C    -12.847440   -6.182840   -0.997420
  C    -11.607260   -5.845740   -0.570290
  Br   -13.632370   -7.883100   -0.897370
  C     -9.004130   -1.473260   -0.612720
  O     -7.999710   -1.667650    0.033430
  C     -9.442820   -0.215810   -1.269150
  C     -8.680530    0.900790   -1.462310
  C     -7.275130    1.015650   -1.274350
  C     -6.678640    2.244490   -1.048000
  O     -5.319550    2.415670   -1.034750
  C     -4.585970    1.264420   -1.116110
  C     -5.205260   -0.007070   -1.292580
  C     -4.312200   -1.026550   -1.319920
  S     -2.699390   -0.447130   -1.135900
  C     -3.235850    1.185640   -1.016520
  O     -6.550660   -0.134160   -1.450130
  C     -7.414350    3.445800   -0.840600
  C     -8.664170    3.475700   -0.308400
  C     -9.587390    4.559560   -0.280920
  C     -9.462900    5.787590   -0.950220
  O     -8.317380    5.982460   -1.628730
  C     -8.266010    6.831440   -2.764730
  C    -10.479600    6.787250   -0.867640
  O    -10.195010    8.040520   -1.376050
  C     -9.794870    8.976350   -0.390000
  C    -11.716830    6.574920   -0.265800
  C    -11.873580    5.322900    0.383800
  C    -10.818280    4.350910    0.393570
  N    -11.258390    3.308370    1.069620
  O    -12.499840    3.609950    1.453940
  N    -12.887420    4.817710    1.052350
  C    -12.789150    7.518380   -0.251980
  S    -14.062510    7.344780    0.930650
  C    -14.921610    8.735800    0.321440
  C    -14.249190    9.266280   -0.764650
  C    -13.050780    8.594300   -1.084920
  S    -12.203940    9.174640   -2.486720
  C    -13.354890   10.442330   -2.884640
  S    -13.146240   11.415430   -4.171150
  S    -14.707260   10.603540   -1.777910
  C    -16.127880    9.217980    0.887020
  C    -16.758400    8.633250    1.932160
  C    -17.957360    9.137390    2.500800
  S    -18.763820    8.325010    3.823920
  C    -20.027850    9.475910    3.930610
  C    -19.860230   10.464480    2.990620
  C    -18.691450   10.263070    2.190390
  O    -18.555370   11.254730    1.284530
  C    -19.617050   12.080660    1.496590
  N    -19.723290   13.231770    0.673510
  O    -20.679480   13.953680    0.877650
  O    -18.863900   13.410610   -0.159850
  C    -20.442990   11.668570    2.504460
  H     -9.310550   -4.242450   -0.027070
  H    -13.212920   -1.974400   -2.200090
  H    -10.921410   -6.535980   -0.114040
  H     -9.161120    1.788210   -1.850850
  H     -4.512250   -2.070780   -1.434820
  H     -2.536200    1.983700   -0.882260
  H     -6.900480    4.357000   -1.102660
  H     -9.048160    2.585130    0.172040
  H     -8.012230    7.856580   -2.488720
  H     -9.207350    6.826640   -3.313970
  H     -7.472940    6.421470   -3.391440
  H     -9.662880    9.921580   -0.912860
  H     -8.850640    8.673980    0.073910
  H    -10.554290    9.091430    0.389270
  H    -16.539950   10.109380    0.433090
  H    -16.349650    7.734900    2.373860
  H    -20.801990    9.361550    4.660770
  H    -21.330470   12.166120    2.836260

 Total Charge           Charge          ....    0
 Multiplicity           Mult            ....    1
 Number of Electrons    NEL             ....  536
 Basis Dimension        Dim             .... 1060

ORBITAL ENERGIES
----------------

  NO   OCC          E(Eh)            E(eV)
   0   2.0000    -482.881564    -13139.8754
   1   2.0000     -88.984821     -2421.4001
   2   2.0000     -88.970349     -2421.0063
   3   2.0000     -88.970158     -2421.0011
   4   2.0000     -88.969372     -2420.9797
   5   2.0000     -88.968045     -2420.9436
   6   2.0000     -88.958809     -2420.6923
   7   2.0000     -88.889942     -2418.8183
   8   2.0000     -62.559303     -1702.3252
   9   2.0000     -56.393247     -1534.5383
  10   2.0000     -56.390542     -1534.4646
  11   2.0000     -56.390507     -1534.4637
  12   2.0000     -19.352003      -526.5948
  13   2.0000     -19.317975      -525.6688
  14   2.0000     -19.286022      -524.7993
  15   2.0000     -19.272241      -524.4243
  16   2.0000     -19.271760      -524.4113
  17   2.0000     -19.266578      -524.2702
  18   2.0000     -19.249156      -523.7962
  19   2.0000     -19.246930      -523.7356
  20   2.0000     -19.202823      -522.5354
  21   2.0000     -14.660840      -398.9417
  22   2.0000     -14.481602      -394.0644
  23   2.0000     -14.475277      -393.8923
  24   2.0000     -14.415326      -392.2610
  25   2.0000     -14.407573      -392.0500
  26   2.0000     -10.393972      -282.8344
  27   2.0000     -10.370708      -282.2013
  28   2.0000     -10.368220      -282.1336
  29   2.0000     -10.364471      -282.0316
  30   2.0000     -10.363021      -281.9921
  31   2.0000     -10.354929      -281.7720
  32   2.0000     -10.354431      -281.7584
  33   2.0000     -10.353924      -281.7446
  34   2.0000     -10.353759      -281.7401
  35   2.0000     -10.343136      -281.4510
  36   2.0000     -10.340415      -281.3770
  37   2.0000     -10.337308      -281.2924
  38   2.0000     -10.335457      -281.2421
  39   2.0000     -10.333887      -281.1994
  40   2.0000     -10.332255      -281.1550
  41   2.0000     -10.327875      -281.0358
  42   2.0000     -10.327362      -281.0218
  43   2.0000     -10.325719      -280.9771
  44   2.0000     -10.325563      -280.9728
  45   2.0000     -10.324853      -280.9535
  46   2.0000     -10.324119      -280.9336
  47   2.0000     -10.322176      -280.8807
  48   2.0000     -10.320446      -280.8336
  49   2.0000     -10.319747      -280.8146
  50   2.0000     -10.319455      -280.8066
  51   2.0000     -10.319126      -280.7977
  52   2.0000     -10.318829      -280.7896
  53   2.0000     -10.311869      -280.6002
  54   2.0000     -10.311272      -280.5840
  55   2.0000     -10.306485      -280.4537
  56   2.0000     -10.302722      -280.3513
  57   2.0000     -10.301536      -280.3191
  58   2.0000     -10.301170      -280.3091
  59   2.0000     -10.301039      -280.3055
  60   2.0000     -10.299162      -280.2545
  61   2.0000     -10.298881      -280.2468
  62   2.0000     -10.297513      -280.2096
  63   2.0000     -10.296560      -280.1836
  64   2.0000     -10.293462      -280.0993
  65   2.0000     -10.293270      -280.0941
  66   2.0000     -10.291659      -280.0503
  67   2.0000     -10.289102      -279.9807
  68   2.0000     -10.289097      -279.9806
  69   2.0000     -10.284321      -279.8506
  70   2.0000      -8.788747      -239.1540
  71   2.0000      -8.079847      -219.8638
  72   2.0000      -8.066131      -219.4906
  73   2.0000      -8.064854      -219.4558
  74   2.0000      -8.063901      -219.4299
  75   2.0000      -8.063846      -219.4284
  76   2.0000      -8.054683      -219.1791
  77   2.0000      -7.987168      -217.3419
  78   2.0000      -6.625038      -180.2765
  79   2.0000      -6.610487      -179.8805
  80   2.0000      -6.610293      -179.8752
  81   2.0000      -6.049085      -164.6040
  82   2.0000      -6.044762      -164.4863
  83   2.0000      -6.042357      -164.4209
  84   2.0000      -6.035844      -164.2437
  85   2.0000      -6.034870      -164.2172
  86   2.0000      -6.033740      -164.1864
  87   2.0000      -6.033313      -164.1748
  88   2.0000      -6.031546      -164.1267
  89   2.0000      -6.030282      -164.0923
  90   2.0000      -6.029461      -164.0700
  91   2.0000      -6.029126      -164.0609
  92   2.0000      -6.027339      -164.0122
  93   2.0000      -6.025651      -163.9663
  94   2.0000      -6.025598      -163.9648
  95   2.0000      -6.024702      -163.9405
  96   2.0000      -6.024181      -163.9263
  97   2.0000      -6.019996      -163.8124
  98   2.0000      -6.016358      -163.7134
  99   2.0000      -5.956674      -162.0894
 100   2.0000      -5.954105      -162.0194
 101   2.0000      -5.947072      -161.8280
 102   2.0000      -2.740868       -74.5828
 103   2.0000      -2.736835       -74.4731
 104   2.0000      -2.736714       -74.4698
 105   2.0000      -2.725134       -74.1547
 106   2.0000      -2.725111       -74.1540
 107   2.0000      -1.332881       -36.2695
 108   2.0000      -1.305645       -35.5284
 109   2.0000      -1.237124       -33.6639
 110   2.0000      -1.208822       -32.8937
 111   2.0000      -1.185608       -32.2620
 112   2.0000      -1.170696       -31.8562
 113   2.0000      -1.160841       -31.5881
 114   2.0000      -1.149707       -31.2851
 115   2.0000      -1.117656       -30.4130
 116   2.0000      -1.026446       -27.9310
 117   2.0000      -1.017235       -27.6804
 118   2.0000      -1.011460       -27.5232
 119   2.0000      -1.009254       -27.4632
 120   2.0000      -1.005885       -27.3715
 121   2.0000      -1.002006       -27.2660
 122   2.0000      -0.990257       -26.9463
 123   2.0000      -0.989365       -26.9220
 124   2.0000      -0.982384       -26.7320
 125   2.0000      -0.964568       -26.2472
 126   2.0000      -0.943823       -25.6827
 127   2.0000      -0.942326       -25.6420
 128   2.0000      -0.933138       -25.3920
 129   2.0000      -0.924911       -25.1681
 130   2.0000      -0.916386       -24.9361
 131   2.0000      -0.904005       -24.5992
 132   2.0000      -0.902538       -24.5593
 133   2.0000      -0.894776       -24.3481
 134   2.0000      -0.885884       -24.1061
 135   2.0000      -0.879739       -23.9389
 136   2.0000      -0.879291       -23.9267
 137   2.0000      -0.865127       -23.5413
 138   2.0000      -0.860460       -23.4143
 139   2.0000      -0.844686       -22.9851
 140   2.0000      -0.834703       -22.7134
 141   2.0000      -0.827048       -22.5051
 142   2.0000      -0.822822       -22.3901
 143   2.0000      -0.819700       -22.3052
 144   2.0000      -0.816978       -22.2311
 145   2.0000      -0.805355       -21.9148
 146   2.0000      -0.799204       -21.7474
 147   2.0000      -0.787502       -21.4290
 148   2.0000      -0.785177       -21.3658
 149   2.0000      -0.771943       -21.0056
 150   2.0000      -0.756472       -20.5846
 151   2.0000      -0.750912       -20.4334
 152   2.0000      -0.740185       -20.1415
 153   2.0000      -0.732085       -19.9210
 154   2.0000      -0.724198       -19.7064
 155   2.0000      -0.715160       -19.4605
 156   2.0000      -0.708420       -19.2771
 157   2.0000      -0.695989       -18.9388
 158   2.0000      -0.693517       -18.8715
 159   2.0000      -0.682576       -18.5738
 160   2.0000      -0.679426       -18.4881
 161   2.0000      -0.676850       -18.4180
 162   2.0000      -0.667348       -18.1595
 163   2.0000      -0.663398       -18.0520
 164   2.0000      -0.661526       -18.0010
 165   2.0000      -0.650123       -17.6907
 166   2.0000      -0.649077       -17.6623
 167   2.0000      -0.646217       -17.5845
 168   2.0000      -0.639840       -17.4109
 169   2.0000      -0.636764       -17.3272
 170   2.0000      -0.630707       -17.1624
 171   2.0000      -0.629320       -17.1247
 172   2.0000      -0.621846       -16.9213
 173   2.0000      -0.617685       -16.8081
 174   2.0000      -0.614694       -16.7267
 175   2.0000      -0.606246       -16.4968
 176   2.0000      -0.605086       -16.4652
 177   2.0000      -0.596141       -16.2218
 178   2.0000      -0.593422       -16.1478
 179   2.0000      -0.591504       -16.0956
 180   2.0000      -0.589916       -16.0524
 181   2.0000      -0.583862       -15.8877
 182   2.0000      -0.581972       -15.8363
 183   2.0000      -0.574007       -15.6195
 184   2.0000      -0.573374       -15.6023
 185   2.0000      -0.570010       -15.5108
 186   2.0000      -0.564272       -15.3546
 187   2.0000      -0.561435       -15.2774
 188   2.0000      -0.558297       -15.1920
 189   2.0000      -0.556377       -15.1398
 190   2.0000      -0.551412       -15.0047
 191   2.0000      -0.545528       -14.8446
 192   2.0000      -0.541486       -14.7346
 193   2.0000      -0.540374       -14.7043
 194   2.0000      -0.533564       -14.5190
 195   2.0000      -0.531166       -14.4538
 196   2.0000      -0.528206       -14.3732
 197   2.0000      -0.522678       -14.2228
 198   2.0000      -0.521163       -14.1816
 199   2.0000      -0.519449       -14.1349
 200   2.0000      -0.518492       -14.1089
 201   2.0000      -0.514402       -13.9976
 202   2.0000      -0.513244       -13.9661
 203   2.0000      -0.512219       -13.9382
 204   2.0000      -0.508100       -13.8261
 205   2.0000      -0.502272       -13.6675
 206   2.0000      -0.501127       -13.6364
 207   2.0000      -0.495003       -13.4697
 208   2.0000      -0.492697       -13.4070
 209   2.0000      -0.486956       -13.2507
 210   2.0000      -0.486396       -13.2355
 211   2.0000      -0.483957       -13.1691
 212   2.0000      -0.481220       -13.0947
 213   2.0000      -0.479695       -13.0532
 214   2.0000      -0.478750       -13.0274
 215   2.0000      -0.473622       -12.8879
 216   2.0000      -0.471316       -12.8252
 217   2.0000      -0.468071       -12.7369
 218   2.0000      -0.461479       -12.5575
 219   2.0000      -0.459260       -12.4971
 220   2.0000      -0.457356       -12.4453
 221   2.0000      -0.455011       -12.3815
 222   2.0000      -0.452300       -12.3077
 223   2.0000      -0.451968       -12.2987
 224   2.0000      -0.447841       -12.1864
 225   2.0000      -0.443940       -12.0802
 226   2.0000      -0.442810       -12.0495
 227   2.0000      -0.440732       -11.9929
 228   2.0000      -0.439929       -11.9711
 229   2.0000      -0.436043       -11.8653
 230   2.0000      -0.433237       -11.7890
 231   2.0000      -0.433091       -11.7850
 232   2.0000      -0.427380       -11.6296
 233   2.0000      -0.425742       -11.5850
 234   2.0000      -0.422615       -11.4999
 235   2.0000      -0.419987       -11.4284
 236   2.0000      -0.417887       -11.3713
 237   2.0000      -0.413666       -11.2564
 238   2.0000      -0.407883       -11.0991
 239   2.0000      -0.406158       -11.0521
 240   2.0000      -0.404214       -10.9992
 241   2.0000      -0.402570       -10.9545
 242   2.0000      -0.394623       -10.7382
 243   2.0000      -0.394394       -10.7320
 244   2.0000      -0.386783       -10.5249
 245   2.0000      -0.385100       -10.4791
 246   2.0000      -0.384750       -10.4696
 247   2.0000      -0.381369       -10.3776
 248   2.0000      -0.377858       -10.2820
 249   2.0000      -0.376946       -10.2572
 250   2.0000      -0.373730       -10.1697
 251   2.0000      -0.371112       -10.0985
 252   2.0000      -0.369149       -10.0450
 253   2.0000      -0.355646        -9.6776
 254   2.0000      -0.348884        -9.4936
 255   2.0000      -0.338592        -9.2136
 256   2.0000      -0.330952        -9.0057
 257   2.0000      -0.324692        -8.8353
 258   2.0000      -0.322683        -8.7807
 259   2.0000      -0.312623        -8.5069
 260   2.0000      -0.308770        -8.4020
 261   2.0000      -0.303416        -8.2564
 262   2.0000      -0.290825        -7.9138
 263   2.0000      -0.288174        -7.8416
 264   2.0000      -0.286725        -7.8022
 265   2.0000      -0.275089        -7.4856
 266   2.0000      -0.259733        -7.0677
 267   2.0000      -0.242528        -6.5995
 268   0.0000      -0.097816        -2.6617
 269   0.0000      -0.075345        -2.0503
 270   0.0000      -0.067065        -1.8249
 271   0.0000      -0.048154        -1.3103
 272   0.0000      -0.037531        -1.0213

MULLIKEN ATOMIC CHARGES
-----------------------
   0 C :    0.319790
   1 C :   -0.368918
   2 C :   -0.190394
   3 N :    0.148303
   4 C :   -0.161317
   5 N :    0.119197
   6 C :    0.015651
   7 C :   -0.005607
   8 C :   -0.080093
   9 C :    0.120261
  10 C :   -0.092007
  11 C :   -0.023619
  12 S :    0.182641
  13 C :   -0.124222
  14 C :    0.039028
  15 Br:    0.019163
  16 C :    0.129169
  17 O :   -0.135337
  18 C :   -0.067427
  19 C :   -0.145094
  20 C :    0.161474
  21 C :    0.178202
  22 O :   -0.234729
  23 C :    0.204160
  24 C :    0.228611
  25 C :   -0.168137
  26 S :    0.111394
  27 C :   -0.165823
  28 O :   -0.226809
  29 C :    0.013619
  30 C :   -0.113245
  31 C :    0.035601
  32 C :    0.176292
  33 O :   -0.310330
  34 C :    0.200462
  35 C :   -0.029645
  36 O :   -0.374158
  37 C :    0.197424
  38 C :    0.180468
  39 C :   -0.080065
  40 C :   -0.000435
  41 N :    0.027843
  42 O :   -0.097634
  43 N :    0.034195
  44 C :   -0.250668
  45 S :    0.175333
  46 C :   -0.090710
  47 C :   -0.026656
  48 C :    0.004927
  49 S :    0.214633
  50 C :   -0.164656
  51 S :   -0.116841
  52 S :    0.197274
  53 C :   -0.027191
  54 C :    0.058108
  55 C :   -0.208279
  56 S :    0.170165
  57 C :   -0.140041
  58 C :    0.128518
  59 C :    0.189804
  60 O :   -0.190106
  61 C :    0.243496
  62 N :    0.271778
  63 O :   -0.245358
  64 O :   -0.225135
  65 C :   -0.072381
  66 H :   -0.013274
  67 H :   -0.006397
  68 H :   -0.005029
  69 H :    0.067211
  70 H :    0.031416
  71 H :    0.026564
  72 H :    0.026289
  73 H :    0.047598
  74 H :    0.025869
  75 H :    0.042951
  76 H :    0.036698
  77 H :    0.047237
  78 H :    0.026082
  79 H :    0.041092
  80 H :    0.015887
  81 H :   -0.007344
  82 H :    0.037736
  83 H :    0.015495
Sum of atomic charges:    0.0000000

LOEWDIN ATOMIC CHARGES
----------------------
   0 C :    0.081301
   1 C :   -0.150368
   2 C :   -0.018415
   3 N :   -0.060132
   4 C :   -0.009563
   5 N :   -0.072179
   6 C :   -0.021283
   7 C :   -0.046520
   8 C :    0.017484
   9 C :   -0.032533
  10 C :   -0.145760
  11 C :   -0.010378
  12 S :    0.429432
  13 C :   -0.272687
  14 C :   -0.071041
  15 Br:    0.133623
  16 C :    0.074289
  17 O :   -0.137120
  18 C :   -0.097563
  19 C :    0.042385
  20 C :    0.013205
  21 C :    0.058672
  22 O :   -0.043181
  23 C :   -0.010591
  24 C :   -0.003668
  25 C :   -0.203254
  26 S :    0.440353
  27 C :   -0.206626
  28 O :   -0.034804
  29 C :   -0.032521
  30 C :    0.017005
  31 C :   -0.068654
  32 C :    0.076687
  33 O :   -0.076445
  34 C :    0.087032
  35 C :    0.019065
  36 O :   -0.128296
  37 C :    0.076553
  38 C :   -0.045139
  39 C :   -0.059440
  40 C :   -0.039403
  41 N :   -0.034723
  42 O :    0.073656
  43 N :   -0.035688
  44 C :   -0.195131
  45 S :    0.482083
  46 C :   -0.180967
  47 C :   -0.217876
  48 C :   -0.204313
  49 S :    0.440068
  50 C :   -0.449114
  51 S :   -0.016614
  52 S :    0.409675
  53 C :   -0.040026
  54 C :   -0.034358
  55 C :   -0.205495
  56 S :    0.489494
  57 C :   -0.183218
  58 C :   -0.081710
  59 C :    0.023076
  60 O :    0.001621
  61 C :    0.028207
  62 N :    0.271079
  63 O :   -0.206574
  64 O :   -0.187393
  65 C :   -0.006751
  66 H :    0.039491
  67 H :    0.040471
  68 H :    0.038160
  69 H :    0.049518
  70 H :    0.032445
  71 H :    0.029931
  72 H :    0.038470
  73 H :    0.043098
  74 H :    0.018200
  75 H :    0.026010
  76 H :    0.025679
  77 H :    0.027189
  78 H :    0.018600
  79 H :    0.020344
  80 H :    0.035809
  81 H :    0.028343
  82 H :    0.031113
  83 H :    0.048603

  Mayer bond orders larger than 0.100000
B(  0-C ,  1-C ) :   1.6048 B(  0-C ,  6-C ) :   1.0024 B(  0-C , 18-C ) :   1.0871
B(  1-C ,  2-C ) :   1.1421 B(  1-C ,  4-C ) :   1.1638 B(  2-C ,  3-N ) :   2.9739
B(  4-C ,  5-N ) :   2.9052 B(  6-C ,  7-C ) :   1.2765 B(  6-C , 11-C ) :   1.4084
B(  7-C ,  8-C ) :   1.4307 B(  7-C , 16-C ) :   0.9211 B(  8-C ,  9-C ) :   1.2427
B(  8-C , 66-H ) :   1.0160 B(  9-C , 10-C ) :   1.3097 B(  9-C , 14-C ) :   1.1644
B( 10-C , 11-C ) :   1.3321 B( 10-C , 12-S ) :   1.0822 B( 11-C , 67-H ) :   0.9792
B( 12-S , 13-C ) :   1.0876 B( 13-C , 14-C ) :   1.6172 B( 13-C , 15-Br) :   1.0161
B( 14-C , 68-H ) :   0.9999 B( 16-C , 17-O ) :   2.2661 B( 16-C , 18-C ) :   0.9342
B( 18-C , 19-C ) :   1.5645 B( 19-C , 20-C ) :   1.1892 B( 19-C , 69-H ) :   0.9219
B( 20-C , 21-C ) :   1.4243 B( 20-C , 28-O ) :   1.0834 B( 21-C , 22-O ) :   1.0844
B( 21-C , 29-C ) :   1.1518 B( 22-O , 23-C ) :   1.0373 B( 23-C , 24-C ) :   1.2019
B( 23-C , 27-C ) :   1.5756 B( 24-C , 25-C ) :   1.5760 B( 24-C , 28-O ) :   1.0537
B( 25-C , 26-S ) :   1.1398 B( 25-C , 70-H ) :   0.9709 B( 26-S , 27-C ) :   1.1469
B( 27-C , 71-H ) :   0.9717 B( 29-C , 30-C ) :   1.5759 B( 29-C , 72-H ) :   0.9545
B( 30-C , 31-C ) :   1.1856 B( 30-C , 73-H ) :   0.9602 B( 31-C , 32-C ) :   1.3887
B( 31-C , 38-C ) :   0.1105 B( 31-C , 40-C ) :   1.1244 B( 32-C , 33-O ) :   1.2190
B( 32-C , 35-C ) :   1.1433 B( 33-O , 34-C ) :   0.9116 B( 34-C , 74-H ) :   0.9771
B( 34-C , 75-H ) :   0.9738 B( 34-C , 76-H ) :   0.9769 B( 35-C , 36-O ) :   1.0938
B( 35-C , 38-C ) :   1.4424 B( 36-O , 37-C ) :   0.9069 B( 37-C , 77-H ) :   0.9764
B( 37-C , 78-H ) :   0.9702 B( 37-C , 79-H ) :   0.9691 B( 38-C , 39-C ) :   1.1057
B( 38-C , 44-C ) :   1.1316 B( 39-C , 40-C ) :   1.1485 B( 39-C , 43-N ) :   1.5918
B( 40-C , 41-N ) :   1.6060 B( 41-N , 42-O ) :   1.0494 B( 41-N , 43-N ) :   0.1770
B( 42-O , 43-N ) :   1.0676 B( 44-C , 45-S ) :   1.1294 B( 44-C , 46-C ) :   0.1102
B( 44-C , 48-C ) :   1.5296 B( 45-S , 46-C ) :   1.0960 B( 46-C , 47-C ) :   1.5417
B( 46-C , 53-C ) :   1.1615 B( 47-C , 48-C ) :   1.2625 B( 47-C , 52-S ) :   1.0003
B( 48-C , 49-S ) :   1.0214 B( 49-S , 50-C ) :   1.0406 B( 49-S , 51-S ) :   0.1230
B( 50-C , 51-S ) :   1.6982 B( 50-C , 52-S ) :   1.0677 B( 51-S , 52-S ) :   0.1338
B( 53-C , 54-C ) :   1.6726 B( 53-C , 80-H ) :   0.9678 B( 54-C , 55-C ) :   1.1281
B( 54-C , 81-H ) :   0.9610 B( 55-C , 56-S ) :   1.1313 B( 55-C , 57-C ) :   0.1105
B( 55-C , 59-C ) :   1.4580 B( 56-S , 57-C ) :   1.2014 B( 57-C , 58-C ) :   1.4259
B( 57-C , 82-H ) :   0.9752 B( 58-C , 59-C ) :   1.2300 B( 58-C , 65-C ) :   1.0557
B( 59-C , 60-O ) :   1.1006 B( 60-O , 61-C ) :   1.1157 B( 61-C , 62-N ) :   0.9112
B( 61-C , 65-C ) :   1.5855 B( 62-N , 63-O ) :   1.5356 B( 62-N , 64-O ) :   1.5179
B( 63-O , 64-O ) :   0.2823 B( 65-C , 83-H ) :   1.0251

-----------------------------------------------------------------------------
         ABSORPTION SPECTRUM VIA TRANSITION ELECTRIC DIPOLE MOMENTS
-----------------------------------------------------------------------------
State   Energy  Wavelength   fosc         T2         TX        TY        TZ
        (cm-1)    (nm)                  (au**2)     (au)      (au)      (au)
-----------------------------------------------------------------------------
   0   15398.9    649.4   0.750856161  16.05247   1.12891  -3.74766  -0.85620
   1   20303.4    492.5   0.907788904  14.71948  -3.69317   0.81946   0.63912
   2   21617.5    462.6   0.161849127   2.46479   1.55255  -0.21578  -0.08835
   3   23306.7    429.1   0.096681865   1.36565  -0.01282  -0.67581   0.95329
   4   23705.8    421.8   0.134997495   1.87476  -0.23687   0.97456  -0.93214
   5   25193.2    396.9   0.029799167   0.38940  -0.34555  -0.51396   0.07637
   6   25817.4    387.3   0.000804034   0.01025   0.03693   0.07843  -0.05232
   7   26041.8    384.0   0.009712848   0.12279   0.33798  -0.08927  -0.02417
   8   27111.9    368.8   0.281477909   3.41791   0.48305  -1.78006   0.12632
   9   27635.0    361.9   0.074506235   0.88758  -0.71064  -0.18858   0.58908
  10   28014.5    357.0   0.101554566   1.19342   0.79218   0.71611   0.23034
  11   28911.2    345.9   0.170120094   1.93716   1.13494   0.05191  -0.80398
  12   29615.5    337.7   0.076306100   0.84824  -0.76083  -0.43004  -0.29058
  13   29973.2    333.6   0.000661024   0.00726   0.05478   0.02848  -0.05872
  14   30238.6    330.7   0.086534636   0.94211   0.76222   0.59872   0.05165
  15   30434.9    328.6   0.083547078   0.90372  -0.55289  -0.36368   0.68247
  16   31253.2    320.0   0.007544845   0.07948  -0.00508   0.28018   0.03080
  17   31681.4    315.6   0.031600588   0.32837  -0.48102  -0.09542   0.29645
  18   31922.5    313.3   0.080741133   0.83267   0.29929  -0.56105  -0.65446
  19   32310.4    309.5   0.077540815   0.79007   0.12390  -0.84151   0.25802
  20   32387.1    308.8   0.135182808   1.37412   1.04106  -0.03267  -0.53781
  21   32707.7    305.7   0.252705401   2.54355  -0.78025  -1.32226   0.43172
  22   32933.8    303.6   0.312843869   3.12724  -0.64709   1.56481  -0.50980
  23   33094.6    302.2   0.056149224   0.55855  -0.57766  -0.10458   0.46251
  24   33726.4    296.5   0.057924150   0.56541  -0.03590  -0.73735   0.14296
  25   34285.3    291.7   0.046826519   0.44963  -0.17476  -0.64509   0.05429
  26   34540.6    289.5   0.053397238   0.50894  -0.02265   0.64741   0.29881
  27   34640.3    288.7   0.002198009   0.02089  -0.06057   0.02717   0.12838
  28   34764.4    287.7   0.020637248   0.19543  -0.19394  -0.39657   0.02350
  29   35289.7    283.4   0.099248281   0.92587   0.86894   0.26898  -0.31378
  30   35909.8    278.5   0.213016663   1.95288   0.48931   0.88785  -0.96186
  31   36237.2    276.0   0.021188329   0.19249   0.37456  -0.21766   0.06946
  32   36555.0    273.6   0.000171579   0.00155  -0.00878  -0.03718   0.00925
  33   37024.8    270.1   0.094083130   0.83656   0.18861   0.60049  -0.66362
  34   37543.3    266.4   0.149151871   1.30789   0.29590  -1.05695   0.32125
  35   37603.0    265.9   0.189762452   1.66136  -0.91230   0.72985  -0.54441
  36   38026.6    263.0   0.031547402   0.27312   0.04081  -0.52049  -0.02341
  37   38552.6    259.4   0.027090382   0.23133  -0.13893  -0.28537   0.36138
  38   38837.6    257.5   0.182866281   1.55009  -0.26120   0.93275  -0.78220
  39   38972.6    256.6   0.030293800   0.25590   0.03965   0.44910  -0.22944
  40   39235.9    254.9   0.042667422   0.35800  -0.21158   0.55036  -0.10170
  41   39299.4    254.5   0.312176916   2.61511  -0.25872   1.43334  -0.70265
  42   39518.6    253.0   0.033312748   0.27751  -0.14549   0.43427  -0.26030
  43   39616.1    252.4   0.055933369   0.46481   0.41984  -0.16303   0.51182
  44   39856.8    250.9   0.001280213   0.01057  -0.04622  -0.05004   0.07703
  45   40094.0    249.4   0.018674109   0.15333   0.11596  -0.17016   0.33307
  46   40238.2    248.5   0.024242412   0.19834  -0.20560   0.39465  -0.01787

FINAL SINGLE POINT ENERGY     -7995.169571993648

DIPOLE MOMENT
-------------
                                X             Y             Z
Electronic contribution:    -35.75749    -124.67614      -4.18366
Nuclear contribution   :     37.29200     123.88295       6.21133
                        -----------------------------------------
Total Dipole Moment    :      1.53451      -0.79319       2.02767
                        -----------------------------------------
Magnitude (a.u.)       :      2.66370
Magnitude (Debye)      :      6.77060

Rotational constants in cm-1:     0.001033     0.000342     0.000275
Rotational constants in MHz :    30.961448    10.265872     8.238196

                             ****ORCA TERMINATED NORMALLY****
TOTAL RUN TIME: 0 days 0 hours 8 minutes 3 seconds 370 msec
