                         Program Version 4.2.0 -  RELEASE  -
|  1> # ORCA input file
|  2> # SCF done       -180.526634075899          0.000656938976
|  3> ! CAM-B3LYP def2-SVP def2/J RIJCOSX Grid4 TightSCF
|  4> %maxcore 5000
|  5> %tddft
|  6>     Mode sTDDFT
|  7>     Ethresh 5.0
|  8>     maxcore 5000
|  9> end
| 10>
| 11> %pal
| 12>   nprocs 6
| 13>   end
| 14> * xyz 0 1
| 15>    C       -0.76271         0.85327         1.40470
| 16>    C        0.45405         1.47925         1.48015
| 17>    C        1.69567         0.82088         1.57827
| 18>    N        2.74557         0.35971         1.63853
| 19>    C        0.62885         2.87659         1.51054
| 20>    N        0.86458         3.99819         1.58415
| 21>    C       -1.00653        -0.57384         1.53205
| 22>    C       -2.40607        -0.79638         1.55210
| 23>    C       -2.94880        -2.05233         1.67002
| 24>    C       -2.07093        -3.13733         1.77376
| 25>    C       -0.67456        -2.90382         1.74889
| 26>    C       -0.12439        -1.63418         1.63082
| 27>    S        0.22389        -4.38519         1.87561
| 28>    C       -1.26586        -5.28593         1.96155
| 29>    C       -2.38060        -4.51874         1.89862
| 30>   Br       -1.21010        -7.15289         2.12136
| 31>    C       -3.11706         0.48951         1.38485
| 32>    O       -4.31081         0.63853         1.25447
| 33>    C       -2.04648         1.51561         1.26913
| 34>    C       -2.22829         2.80124         0.87245
| 35>    C       -3.47051         3.50716         0.80485
| 36>    N       -3.59221         4.36271        -0.20574
| 37>    N       -4.65548         5.04243        -0.41430
| 38>    C       -5.75966         4.98515         0.34460
| 39>    C       -5.73088         4.14933         1.49739
| 40>    C       -4.53230         3.39926         1.74776
| 41>    N       -4.58659         2.74039         2.89785
| 42>    S       -6.02609         2.99475         3.56877
| 43>    N       -6.63834         3.98319         2.44988
| 44>    C       -6.83838         5.78180        -0.07998
| 45>    C       -6.72888         6.49615        -1.25240
| 46>    C       -7.71689         7.31542        -1.86012
| 47>    C       -7.33859         7.83386        -3.06004
| 48>    C       -6.03271         7.44474        -3.44469
| 49>    S       -5.28330         6.42781        -2.21551
| 50>    C       -5.36395         7.72001        -4.62039
| 51>    C       -5.82398         8.46792        -5.73474
| 52>    C       -4.95351         8.46401        -6.77698
| 53>    C       -3.77077         7.71127        -6.53200
| 54>    S       -3.76314         7.05533        -4.91797
| 55>    C       -2.76660         7.43506        -7.42230
| 56>    C       -1.68024         6.61301        -7.04379
| 57>    N       -1.61649         6.23665        -5.76665
| 58>    N       -0.67152         5.51169        -5.27004
| 59>    C        0.31662         5.02696        -6.00683
| 60>    C        0.33621         5.28667        -7.40472
| 61>    C       -0.68021         6.14181        -7.94085
| 62>    N       -0.52687         6.35203        -9.24122
| 63>    S        0.78517         5.55732        -9.73516
| 64>    N        1.20869         4.90053        -8.32852
| 65>    C        1.33009         4.22136        -5.37552
| 66>    C        1.91823         4.44888        -4.18285
| 67>    C        1.89766         5.60472        -3.29997
| 68>    C        1.67311         6.90302        -3.66843
| 69>    C        1.73839         8.00043        -2.78347
| 70>    N        1.77477         8.93262        -2.11514
| 71>    C        1.45876         7.33796        -4.99231
| 72>    N        1.35259         7.77906        -6.04760
| 73>    C        2.40426         5.16619        -2.00691
| 74>    C        2.89257         3.83770        -2.12647
| 75>    C        2.68196         3.35922        -3.50254
| 76>    O        3.00986         2.30129        -3.98631
| 77>    C        3.47617         3.16887        -1.07605
| 78>    C        3.59552         3.84267         0.14260
| 79>    C        3.11234         5.17146         0.25038
| 80>    C        2.51018         5.84275        -0.80514
| 81>    S        3.36593         5.81410         1.83923
| 82>    C        4.08338         4.30899         2.33800
| 83>    C        4.14948         3.37144         1.36282
| 84>   Br        4.67532         4.10904         4.10178
| 85>    H       -4.01775        -2.19558         1.68086
| 86>    H        0.94483        -1.50197         1.60906
| 87>    H       -3.38056        -4.91026         1.93604
| 88>    H       -1.38667         3.36733         0.49374
| 89>    H       -7.74230         5.80349         0.50743
| 90>    H       -8.67321         7.47934        -1.39488
| 91>    H       -7.96383         8.46065        -3.67128
| 92>    H       -6.77723         8.96613        -5.74191
| 93>    H       -5.11712         8.95756        -7.71884
| 94>    H       -2.80038         7.80710        -8.43422
| 95>    H        1.62081         3.31894        -5.90277
| 96>    H        3.83629         2.15822        -1.19028
| 97>    H        2.13716         6.84429        -0.67067
| 98>    H        4.55072         2.38359         1.49975
| 99> *
|100>
|101>                          ****END OF INPUT****

CARTESIAN COORDINATES (ANGSTROEM)
---------------------------------
  C     -0.762710    0.853270    1.404700
  C      0.454050    1.479250    1.480150
  C      1.695670    0.820880    1.578270
  N      2.745570    0.359710    1.638530
  C      0.628850    2.876590    1.510540
  N      0.864580    3.998190    1.584150
  C     -1.006530   -0.573840    1.532050
  C     -2.406070   -0.796380    1.552100
  C     -2.948800   -2.052330    1.670020
  C     -2.070930   -3.137330    1.773760
  C     -0.674560   -2.903820    1.748890
  C     -0.124390   -1.634180    1.630820
  S      0.223890   -4.385190    1.875610
  C     -1.265860   -5.285930    1.961550
  C     -2.380600   -4.518740    1.898620
  Br    -1.210100   -7.152890    2.121360
  C     -3.117060    0.489510    1.384850
  O     -4.310810    0.638530    1.254470
  C     -2.046480    1.515610    1.269130
  C     -2.228290    2.801240    0.872450
  C     -3.470510    3.507160    0.804850
  N     -3.592210    4.362710   -0.205740
  N     -4.655480    5.042430   -0.414300
  C     -5.759660    4.985150    0.344600
  C     -5.730880    4.149330    1.497390
  C     -4.532300    3.399260    1.747760
  N     -4.586590    2.740390    2.897850
  S     -6.026090    2.994750    3.568770
  N     -6.638340    3.983190    2.449880
  C     -6.838380    5.781800   -0.079980
  C     -6.728880    6.496150   -1.252400
  C     -7.716890    7.315420   -1.860120
  C     -7.338590    7.833860   -3.060040
  C     -6.032710    7.444740   -3.444690
  S     -5.283300    6.427810   -2.215510
  C     -5.363950    7.720010   -4.620390
  C     -5.823980    8.467920   -5.734740
  C     -4.953510    8.464010   -6.776980
  C     -3.770770    7.711270   -6.532000
  S     -3.763140    7.055330   -4.917970
  C     -2.766600    7.435060   -7.422300
  C     -1.680240    6.613010   -7.043790
  N     -1.616490    6.236650   -5.766650
  N     -0.671520    5.511690   -5.270040
  C      0.316620    5.026960   -6.006830
  C      0.336210    5.286670   -7.404720
  C     -0.680210    6.141810   -7.940850
  N     -0.526870    6.352030   -9.241220
  S      0.785170    5.557320   -9.735160
  N      1.208690    4.900530   -8.328520
  C      1.330090    4.221360   -5.375520
  C      1.918230    4.448880   -4.182850
  C      1.897660    5.604720   -3.299970
  C      1.673110    6.903020   -3.668430
  C      1.738390    8.000430   -2.783470
  N      1.774770    8.932620   -2.115140
  C      1.458760    7.337960   -4.992310
  N      1.352590    7.779060   -6.047600
  C      2.404260    5.166190   -2.006910
  C      2.892570    3.837700   -2.126470
  C      2.681960    3.359220   -3.502540
  O      3.009860    2.301290   -3.986310
  C      3.476170    3.168870   -1.076050
  C      3.595520    3.842670    0.142600
  C      3.112340    5.171460    0.250380
  C      2.510180    5.842750   -0.805140
  S      3.365930    5.814100    1.839230
  C      4.083380    4.308990    2.338000
  C      4.149480    3.371440    1.362820
  Br     4.675320    4.109040    4.101780
  H     -4.017750   -2.195580    1.680860
  H      0.944830   -1.501970    1.609060
  H     -3.380560   -4.910260    1.936040
  H     -1.386670    3.367330    0.493740
  H     -7.742300    5.803490    0.507430
  H     -8.673210    7.479340   -1.394880
  H     -7.963830    8.460650   -3.671280
  H     -6.777230    8.966130   -5.741910
  H     -5.117120    8.957560   -7.718840
  H     -2.800380    7.807100   -8.434220
  H      1.620810    3.318940   -5.902770
  H      3.836290    2.158220   -1.190280
  H      2.137160    6.844290   -0.670670
  H      4.550720    2.383590    1.499750

 Total Charge           Charge          ....    0
 Multiplicity           Mult            ....    1
 Number of Electrons    NEL             ....  568
 Basis Dimension        Dim             .... 1110

ORBITAL ENERGIES
----------------

  NO   OCC          E(Eh)            E(eV)
   0   2.0000    -482.887794    -13140.0449
   1   2.0000    -482.871129    -13139.5914
   2   2.0000     -89.034950     -2422.7642
   3   2.0000     -89.031620     -2422.6735
   4   2.0000     -88.978008     -2421.2147
   5   2.0000     -88.957907     -2420.6677
   6   2.0000     -88.950395     -2420.4633
   7   2.0000     -88.949163     -2420.4298
   8   2.0000     -62.565509     -1702.4940
   9   2.0000     -62.548881     -1702.0416
  10   2.0000     -56.399463     -1534.7074
  11   2.0000     -56.396740     -1534.6333
  12   2.0000     -56.396710     -1534.6325
  13   2.0000     -56.382819     -1534.2545
  14   2.0000     -56.380120     -1534.1810
  15   2.0000     -56.380104     -1534.1806
  16   2.0000     -19.216791      -522.9155
  17   2.0000     -19.208780      -522.6975
  18   2.0000     -14.452284      -393.2666
  19   2.0000     -14.451588      -393.2477
  20   2.0000     -14.449979      -393.2039
  21   2.0000     -14.449627      -393.1943
  22   2.0000     -14.446811      -393.1177
  23   2.0000     -14.444975      -393.0678
  24   2.0000     -14.440104      -392.9352
  25   2.0000     -14.439840      -392.9280
  26   2.0000     -14.422748      -392.4629
  27   2.0000     -14.417509      -392.3204
  28   2.0000     -14.409740      -392.1090
  29   2.0000     -14.406859      -392.0306
  30   2.0000     -10.368129      -282.1311
  31   2.0000     -10.361489      -281.9504
  32   2.0000     -10.359019      -281.8832
  33   2.0000     -10.345341      -281.5110
  34   2.0000     -10.343672      -281.4656
  35   2.0000     -10.342494      -281.4336
  36   2.0000     -10.334952      -281.2283
  37   2.0000     -10.334075      -281.2045
  38   2.0000     -10.333601      -281.1916
  39   2.0000     -10.333555      -281.1903
  40   2.0000     -10.333458      -281.1877
  41   2.0000     -10.333164      -281.1797
  42   2.0000     -10.332450      -281.1603
  43   2.0000     -10.332280      -281.1556
  44   2.0000     -10.329460      -281.0789
  45   2.0000     -10.328421      -281.0506
  46   2.0000     -10.326089      -280.9872
  47   2.0000     -10.324848      -280.9534
  48   2.0000     -10.321039      -280.8497
  49   2.0000     -10.320995      -280.8485
  50   2.0000     -10.319956      -280.8203
  51   2.0000     -10.315387      -280.6959
  52   2.0000     -10.313855      -280.6543
  53   2.0000     -10.312090      -280.6062
  54   2.0000     -10.311044      -280.5778
  55   2.0000     -10.310551      -280.5644
  56   2.0000     -10.310481      -280.5625
  57   2.0000     -10.309255      -280.5291
  58   2.0000     -10.309211      -280.5279
  59   2.0000     -10.307853      -280.4909
  60   2.0000     -10.303649      -280.3766
  61   2.0000     -10.303054      -280.3603
  62   2.0000     -10.300899      -280.3017
  63   2.0000     -10.298904      -280.2474
  64   2.0000     -10.297920      -280.2207
  65   2.0000     -10.297685      -280.2142
  66   2.0000     -10.297622      -280.2125
  67   2.0000     -10.297116      -280.1988
  68   2.0000     -10.296406      -280.1794
  69   2.0000     -10.294911      -280.1388
  70   2.0000     -10.292939      -280.0851
  71   2.0000     -10.292884      -280.0836
  72   2.0000     -10.292150      -280.0636
  73   2.0000     -10.288556      -279.9659
  74   2.0000     -10.287074      -279.9255
  75   2.0000     -10.284199      -279.8473
  76   2.0000     -10.282376      -279.7977
  77   2.0000     -10.278124      -279.6820
  78   2.0000      -8.794939      -239.3225
  79   2.0000      -8.778322      -238.8703
  80   2.0000      -8.126705      -221.1389
  81   2.0000      -8.123512      -221.0520
  82   2.0000      -8.074044      -219.7059
  83   2.0000      -8.053697      -219.1522
  84   2.0000      -8.042860      -218.8573
  85   2.0000      -8.042521      -218.8481
  86   2.0000      -6.631251      -180.4455
  87   2.0000      -6.616678      -180.0490
  88   2.0000      -6.616462      -180.0431
  89   2.0000      -6.614529      -179.9905
  90   2.0000      -6.600151      -179.5992
  91   2.0000      -6.599877      -179.5918
  92   2.0000      -6.097854      -165.9310
  93   2.0000      -6.094698      -165.8452
  94   2.0000      -6.090097      -165.7200
  95   2.0000      -6.089200      -165.6955
  96   2.0000      -6.086897      -165.6329
  97   2.0000      -6.085952      -165.6072
  98   2.0000      -6.043731      -164.4583
  99   2.0000      -6.039457      -164.3420
 100   2.0000      -6.035250      -164.2275
 101   2.0000      -6.023433      -163.9059
 102   2.0000      -6.019118      -163.7885
 103   2.0000      -6.014897      -163.6737
 104   2.0000      -6.013018      -163.6225
 105   2.0000      -6.012589      -163.6109
 106   2.0000      -6.007856      -163.4821
 107   2.0000      -6.007665      -163.4769
 108   2.0000      -6.004338      -163.3863
 109   2.0000      -6.003774      -163.3710
 110   2.0000      -2.747110       -74.7527
 111   2.0000      -2.743024       -74.6415
 112   2.0000      -2.742888       -74.6378
 113   2.0000      -2.731293       -74.3223
 114   2.0000      -2.731265       -74.3215
 115   2.0000      -2.730424       -74.2986
 116   2.0000      -2.726394       -74.1889
 117   2.0000      -2.726228       -74.1844
 118   2.0000      -2.714769       -73.8726
 119   2.0000      -2.714754       -73.8722
 120   2.0000      -1.141211       -31.0539
 121   2.0000      -1.140912       -31.0458
 122   2.0000      -1.131400       -30.7869
 123   2.0000      -1.123779       -30.5796
 124   2.0000      -1.121132       -30.5075
 125   2.0000      -1.119329       -30.4585
 126   2.0000      -1.026402       -27.9298
 127   2.0000      -1.017904       -27.6986
 128   2.0000      -1.012938       -27.5634
 129   2.0000      -1.003382       -27.3034
 130   2.0000      -1.002327       -27.2747
 131   2.0000      -0.998685       -27.1756
 132   2.0000      -0.995258       -27.0823
 133   2.0000      -0.992707       -27.0129
 134   2.0000      -0.990099       -26.9420
 135   2.0000      -0.986938       -26.8560
 136   2.0000      -0.980610       -26.6837
 137   2.0000      -0.979532       -26.6544
 138   2.0000      -0.950561       -25.8661
 139   2.0000      -0.946720       -25.7616
 140   2.0000      -0.940802       -25.6005
 141   2.0000      -0.929298       -25.2875
 142   2.0000      -0.920466       -25.0472
 143   2.0000      -0.918370       -24.9901
 144   2.0000      -0.911435       -24.8014
 145   2.0000      -0.897490       -24.4219
 146   2.0000      -0.892233       -24.2789
 147   2.0000      -0.888720       -24.1833
 148   2.0000      -0.886698       -24.1283
 149   2.0000      -0.878050       -23.8929
 150   2.0000      -0.872238       -23.7348
 151   2.0000      -0.863354       -23.4931
 152   2.0000      -0.854948       -23.2643
 153   2.0000      -0.842222       -22.9180
 154   2.0000      -0.834855       -22.7176
 155   2.0000      -0.831541       -22.6274
 156   2.0000      -0.825722       -22.4690
 157   2.0000      -0.815571       -22.1928
 158   2.0000      -0.810517       -22.0553
 159   2.0000      -0.791259       -21.5312
 160   2.0000      -0.776287       -21.1239
 161   2.0000      -0.766862       -20.8674
 162   2.0000      -0.761058       -20.7094
 163   2.0000      -0.758552       -20.6413
 164   2.0000      -0.750562       -20.4238
 165   2.0000      -0.745595       -20.2887
 166   2.0000      -0.736277       -20.0351
 167   2.0000      -0.728188       -19.8150
 168   2.0000      -0.715939       -19.4817
 169   2.0000      -0.703447       -19.1418
 170   2.0000      -0.695033       -18.9128
 171   2.0000      -0.694132       -18.8883
 172   2.0000      -0.688621       -18.7383
 173   2.0000      -0.680985       -18.5305
 174   2.0000      -0.674446       -18.3526
 175   2.0000      -0.667378       -18.1603
 176   2.0000      -0.662279       -18.0215
 177   2.0000      -0.661102       -17.9895
 178   2.0000      -0.654430       -17.8080
 179   2.0000      -0.651680       -17.7331
 180   2.0000      -0.642486       -17.4829
 181   2.0000      -0.633190       -17.2300
 182   2.0000      -0.629650       -17.1336
 183   2.0000      -0.627146       -17.0655
 184   2.0000      -0.617168       -16.7940
 185   2.0000      -0.615867       -16.7586
 186   2.0000      -0.611597       -16.6424
 187   2.0000      -0.602689       -16.4000
 188   2.0000      -0.597614       -16.2619
 189   2.0000      -0.591310       -16.0904
 190   2.0000      -0.585910       -15.9434
 191   2.0000      -0.585377       -15.9289
 192   2.0000      -0.580655       -15.8004
 193   2.0000      -0.577939       -15.7265
 194   2.0000      -0.574296       -15.6274
 195   2.0000      -0.567664       -15.4469
 196   2.0000      -0.565493       -15.3878
 197   2.0000      -0.562742       -15.3130
 198   2.0000      -0.551546       -15.0083
 199   2.0000      -0.550571       -14.9818
 200   2.0000      -0.542330       -14.7576
 201   2.0000      -0.538718       -14.6593
 202   2.0000      -0.536757       -14.6059
 203   2.0000      -0.530376       -14.4323
 204   2.0000      -0.528576       -14.3833
 205   2.0000      -0.527012       -14.3407
 206   2.0000      -0.525597       -14.3022
 207   2.0000      -0.521830       -14.1997
 208   2.0000      -0.519618       -14.1395
 209   2.0000      -0.517677       -14.0867
 210   2.0000      -0.516577       -14.0568
 211   2.0000      -0.513833       -13.9821
 212   2.0000      -0.511712       -13.9244
 213   2.0000      -0.508375       -13.8336
 214   2.0000      -0.505822       -13.7641
 215   2.0000      -0.501829       -13.6555
 216   2.0000      -0.498781       -13.5725
 217   2.0000      -0.496849       -13.5200
 218   2.0000      -0.496310       -13.5053
 219   2.0000      -0.494953       -13.4684
 220   2.0000      -0.493077       -13.4173
 221   2.0000      -0.491615       -13.3775
 222   2.0000      -0.486704       -13.2439
 223   2.0000      -0.485052       -13.1989
 224   2.0000      -0.483592       -13.1592
 225   2.0000      -0.478917       -13.0320
 226   2.0000      -0.477295       -12.9878
 227   2.0000      -0.471891       -12.8408
 228   2.0000      -0.470167       -12.7939
 229   2.0000      -0.462126       -12.5751
 230   2.0000      -0.461272       -12.5518
 231   2.0000      -0.457132       -12.4392
 232   2.0000      -0.455150       -12.3853
 233   2.0000      -0.451282       -12.2800
 234   2.0000      -0.450302       -12.2533
 235   2.0000      -0.448082       -12.1929
 236   2.0000      -0.446032       -12.1371
 237   2.0000      -0.444467       -12.0945
 238   2.0000      -0.443180       -12.0595
 239   2.0000      -0.441624       -12.0172
 240   2.0000      -0.437406       -11.9024
 241   2.0000      -0.437068       -11.8932
 242   2.0000      -0.435047       -11.8382
 243   2.0000      -0.433568       -11.7980
 244   2.0000      -0.430247       -11.7076
 245   2.0000      -0.426383       -11.6025
 246   2.0000      -0.424480       -11.5507
 247   2.0000      -0.420110       -11.4318
 248   2.0000      -0.418659       -11.3923
 249   2.0000      -0.416664       -11.3380
 250   2.0000      -0.413574       -11.2539
 251   2.0000      -0.412198       -11.2165
 252   2.0000      -0.409996       -11.1566
 253   2.0000      -0.402333       -10.9480
 254   2.0000      -0.399670       -10.8756
 255   2.0000      -0.394178       -10.7261
 256   2.0000      -0.391692       -10.6585
 257   2.0000      -0.384542       -10.4639
 258   2.0000      -0.382570       -10.4103
 259   2.0000      -0.378586       -10.3019
 260   2.0000      -0.377346       -10.2681
 261   2.0000      -0.377072       -10.2607
 262   2.0000      -0.372883       -10.1467
 263   2.0000      -0.370839       -10.0911
 264   2.0000      -0.369069       -10.0429
 265   2.0000      -0.365838        -9.9550
 266   2.0000      -0.364752        -9.9254
 267   2.0000      -0.360552        -9.8111
 268   2.0000      -0.356754        -9.7078
 269   2.0000      -0.348351        -9.4791
 270   2.0000      -0.339073        -9.2267
 271   2.0000      -0.337790        -9.1917
 272   2.0000      -0.332762        -9.0549
 273   2.0000      -0.325658        -8.8616
 274   2.0000      -0.318665        -8.6713
 275   2.0000      -0.317433        -8.6378
 276   2.0000      -0.310671        -8.4538
 277   2.0000      -0.301554        -8.2057
 278   2.0000      -0.299407        -8.1473
 279   2.0000      -0.295257        -8.0344
 280   2.0000      -0.288206        -7.8425
 281   2.0000      -0.286527        -7.7968
 282   2.0000      -0.278098        -7.5674
 283   2.0000      -0.236054        -6.4234
 284   0.0000      -0.119399        -3.2490
 285   0.0000      -0.093976        -2.5572
 286   0.0000      -0.077533        -2.1098
 287   0.0000      -0.065659        -1.7867
 288   0.0000      -0.052124        -1.4184

MULLIKEN ATOMIC CHARGES
-----------------------
   0 C :    0.299912
   1 C :   -0.336407
   2 C :   -0.177545
   3 N :    0.142895
   4 C :   -0.188681
   5 N :    0.156005
   6 C :    0.012932
   7 C :   -0.019275
   8 C :   -0.068849
   9 C :    0.115138
  10 C :   -0.087630
  11 C :   -0.019575
  12 S :    0.186806
  13 C :   -0.123448
  14 C :    0.040319
  15 Br:    0.026387
  16 C :    0.158567
  17 O :   -0.143391
  18 C :   -0.056385
  19 C :   -0.031501
  20 C :   -0.105041
  21 N :   -0.006225
  22 N :   -0.190287
  23 C :    0.106652
  24 C :    0.023466
  25 C :    0.116898
  26 N :   -0.250011
  27 S :    0.517585
  28 N :   -0.251485
  29 C :   -0.106515
  30 C :    0.017395
  31 C :    0.037347
  32 C :    0.037184
  33 C :   -0.053104
  34 S :    0.187490
  35 C :   -0.036747
  36 C :    0.036553
  37 C :    0.046343
  38 C :    0.011719
  39 S :    0.179587
  40 C :   -0.081732
  41 C :    0.071065
  42 N :   -0.158116
  43 N :   -0.006548
  44 C :   -0.163247
  45 C :    0.116623
  46 C :    0.048491
  47 N :   -0.251933
  48 S :    0.527730
  49 N :   -0.247511
  50 C :    0.026843
  51 C :   -0.093679
  52 C :    0.313312
  53 C :   -0.326100
  54 C :   -0.189576
  55 N :    0.155643
  56 C :   -0.160379
  57 N :    0.135797
  58 C :    0.002394
  59 C :   -0.003521
  60 C :    0.127379
  61 O :   -0.137383
  62 C :   -0.076372
  63 C :    0.099490
  64 C :   -0.066585
  65 C :   -0.013235
  66 S :    0.200197
  67 C :   -0.126623
  68 C :    0.048161
  69 Br:    0.015392
  70 H :   -0.009490
  71 H :   -0.004708
  72 H :   -0.002776
  73 H :    0.041005
  74 H :   -0.007692
  75 H :   -0.007530
  76 H :   -0.010325
  77 H :   -0.010671
  78 H :   -0.003379
  79 H :   -0.003988
  80 H :    0.036530
  81 H :   -0.007216
  82 H :   -0.004793
  83 H :    0.003975
Sum of atomic charges:   -0.0000000

LOEWDIN ATOMIC CHARGES
----------------------
   0 C :    0.080073
   1 C :   -0.138639
   2 C :   -0.009905
   3 N :   -0.060787
   4 C :   -0.015648
   5 N :   -0.050747
   6 C :   -0.022220
   7 C :   -0.046730
   8 C :    0.021816
   9 C :   -0.030649
  10 C :   -0.143917
  11 C :   -0.009022
  12 S :    0.433564
  13 C :   -0.270783
  14 C :   -0.070133
  15 Br:    0.139103
  16 C :    0.085258
  17 O :   -0.135158
  18 C :   -0.079760
  19 C :    0.079304
  20 C :   -0.047252
  21 N :   -0.007841
  22 N :   -0.091111
  23 C :    0.007439
  24 C :   -0.061449
  25 C :   -0.049711
  26 N :   -0.265543
  27 S :    0.657323
  28 N :   -0.273010
  29 C :   -0.075771
  30 C :   -0.106752
  31 C :   -0.033186
  32 C :   -0.014854
  33 C :   -0.187249
  34 S :    0.472260
  35 C :   -0.163419
  36 C :   -0.021527
  37 C :   -0.018843
  38 C :   -0.112815
  39 S :    0.462536
  40 C :   -0.059622
  41 C :    0.004572
  42 N :   -0.078520
  43 N :   -0.026596
  44 C :   -0.036045
  45 C :   -0.052939
  46 C :   -0.052234
  47 N :   -0.268818
  48 S :    0.665139
  49 N :   -0.270061
  50 C :    0.064331
  51 C :   -0.054784
  52 C :    0.080017
  53 C :   -0.125585
  54 C :   -0.016782
  55 N :   -0.049831
  56 C :   -0.006567
  57 N :   -0.066129
  58 C :   -0.019695
  59 C :   -0.057478
  60 C :    0.083900
  61 O :   -0.137976
  62 C :    0.020717
  63 C :   -0.031334
  64 C :   -0.133272
  65 C :   -0.004134
  66 S :    0.448951
  67 C :   -0.270088
  68 C :   -0.069943
  69 Br:    0.132932
  70 H :    0.041120
  71 H :    0.041055
  72 H :    0.039102
  73 H :    0.053384
  74 H :    0.039035
  75 H :    0.034903
  76 H :    0.030950
  77 H :    0.031678
  78 H :    0.036750
  79 H :    0.040740
  80 H :    0.052255
  81 H :    0.042242
  82 H :    0.041366
  83 H :    0.039046

  Mayer bond orders larger than 0.100000
B(  0-C ,  1-C ) :   1.6312 B(  0-C ,  6-C ) :   1.0174 B(  0-C , 18-C ) :   1.0597
B(  1-C ,  2-C ) :   1.1524 B(  1-C ,  4-C ) :   1.1581 B(  2-C ,  3-N ) :   2.9266
B(  4-C ,  5-N ) :   2.9483 B(  6-C ,  7-C ) :   1.2721 B(  6-C , 11-C ) :   1.4033
B(  7-C ,  8-C ) :   1.4277 B(  7-C , 16-C ) :   0.9422 B(  8-C ,  9-C ) :   1.2461
B(  8-C , 70-H ) :   1.0169 B(  9-C , 10-C ) :   1.3044 B(  9-C , 14-C ) :   1.1649
B( 10-C , 11-C ) :   1.3357 B( 10-C , 12-S ) :   1.0834 B( 11-C , 71-H ) :   0.9820
B( 12-S , 13-C ) :   1.0877 B( 13-C , 14-C ) :   1.6148 B( 13-C , 15-Br) :   1.0204
B( 14-C , 72-H ) :   1.0013 B( 16-C , 17-O ) :   2.2279 B( 16-C , 18-C ) :   0.9345
B( 18-C , 19-C ) :   1.6322 B( 19-C , 20-C ) :   1.1242 B( 19-C , 73-H ) :   0.9418
B( 20-C , 21-N ) :   1.6269 B( 20-C , 25-C ) :   1.1022 B( 21-N , 22-N ) :   1.3205
B( 22-N , 23-C ) :   1.3912 B( 22-N , 34-S ) :   0.1417 B( 23-C , 24-C ) :   1.0791
B( 23-C , 29-C ) :   1.2890 B( 24-C , 25-C ) :   1.2028 B( 24-C , 28-N ) :   1.5894
B( 25-C , 26-N ) :   1.5383 B( 26-N , 27-S ) :   1.2694 B( 26-N , 28-N ) :   0.1402
B( 27-S , 28-N ) :   1.2638 B( 29-C , 30-C ) :   1.4409 B( 29-C , 74-H ) :   0.9903
B( 30-C , 31-C ) :   1.1412 B( 30-C , 34-S ) :   1.1265 B( 31-C , 32-C ) :   1.5799
B( 31-C , 75-H ) :   1.0018 B( 32-C , 33-C ) :   1.1773 B( 32-C , 76-H ) :   0.9952
B( 33-C , 34-S ) :   0.9764 B( 33-C , 35-C ) :   1.5341 B( 35-C , 36-C ) :   1.1650
B( 35-C , 39-S ) :   1.0002 B( 36-C , 37-C ) :   1.6010 B( 36-C , 77-H ) :   0.9952
B( 37-C , 38-C ) :   1.1221 B( 37-C , 78-H ) :   1.0007 B( 38-C , 39-S ) :   1.0981
B( 38-C , 40-C ) :   1.5042 B( 39-S , 42-N ) :   0.1180 B( 40-C , 41-C ) :   1.2297
B( 40-C , 79-H ) :   0.9876 B( 41-C , 42-N ) :   1.4824 B( 41-C , 44-C ) :   0.1051
B( 41-C , 46-C ) :   1.0792 B( 42-N , 43-N ) :   1.2746 B( 43-N , 44-C ) :   1.6550
B( 44-C , 45-C ) :   1.0906 B( 44-C , 50-C ) :   1.0251 B( 45-C , 46-C ) :   1.2032
B( 45-C , 49-N ) :   1.5826 B( 46-C , 47-N ) :   1.5918 B( 47-N , 48-S ) :   1.2672
B( 47-N , 49-N ) :   0.1414 B( 48-S , 49-N ) :   1.2701 B( 50-C , 51-C ) :   1.7710
B( 50-C , 80-H ) :   0.9419 B( 51-C , 52-C ) :   1.0036 B( 51-C , 60-C ) :   0.9221
B( 52-C , 53-C ) :   1.6650 B( 52-C , 58-C ) :   1.0304 B( 53-C , 54-C ) :   1.1332
B( 53-C , 56-C ) :   1.1711 B( 54-C , 55-N ) :   2.9861 B( 56-C , 57-N ) :   2.9536
B( 58-C , 59-C ) :   1.2623 B( 58-C , 65-C ) :   1.4034 B( 59-C , 60-C ) :   0.9278
B( 59-C , 62-C ) :   1.4038 B( 60-C , 61-O ) :   2.2811 B( 62-C , 63-C ) :   1.2606
B( 62-C , 81-H ) :   1.0192 B( 63-C , 64-C ) :   1.2920 B( 63-C , 68-C ) :   1.1680
B( 64-C , 65-C ) :   1.3363 B( 64-C , 66-S ) :   1.0968 B( 65-C , 82-H ) :   0.9801
B( 66-S , 67-C ) :   1.0954 B( 67-C , 68-C ) :   1.6086 B( 67-C , 69-Br) :   1.0171
B( 68-C , 83-H ) :   0.9955

-----------------------------------------------------------------------------
         ABSORPTION SPECTRUM VIA TRANSITION ELECTRIC DIPOLE MOMENTS
-----------------------------------------------------------------------------
State   Energy  Wavelength   fosc         T2         TX        TY        TZ
        (cm-1)    (nm)                  (au**2)     (au)      (au)      (au)
-----------------------------------------------------------------------------
   0   10600.9    943.3   0.594064932  18.44882  -1.53351  -1.75046   3.61013
   1   15494.5    645.4   0.000821733   0.01746  -0.01452   0.01998  -0.12981
   2   16946.4    590.1   0.478831004   9.30209  -2.41433   1.68285  -0.80072
   3   17178.4    582.1   0.019725144   0.37802   0.47046  -0.39193   0.05552
   4   21174.5    472.3   0.166089008   2.58228  -0.15605  -0.26909   1.57655
   5   21258.7    470.4   0.242271641   3.75182   1.69244  -0.94035  -0.05660
   6   21843.6    457.8   0.430312913   6.48537   2.07555  -1.30212   0.69423
   7   22955.4    435.6   0.154161828   2.21089  -1.13182   0.93821   0.22276
   8   24097.7    415.0   0.018050996   0.24660  -0.33138   0.31787  -0.18907
   9   24312.0    411.3   0.018640368   0.25241  -0.15860   0.41712  -0.23080
  10   24989.5    400.2   0.024990006   0.32922  -0.40442   0.39877  -0.08150
  11   25022.3    399.6   0.110638748   1.45565   0.46631   0.82840  -0.74294
  12   25522.6    391.8   0.144617598   1.86540  -0.59851   0.78349  -0.94516
  13   25813.6    387.4   0.035515520   0.45295   0.13334   0.64810  -0.12302
  14   26222.7    381.3   0.120189881   1.50892   0.13975   0.01421  -1.22032
  15   26419.3    378.5   0.118964182   1.48242  -0.27197   1.12801   0.36885
  16   27086.3    369.2   0.031913541   0.38788   0.17105  -0.55262  -0.23074
  17   27222.4    367.3   0.135773449   1.64196  -0.50802   0.57384   1.02693
  18   27501.8    363.6   0.034410988   0.41192   0.33391   0.23760  -0.49393
  19   28060.0    356.4   0.004241915   0.04977  -0.03069  -0.02811  -0.21917
  20   28556.7    350.2   0.005580962   0.06434   0.04191  -0.02292   0.24911
  21   28662.5    348.9   0.054112258   0.62152  -0.38487   0.25487  -0.63909
  22   28840.7    346.7   0.028078844   0.32052   0.03644  -0.43411  -0.36157
  23   29035.4    344.4   0.070071373   0.79449  -0.00665   0.71668  -0.52992
  24   29194.3    342.5   0.017543202   0.19783   0.09992  -0.33343   0.27689
  25   29297.9    341.3   0.222178577   2.49656  -0.21057   0.82968  -1.32810
  26   30227.9    330.8   0.103560315   1.12787   0.33899   0.13668   0.99713
  27   30492.8    327.9   0.089469533   0.96595  -0.57894   0.58410   0.53815
  28   30920.7    323.4   0.365173389   3.88799   0.57797   1.82006  -0.49126
  29   31718.6    315.3   0.054321643   0.56381  -0.00297  -0.34755   0.66559
  30   31740.5    315.1   0.060922905   0.63189  -0.41127  -0.48509   0.47690
  31   31914.3    313.3   0.253727910   2.61733  -0.77341   0.24468  -1.39975
  32   32096.9    311.6   0.002575329   0.02641   0.13423   0.06836   0.06102
  33   32254.7    310.0   0.063577498   0.64891   0.30051   0.70284   0.25421
  34   32562.1    307.1   0.046371506   0.46883   0.28447   0.57036   0.25018
  35   32766.1    305.2   0.054081570   0.54338  -0.18376   0.68487  -0.20139
  36   32947.7    303.5   0.001354405   0.01353  -0.03096  -0.09546   0.05884
  37   33197.2    301.2   0.052775902   0.52337   0.24937  -0.67436  -0.08016
  38   33689.9    296.8   0.076426458   0.74683   0.31389  -0.68398   0.42481
  39   34008.8    294.0   0.018891317   0.18287   0.25012   0.06205   0.34126
  40   34044.6    293.7   0.170958735   1.65318   0.80075  -0.86494   0.51367
  41   34148.6    292.8   0.065123585   0.62783  -0.62299  -0.19226  -0.45028
  42   34237.2    292.1   0.002281188   0.02194  -0.10574  -0.03115   0.09891
  43   34362.3    291.0   0.059290853   0.56804  -0.52956  -0.34592   0.40982
  44   34714.4    288.1   0.073938390   0.70119  -0.16706   0.77909  -0.25750
  45   34921.8    286.4   0.018848707   0.17769  -0.14715   0.02511  -0.39422
  46   35222.9    283.9   0.019640930   0.18357  -0.09971   0.41635  -0.01678
  47   35462.3    282.0   0.149267454   1.38571  -0.91876  -0.73591   0.00638
  48   35578.6    281.1   0.047725902   0.44161  -0.03321  -0.30145   0.59130
  49   35676.8    280.3   0.009416807   0.08689  -0.17059  -0.23858   0.02957
  50   35953.3    278.1   0.035808244   0.32788  -0.39052  -0.35238   0.22629
  51   36227.6    276.0   0.070221260   0.63812   0.37599   0.38328  -0.59148
  52   36430.9    274.5   0.024963207   0.22558  -0.12078   0.44772   0.10265
  53   36565.2    273.5   0.005811386   0.05232  -0.06063   0.08949   0.20159
  54   36672.6    272.7   0.047653186   0.42779   0.28892   0.54233   0.22403
  55   36932.5    270.8   0.009172530   0.08176  -0.17039   0.22528   0.04448
  56   37084.7    269.7   0.001423745   0.01264   0.04562  -0.09450  -0.04035
  57   37271.3    268.3   0.059232081   0.52319  -0.13719   0.40634  -0.58246
  58   37430.4    267.2   0.075799052   0.66668  -0.24968  -0.29867  -0.71773
  59   37461.5    266.9   0.015100622   0.13270   0.34327   0.12163  -0.00886
  60   37637.0    265.7   0.006144533   0.05375  -0.09350  -0.19780  -0.07669
  61   37673.6    265.4   0.030784602   0.26901   0.30468  -0.36258   0.21148
  62   37694.7    265.3   0.048800527   0.42621  -0.40073   0.51144   0.06363
  63   37941.1    263.6   0.039428981   0.34212  -0.19528   0.08095  -0.54538
  64   38255.0    261.4   0.031640779   0.27229  -0.11662   0.28464   0.42151
  65   38475.9    259.9   0.026297093   0.22501  -0.00300  -0.32503   0.34547
  66   38564.5    259.3   0.070005151   0.59761  -0.52755   0.43602   0.35943
  67   38867.3    257.3   0.011146460   0.09441   0.17015  -0.03225  -0.25381
  68   38956.0    256.7   0.036781598   0.31084  -0.39208   0.39618  -0.01258
  69   38983.1    256.5   0.113527347   0.95874  -0.63173   0.42241  -0.61744
  70   39414.2    253.7   0.079659349   0.66536   0.31004   0.06692   0.75151
  71   39516.4    253.1   0.055005277   0.45825  -0.54602   0.30699   0.25665
  72   39693.4    251.9   0.071941768   0.59668  -0.33752  -0.34418  -0.60357
  73   39802.0    251.2   0.045483767   0.37621  -0.51542  -0.04863  -0.32892
  74   39891.4    250.7   0.034961324   0.28853  -0.06389   0.01815  -0.53302
  75   40046.0    249.7   0.087098643   0.71602   0.37331  -0.57137  -0.50020
  76   40193.5    248.8   0.099906571   0.81830  -0.10084   0.89070  -0.12158

FINAL SINGLE POINT ENERGY    -10177.800005381450

DIPOLE MOMENT
-------------
                                X             Y             Z
Electronic contribution:     66.01483    -100.14624      88.20825
Nuclear contribution   :    -69.49328      98.73545     -88.53374
                        -----------------------------------------
Total Dipole Moment    :     -3.47844      -1.41078      -0.32549
                        -----------------------------------------
Magnitude (a.u.)       :      3.76773
Magnitude (Debye)      :      9.57682

Rotational constants in cm-1:     0.000775     0.000447     0.000391
Rotational constants in MHz :    23.227380    13.386346    11.725578

                             ****ORCA TERMINATED NORMALLY****
TOTAL RUN TIME: 0 days 0 hours 8 minutes 29 seconds 571 msec
