                         Program Version 4.2.0 -  RELEASE  -
|  1> # ORCA input file
|  2> # SCF done       -173.740684076012          0.000949951389
|  3> ! CAM-B3LYP def2-SVP def2/J RIJCOSX Grid4 TightSCF
|  4> %maxcore 5000
|  5> %tddft
|  6>     Mode sTDDFT
|  7>     Ethresh 5.0
|  8>     maxcore 5000
|  9> end
| 10>
| 11> %pal
| 12>   nprocs 6
| 13>   end
| 14> * xyz 0 1
| 15>    C       -4.61617        -0.46875        -3.31879
| 16>    C       -3.81322        -1.37630        -2.67276
| 17>    C       -2.96843        -2.29728        -3.32769
| 18>    N       -2.26987        -3.08300        -3.78867
| 19>    C       -3.74266        -1.57899        -1.28312
| 20>    N       -3.63230        -1.84101        -0.16832
| 21>    C       -4.70699        -0.32101        -4.76547
| 22>    C       -5.76330         0.57246        -5.06401
| 23>    C       -6.10422         0.91342        -6.34949
| 24>    C       -5.35565         0.35688        -7.39254
| 25>    C       -4.29403        -0.52795        -7.08434
| 26>    C       -3.95675        -0.88054        -5.78393
| 27>    S       -3.49496        -1.09208        -8.52033
| 28>    C       -4.58169        -0.14580        -9.50162
| 29>    C       -5.49716         0.55736        -8.79215
| 30>   Br       -4.40489        -0.17411       -11.36789
| 31>    C       -6.38342         1.04240        -3.80614
| 32>    O       -7.38155         1.71922        -3.71640
| 33>    C       -5.56007         0.45291        -2.71731
| 34>    C       -5.67044         0.69184        -1.37488
| 35>    C       -6.48914         1.63548        -0.71969
| 36>    O       -7.09160         2.65620        -1.39275
| 37>    C       -7.67556         3.45828        -0.54074
| 38>    C       -7.49550         3.00888         0.75148
| 39>    N       -7.95885         3.62577         1.92699
| 40>    O       -8.67641         4.59422         1.81719
| 41>    O       -7.59162         3.14463         2.99116
| 42>    C       -6.73296         1.79449         0.65742
| 43>    N       -6.38584         1.06818         1.73792
| 44>    C       -6.03029        -0.26085         1.86424
| 45>    C       -5.42323        -0.69447         3.03689
| 46>    N       -5.06058        -1.94091         3.29527
| 47>    C       -5.24313        -2.91832         2.42927
| 48>    C       -5.94242        -2.63670         1.22280
| 49>    C       -6.34594        -1.28108         0.94087
| 50>    N       -7.04763        -1.18876        -0.19077
| 51>    S       -7.19132        -2.65975        -0.82640
| 52>    N       -6.38242        -3.47669         0.28814
| 53>    C       -4.75255        -4.21574         2.85022
| 54>    C       -4.23299        -5.19571         2.10361
| 55>    C       -4.05218        -5.15622         0.62023
| 56>    C       -3.73203        -6.44809         2.77428
| 57>    N       -4.49693        -7.59703         2.33683
| 58>    C       -4.64521        -8.70341         3.05936
| 59>    C       -5.41392        -9.77257         2.68491
| 60>    C       -5.55193       -10.96831         3.39892
| 61>    C       -5.20103       -11.32697         4.68213
| 62>    C       -4.88516       -10.60672         5.88432
| 63>    C       -5.28583        -9.33676         6.24007
| 64>    C       -5.00740        -8.73649         7.48207
| 65>    N       -4.79434        -8.17901         8.46403
| 66>    C       -6.06778        -8.50081         5.42805
| 67>    N       -6.68584        -7.77358         4.78663
| 68>    C       -4.26022       -11.55064         6.81341
| 69>    C       -4.38509       -12.85678         6.28291
| 70>    C       -5.04806       -12.77306         4.96341
| 71>    O       -5.36580       -13.69512         4.24232
| 72>    C       -3.91509       -13.96823         6.93641
| 73>    C       -3.27593       -13.77926         8.16750
| 74>    C       -3.14234       -12.46925         8.68114
| 75>    C       -3.62985       -11.34486         8.02428
| 76>    S       -2.30450       -12.46168        10.20435
| 77>    C       -2.15029       -14.19684        10.13135
| 78>    C       -2.69692       -14.75468         9.02592
| 79>   Br       -1.27919       -15.10737        11.52192
| 80>    H       -6.91819         1.59367        -6.54481
| 81>    H       -3.13787        -1.55598        -5.60121
| 82>    H       -6.24149         1.19211        -9.23702
| 83>    H       -5.00712         0.15797        -0.71044
| 84>    H       -8.18744         4.32826        -0.90660
| 85>    H       -6.55129         1.56276         2.61820
| 86>    H       -5.20939         0.01678         3.82417
| 87>    H       -4.75001        -4.31987         3.92710
| 88>    H       -3.79321        -4.15072         0.29838
| 89>    H       -4.97406        -5.42900         0.10872
| 90>    H       -3.26342        -5.83814         0.31060
| 91>    H       -3.81038        -6.36145         3.86151
| 92>    H       -2.67296        -6.59655         2.51616
| 93>    H       -5.07408        -7.47752         1.51711
| 94>    H       -4.03138        -8.75782         3.94822
| 95>    H       -5.91470        -9.71990         1.72747
| 96>    H       -5.93999       -11.80646         2.82619
| 97>    H       -4.03250       -14.95317         6.51261
| 98>    H       -3.49856       -10.36598         8.45468
| 99>    H       -2.69203       -15.80962         8.82070
|100> *
|101>
|102>                          ****END OF INPUT****

CARTESIAN COORDINATES (ANGSTROEM)
---------------------------------
  C     -4.616170   -0.468750   -3.318790
  C     -3.813220   -1.376300   -2.672760
  C     -2.968430   -2.297280   -3.327690
  N     -2.269870   -3.083000   -3.788670
  C     -3.742660   -1.578990   -1.283120
  N     -3.632300   -1.841010   -0.168320
  C     -4.706990   -0.321010   -4.765470
  C     -5.763300    0.572460   -5.064010
  C     -6.104220    0.913420   -6.349490
  C     -5.355650    0.356880   -7.392540
  C     -4.294030   -0.527950   -7.084340
  C     -3.956750   -0.880540   -5.783930
  S     -3.494960   -1.092080   -8.520330
  C     -4.581690   -0.145800   -9.501620
  C     -5.497160    0.557360   -8.792150
  Br    -4.404890   -0.174110  -11.367890
  C     -6.383420    1.042400   -3.806140
  O     -7.381550    1.719220   -3.716400
  C     -5.560070    0.452910   -2.717310
  C     -5.670440    0.691840   -1.374880
  C     -6.489140    1.635480   -0.719690
  O     -7.091600    2.656200   -1.392750
  C     -7.675560    3.458280   -0.540740
  C     -7.495500    3.008880    0.751480
  N     -7.958850    3.625770    1.926990
  O     -8.676410    4.594220    1.817190
  O     -7.591620    3.144630    2.991160
  C     -6.732960    1.794490    0.657420
  N     -6.385840    1.068180    1.737920
  C     -6.030290   -0.260850    1.864240
  C     -5.423230   -0.694470    3.036890
  N     -5.060580   -1.940910    3.295270
  C     -5.243130   -2.918320    2.429270
  C     -5.942420   -2.636700    1.222800
  C     -6.345940   -1.281080    0.940870
  N     -7.047630   -1.188760   -0.190770
  S     -7.191320   -2.659750   -0.826400
  N     -6.382420   -3.476690    0.288140
  C     -4.752550   -4.215740    2.850220
  C     -4.232990   -5.195710    2.103610
  C     -4.052180   -5.156220    0.620230
  C     -3.732030   -6.448090    2.774280
  N     -4.496930   -7.597030    2.336830
  C     -4.645210   -8.703410    3.059360
  C     -5.413920   -9.772570    2.684910
  C     -5.551930  -10.968310    3.398920
  C     -5.201030  -11.326970    4.682130
  C     -4.885160  -10.606720    5.884320
  C     -5.285830   -9.336760    6.240070
  C     -5.007400   -8.736490    7.482070
  N     -4.794340   -8.179010    8.464030
  C     -6.067780   -8.500810    5.428050
  N     -6.685840   -7.773580    4.786630
  C     -4.260220  -11.550640    6.813410
  C     -4.385090  -12.856780    6.282910
  C     -5.048060  -12.773060    4.963410
  O     -5.365800  -13.695120    4.242320
  C     -3.915090  -13.968230    6.936410
  C     -3.275930  -13.779260    8.167500
  C     -3.142340  -12.469250    8.681140
  C     -3.629850  -11.344860    8.024280
  S     -2.304500  -12.461680   10.204350
  C     -2.150290  -14.196840   10.131350
  C     -2.696920  -14.754680    9.025920
  Br    -1.279190  -15.107370   11.521920
  H     -6.918190    1.593670   -6.544810
  H     -3.137870   -1.555980   -5.601210
  H     -6.241490    1.192110   -9.237020
  H     -5.007120    0.157970   -0.710440
  H     -8.187440    4.328260   -0.906600
  H     -6.551290    1.562760    2.618200
  H     -5.209390    0.016780    3.824170
  H     -4.750010   -4.319870    3.927100
  H     -3.793210   -4.150720    0.298380
  H     -4.974060   -5.429000    0.108720
  H     -3.263420   -5.838140    0.310600
  H     -3.810380   -6.361450    3.861510
  H     -2.672960   -6.596550    2.516160
  H     -5.074080   -7.477520    1.517110
  H     -4.031380   -8.757820    3.948220
  H     -5.914700   -9.719900    1.727470
  H     -5.939990  -11.806460    2.826190
  H     -4.032500  -14.953170    6.512610
  H     -3.498560  -10.365980    8.454680
  H     -2.692030  -15.809620    8.820700

 Total Charge           Charge          ....    0
 Multiplicity           Mult            ....    1
 Number of Electrons    NEL             ....  518
 Basis Dimension        Dim             .... 1058

ORBITAL ENERGIES
----------------

  NO   OCC          E(Eh)            E(eV)
   0   2.0000    -482.890611    -13140.1216
   1   2.0000    -482.875663    -13139.7148
   2   2.0000     -89.045259     -2423.0447
   3   2.0000     -88.981193     -2421.3014
   4   2.0000     -88.963203     -2420.8118
   5   2.0000     -62.568336     -1702.5710
   6   2.0000     -62.553399     -1702.1645
   7   2.0000     -56.402290     -1534.7843
   8   2.0000     -56.399566     -1534.7102
   9   2.0000     -56.399535     -1534.7094
  10   2.0000     -56.387334     -1534.3774
  11   2.0000     -56.384647     -1534.3042
  12   2.0000     -56.384604     -1534.3031
  13   2.0000     -19.333250      -526.0845
  14   2.0000     -19.268632      -524.3261
  15   2.0000     -19.267020      -524.2823
  16   2.0000     -19.216797      -522.9156
  17   2.0000     -19.192041      -522.2420
  18   2.0000     -14.678654      -399.4265
  19   2.0000     -14.484041      -394.1308
  20   2.0000     -14.463962      -393.5844
  21   2.0000     -14.458712      -393.4415
  22   2.0000     -14.456596      -393.3840
  23   2.0000     -14.434660      -392.7871
  24   2.0000     -14.421946      -392.4411
  25   2.0000     -14.418834      -392.3564
  26   2.0000     -14.403733      -391.9455
  27   2.0000     -14.398196      -391.7948
  28   2.0000     -10.389551      -282.7141
  29   2.0000     -10.375103      -282.3209
  30   2.0000     -10.370661      -282.2000
  31   2.0000     -10.364629      -282.0359
  32   2.0000     -10.361355      -281.9468
  33   2.0000     -10.351189      -281.6702
  34   2.0000     -10.350759      -281.6585
  35   2.0000     -10.349049      -281.6119
  36   2.0000     -10.348319      -281.5921
  37   2.0000     -10.346625      -281.5460
  38   2.0000     -10.345765      -281.5226
  39   2.0000     -10.344719      -281.4941
  40   2.0000     -10.343566      -281.4627
  41   2.0000     -10.339748      -281.3588
  42   2.0000     -10.339188      -281.3436
  43   2.0000     -10.335866      -281.2532
  44   2.0000     -10.332445      -281.1601
  45   2.0000     -10.330931      -281.1189
  46   2.0000     -10.325934      -280.9829
  47   2.0000     -10.325398      -280.9684
  48   2.0000     -10.322577      -280.8916
  49   2.0000     -10.321563      -280.8640
  50   2.0000     -10.319476      -280.8072
  51   2.0000     -10.313702      -280.6501
  52   2.0000     -10.313538      -280.6456
  53   2.0000     -10.312260      -280.6109
  54   2.0000     -10.311335      -280.5857
  55   2.0000     -10.306551      -280.4555
  56   2.0000     -10.305765      -280.4341
  57   2.0000     -10.303242      -280.3655
  58   2.0000     -10.303115      -280.3620
  59   2.0000     -10.301916      -280.3294
  60   2.0000     -10.299507      -280.2638
  61   2.0000     -10.297045      -280.1968
  62   2.0000     -10.294150      -280.1181
  63   2.0000     -10.292992      -280.0865
  64   2.0000     -10.291969      -280.0587
  65   2.0000     -10.290718      -280.0247
  66   2.0000     -10.286004      -279.8964
  67   2.0000     -10.285086      -279.8714
  68   2.0000     -10.275376      -279.6072
  69   2.0000     -10.274702      -279.5889
  70   2.0000     -10.266926      -279.3772
  71   2.0000     -10.266516      -279.3661
  72   2.0000     -10.263545      -279.2853
  73   2.0000      -8.797779      -239.3997
  74   2.0000      -8.782836      -238.9931
  75   2.0000      -8.136589      -221.4078
  76   2.0000      -8.077110      -219.7893
  77   2.0000      -8.059235      -219.3029
  78   2.0000      -6.634097      -180.5230
  79   2.0000      -6.619516      -180.1262
  80   2.0000      -6.619295      -180.1202
  81   2.0000      -6.619080      -180.1143
  82   2.0000      -6.604576      -179.7196
  83   2.0000      -6.604430      -179.7157
  84   2.0000      -6.107774      -166.2010
  85   2.0000      -6.099997      -165.9893
  86   2.0000      -6.099130      -165.9658
  87   2.0000      -6.046816      -164.5422
  88   2.0000      -6.042507      -164.4250
  89   2.0000      -6.038363      -164.3122
  90   2.0000      -6.028934      -164.0556
  91   2.0000      -6.024673      -163.9397
  92   2.0000      -6.020438      -163.8244
  93   2.0000      -2.749953       -74.8300
  94   2.0000      -2.745877       -74.7191
  95   2.0000      -2.745721       -74.7149
  96   2.0000      -2.734979       -74.4226
  97   2.0000      -2.734123       -74.3993
  98   2.0000      -2.734103       -74.3987
  99   2.0000      -2.730882       -74.3111
 100   2.0000      -2.730756       -74.3076
 101   2.0000      -2.719248       -73.9945
 102   2.0000      -2.719236       -73.9942
 103   2.0000      -1.348099       -36.6836
 104   2.0000      -1.261126       -34.3170
 105   2.0000      -1.167649       -31.7733
 106   2.0000      -1.144971       -31.1562
 107   2.0000      -1.133635       -30.8478
 108   2.0000      -1.107024       -30.1236
 109   2.0000      -1.090777       -29.6815
 110   2.0000      -1.062756       -28.9191
 111   2.0000      -1.051366       -28.6091
 112   2.0000      -1.032934       -28.1076
 113   2.0000      -1.023864       -27.8608
 114   2.0000      -1.008141       -27.4329
 115   2.0000      -1.007287       -27.4097
 116   2.0000      -0.999675       -27.2025
 117   2.0000      -0.997553       -27.1448
 118   2.0000      -0.995692       -27.0941
 119   2.0000      -0.980642       -26.6846
 120   2.0000      -0.972723       -26.4692
 121   2.0000      -0.968127       -26.3441
 122   2.0000      -0.952113       -25.9083
 123   2.0000      -0.931576       -25.3495
 124   2.0000      -0.929419       -25.2908
 125   2.0000      -0.922729       -25.1087
 126   2.0000      -0.915480       -24.9115
 127   2.0000      -0.908472       -24.7208
 128   2.0000      -0.896895       -24.4058
 129   2.0000      -0.893578       -24.3155
 130   2.0000      -0.892102       -24.2753
 131   2.0000      -0.888381       -24.1741
 132   2.0000      -0.874678       -23.8012
 133   2.0000      -0.871616       -23.7179
 134   2.0000      -0.860609       -23.4184
 135   2.0000      -0.849719       -23.1220
 136   2.0000      -0.835570       -22.7370
 137   2.0000      -0.831801       -22.6345
 138   2.0000      -0.821638       -22.3579
 139   2.0000      -0.814816       -22.1723
 140   2.0000      -0.802183       -21.8285
 141   2.0000      -0.785297       -21.3690
 142   2.0000      -0.783699       -21.3255
 143   2.0000      -0.767195       -20.8764
 144   2.0000      -0.763448       -20.7745
 145   2.0000      -0.752164       -20.4674
 146   2.0000      -0.746908       -20.3244
 147   2.0000      -0.740112       -20.1395
 148   2.0000      -0.735873       -20.0241
 149   2.0000      -0.725161       -19.7326
 150   2.0000      -0.716632       -19.5006
 151   2.0000      -0.708387       -19.2762
 152   2.0000      -0.698635       -19.0108
 153   2.0000      -0.690484       -18.7890
 154   2.0000      -0.686947       -18.6928
 155   2.0000      -0.674166       -18.3450
 156   2.0000      -0.671768       -18.2797
 157   2.0000      -0.667147       -18.1540
 158   2.0000      -0.662174       -18.0187
 159   2.0000      -0.659333       -17.9414
 160   2.0000      -0.653671       -17.7873
 161   2.0000      -0.646619       -17.5954
 162   2.0000      -0.643434       -17.5087
 163   2.0000      -0.636298       -17.3146
 164   2.0000      -0.629663       -17.1340
 165   2.0000      -0.623252       -16.9595
 166   2.0000      -0.618570       -16.8321
 167   2.0000      -0.614260       -16.7149
 168   2.0000      -0.610420       -16.6104
 169   2.0000      -0.607680       -16.5358
 170   2.0000      -0.605240       -16.4694
 171   2.0000      -0.601584       -16.3699
 172   2.0000      -0.597878       -16.2691
 173   2.0000      -0.593972       -16.1628
 174   2.0000      -0.587690       -15.9918
 175   2.0000      -0.582021       -15.8376
 176   2.0000      -0.580432       -15.7944
 177   2.0000      -0.576719       -15.6933
 178   2.0000      -0.569041       -15.4844
 179   2.0000      -0.568543       -15.4709
 180   2.0000      -0.559707       -15.2304
 181   2.0000      -0.554854       -15.0983
 182   2.0000      -0.554468       -15.0878
 183   2.0000      -0.546032       -14.8583
 184   2.0000      -0.544014       -14.8034
 185   2.0000      -0.538829       -14.6623
 186   2.0000      -0.535571       -14.5736
 187   2.0000      -0.533859       -14.5270
 188   2.0000      -0.529934       -14.4202
 189   2.0000      -0.526534       -14.3277
 190   2.0000      -0.523905       -14.2562
 191   2.0000      -0.518151       -14.0996
 192   2.0000      -0.517387       -14.0788
 193   2.0000      -0.514585       -14.0026
 194   2.0000      -0.512510       -13.9461
 195   2.0000      -0.508760       -13.8441
 196   2.0000      -0.507272       -13.8036
 197   2.0000      -0.502763       -13.6809
 198   2.0000      -0.502496       -13.6736
 199   2.0000      -0.500499       -13.6193
 200   2.0000      -0.497474       -13.5370
 201   2.0000      -0.493547       -13.4301
 202   2.0000      -0.486755       -13.2453
 203   2.0000      -0.484614       -13.1870
 204   2.0000      -0.483597       -13.1594
 205   2.0000      -0.480302       -13.0697
 206   2.0000      -0.480261       -13.0686
 207   2.0000      -0.474937       -12.9237
 208   2.0000      -0.473112       -12.8740
 209   2.0000      -0.469587       -12.7781
 210   2.0000      -0.465925       -12.6785
 211   2.0000      -0.464089       -12.6285
 212   2.0000      -0.455721       -12.4008
 213   2.0000      -0.453626       -12.3438
 214   2.0000      -0.452408       -12.3106
 215   2.0000      -0.451360       -12.2821
 216   2.0000      -0.449475       -12.2308
 217   2.0000      -0.447296       -12.1716
 218   2.0000      -0.446576       -12.1520
 219   2.0000      -0.441537       -12.0148
 220   2.0000      -0.438810       -11.9406
 221   2.0000      -0.438559       -11.9338
 222   2.0000      -0.437029       -11.8922
 223   2.0000      -0.432017       -11.7558
 224   2.0000      -0.428863       -11.6699
 225   2.0000      -0.426412       -11.6033
 226   2.0000      -0.424987       -11.5645
 227   2.0000      -0.423477       -11.5234
 228   2.0000      -0.418825       -11.3968
 229   2.0000      -0.417625       -11.3641
 230   2.0000      -0.413522       -11.2525
 231   2.0000      -0.411666       -11.2020
 232   2.0000      -0.406726       -11.0676
 233   2.0000      -0.406352       -11.0574
 234   2.0000      -0.402647       -10.9566
 235   2.0000      -0.397157       -10.8072
 236   2.0000      -0.395793       -10.7701
 237   2.0000      -0.393345       -10.7035
 238   2.0000      -0.391967       -10.6660
 239   2.0000      -0.385193       -10.4816
 240   2.0000      -0.379921       -10.3382
 241   2.0000      -0.375679       -10.2227
 242   2.0000      -0.374068       -10.1789
 243   2.0000      -0.365350        -9.9417
 244   2.0000      -0.364735        -9.9249
 245   2.0000      -0.363574        -9.8933
 246   2.0000      -0.356607        -9.7038
 247   2.0000      -0.347607        -9.4589
 248   2.0000      -0.342822        -9.3287
 249   2.0000      -0.337845        -9.1932
 250   2.0000      -0.337480        -9.1833
 251   2.0000      -0.320901        -8.7322
 252   2.0000      -0.315374        -8.5818
 253   2.0000      -0.312087        -8.4923
 254   2.0000      -0.301548        -8.2055
 255   2.0000      -0.300472        -8.1763
 256   2.0000      -0.281998        -7.6736
 257   2.0000      -0.269308        -7.3282
 258   2.0000      -0.255888        -6.9631
 259   0.0000      -0.103787        -2.8242
 260   0.0000      -0.077796        -2.1169
 261   0.0000      -0.065938        -1.7943
 262   0.0000      -0.065787        -1.7901
 263   0.0000      -0.054840        -1.4923

MULLIKEN ATOMIC CHARGES
-----------------------
   0 C :    0.330793
   1 C :   -0.387779
   2 C :   -0.197163
   3 N :    0.155737
   4 C :   -0.132322
   5 N :    0.103091
   6 C :    0.009915
   7 C :   -0.010507
   8 C :   -0.076062
   9 C :    0.119911
  10 C :   -0.091413
  11 C :   -0.021166
  12 S :    0.187105
  13 C :   -0.123937
  14 C :    0.037966
  15 Br:    0.027420
  16 C :    0.127054
  17 O :   -0.134842
  18 C :   -0.123563
  19 C :   -0.020069
  20 C :    0.036573
  21 O :   -0.116478
  22 C :    0.108242
  23 C :    0.095377
  24 N :    0.290713
  25 O :   -0.226230
  26 O :   -0.268439
  27 C :    0.077559
  28 N :    0.023611
  29 C :    0.056727
  30 C :   -0.065987
  31 N :   -0.022529
  32 C :   -0.048092
  33 C :    0.066437
  34 C :    0.016321
  35 N :   -0.308177
  36 S :    0.525329
  37 N :   -0.258203
  38 C :    0.031773
  39 C :   -0.245578
  40 C :    0.110375
  41 C :    0.224135
  42 N :   -0.130398
  43 C :    0.092344
  44 C :   -0.024879
  45 C :    0.044896
  46 C :   -0.160767
  47 C :    0.288951
  48 C :   -0.379900
  49 C :   -0.175512
  50 N :    0.138011
  51 C :   -0.208506
  52 N :    0.145327
  53 C :   -0.006445
  54 C :    0.011708
  55 C :    0.130788
  56 O :   -0.163670
  57 C :   -0.083733
  58 C :    0.116216
  59 C :   -0.087985
  60 C :   -0.030621
  61 S :    0.175645
  62 C :   -0.124614
  63 C :    0.036223
  64 Br:    0.013163
  65 H :   -0.009424
  66 H :   -0.004723
  67 H :   -0.001709
  68 H :    0.027113
  69 H :    0.041771
  70 H :    0.150929
  71 H :   -0.000822
  72 H :    0.003418
  73 H :    0.031664
  74 H :    0.041269
  75 H :    0.008575
  76 H :    0.029491
  77 H :    0.033561
  78 H :    0.137378
  79 H :    0.037147
  80 H :   -0.017939
  81 H :    0.021609
  82 H :   -0.015081
  83 H :   -0.008114
  84 H :   -0.005983
Sum of atomic charges:    0.0000000

LOEWDIN ATOMIC CHARGES
----------------------
   0 C :    0.082637
   1 C :   -0.162169
   2 C :   -0.021860
   3 N :   -0.058066
   4 C :   -0.007158
   5 N :   -0.066114
   6 C :   -0.025459
   7 C :   -0.048446
   8 C :    0.019696
   9 C :   -0.030678
  10 C :   -0.145752
  11 C :   -0.009038
  12 S :    0.433189
  13 C :   -0.270528
  14 C :   -0.070688
  15 Br:    0.139611
  16 C :    0.073087
  17 O :   -0.138649
  18 C :   -0.111981
  19 C :    0.059993
  20 C :   -0.021371
  21 O :    0.080892
  22 C :    0.118988
  23 C :   -0.110520
  24 N :    0.294431
  25 O :   -0.188619
  26 O :   -0.215775
  27 C :    0.038717
  28 N :    0.052223
  29 C :   -0.014273
  30 C :   -0.002788
  31 N :   -0.048807
  32 C :    0.021137
  33 C :   -0.048934
  34 C :   -0.056717
  35 N :   -0.283995
  36 S :    0.660488
  37 N :   -0.253725
  38 C :   -0.033552
  39 C :   -0.015222
  40 C :   -0.063679
  41 C :    0.052483
  42 N :    0.047928
  43 C :    0.115942
  44 C :   -0.130647
  45 C :    0.078652
  46 C :   -0.143397
  47 C :    0.069804
  48 C :   -0.178722
  49 C :   -0.024099
  50 N :   -0.073205
  51 C :   -0.015688
  52 N :   -0.068500
  53 C :   -0.018194
  54 C :   -0.049696
  55 C :    0.080206
  56 O :   -0.162587
  57 C :    0.017456
  58 C :   -0.037246
  59 C :   -0.146586
  60 C :   -0.017216
  61 S :    0.424559
  62 C :   -0.275872
  63 C :   -0.070806
  64 Br:    0.128233
  65 H :    0.040828
  66 H :    0.040962
  67 H :    0.039337
  68 H :    0.046872
  69 H :    0.046153
  70 H :    0.086182
  71 H :    0.026941
  72 H :    0.040563
  73 H :    0.038115
  74 H :    0.033478
  75 H :    0.026520
  76 H :    0.033413
  77 H :    0.029538
  78 H :    0.089926
  79 H :    0.038733
  80 H :    0.027936
  81 H :    0.045571
  82 H :    0.039074
  83 H :    0.039015
  84 H :    0.037514

  Mayer bond orders larger than 0.100000
B(  0-C ,  1-C ) :   1.5877 B(  0-C ,  6-C ) :   1.0030 B(  0-C , 18-C ) :   1.0933
B(  1-C ,  2-C ) :   1.1400 B(  1-C ,  4-C ) :   1.1736 B(  2-C ,  3-N ) :   2.9803
B(  4-C ,  5-N ) :   2.8079 B(  6-C ,  7-C ) :   1.2754 B(  6-C , 11-C ) :   1.4036
B(  7-C ,  8-C ) :   1.4300 B(  7-C , 16-C ) :   0.9282 B(  8-C ,  9-C ) :   1.2418
B(  8-C , 65-H ) :   1.0171 B(  9-C , 10-C ) :   1.3050 B(  9-C , 14-C ) :   1.1656
B( 10-C , 11-C ) :   1.3349 B( 10-C , 12-S ) :   1.0844 B( 11-C , 66-H ) :   0.9805
B( 12-S , 13-C ) :   1.0883 B( 13-C , 14-C ) :   1.6156 B( 13-C , 15-Br) :   1.0208
B( 14-C , 67-H ) :   1.0003 B( 16-C , 17-O ) :   2.2739 B( 16-C , 18-C ) :   0.9263
B( 18-C , 19-C ) :   1.5656 B( 19-C , 20-C ) :   1.2373 B( 19-C , 68-H ) :   0.9155
B( 20-C , 21-O ) :   1.0930 B( 20-C , 27-C ) :   1.3080 B( 21-O , 22-C ) :   1.2780
B( 22-C , 23-C ) :   1.3899 B( 22-C , 69-H ) :   1.0164 B( 23-C , 24-N ) :   0.9509
B( 23-C , 27-C ) :   1.2543 B( 24-N , 25-O ) :   1.5622 B( 24-N , 26-O ) :   1.4624
B( 25-O , 26-O ) :   0.2575 B( 26-O , 70-H ) :   0.1059 B( 27-C , 28-N ) :   1.2896
B( 28-N , 29-C ) :   1.0948 B( 28-N , 70-H ) :   0.8462 B( 29-C , 30-C ) :   1.4148
B( 29-C , 32-C ) :   0.1018 B( 29-C , 34-C ) :   1.2499 B( 30-C , 31-N ) :   1.4761
B( 30-C , 71-H ) :   0.9829 B( 31-N , 32-C ) :   1.6419 B( 32-C , 33-C ) :   1.1449
B( 32-C , 38-C ) :   1.0644 B( 33-C , 34-C ) :   1.1883 B( 33-C , 37-N ) :   1.5187
B( 34-C , 35-N ) :   1.4706 B( 35-N , 36-S ) :   1.2482 B( 35-N , 37-N ) :   0.1425
B( 36-S , 37-N ) :   1.2873 B( 38-C , 39-C ) :   1.8516 B( 38-C , 72-H ) :   0.9403
B( 39-C , 40-C ) :   1.0713 B( 39-C , 41-C ) :   1.0437 B( 40-C , 73-H ) :   0.9338
B( 40-C , 74-H ) :   0.9246 B( 40-C , 75-H ) :   0.9433 B( 41-C , 42-N ) :   0.9532
B( 41-C , 76-H ) :   0.9429 B( 41-C , 77-H ) :   0.9270 B( 42-N , 43-C ) :   1.3910
B( 42-N , 78-H ) :   0.9309 B( 43-C , 44-C ) :   1.4110 B( 43-C , 79-H ) :   0.9571
B( 44-C , 45-C ) :   1.3511 B( 44-C , 80-H ) :   0.9566 B( 45-C , 46-C ) :   1.4818
B( 45-C , 81-H ) :   0.9287 B( 46-C , 47-C ) :   1.1104 B( 46-C , 55-C ) :   0.9798
B( 47-C , 48-C ) :   1.5655 B( 47-C , 53-C ) :   0.9994 B( 48-C , 49-C ) :   1.1300
B( 48-C , 51-C ) :   1.1878 B( 49-C , 50-N ) :   2.9818 B( 51-C , 52-N ) :   2.9584
B( 53-C , 54-C ) :   1.2844 B( 53-C , 60-C ) :   1.4227 B( 54-C , 55-C ) :   0.9128
B( 54-C , 57-C ) :   1.4324 B( 55-C , 56-O ) :   2.2385 B( 57-C , 58-C ) :   1.2396
B( 57-C , 82-H ) :   1.0177 B( 58-C , 59-C ) :   1.3228 B( 58-C , 63-C ) :   1.1586
B( 59-C , 60-C ) :   1.3156 B( 59-C , 61-S ) :   1.0798 B( 60-C , 83-H ) :   0.9834
B( 61-S , 62-C ) :   1.0857 B( 62-C , 63-C ) :   1.6219 B( 62-C , 64-Br) :   1.0132
B( 63-C , 84-H ) :   1.0009

-----------------------------------------------------------------------------
         ABSORPTION SPECTRUM VIA TRANSITION ELECTRIC DIPOLE MOMENTS
-----------------------------------------------------------------------------
State   Energy  Wavelength   fosc         T2         TX        TY        TZ
        (cm-1)    (nm)                  (au**2)     (au)      (au)      (au)
-----------------------------------------------------------------------------
   0   17561.3    569.4   0.358414195   6.71901  -0.51596  -0.67724   2.44829
   1   21914.5    456.3   0.213490308   3.20717  -0.14438   0.84306  -1.57339
   2   22401.2    446.4   0.107709080   1.58291  -0.08029   0.41730  -1.18420
   3   23139.0    432.2   0.218167558   3.10400  -0.83570   1.39126   0.68556
   4   25448.6    392.9   0.009369562   0.12121   0.10551  -0.33081  -0.02533
   5   26958.1    370.9   0.214733602   2.62232  -0.29740   0.70654  -1.42642
   6   27579.7    362.6   0.358057713   4.27405  -1.00789   1.79984   0.13710
   7   28085.7    356.1   0.010936933   0.12820   0.25091   0.18744  -0.17353
   8   28166.4    355.0   0.049946089   0.58378  -0.05595   0.27698  -0.70988
   9   28526.2    350.6   0.039326878   0.45386   0.29265   0.57511   0.19357
  10   28723.4    348.1   0.417710754   4.78756   0.84716  -0.60971  -1.92306
  11   29417.5    339.9   0.020604243   0.23058  -0.29749   0.25239   0.27997
  12   29777.6    335.8   0.038864930   0.42968   0.00137  -0.13697   0.64103
  13   30581.3    327.0   0.686791765   7.39340   0.90518  -1.84230   1.78324
  14   30976.4    322.8   0.000334112   0.00355   0.01479  -0.02999  -0.04932
  15   31197.9    320.5   0.007591013   0.08010  -0.16353   0.15426  -0.17194
  16   31485.3    317.6   0.001052507   0.01101  -0.01408  -0.10390   0.00341
  17   32038.1    312.1   0.326856732   3.35866  -0.40414   1.58499  -0.82653
  18   32603.6    306.7   0.491499114   4.96287   0.57741  -0.80610   1.99491
  19   32668.6    306.1   0.044531131   0.44875  -0.22423   0.61308   0.15035
  20   32922.9    303.7   0.124845231   1.24839   0.07000  -0.29351  -1.07580
  21   33282.7    300.5   0.005590794   0.05530   0.03772  -0.15631  -0.17160
  22   33537.8    298.2   0.006789265   0.06664  -0.08738   0.11377  -0.21463
  23   33554.8    298.0   0.044033007   0.43201  -0.25671   0.35344  -0.49111
  24   34998.8    285.7   0.001809837   0.01702  -0.03287   0.03626   0.12095
  25   35412.6    282.4   0.143547207   1.33448   0.26495  -1.10760  -0.19369
  26   35442.7    282.1   0.257174299   2.38878   0.44745  -1.38235   0.52694
  27   35651.8    280.5   0.044300464   0.40907   0.25388  -0.27648  -0.51786
  28   35836.8    279.0   0.025608880   0.23525  -0.13339   0.45773  -0.08911
  29   36084.5    277.1   0.026793177   0.24444  -0.01506  -0.43235  -0.23935
  30   36641.8    272.9   0.039888973   0.35839   0.51724  -0.28815   0.08843
  31   36855.8    271.3   0.001335756   0.01193  -0.00619  -0.10906  -0.00043
  32   37298.6    268.1   0.002660149   0.02348  -0.14123   0.05751   0.01507
  33   37731.2    265.0   0.210520819   1.83684  -0.43401   0.85811   0.95505
  34   37990.4    263.2   0.000142720   0.00124   0.01475   0.01548   0.02792
  35   38200.8    261.8   0.104308480   0.89892   0.73843  -0.33317   0.49258
  36   38679.2    258.5   0.013487513   0.11480  -0.13148   0.24247   0.19676
  37   39510.7    253.1   0.038799899   0.32329   0.19461  -0.38211  -0.37337
  38   39667.7    252.1   0.034382346   0.28535   0.02921  -0.36743   0.38664
  39   39836.3    251.0   0.014709789   0.12156   0.28824  -0.09816  -0.16985
  40   39898.2    250.6   0.038513605   0.31779  -0.52220   0.21223  -0.00703
  41   40242.9    248.5   0.035255093   0.28841   0.13752   0.51787  -0.03620

FINAL SINGLE POINT ENERGY     -8989.072132081083

DIPOLE MOMENT
-------------
                                X             Y             Z
Electronic contribution:     36.70548     -43.29582     -28.53047
Nuclear contribution   :    -36.33519      45.44051      24.99696
                        -----------------------------------------
Total Dipole Moment    :      0.37028       2.14469      -3.53350
                        -----------------------------------------
Magnitude (a.u.)       :      4.14999
Magnitude (Debye)      :     10.54845

Rotational constants in cm-1:     0.001448     0.000225     0.000201
Rotational constants in MHz :    43.417384     6.754206     6.033179

                             ****ORCA TERMINATED NORMALLY****
TOTAL RUN TIME: 0 days 0 hours 8 minutes 19 seconds 765 msec
