                         Program Version 4.2.0 -  RELEASE  -
|  1> # ORCA input file
|  2> # SCF done       -186.660386273101          0.000913434753
|  3> ! CAM-B3LYP def2-SVP def2/J RIJCOSX Grid4 TightSCF
|  4> %maxcore 5000
|  5> %tddft
|  6>     Mode sTDDFT
|  7>     Ethresh 5.0
|  8>     maxcore 5000
|  9> end
| 10>
| 11> %pal
| 12>   nprocs 6
| 13>   end
| 14> * xyz 0 1
| 15>    C      -13.98551         3.28422        -3.02507
| 16>    C      -15.09555         3.39129        -2.23224
| 17>    C      -16.38101         3.70747        -2.71753
| 18>    N      -17.44802         3.94348        -3.06773
| 19>    C      -15.08269         3.14709        -0.84358
| 20>    N      -15.10643         2.93893         0.28486
| 21>    C      -13.93958         3.50071        -4.47070
| 22>    C      -12.64965         3.14400        -4.94017
| 23>    C      -12.26510         3.28701        -6.25143
| 24>    C      -13.18412         3.85426        -7.13632
| 25>    C      -14.46069         4.23345        -6.65823
| 26>    C      -14.86314         4.04825        -5.33905
| 27>    S      -15.40802         4.97908        -7.90643
| 28>    C      -14.09522         4.77477        -9.03314
| 29>    C      -13.00062         4.17461        -8.50832
| 30>   Br      -14.26784         5.36889       -10.80348
| 31>    C      -11.81119         2.78366        -3.79653
| 32>    O      -10.61676         2.48726        -3.83242
| 33>    C      -12.64694         2.92988        -2.60515
| 34>    C      -12.09719         2.88705        -1.34599
| 35>    N      -10.78027         2.68448        -1.23071
| 36>    C       -9.98622         2.68868        -0.13570
| 37>    S      -10.57949         2.49012         1.47782
| 38>    C       -8.94172         2.51939         2.05558
| 39>    N       -8.72886         2.39460         3.43477
| 40>    O       -7.57774         2.40871         3.82976
| 41>    O       -9.71759         2.27899         4.13614
| 42>    C       -8.00620         2.67955         1.06723
| 43>    C       -8.58590         2.79112        -0.20876
| 44>    C       -7.91880         3.07235        -1.44717
| 45>    C       -6.59702         3.02239        -1.71082
| 46>    C       -6.11272         3.38890        -3.00443
| 47>    O       -7.01425         3.91939        -3.88560
| 48>    C       -6.36539         4.16423        -5.03370
| 49>    C       -5.03978         3.80787        -4.93993
| 50>    C       -4.87725         3.30676        -3.61886
| 51>    C       -3.60416         2.79388        -3.05063
| 52>    C       -3.97829         3.90644        -5.97818
| 53>    N       -7.09449         4.70668        -6.06628
| 54>    C       -8.37911         5.12088        -5.96738
| 55>    S       -9.22081         5.05665        -4.46326
| 56>    C      -10.61855         5.75113        -5.22715
| 57>    N      -11.75631         5.90462        -4.45353
| 58>    O      -12.76762         6.34633        -4.97508
| 59>    O      -11.67806         5.53055        -3.28487
| 60>    C      -10.44608         5.99656        -6.56222
| 61>    C       -9.16868         5.62755        -7.02277
| 62>    C       -8.73989         5.73373        -8.38298
| 63>    C       -9.56902         6.03065        -9.41250
| 64>    C       -9.13367         6.15650       -10.75303
| 65>    C       -9.87022         6.59453       -11.80979
| 66>    C      -11.17860         7.21316       -11.89079
| 67>    C      -11.76427         8.03378       -10.96347
| 68>    C      -12.99813         8.69041       -11.16532
| 69>    N      -13.99364         9.25083       -11.26935
| 70>    C      -11.17152         8.41985        -9.74351
| 71>    N      -10.73181         8.78812        -8.74882
| 72>    C      -11.66489         7.00656       -13.25010
| 73>    C      -10.59965         6.51394       -14.04696
| 74>    C       -9.41089         6.31127       -13.19784
| 75>    O       -8.30733         5.94294       -13.52996
| 76>    C      -10.74145         6.26177       -15.39017
| 77>    C      -11.99453         6.49054       -15.96806
| 78>    C      -13.05716         6.95846       -15.15685
| 79>    C      -12.91233         7.22520       -13.80134
| 80>    S      -14.52136         7.15050       -16.06905
| 81>    C      -13.69786         6.61679       -17.51044
| 82>    C      -12.39358         6.30515       -17.31973
| 83>   Br      -14.63644         6.51736       -19.12999
| 84>    H      -11.27572         3.00325        -6.57671
| 85>    H      -15.84142         4.36572        -5.01907
| 86>    H      -12.10173         3.96519        -9.06016
| 87>    H      -12.67098         3.05406        -0.44381
| 88>    H      -10.31198         2.58049        -2.15336
| 89>    H       -6.95355         2.73430         1.27480
| 90>    H       -8.55844         3.38379        -2.26063
| 91>    H       -5.87048         2.69713        -0.98399
| 92>    H       -3.25145         1.93988        -3.62757
| 93>    H       -3.73549         2.48779        -2.01792
| 94>    H       -2.83509         3.56397        -3.09475
| 95>    H       -3.13469         4.48054        -5.59835
| 96>    H       -4.34655         4.38891        -6.87995
| 97>    H       -3.61180         2.91429        -6.23957
| 98>    H       -6.61527         4.82513        -6.94774
| 99>    H      -11.21084         6.45221        -7.16241
|100>    H       -7.68886         5.58465        -8.59714
|101>    H      -10.62208         6.15986        -9.21931
|102>    H       -8.13444         5.80880       -10.99392
|103>    H       -9.91335         5.89660       -15.97709
|104>    H      -13.75078         7.56748       -13.21837
|105>    H      -11.73911         5.95912       -18.09873
|106> *
|107>
|108>                          ****END OF INPUT****

CARTESIAN COORDINATES (ANGSTROEM)
---------------------------------
  C    -13.985510    3.284220   -3.025070
  C    -15.095550    3.391290   -2.232240
  C    -16.381010    3.707470   -2.717530
  N    -17.448020    3.943480   -3.067730
  C    -15.082690    3.147090   -0.843580
  N    -15.106430    2.938930    0.284860
  C    -13.939580    3.500710   -4.470700
  C    -12.649650    3.144000   -4.940170
  C    -12.265100    3.287010   -6.251430
  C    -13.184120    3.854260   -7.136320
  C    -14.460690    4.233450   -6.658230
  C    -14.863140    4.048250   -5.339050
  S    -15.408020    4.979080   -7.906430
  C    -14.095220    4.774770   -9.033140
  C    -13.000620    4.174610   -8.508320
  Br   -14.267840    5.368890  -10.803480
  C    -11.811190    2.783660   -3.796530
  O    -10.616760    2.487260   -3.832420
  C    -12.646940    2.929880   -2.605150
  C    -12.097190    2.887050   -1.345990
  N    -10.780270    2.684480   -1.230710
  C     -9.986220    2.688680   -0.135700
  S    -10.579490    2.490120    1.477820
  C     -8.941720    2.519390    2.055580
  N     -8.728860    2.394600    3.434770
  O     -7.577740    2.408710    3.829760
  O     -9.717590    2.278990    4.136140
  C     -8.006200    2.679550    1.067230
  C     -8.585900    2.791120   -0.208760
  C     -7.918800    3.072350   -1.447170
  C     -6.597020    3.022390   -1.710820
  C     -6.112720    3.388900   -3.004430
  O     -7.014250    3.919390   -3.885600
  C     -6.365390    4.164230   -5.033700
  C     -5.039780    3.807870   -4.939930
  C     -4.877250    3.306760   -3.618860
  C     -3.604160    2.793880   -3.050630
  C     -3.978290    3.906440   -5.978180
  N     -7.094490    4.706680   -6.066280
  C     -8.379110    5.120880   -5.967380
  S     -9.220810    5.056650   -4.463260
  C    -10.618550    5.751130   -5.227150
  N    -11.756310    5.904620   -4.453530
  O    -12.767620    6.346330   -4.975080
  O    -11.678060    5.530550   -3.284870
  C    -10.446080    5.996560   -6.562220
  C     -9.168680    5.627550   -7.022770
  C     -8.739890    5.733730   -8.382980
  C     -9.569020    6.030650   -9.412500
  C     -9.133670    6.156500  -10.753030
  C     -9.870220    6.594530  -11.809790
  C    -11.178600    7.213160  -11.890790
  C    -11.764270    8.033780  -10.963470
  C    -12.998130    8.690410  -11.165320
  N    -13.993640    9.250830  -11.269350
  C    -11.171520    8.419850   -9.743510
  N    -10.731810    8.788120   -8.748820
  C    -11.664890    7.006560  -13.250100
  C    -10.599650    6.513940  -14.046960
  C     -9.410890    6.311270  -13.197840
  O     -8.307330    5.942940  -13.529960
  C    -10.741450    6.261770  -15.390170
  C    -11.994530    6.490540  -15.968060
  C    -13.057160    6.958460  -15.156850
  C    -12.912330    7.225200  -13.801340
  S    -14.521360    7.150500  -16.069050
  C    -13.697860    6.616790  -17.510440
  C    -12.393580    6.305150  -17.319730
  Br   -14.636440    6.517360  -19.129990
  H    -11.275720    3.003250   -6.576710
  H    -15.841420    4.365720   -5.019070
  H    -12.101730    3.965190   -9.060160
  H    -12.670980    3.054060   -0.443810
  H    -10.311980    2.580490   -2.153360
  H     -6.953550    2.734300    1.274800
  H     -8.558440    3.383790   -2.260630
  H     -5.870480    2.697130   -0.983990
  H     -3.251450    1.939880   -3.627570
  H     -3.735490    2.487790   -2.017920
  H     -2.835090    3.563970   -3.094750
  H     -3.134690    4.480540   -5.598350
  H     -4.346550    4.388910   -6.879950
  H     -3.611800    2.914290   -6.239570
  H     -6.615270    4.825130   -6.947740
  H    -11.210840    6.452210   -7.162410
  H     -7.688860    5.584650   -8.597140
  H    -10.622080    6.159860   -9.219310
  H     -8.134440    5.808800  -10.993920
  H     -9.913350    5.896600  -15.977090
  H    -13.750780    7.567480  -13.218370
  H    -11.739110    5.959120  -18.098730

 Total Charge           Charge          ....    0
 Multiplicity           Mult            ....    1
 Number of Electrons    NEL             ....  556
 Basis Dimension        Dim             .... 1128

ORBITAL ENERGIES
----------------

  NO   OCC          E(Eh)            E(eV)
   0   2.0000    -482.893067    -13140.1884
   1   2.0000    -482.890391    -13140.1156
   2   2.0000     -88.992431     -2421.6072
   3   2.0000     -88.988457     -2421.4990
   4   2.0000     -88.981820     -2421.3184
   5   2.0000     -88.978636     -2421.2318
   6   2.0000     -62.570278     -1702.6238
   7   2.0000     -62.568107     -1702.5647
   8   2.0000     -56.404260     -1534.8379
   9   2.0000     -56.402067     -1534.7783
  10   2.0000     -56.401565     -1534.7646
  11   2.0000     -56.401462     -1534.7618
  12   2.0000     -56.399338     -1534.7040
  13   2.0000     -56.399302     -1534.7030
  14   2.0000     -19.315664      -525.6060
  15   2.0000     -19.247640      -523.7549
  16   2.0000     -19.247382      -523.7479
  17   2.0000     -19.237633      -523.4826
  18   2.0000     -19.236562      -523.4535
  19   2.0000     -19.231115      -523.3052
  20   2.0000     -19.221836      -523.0528
  21   2.0000     -14.656146      -398.8140
  22   2.0000     -14.649070      -398.6215
  23   2.0000     -14.510441      -394.8492
  24   2.0000     -14.487814      -394.2335
  25   2.0000     -14.422699      -392.4616
  26   2.0000     -14.420731      -392.4080
  27   2.0000     -14.413995      -392.2247
  28   2.0000     -14.409662      -392.1068
  29   2.0000     -10.393850      -282.8310
  30   2.0000     -10.389875      -282.7229
  31   2.0000     -10.376486      -282.3585
  32   2.0000     -10.372739      -282.2566
  33   2.0000     -10.369383      -282.1653
  34   2.0000     -10.364524      -282.0330
  35   2.0000     -10.363992      -282.0186
  36   2.0000     -10.363174      -281.9963
  37   2.0000     -10.350906      -281.6625
  38   2.0000     -10.348881      -281.6074
  39   2.0000     -10.345891      -281.5260
  40   2.0000     -10.343413      -281.4586
  41   2.0000     -10.341484      -281.4061
  42   2.0000     -10.340709      -281.3850
  43   2.0000     -10.336900      -281.2814
  44   2.0000     -10.332779      -281.1692
  45   2.0000     -10.326696      -281.0037
  46   2.0000     -10.326675      -281.0031
  47   2.0000     -10.325576      -280.9732
  48   2.0000     -10.323114      -280.9062
  49   2.0000     -10.322993      -280.9029
  50   2.0000     -10.316382      -280.7230
  51   2.0000     -10.316286      -280.7204
  52   2.0000     -10.316019      -280.7131
  53   2.0000     -10.314171      -280.6629
  54   2.0000     -10.313172      -280.6357
  55   2.0000     -10.312704      -280.6229
  56   2.0000     -10.312608      -280.6203
  57   2.0000     -10.311286      -280.5844
  58   2.0000     -10.308421      -280.5064
  59   2.0000     -10.308396      -280.5057
  60   2.0000     -10.308003      -280.4950
  61   2.0000     -10.305308      -280.4217
  62   2.0000     -10.304649      -280.4037
  63   2.0000     -10.304619      -280.4029
  64   2.0000     -10.303231      -280.3652
  65   2.0000     -10.302558      -280.3468
  66   2.0000     -10.302316      -280.3403
  67   2.0000     -10.301748      -280.3248
  68   2.0000     -10.300317      -280.2859
  69   2.0000     -10.299997      -280.2772
  70   2.0000     -10.298959      -280.2489
  71   2.0000     -10.296918      -280.1934
  72   2.0000     -10.296311      -280.1769
  73   2.0000     -10.294717      -280.1335
  74   2.0000     -10.293724      -280.1065
  75   2.0000     -10.292861      -280.0830
  76   2.0000     -10.290164      -280.0096
  77   2.0000      -8.799544      -239.4478
  78   2.0000      -8.797537      -239.3932
  79   2.0000      -8.086399      -220.0421
  80   2.0000      -8.083884      -219.9737
  81   2.0000      -8.077821      -219.8087
  82   2.0000      -8.074473      -219.7176
  83   2.0000      -6.635760      -180.5682
  84   2.0000      -6.633880      -180.5171
  85   2.0000      -6.621339      -180.1758
  86   2.0000      -6.621112      -180.1696
  87   2.0000      -6.619262      -180.1193
  88   2.0000      -6.619031      -180.1130
  89   2.0000      -6.056249      -164.7989
  90   2.0000      -6.053456      -164.7229
  91   2.0000      -6.051544      -164.6709
  92   2.0000      -6.049138      -164.6054
  93   2.0000      -6.047746      -164.5675
  94   2.0000      -6.047519      -164.5614
  95   2.0000      -6.045402      -164.5037
  96   2.0000      -6.044142      -164.4695
  97   2.0000      -6.043207      -164.4440
  98   2.0000      -6.039822      -164.3519
  99   2.0000      -6.039056      -164.3311
 100   2.0000      -6.035790      -164.2422
 101   2.0000      -2.751662       -74.8765
 102   2.0000      -2.749716       -74.8236
 103   2.0000      -2.747611       -74.7663
 104   2.0000      -2.747462       -74.7622
 105   2.0000      -2.745626       -74.7123
 106   2.0000      -2.745524       -74.7095
 107   2.0000      -2.735985       -74.4499
 108   2.0000      -2.735974       -74.4496
 109   2.0000      -2.733868       -74.3923
 110   2.0000      -2.733849       -74.3918
 111   2.0000      -1.324036       -36.0289
 112   2.0000      -1.318815       -35.8868
 113   2.0000      -1.242302       -33.8048
 114   2.0000      -1.147354       -31.2211
 115   2.0000      -1.141934       -31.0736
 116   2.0000      -1.137843       -30.9623
 117   2.0000      -1.136772       -30.9331
 118   2.0000      -1.106368       -30.1058
 119   2.0000      -1.097822       -29.8732
 120   2.0000      -1.029944       -28.0262
 121   2.0000      -1.024229       -27.8707
 122   2.0000      -1.019941       -27.7540
 123   2.0000      -1.014791       -27.6139
 124   2.0000      -1.012508       -27.5518
 125   2.0000      -1.007869       -27.4255
 126   2.0000      -1.000588       -27.2274
 127   2.0000      -0.996460       -27.1150
 128   2.0000      -0.991799       -26.9882
 129   2.0000      -0.988810       -26.9069
 130   2.0000      -0.953403       -25.9434
 131   2.0000      -0.944363       -25.6974
 132   2.0000      -0.943796       -25.6820
 133   2.0000      -0.940781       -25.6000
 134   2.0000      -0.930611       -25.3232
 135   2.0000      -0.914964       -24.8974
 136   2.0000      -0.913444       -24.8561
 137   2.0000      -0.911095       -24.7922
 138   2.0000      -0.905140       -24.6301
 139   2.0000      -0.893225       -24.3059
 140   2.0000      -0.892941       -24.2982
 141   2.0000      -0.887625       -24.1535
 142   2.0000      -0.885882       -24.1061
 143   2.0000      -0.874432       -23.7945
 144   2.0000      -0.872270       -23.7357
 145   2.0000      -0.850087       -23.1321
 146   2.0000      -0.847537       -23.0627
 147   2.0000      -0.838393       -22.8138
 148   2.0000      -0.833967       -22.6934
 149   2.0000      -0.832213       -22.6457
 150   2.0000      -0.823968       -22.4213
 151   2.0000      -0.809908       -22.0387
 152   2.0000      -0.797883       -21.7115
 153   2.0000      -0.789624       -21.4868
 154   2.0000      -0.776674       -21.1344
 155   2.0000      -0.766135       -20.8476
 156   2.0000      -0.761511       -20.7218
 157   2.0000      -0.754095       -20.5200
 158   2.0000      -0.739167       -20.1138
 159   2.0000      -0.733237       -19.9524
 160   2.0000      -0.721826       -19.6419
 161   2.0000      -0.713284       -19.4094
 162   2.0000      -0.705996       -19.2111
 163   2.0000      -0.700136       -19.0517
 164   2.0000      -0.690307       -18.7842
 165   2.0000      -0.689468       -18.7614
 166   2.0000      -0.681788       -18.5524
 167   2.0000      -0.678501       -18.4630
 168   2.0000      -0.670326       -18.2405
 169   2.0000      -0.665004       -18.0957
 170   2.0000      -0.658166       -17.9096
 171   2.0000      -0.656211       -17.8564
 172   2.0000      -0.649720       -17.6798
 173   2.0000      -0.646530       -17.5930
 174   2.0000      -0.645083       -17.5536
 175   2.0000      -0.640808       -17.4373
 176   2.0000      -0.633236       -17.2312
 177   2.0000      -0.632601       -17.2139
 178   2.0000      -0.630440       -17.1551
 179   2.0000      -0.630366       -17.1531
 180   2.0000      -0.621500       -16.9119
 181   2.0000      -0.619570       -16.8594
 182   2.0000      -0.607918       -16.5423
 183   2.0000      -0.606958       -16.5162
 184   2.0000      -0.603798       -16.4302
 185   2.0000      -0.603287       -16.4163
 186   2.0000      -0.600221       -16.3329
 187   2.0000      -0.595412       -16.2020
 188   2.0000      -0.589464       -16.0401
 189   2.0000      -0.583305       -15.8725
 190   2.0000      -0.579498       -15.7690
 191   2.0000      -0.576921       -15.6988
 192   2.0000      -0.568911       -15.4808
 193   2.0000      -0.563515       -15.3340
 194   2.0000      -0.557081       -15.1589
 195   2.0000      -0.553930       -15.0732
 196   2.0000      -0.551036       -14.9944
 197   2.0000      -0.548683       -14.9304
 198   2.0000      -0.545927       -14.8554
 199   2.0000      -0.545052       -14.8316
 200   2.0000      -0.542846       -14.7716
 201   2.0000      -0.539954       -14.6929
 202   2.0000      -0.538899       -14.6642
 203   2.0000      -0.536455       -14.5977
 204   2.0000      -0.532662       -14.4945
 205   2.0000      -0.527466       -14.3531
 206   2.0000      -0.524327       -14.2677
 207   2.0000      -0.523967       -14.2579
 208   2.0000      -0.521188       -14.1822
 209   2.0000      -0.519378       -14.1330
 210   2.0000      -0.515249       -14.0206
 211   2.0000      -0.512880       -13.9562
 212   2.0000      -0.509518       -13.8647
 213   2.0000      -0.508611       -13.8400
 214   2.0000      -0.507227       -13.8024
 215   2.0000      -0.506981       -13.7957
 216   2.0000      -0.502592       -13.6762
 217   2.0000      -0.500388       -13.6163
 218   2.0000      -0.499173       -13.5832
 219   2.0000      -0.497495       -13.5375
 220   2.0000      -0.494429       -13.4541
 221   2.0000      -0.492986       -13.4148
 222   2.0000      -0.484098       -13.1730
 223   2.0000      -0.482229       -13.1221
 224   2.0000      -0.478969       -13.0334
 225   2.0000      -0.470494       -12.8028
 226   2.0000      -0.468944       -12.7606
 227   2.0000      -0.467794       -12.7293
 228   2.0000      -0.465189       -12.6584
 229   2.0000      -0.463871       -12.6226
 230   2.0000      -0.460784       -12.5386
 231   2.0000      -0.459340       -12.4993
 232   2.0000      -0.455703       -12.4003
 233   2.0000      -0.453518       -12.3408
 234   2.0000      -0.452404       -12.3105
 235   2.0000      -0.449751       -12.2383
 236   2.0000      -0.448926       -12.2159
 237   2.0000      -0.447715       -12.1830
 238   2.0000      -0.446165       -12.1408
 239   2.0000      -0.443143       -12.0585
 240   2.0000      -0.440262       -11.9801
 241   2.0000      -0.439428       -11.9575
 242   2.0000      -0.436244       -11.8708
 243   2.0000      -0.432854       -11.7785
 244   2.0000      -0.428623       -11.6634
 245   2.0000      -0.424875       -11.5614
 246   2.0000      -0.423589       -11.5265
 247   2.0000      -0.416205       -11.3255
 248   2.0000      -0.414121       -11.2688
 249   2.0000      -0.411151       -11.1880
 250   2.0000      -0.408274       -11.1097
 251   2.0000      -0.407535       -11.0896
 252   2.0000      -0.394382       -10.7317
 253   2.0000      -0.394115       -10.7244
 254   2.0000      -0.391662       -10.6577
 255   2.0000      -0.387292       -10.5388
 256   2.0000      -0.384782       -10.4704
 257   2.0000      -0.381425       -10.3791
 258   2.0000      -0.379797       -10.3348
 259   2.0000      -0.378451       -10.2982
 260   2.0000      -0.377243       -10.2653
 261   2.0000      -0.375844       -10.2272
 262   2.0000      -0.368740       -10.0339
 263   2.0000      -0.366149        -9.9634
 264   2.0000      -0.363608        -9.8943
 265   2.0000      -0.356982        -9.7140
 266   2.0000      -0.354037        -9.6338
 267   2.0000      -0.351811        -9.5733
 268   2.0000      -0.342151        -9.3104
 269   2.0000      -0.338470        -9.2102
 270   2.0000      -0.323488        -8.8026
 271   2.0000      -0.321779        -8.7561
 272   2.0000      -0.316175        -8.6036
 273   2.0000      -0.302025        -8.2185
 274   2.0000      -0.299451        -8.1485
 275   2.0000      -0.295635        -8.0446
 276   2.0000      -0.275540        -7.4978
 277   2.0000      -0.248045        -6.7496
 278   0.0000      -0.099952        -2.7198
 279   0.0000      -0.083264        -2.2657
 280   0.0000      -0.068843        -1.8733
 281   0.0000      -0.066509        -1.8098
 282   0.0000      -0.063792        -1.7359

MULLIKEN ATOMIC CHARGES
-----------------------
   0 C :    0.313759
   1 C :   -0.326426
   2 C :   -0.188207
   3 N :    0.151959
   4 C :   -0.207017
   5 N :    0.148154
   6 C :    0.016826
   7 C :   -0.019844
   8 C :   -0.056635
   9 C :    0.106903
  10 C :   -0.071571
  11 C :   -0.004543
  12 S :    0.202834
  13 C :   -0.129056
  14 C :    0.028216
  15 Br:    0.019237
  16 C :    0.131742
  17 O :   -0.232277
  18 C :   -0.084994
  19 C :    0.049876
  20 N :   -0.015699
  21 C :   -0.111823
  22 S :    0.194786
  23 C :   -0.009537
  24 N :    0.276954
  25 O :   -0.252099
  26 O :   -0.257455
  27 C :    0.004499
  28 C :    0.140230
  29 C :   -0.050006
  30 C :   -0.024023
  31 C :    0.129300
  32 O :   -0.248312
  33 C :    0.129363
  34 C :   -0.155437
  35 C :   -0.150929
  36 C :    0.125367
  37 C :    0.122035
  38 N :   -0.005550
  39 C :   -0.080563
  40 S :    0.197967
  41 C :   -0.013177
  42 N :    0.283182
  43 O :   -0.236950
  44 O :   -0.284952
  45 C :    0.028155
  46 C :    0.103961
  47 C :   -0.013090
  48 C :    0.003075
  49 C :    0.027820
  50 C :   -0.111429
  51 C :    0.275154
  52 C :   -0.332316
  53 C :   -0.190693
  54 N :    0.164711
  55 C :   -0.207421
  56 N :    0.168318
  57 C :    0.012223
  58 C :   -0.000479
  59 C :    0.137587
  60 O :   -0.144607
  61 C :   -0.070850
  62 C :    0.112242
  63 C :   -0.086552
  64 C :   -0.033098
  65 S :    0.189517
  66 C :   -0.125916
  67 C :    0.043192
  68 Br:    0.027521
  69 H :   -0.021448
  70 H :   -0.004017
  71 H :   -0.007729
  72 H :    0.041005
  73 H :    0.182064
  74 H :    0.009069
  75 H :    0.003347
  76 H :   -0.011866
  77 H :    0.029495
  78 H :    0.013418
  79 H :    0.030322
  80 H :    0.033312
  81 H :   -0.007352
  82 H :    0.035608
  83 H :    0.144182
  84 H :    0.020007
  85 H :   -0.025436
  86 H :    0.011257
  87 H :    0.007998
  88 H :   -0.008324
  89 H :   -0.005764
  90 H :   -0.002283
Sum of atomic charges:   -0.0000000

LOEWDIN ATOMIC CHARGES
----------------------
   0 C :    0.085395
   1 C :   -0.143741
   2 C :   -0.019289
   3 N :   -0.054264
   4 C :   -0.019061
   5 N :   -0.055365
   6 C :   -0.011625
   7 C :   -0.062087
   8 C :    0.017746
   9 C :   -0.039152
  10 C :   -0.136250
  11 C :    0.001953
  12 S :    0.449200
  13 C :   -0.275250
  14 C :   -0.079293
  15 Br:    0.146224
  16 C :    0.087545
  17 O :   -0.182491
  18 C :   -0.135252
  19 C :    0.119220
  20 N :    0.077966
  21 C :   -0.112645
  22 S :    0.474847
  23 C :   -0.203017
  24 N :    0.273347
  25 O :   -0.217638
  26 O :   -0.223693
  27 C :    0.001159
  28 C :   -0.087326
  29 C :   -0.032872
  30 C :   -0.032490
  31 C :    0.017243
  32 O :   -0.007696
  33 C :    0.054527
  34 C :   -0.100513
  35 C :   -0.049979
  36 C :   -0.041894
  37 C :   -0.043662
  38 N :    0.037997
  39 C :   -0.085203
  40 S :    0.513215
  41 C :   -0.222700
  42 N :    0.281317
  43 O :   -0.207285
  44 O :   -0.244256
  45 C :    0.020392
  46 C :   -0.119448
  47 C :    0.023559
  48 C :   -0.037691
  49 C :    0.061248
  50 C :   -0.092675
  51 C :    0.068492
  52 C :   -0.139483
  53 C :   -0.025209
  54 N :   -0.046249
  55 C :   -0.021057
  56 N :   -0.050632
  57 C :   -0.017550
  58 C :   -0.052996
  59 C :    0.082410
  60 O :   -0.145424
  61 C :    0.023973
  62 C :   -0.032821
  63 C :   -0.142857
  64 C :   -0.017412
  65 S :    0.435257
  66 C :   -0.270936
  67 C :   -0.069794
  68 Br:    0.140125
  69 H :    0.036105
  70 H :    0.042682
  71 H :    0.034739
  72 H :    0.038751
  73 H :    0.079399
  74 H :    0.044175
  75 H :    0.022465
  76 H :    0.033630
  77 H :    0.039590
  78 H :    0.034852
  79 H :    0.039247
  80 H :    0.041069
  81 H :    0.024868
  82 H :    0.040400
  83 H :    0.101071
  84 H :    0.045385
  85 H :    0.024933
  86 H :    0.029779
  87 H :    0.042032
  88 H :    0.041838
  89 H :    0.037396
  90 H :    0.039461

  Mayer bond orders larger than 0.100000
B(  0-C ,  1-C ) :   1.6453 B(  0-C ,  6-C ) :   1.0000 B(  0-C , 18-C ) :   1.0903
B(  1-C ,  2-C ) :   1.1390 B(  1-C ,  4-C ) :   1.1454 B(  2-C ,  3-N ) :   2.9799
B(  4-C ,  5-N ) :   2.9736 B(  6-C ,  7-C ) :   1.2688 B(  6-C , 11-C ) :   1.4329
B(  7-C ,  8-C ) :   1.4178 B(  7-C , 16-C ) :   0.9996 B(  8-C ,  9-C ) :   1.2500
B(  8-C , 69-H ) :   1.0123 B(  9-C , 10-C ) :   1.3176 B(  9-C , 14-C ) :   1.1647
B( 10-C , 11-C ) :   1.3143 B( 10-C , 12-S ) :   1.0893 B( 11-C , 70-H ) :   0.9771
B( 12-S , 13-C ) :   1.0982 B( 13-C , 14-C ) :   1.6018 B( 13-C , 15-Br) :   1.0193
B( 14-C , 71-H ) :   0.9962 B( 16-C , 17-O ) :   1.9757 B( 16-C , 18-C ) :   1.0095
B( 17-O , 73-H ) :   0.1647 B( 18-C , 19-C ) :   1.4658 B( 19-C , 20-N ) :   1.3285
B( 19-C , 72-H ) :   0.9368 B( 20-N , 21-C ) :   1.1953 B( 20-N , 73-H ) :   0.8120
B( 21-C , 22-S ) :   1.1366 B( 21-C , 28-C ) :   1.3650 B( 22-S , 23-C ) :   1.0863
B( 23-C , 24-N ) :   0.9672 B( 23-C , 27-C ) :   1.4927 B( 24-N , 25-O ) :   1.5329
B( 24-N , 26-O ) :   1.5170 B( 25-O , 26-O ) :   0.2602 B( 27-C , 28-C ) :   1.2311
B( 27-C , 74-H ) :   1.0015 B( 28-C , 29-C ) :   1.0673 B( 29-C , 30-C ) :   1.7136
B( 29-C , 75-H ) :   0.9622 B( 30-C , 31-C ) :   1.1566 B( 30-C , 76-H ) :   0.9606
B( 31-C , 32-O ) :   1.0589 B( 31-C , 35-C ) :   1.4680 B( 32-O , 33-C ) :   1.1293
B( 33-C , 34-C ) :   1.4984 B( 33-C , 38-N ) :   1.1172 B( 34-C , 35-C ) :   1.2497
B( 34-C , 37-C ) :   1.1081 B( 35-C , 36-C ) :   1.1243 B( 36-C , 77-H ) :   0.9420
B( 36-C , 78-H ) :   0.9436 B( 36-C , 79-H ) :   0.9435 B( 37-C , 80-H ) :   0.9409
B( 37-C , 81-H ) :   0.9464 B( 37-C , 82-H ) :   0.9439 B( 38-N , 39-C ) :   1.2421
B( 38-N , 83-H ) :   0.8984 B( 39-C , 40-S ) :   1.1872 B( 39-C , 46-C ) :   1.2909
B( 40-S , 41-C ) :   1.0561 B( 41-C , 42-N ) :   1.0003 B( 41-C , 45-C ) :   1.4714
B( 42-N , 43-O ) :   1.5253 B( 42-N , 44-O ) :   1.4534 B( 43-O , 44-O ) :   0.2327
B( 45-C , 46-C ) :   1.2534 B( 45-C , 84-H ) :   0.9937 B( 46-C , 47-C ) :   1.0771
B( 47-C , 48-C ) :   1.6787 B( 47-C , 85-H ) :   0.9781 B( 48-C , 49-C ) :   1.1317
B( 48-C , 86-H ) :   0.9541 B( 49-C , 50-C ) :   1.6229 B( 49-C , 87-H ) :   0.9551
B( 50-C , 51-C ) :   1.0330 B( 50-C , 59-C ) :   0.9402 B( 51-C , 52-C ) :   1.6442
B( 51-C , 57-C ) :   1.0140 B( 52-C , 53-C ) :   1.1315 B( 52-C , 55-C ) :   1.1667
B( 53-C , 54-N ) :   2.9922 B( 55-C , 56-N ) :   2.9872 B( 57-C , 58-C ) :   1.2755
B( 57-C , 64-C ) :   1.4094 B( 58-C , 59-C ) :   0.9221 B( 58-C , 61-C ) :   1.4249
B( 59-C , 60-O ) :   2.2662 B( 61-C , 62-C ) :   1.2522 B( 61-C , 88-H ) :   1.0155
B( 62-C , 63-C ) :   1.3051 B( 62-C , 67-C ) :   1.1645 B( 63-C , 64-C ) :   1.3284
B( 63-C , 65-S ) :   1.0864 B( 64-C , 89-H ) :   0.9835 B( 65-S , 66-C ) :   1.0872
B( 66-C , 67-C ) :   1.6188 B( 66-C , 68-Br) :   1.0208 B( 67-C , 90-H ) :   0.9994

-----------------------------------------------------------------------------
         ABSORPTION SPECTRUM VIA TRANSITION ELECTRIC DIPOLE MOMENTS
-----------------------------------------------------------------------------
State   Energy  Wavelength   fosc         T2         TX        TY        TZ
        (cm-1)    (nm)                  (au**2)     (au)      (au)      (au)
-----------------------------------------------------------------------------
   0   18053.2    553.9   0.364783569   6.65207   0.12001  -0.95846   2.39145
   1   20397.3    490.3   0.554790053   8.95431  -2.26570   0.20831  -1.94358
   2   21928.1    456.0   0.228768404   3.43455  -1.47342   0.79885  -0.79084
   3   23449.5    426.4   0.124132601   1.74272   0.50011  -0.44933   1.13609
   4   24010.6    416.5   0.175397908   2.40490   0.42560  -0.52089   1.39730
   5   25989.8    384.8   0.235555470   2.98377   1.03729  -0.24762   1.35885
   6   26608.4    375.8   0.213619514   2.64301   1.27472  -0.15514   0.99701
   7   26911.2    371.6   0.121868192   1.49085  -0.18856  -0.48356   1.10520
   8   26994.0    370.5   0.276474988   3.37182   1.09391  -0.29768   1.44449
   9   27631.4    361.9   0.400602720   4.77295   0.39594  -0.44631  -2.10166
  10   27963.5    357.6   0.011830978   0.13929   0.20479  -0.09548   0.29704
  11   28457.0    351.4   0.268761814   3.10924  -1.71904  -0.01576   0.39230
  12   29255.0    341.8   0.085503179   0.96218  -0.62916   0.08299  -0.74797
  13   29870.3    334.8   0.003942460   0.04345  -0.18956  -0.04430   0.07454
  14   30144.1    331.7   0.311844599   3.40574  -0.10101  -0.21816   1.82974
  15   30460.2    328.3   0.025945768   0.28042   0.01037  -0.07499  -0.52411
  16   30917.1    323.4   0.451869944   4.81161  -0.45299   0.56052  -2.07177
  17   31417.5    318.3   0.042152583   0.44170   0.07514   0.03781  -0.65926
  18   32201.9    310.5   0.025026242   0.25585   0.23552   0.37343  -0.24685
  19   32275.8    309.8   0.011344499   0.11571  -0.28504  -0.04608  -0.17984
  20   32772.9    305.1   0.248717067   2.49843   0.58841   0.02303  -1.46686
  21   32898.0    304.0   0.332074426   3.32309  -0.25220  -0.28539   1.78270
  22   33084.9    302.3   0.160648688   1.59854   0.10346   0.46242   1.17218
  23   33281.6    300.5   0.016703893   0.16523   0.15932   0.08613  -0.36391
  24   33650.1    297.2   0.476316699   4.65999   0.25682   0.57428   2.06500
  25   34082.8    293.4   0.027299289   0.26369  -0.02751   0.15290  -0.48944
  26   34438.1    290.4   0.099430722   0.95051  -0.43841  -0.12052   0.86243
  27   34733.3    287.9   0.072412353   0.68634   0.79286  -0.01084  -0.24000
  28   34751.9    287.8   0.243173701   2.30363  -1.13458  -0.15074   0.99682
  29   35076.4    285.1   0.141216144   1.32539  -0.12251  -0.09675  -1.14063
  30   35456.0    282.0   0.041394254   0.38435   0.22392  -0.24037   0.52577
  31   35484.0    281.8   0.021434090   0.19886  -0.12973   0.23779  -0.35424
  32   35856.9    278.9   0.023858355   0.21905  -0.03776  -0.00752   0.46644
  33   36110.7    276.9   0.007832120   0.07140  -0.24525   0.09669   0.04366
  34   37159.6    269.1   0.025295157   0.22410  -0.32950   0.19361   0.27937
  35   37294.9    268.1   0.247274853   2.18276  -1.28217   0.26419   0.68483
  36   37645.9    265.6   0.008107933   0.07090   0.07241  -0.03432  -0.25394
  37   37699.9    265.3   0.118010419   1.03052  -0.31708   0.26089  -0.92839
  38   38168.3    262.0   0.271647820   2.34304  -1.13212  -0.03135   1.02974
  39   38283.2    261.2   0.106958034   0.91977   0.56025  -0.24996   0.73717
  40   38333.8    260.9   0.033510618   0.28779   0.34487  -0.03346   0.40955
  41   38670.2    258.6   0.072586472   0.61795  -0.73146   0.11709  -0.26309
  42   39266.9    254.7   0.038868717   0.32587   0.13979  -0.13018   0.53795
  43   39424.9    253.6   0.029954993   0.25013   0.44319   0.03162  -0.22960
  44   39669.9    252.1   0.019306224   0.16022  -0.15180  -0.08000   0.36163
  45   39775.2    251.4   0.085089763   0.70427   0.64651  -0.35915   0.39662

FINAL SINGLE POINT ENERGY     -9543.382274245901

DIPOLE MOMENT
-------------
                                X             Y             Z
Electronic contribution:   -114.86147      31.20892    -164.50327
Nuclear contribution   :    119.52658     -32.62451     159.78543
                        -----------------------------------------
Total Dipole Moment    :      4.66511      -1.41559      -4.71784
                        -----------------------------------------
Magnitude (a.u.)       :      6.78419
Magnitude (Debye)      :     17.24403

Rotational constants in cm-1:     0.001723     0.000355     0.000307
Rotational constants in MHz :    51.665809    10.643976     9.209075

                             ****ORCA TERMINATED NORMALLY****
TOTAL RUN TIME: 0 days 0 hours 10 minutes 8 seconds 412 msec
