                         Program Version 4.2.0 -  RELEASE  -
|  1> # ORCA input file
|  2> # SCF done       -190.450504885104          0.000949291548
|  3> ! CAM-B3LYP def2-SVP def2/J RIJCOSX Grid4 TightSCF
|  4> %maxcore 5000
|  5> %tddft
|  6>     Mode sTDDFT
|  7>     Ethresh 5.0
|  8>     maxcore 5000
|  9> end
| 10>
| 11> %pal
| 12>   nprocs 6
| 13>   end
| 14> * xyz 0 1
| 15>    C      -11.42710       -10.54974        -8.99673
| 16>    C      -11.41431       -10.97839        -7.68334
| 17>    C      -11.43955       -12.32259        -7.28612
| 18>    N      -11.40739       -13.38735        -6.84847
| 19>    C      -11.40386       -10.16108        -6.53519
| 20>    N      -11.41849        -9.59918        -5.53259
| 21>    C      -11.50130       -11.43572       -10.15661
| 22>    C      -11.45729       -10.64446       -11.33004
| 23>    C      -11.47096       -11.19079       -12.58872
| 24>    C      -11.52820       -12.58602       -12.69522
| 25>    C      -11.59738       -13.36567       -11.51813
| 26>    C      -11.58613       -12.80948       -10.24293
| 27>    S      -11.66765       -15.06077       -11.87408
| 28>    C      -11.58784       -14.70842       -13.57726
| 29>    C      -11.52272       -13.38767       -13.86837
| 30>   Br      -11.61257       -16.11461       -14.81261
| 31>    C      -11.35563        -9.22097       -10.94427
| 32>    O      -11.27125        -8.27420       -11.70662
| 33>    C      -11.33916        -9.20532        -9.47141
| 34>    C      -11.19784        -8.06739        -8.68802
| 35>    C      -11.07430        -6.77694        -9.16385
| 36>    C      -10.90302        -5.68084        -8.32278
| 37>    C      -10.77246        -4.33509        -8.70255
| 38>    C      -10.63619        -3.46956        -7.64563
| 39>    C      -10.65303        -4.10717        -6.39699
| 40>    S      -10.83200        -5.83081        -6.58374
| 41>    C      -10.56844        -3.52274        -5.12972
| 42>    C      -10.45234        -2.16388        -4.80613
| 43>    C      -10.42514        -1.92396        -3.45528
| 44>    C      -10.51771        -3.08322        -2.66726
| 45>    S      -10.63088        -4.49678        -3.68586
| 46>    C      -10.53857        -3.12428        -1.27783
| 47>    C      -10.63795        -4.24502        -0.47799
| 48>    S      -10.72158        -5.90135        -1.06693
| 49>    C      -10.83592        -6.59559         0.54316
| 50>    C      -10.80908        -5.55510         1.49834
| 51>    C      -10.69583        -4.27763         0.92553
| 52>    S      -10.66969        -3.07488         2.16218
| 53>    C      -10.81159        -4.38228         3.32757
| 54>    N      -10.87063        -5.56713         2.85359
| 55>    C      -10.92341        -7.96484         0.70466
| 56>    C      -11.07247        -8.59565         1.93426
| 57>    C      -11.13644        -9.95961         2.15506
| 58>    C      -10.95142       -11.01411         1.25774
| 59>    C      -11.11021       -12.37489         1.57255
| 60>    C      -10.85525       -13.23410         0.53120
| 61>    C      -10.46672       -12.58154        -0.64486
| 62>    S      -10.44713       -10.85727        -0.40553
| 63>    C      -10.12567       -13.11693        -1.88943
| 64>    C      -10.15435       -14.45426        -2.31426
| 65>    C       -9.76817       -14.61864        -3.62029
| 66>    C       -9.40567       -13.42147        -4.26235
| 67>    S       -9.58909       -12.07084        -3.17366
| 68>    C       -8.99413       -13.26258        -5.58047
| 69>    C       -8.62155       -12.01761        -6.06449
| 70>    C       -8.38771       -11.52539        -7.33513
| 71>    C       -8.38068       -12.06032        -8.67017
| 72>    C       -8.32954       -13.37302        -9.08536
| 73>    C       -8.42198       -13.77735       -10.43065
| 74>    N       -8.52663       -14.18722       -11.49987
| 75>    C       -8.10859       -14.50423        -8.28074
| 76>    N       -7.87563       -15.48022        -7.71988
| 77>    C       -8.35342       -10.92258        -9.59753
| 78>    C       -8.22090        -9.72456        -8.85639
| 79>    C       -8.20909       -10.05325        -7.42189
| 80>    O       -8.10238        -9.28066        -6.49297
| 81>    C       -8.15902        -8.48382        -9.43991
| 82>    C       -8.25949        -8.41306       -10.83188
| 83>    C       -8.38757        -9.61312       -11.56937
| 84>    C       -8.42275       -10.86995       -10.97685
| 85>    S       -8.54618        -9.30092       -13.26819
| 86>    C       -8.45615        -7.58886       -12.96809
| 87>    C       -8.29571        -7.26301       -11.66458
| 88>   Br       -8.57419        -6.39289       -14.40004
| 89>    H      -11.42976       -10.56696       -13.46804
| 90>    H      -11.63607       -13.44648        -9.37500
| 91>    H      -11.46612       -12.99417       -14.86682
| 92>    H      -11.16147        -8.19963        -7.61334
| 93>    H      -11.10926        -6.59777       -10.22878
| 94>    H      -10.78961        -4.03477        -9.73524
| 95>    H      -10.53045        -2.40470        -7.74845
| 96>    H      -10.39657        -1.39529        -5.55532
| 97>    H      -10.34473        -0.94550        -3.01587
| 98>    H      -10.47993        -2.17314        -0.76268
| 99>    H      -10.84393        -4.15802         4.37508
|100>    H      -10.89870        -8.54587        -0.20481
|101>    H      -11.17020        -7.95139         2.79754
|102>    H      -11.35149       -10.27472         3.16892
|103>    H      -11.41434       -12.69524         2.55358
|104>    H      -10.93031       -14.30425         0.59904
|105>    H      -10.46106       -15.25686        -1.66784
|106>    H       -9.73317       -15.56244        -4.13385
|107>    H       -8.98750       -14.14618        -6.19508
|108>    H       -8.58193       -11.22179        -5.32049
|109>    H       -8.05657        -7.59486        -8.83744
|110>    H       -8.52434       -11.74738       -11.59237
|111>    H       -8.22528        -6.25464       -11.29971
|112> *
|113>
|114>                          ****END OF INPUT****

CARTESIAN COORDINATES (ANGSTROEM)
---------------------------------
  C    -11.427100  -10.549740   -8.996730
  C    -11.414310  -10.978390   -7.683340
  C    -11.439550  -12.322590   -7.286120
  N    -11.407390  -13.387350   -6.848470
  C    -11.403860  -10.161080   -6.535190
  N    -11.418490   -9.599180   -5.532590
  C    -11.501300  -11.435720  -10.156610
  C    -11.457290  -10.644460  -11.330040
  C    -11.470960  -11.190790  -12.588720
  C    -11.528200  -12.586020  -12.695220
  C    -11.597380  -13.365670  -11.518130
  C    -11.586130  -12.809480  -10.242930
  S    -11.667650  -15.060770  -11.874080
  C    -11.587840  -14.708420  -13.577260
  C    -11.522720  -13.387670  -13.868370
  Br   -11.612570  -16.114610  -14.812610
  C    -11.355630   -9.220970  -10.944270
  O    -11.271250   -8.274200  -11.706620
  C    -11.339160   -9.205320   -9.471410
  C    -11.197840   -8.067390   -8.688020
  C    -11.074300   -6.776940   -9.163850
  C    -10.903020   -5.680840   -8.322780
  C    -10.772460   -4.335090   -8.702550
  C    -10.636190   -3.469560   -7.645630
  C    -10.653030   -4.107170   -6.396990
  S    -10.832000   -5.830810   -6.583740
  C    -10.568440   -3.522740   -5.129720
  C    -10.452340   -2.163880   -4.806130
  C    -10.425140   -1.923960   -3.455280
  C    -10.517710   -3.083220   -2.667260
  S    -10.630880   -4.496780   -3.685860
  C    -10.538570   -3.124280   -1.277830
  C    -10.637950   -4.245020   -0.477990
  S    -10.721580   -5.901350   -1.066930
  C    -10.835920   -6.595590    0.543160
  C    -10.809080   -5.555100    1.498340
  C    -10.695830   -4.277630    0.925530
  S    -10.669690   -3.074880    2.162180
  C    -10.811590   -4.382280    3.327570
  N    -10.870630   -5.567130    2.853590
  C    -10.923410   -7.964840    0.704660
  C    -11.072470   -8.595650    1.934260
  C    -11.136440   -9.959610    2.155060
  C    -10.951420  -11.014110    1.257740
  C    -11.110210  -12.374890    1.572550
  C    -10.855250  -13.234100    0.531200
  C    -10.466720  -12.581540   -0.644860
  S    -10.447130  -10.857270   -0.405530
  C    -10.125670  -13.116930   -1.889430
  C    -10.154350  -14.454260   -2.314260
  C     -9.768170  -14.618640   -3.620290
  C     -9.405670  -13.421470   -4.262350
  S     -9.589090  -12.070840   -3.173660
  C     -8.994130  -13.262580   -5.580470
  C     -8.621550  -12.017610   -6.064490
  C     -8.387710  -11.525390   -7.335130
  C     -8.380680  -12.060320   -8.670170
  C     -8.329540  -13.373020   -9.085360
  C     -8.421980  -13.777350  -10.430650
  N     -8.526630  -14.187220  -11.499870
  C     -8.108590  -14.504230   -8.280740
  N     -7.875630  -15.480220   -7.719880
  C     -8.353420  -10.922580   -9.597530
  C     -8.220900   -9.724560   -8.856390
  C     -8.209090  -10.053250   -7.421890
  O     -8.102380   -9.280660   -6.492970
  C     -8.159020   -8.483820   -9.439910
  C     -8.259490   -8.413060  -10.831880
  C     -8.387570   -9.613120  -11.569370
  C     -8.422750  -10.869950  -10.976850
  S     -8.546180   -9.300920  -13.268190
  C     -8.456150   -7.588860  -12.968090
  C     -8.295710   -7.263010  -11.664580
  Br    -8.574190   -6.392890  -14.400040
  H    -11.429760  -10.566960  -13.468040
  H    -11.636070  -13.446480   -9.375000
  H    -11.466120  -12.994170  -14.866820
  H    -11.161470   -8.199630   -7.613340
  H    -11.109260   -6.597770  -10.228780
  H    -10.789610   -4.034770   -9.735240
  H    -10.530450   -2.404700   -7.748450
  H    -10.396570   -1.395290   -5.555320
  H    -10.344730   -0.945500   -3.015870
  H    -10.479930   -2.173140   -0.762680
  H    -10.843930   -4.158020    4.375080
  H    -10.898700   -8.545870   -0.204810
  H    -11.170200   -7.951390    2.797540
  H    -11.351490  -10.274720    3.168920
  H    -11.414340  -12.695240    2.553580
  H    -10.930310  -14.304250    0.599040
  H    -10.461060  -15.256860   -1.667840
  H     -9.733170  -15.562440   -4.133850
  H     -8.987500  -14.146180   -6.195080
  H     -8.581930  -11.221790   -5.320490
  H     -8.056570   -7.594860   -8.837440
  H     -8.524340  -11.747380  -11.592370
  H     -8.225280   -6.254640  -11.299710

 Total Charge           Charge          ....    0
 Multiplicity           Mult            ....    1
 Number of Electrons    NEL             ....  614
 Basis Dimension        Dim             .... 1219

ORBITAL ENERGIES
----------------

  NO   OCC          E(Eh)            E(eV)
   0   2.0000    -482.872269    -13139.6224
   1   2.0000    -482.865233    -13139.4310
   2   2.0000     -88.983610     -2421.3671
   3   2.0000     -88.970819     -2421.0191
   4   2.0000     -88.966561     -2420.9032
   5   2.0000     -88.965551     -2420.8757
   6   2.0000     -88.960132     -2420.7283
   7   2.0000     -88.958533     -2420.6847
   8   2.0000     -88.955426     -2420.6002
   9   2.0000     -88.951786     -2420.5012
  10   2.0000     -62.549999     -1702.0720
  11   2.0000     -62.542949     -1701.8802
  12   2.0000     -56.383907     -1534.2841
  13   2.0000     -56.381267     -1534.2123
  14   2.0000     -56.381221     -1534.2110
  15   2.0000     -56.376867     -1534.0925
  16   2.0000     -56.374208     -1534.0202
  17   2.0000     -56.374169     -1534.0191
  18   2.0000     -19.198976      -522.4307
  19   2.0000     -19.194804      -522.3172
  20   2.0000     -14.433637      -392.7592
  21   2.0000     -14.402316      -391.9069
  22   2.0000     -14.401007      -391.8713
  23   2.0000     -14.399676      -391.8351
  24   2.0000     -14.396270      -391.7424
  25   2.0000     -10.353041      -281.7206
  26   2.0000     -10.346696      -281.5479
  27   2.0000     -10.343484      -281.4605
  28   2.0000     -10.342397      -281.4309
  29   2.0000     -10.335178      -281.2345
  30   2.0000     -10.328314      -281.0477
  31   2.0000     -10.328159      -281.0435
  32   2.0000     -10.328067      -281.0410
  33   2.0000     -10.327616      -281.0287
  34   2.0000     -10.327299      -281.0201
  35   2.0000     -10.326524      -280.9990
  36   2.0000     -10.326030      -280.9855
  37   2.0000     -10.323665      -280.9212
  38   2.0000     -10.323622      -280.9200
  39   2.0000     -10.321251      -280.8555
  40   2.0000     -10.318909      -280.7918
  41   2.0000     -10.316608      -280.7292
  42   2.0000     -10.316270      -280.7200
  43   2.0000     -10.315122      -280.6887
  44   2.0000     -10.314276      -280.6657
  45   2.0000     -10.312614      -280.6205
  46   2.0000     -10.311745      -280.5969
  47   2.0000     -10.309120      -280.5254
  48   2.0000     -10.305589      -280.4293
  49   2.0000     -10.305108      -280.4163
  50   2.0000     -10.304266      -280.3933
  51   2.0000     -10.301150      -280.3086
  52   2.0000     -10.300252      -280.2841
  53   2.0000     -10.298068      -280.2247
  54   2.0000     -10.297447      -280.2078
  55   2.0000     -10.296653      -280.1862
  56   2.0000     -10.294192      -280.1192
  57   2.0000     -10.293445      -280.0989
  58   2.0000     -10.292755      -280.0801
  59   2.0000     -10.292728      -280.0794
  60   2.0000     -10.292435      -280.0714
  61   2.0000     -10.291879      -280.0563
  62   2.0000     -10.291714      -280.0518
  63   2.0000     -10.291412      -280.0436
  64   2.0000     -10.290557      -280.0203
  65   2.0000     -10.289138      -279.9817
  66   2.0000     -10.287293      -279.9315
  67   2.0000     -10.286092      -279.8988
  68   2.0000     -10.285419      -279.8805
  69   2.0000     -10.283756      -279.8352
  70   2.0000     -10.283683      -279.8332
  71   2.0000     -10.283137      -279.8184
  72   2.0000     -10.282731      -279.8073
  73   2.0000     -10.282396      -279.7982
  74   2.0000     -10.281668      -279.7784
  75   2.0000     -10.280037      -279.7340
  76   2.0000     -10.278309      -279.6870
  77   2.0000     -10.274663      -279.5878
  78   2.0000     -10.274010      -279.5700
  79   2.0000     -10.268653      -279.4243
  80   2.0000     -10.268205      -279.4121
  81   2.0000     -10.268063      -279.4082
  82   2.0000      -8.779454      -238.9011
  83   2.0000      -8.772393      -238.7089
  84   2.0000      -8.079509      -219.8546
  85   2.0000      -8.065916      -219.4847
  86   2.0000      -8.062298      -219.3863
  87   2.0000      -8.061215      -219.3568
  88   2.0000      -8.055738      -219.2078
  89   2.0000      -8.054673      -219.1788
  90   2.0000      -8.051053      -219.0803
  91   2.0000      -8.047685      -218.9887
  92   2.0000      -6.615600      -180.0196
  93   2.0000      -6.608544      -179.8276
  94   2.0000      -6.601246      -179.6290
  95   2.0000      -6.601107      -179.6252
  96   2.0000      -6.594176      -179.4367
  97   2.0000      -6.594043      -179.4330
  98   2.0000      -6.048769      -164.5954
  99   2.0000      -6.044729      -164.4855
 100   2.0000      -6.041483      -164.3971
 101   2.0000      -6.035517      -164.2348
 102   2.0000      -6.031798      -164.1336
 103   2.0000      -6.031393      -164.1225
 104   2.0000      -6.030652      -164.1024
 105   2.0000      -6.027574      -164.0186
 106   2.0000      -6.027270      -164.0104
 107   2.0000      -6.026526      -163.9901
 108   2.0000      -6.025457      -163.9610
 109   2.0000      -6.024146      -163.9253
 110   2.0000      -6.023900      -163.9186
 111   2.0000      -6.022883      -163.8910
 112   2.0000      -6.021179      -163.8446
 113   2.0000      -6.020470      -163.8253
 114   2.0000      -6.020013      -163.8129
 115   2.0000      -6.017370      -163.7410
 116   2.0000      -6.016986      -163.7305
 117   2.0000      -6.016427      -163.7153
 118   2.0000      -6.016141      -163.7075
 119   2.0000      -6.013104      -163.6249
 120   2.0000      -6.012695      -163.6137
 121   2.0000      -6.008917      -163.5109
 122   2.0000      -2.731556       -74.3294
 123   2.0000      -2.727435       -74.2173
 124   2.0000      -2.727363       -74.2153
 125   2.0000      -2.724498       -74.1374
 126   2.0000      -2.720376       -74.0252
 127   2.0000      -2.720296       -74.0230
 128   2.0000      -2.715933       -73.9043
 129   2.0000      -2.715917       -73.9038
 130   2.0000      -2.708856       -73.7117
 131   2.0000      -2.708844       -73.7114
 132   2.0000      -1.113037       -30.2873
 133   2.0000      -1.107149       -30.1271
 134   2.0000      -1.087436       -29.5906
 135   2.0000      -1.010094       -27.4861
 136   2.0000      -1.008854       -27.4523
 137   2.0000      -1.008656       -27.4469
 138   2.0000      -1.001333       -27.2477
 139   2.0000      -0.999073       -27.1861
 140   2.0000      -0.994150       -27.0522
 141   2.0000      -0.992996       -27.0208
 142   2.0000      -0.986668       -26.8486
 143   2.0000      -0.980730       -26.6870
 144   2.0000      -0.980373       -26.6773
 145   2.0000      -0.977074       -26.5875
 146   2.0000      -0.974393       -26.5146
 147   2.0000      -0.966577       -26.3019
 148   2.0000      -0.934205       -25.4210
 149   2.0000      -0.928168       -25.2567
 150   2.0000      -0.921397       -25.0725
 151   2.0000      -0.911917       -24.8145
 152   2.0000      -0.905912       -24.6511
 153   2.0000      -0.900175       -24.4950
 154   2.0000      -0.894198       -24.3324
 155   2.0000      -0.890421       -24.2296
 156   2.0000      -0.887047       -24.1378
 157   2.0000      -0.875822       -23.8323
 158   2.0000      -0.869980       -23.6734
 159   2.0000      -0.865233       -23.5442
 160   2.0000      -0.863049       -23.4848
 161   2.0000      -0.861267       -23.4363
 162   2.0000      -0.855721       -23.2853
 163   2.0000      -0.852182       -23.1891
 164   2.0000      -0.839113       -22.8334
 165   2.0000      -0.836570       -22.7642
 166   2.0000      -0.833479       -22.6801
 167   2.0000      -0.830745       -22.6057
 168   2.0000      -0.826883       -22.5006
 169   2.0000      -0.813558       -22.1380
 170   2.0000      -0.808598       -22.0031
 171   2.0000      -0.806664       -21.9504
 172   2.0000      -0.794772       -21.6268
 173   2.0000      -0.775674       -21.1072
 174   2.0000      -0.764813       -20.8116
 175   2.0000      -0.751369       -20.4458
 176   2.0000      -0.743589       -20.2341
 177   2.0000      -0.736943       -20.0532
 178   2.0000      -0.729193       -19.8424
 179   2.0000      -0.718786       -19.5592
 180   2.0000      -0.714414       -19.4402
 181   2.0000      -0.702154       -19.1066
 182   2.0000      -0.694631       -18.9019
 183   2.0000      -0.687553       -18.7093
 184   2.0000      -0.683586       -18.6013
 185   2.0000      -0.674963       -18.3667
 186   2.0000      -0.671857       -18.2822
 187   2.0000      -0.670911       -18.2564
 188   2.0000      -0.666672       -18.1411
 189   2.0000      -0.657930       -17.9032
 190   2.0000      -0.650241       -17.6940
 191   2.0000      -0.646732       -17.5985
 192   2.0000      -0.640761       -17.4360
 193   2.0000      -0.638398       -17.3717
 194   2.0000      -0.635406       -17.2903
 195   2.0000      -0.632109       -17.2006
 196   2.0000      -0.626767       -17.0552
 197   2.0000      -0.622578       -16.9412
 198   2.0000      -0.615523       -16.7492
 199   2.0000      -0.612904       -16.6780
 200   2.0000      -0.607398       -16.5281
 201   2.0000      -0.606817       -16.5123
 202   2.0000      -0.602046       -16.3825
 203   2.0000      -0.601272       -16.3614
 204   2.0000      -0.585979       -15.9453
 205   2.0000      -0.579377       -15.7656
 206   2.0000      -0.578146       -15.7321
 207   2.0000      -0.574315       -15.6279
 208   2.0000      -0.572811       -15.5870
 209   2.0000      -0.569862       -15.5067
 210   2.0000      -0.563841       -15.3429
 211   2.0000      -0.559655       -15.2290
 212   2.0000      -0.551796       -15.0151
 213   2.0000      -0.546349       -14.8669
 214   2.0000      -0.542760       -14.7693
 215   2.0000      -0.541182       -14.7263
 216   2.0000      -0.537058       -14.6141
 217   2.0000      -0.534494       -14.5443
 218   2.0000      -0.529960       -14.4209
 219   2.0000      -0.526499       -14.3268
 220   2.0000      -0.524316       -14.2674
 221   2.0000      -0.522201       -14.2098
 222   2.0000      -0.518366       -14.1055
 223   2.0000      -0.516309       -14.0495
 224   2.0000      -0.512295       -13.9403
 225   2.0000      -0.509996       -13.8777
 226   2.0000      -0.508169       -13.8280
 227   2.0000      -0.507456       -13.8086
 228   2.0000      -0.506157       -13.7732
 229   2.0000      -0.502825       -13.6826
 230   2.0000      -0.501614       -13.6496
 231   2.0000      -0.500289       -13.6135
 232   2.0000      -0.499395       -13.5892
 233   2.0000      -0.493460       -13.4277
 234   2.0000      -0.490733       -13.3535
 235   2.0000      -0.490002       -13.3336
 236   2.0000      -0.485758       -13.2181
 237   2.0000      -0.483575       -13.1587
 238   2.0000      -0.481409       -13.0998
 239   2.0000      -0.479695       -13.0532
 240   2.0000      -0.478002       -13.0071
 241   2.0000      -0.475564       -12.9407
 242   2.0000      -0.473972       -12.8974
 243   2.0000      -0.473410       -12.8822
 244   2.0000      -0.471023       -12.8172
 245   2.0000      -0.468993       -12.7620
 246   2.0000      -0.468077       -12.7370
 247   2.0000      -0.463175       -12.6036
 248   2.0000      -0.461919       -12.5695
 249   2.0000      -0.458069       -12.4647
 250   2.0000      -0.455574       -12.3968
 251   2.0000      -0.453166       -12.3313
 252   2.0000      -0.449476       -12.2309
 253   2.0000      -0.446216       -12.1422
 254   2.0000      -0.444554       -12.0969
 255   2.0000      -0.443311       -12.0631
 256   2.0000      -0.441189       -12.0053
 257   2.0000      -0.437842       -11.9143
 258   2.0000      -0.437084       -11.8937
 259   2.0000      -0.436535       -11.8787
 260   2.0000      -0.435248       -11.8437
 261   2.0000      -0.433841       -11.8054
 262   2.0000      -0.433541       -11.7972
 263   2.0000      -0.429433       -11.6855
 264   2.0000      -0.427767       -11.6401
 265   2.0000      -0.425500       -11.5785
 266   2.0000      -0.422651       -11.5009
 267   2.0000      -0.421069       -11.4579
 268   2.0000      -0.418833       -11.3970
 269   2.0000      -0.417384       -11.3576
 270   2.0000      -0.413536       -11.2529
 271   2.0000      -0.410424       -11.1682
 272   2.0000      -0.408341       -11.1115
 273   2.0000      -0.405538       -11.0353
 274   2.0000      -0.402501       -10.9526
 275   2.0000      -0.400838       -10.9073
 276   2.0000      -0.400004       -10.8847
 277   2.0000      -0.396168       -10.7803
 278   2.0000      -0.392264       -10.6741
 279   2.0000      -0.389779       -10.6064
 280   2.0000      -0.389142       -10.5891
 281   2.0000      -0.377260       -10.2658
 282   2.0000      -0.372387       -10.1332
 283   2.0000      -0.367612       -10.0032
 284   2.0000      -0.362424        -9.8621
 285   2.0000      -0.361231        -9.8296
 286   2.0000      -0.358362        -9.7515
 287   2.0000      -0.355007        -9.6602
 288   2.0000      -0.353979        -9.6323
 289   2.0000      -0.347432        -9.4541
 290   2.0000      -0.345671        -9.4062
 291   2.0000      -0.343230        -9.3398
 292   2.0000      -0.336845        -9.1660
 293   2.0000      -0.332184        -9.0392
 294   2.0000      -0.330107        -8.9827
 295   2.0000      -0.325373        -8.8539
 296   2.0000      -0.323904        -8.8139
 297   2.0000      -0.316435        -8.6106
 298   2.0000      -0.312901        -8.5145
 299   2.0000      -0.298706        -8.1282
 300   2.0000      -0.294890        -8.0244
 301   2.0000      -0.289522        -7.8783
 302   2.0000      -0.276124        -7.5137
 303   2.0000      -0.275320        -7.4918
 304   2.0000      -0.268609        -7.3092
 305   2.0000      -0.225376        -6.1328
 306   2.0000      -0.205340        -5.5876
 307   0.0000      -0.129175        -3.5150
 308   0.0000      -0.096913        -2.6371
 309   0.0000      -0.068451        -1.8627
 310   0.0000      -0.047732        -1.2988
 311   0.0000      -0.043050        -1.1715

MULLIKEN ATOMIC CHARGES
-----------------------
   0 C :    0.340262
   1 C :   -0.384802
   2 C :   -0.166795
   3 N :    0.110763
   4 C :   -0.229940
   5 N :    0.157354
   6 C :    0.006399
   7 C :    0.004888
   8 C :   -0.114562
   9 C :    0.129792
  10 C :   -0.089000
  11 C :   -0.044785
  12 S :    0.189185
  13 C :   -0.108994
  14 C :    0.032067
  15 Br:    0.008006
  16 C :    0.144966
  17 O :   -0.172109
  18 C :   -0.080862
  19 C :   -0.049144
  20 C :   -0.030169
  21 C :   -0.008921
  22 C :    0.014012
  23 C :    0.030919
  24 C :   -0.046730
  25 S :    0.127577
  26 C :   -0.019759
  27 C :    0.013649
  28 C :    0.037704
  29 C :   -0.058687
  30 S :    0.115036
  31 C :    0.006066
  32 C :   -0.138285
  33 S :    0.130896
  34 C :   -0.109277
  35 C :    0.077776
  36 C :   -0.019390
  37 S :    0.115226
  38 C :    0.014256
  39 N :   -0.039688
  40 C :    0.007092
  41 C :    0.013527
  42 C :    0.017772
  43 C :   -0.035078
  44 C :    0.033927
  45 C :    0.025814
  46 C :   -0.036619
  47 S :    0.104057
  48 C :   -0.030304
  49 C :    0.026771
  50 C :    0.052736
  51 C :   -0.051849
  52 S :    0.135850
  53 C :    0.086533
  54 C :   -0.049838
  55 C :   -0.077199
  56 C :    0.312951
  57 C :   -0.360035
  58 C :   -0.176296
  59 N :    0.135598
  60 C :   -0.187351
  61 N :    0.140470
  62 C :   -0.005715
  63 C :    0.008115
  64 C :    0.112367
  65 O :   -0.143691
  66 C :   -0.059058
  67 C :    0.120514
  68 C :   -0.106312
  69 C :   -0.003835
  70 S :    0.180303
  71 C :   -0.102064
  72 C :    0.044739
  73 Br:    0.010209
  74 H :   -0.019513
  75 H :   -0.014654
  76 H :   -0.011945
  77 H :    0.013428
  78 H :    0.016294
  79 H :   -0.007359
  80 H :   -0.011279
  81 H :   -0.010353
  82 H :   -0.009394
  83 H :   -0.006445
  84 H :    0.048862
  85 H :   -0.004508
  86 H :    0.006914
  87 H :   -0.008373
  88 H :   -0.007908
  89 H :   -0.005943
  90 H :   -0.006592
  91 H :    0.013092
  92 H :    0.008083
  93 H :    0.026913
  94 H :   -0.018694
  95 H :   -0.014402
  96 H :   -0.015227
Sum of atomic charges:   -0.0000000

LOEWDIN ATOMIC CHARGES
----------------------
   0 C :    0.057221
   1 C :   -0.166695
   2 C :   -0.008379
   3 N :   -0.079655
   4 C :   -0.026337
   5 N :   -0.068299
   6 C :   -0.020911
   7 C :   -0.053284
   8 C :    0.007979
   9 C :   -0.039502
  10 C :   -0.143592
  11 C :   -0.025287
  12 S :    0.440931
  13 C :   -0.270818
  14 C :   -0.071477
  15 Br:    0.127714
  16 C :    0.081114
  17 O :   -0.161026
  18 C :   -0.101838
  19 C :    0.023599
  20 C :   -0.064559
  21 C :   -0.125021
  22 C :   -0.051710
  23 C :   -0.023751
  24 C :   -0.193059
  25 S :    0.437035
  26 C :   -0.156359
  27 C :   -0.051264
  28 C :   -0.024241
  29 C :   -0.174621
  30 S :    0.423747
  31 C :   -0.046910
  32 C :   -0.190949
  33 S :    0.435854
  34 C :   -0.137683
  35 C :   -0.070267
  36 C :   -0.191052
  37 S :    0.404580
  38 C :   -0.099670
  39 N :   -0.076750
  40 C :   -0.057146
  41 C :   -0.010465
  42 C :   -0.051287
  43 C :   -0.141682
  44 C :   -0.034502
  45 C :   -0.032809
  46 C :   -0.178834
  47 S :    0.439282
  48 C :   -0.160225
  49 C :   -0.028769
  50 C :   -0.008071
  51 C :   -0.125654
  52 S :    0.440198
  53 C :   -0.012652
  54 C :    0.025371
  55 C :   -0.079046
  56 C :    0.066467
  57 C :   -0.146097
  58 C :   -0.015125
  59 N :   -0.064896
  60 C :   -0.013387
  61 N :   -0.062493
  62 C :   -0.019360
  63 C :   -0.053314
  64 C :    0.075539
  65 O :   -0.144215
  66 C :    0.025041
  67 C :   -0.031045
  68 C :   -0.144872
  69 C :   -0.010490
  70 S :    0.439281
  71 C :   -0.265278
  72 C :   -0.067121
  73 Br:    0.131697
  74 H :    0.032459
  75 H :    0.036383
  76 H :    0.035587
  77 H :    0.029031
  78 H :    0.036930
  79 H :    0.035244
  80 H :    0.032521
  81 H :    0.032961
  82 H :    0.034743
  83 H :    0.041125
  84 H :    0.022834
  85 H :    0.013867
  86 H :    0.036431
  87 H :    0.038596
  88 H :    0.035162
  89 H :    0.034967
  90 H :    0.035121
  91 H :    0.045109
  92 H :    0.038556
  93 H :    0.032228
  94 H :    0.038319
  95 H :    0.038217
  96 H :    0.034762

  Mayer bond orders larger than 0.100000
B(  0-C ,  1-C ) :   1.5022 B(  0-C ,  6-C ) :   0.9685 B(  0-C , 18-C ) :   1.1902
B(  1-C ,  2-C ) :   1.1734 B(  1-C ,  4-C ) :   1.1663 B(  2-C ,  3-N ) :   2.8482
B(  4-C ,  5-N ) :   2.9456 B(  6-C ,  7-C ) :   1.2720 B(  6-C , 11-C ) :   1.4381
B(  7-C ,  8-C ) :   1.4285 B(  7-C , 16-C ) :   0.9332 B(  8-C ,  9-C ) :   1.2177
B(  8-C , 74-H ) :   1.0179 B(  9-C , 10-C ) :   1.3258 B(  9-C , 14-C ) :   1.1618
B( 10-C , 11-C ) :   1.2941 B( 10-C , 12-S ) :   1.0931 B( 11-C , 75-H ) :   0.9816
B( 12-S , 13-C ) :   1.0901 B( 13-C , 14-C ) :   1.6200 B( 13-C , 15-Br) :   1.0103
B( 14-C , 76-H ) :   1.0005 B( 16-C , 17-O ) :   2.1539 B( 16-C , 18-C ) :   0.9791
B( 18-C , 19-C ) :   1.3683 B( 19-C , 20-C ) :   1.3693 B( 19-C , 77-H ) :   0.9478
B( 20-C , 21-C ) :   1.2901 B( 20-C , 78-H ) :   0.9837 B( 21-C , 22-C ) :   1.2741
B( 21-C , 25-S ) :   1.1064 B( 22-C , 23-C ) :   1.4253 B( 22-C , 79-H ) :   1.0033
B( 23-C , 24-C ) :   1.3221 B( 23-C , 80-H ) :   0.9957 B( 24-C , 25-S ) :   1.0835
B( 24-C , 26-C ) :   1.3095 B( 26-C , 27-C ) :   1.3122 B( 26-C , 30-S ) :   1.1086
B( 27-C , 28-C ) :   1.4478 B( 27-C , 81-H ) :   0.9944 B( 28-C , 29-C ) :   1.2677
B( 28-C , 82-H ) :   1.0013 B( 29-C , 30-S ) :   1.0686 B( 29-C , 31-C ) :   1.3680
B( 31-C , 32-C ) :   1.4053 B( 31-C , 83-H ) :   0.9683 B( 32-C , 33-S ) :   1.0519
B( 32-C , 36-C ) :   1.3112 B( 33-S , 34-C ) :   1.1023 B( 34-C , 35-C ) :   1.2111
B( 34-C , 40-C ) :   1.4291 B( 35-C , 36-C ) :   1.3806 B( 35-C , 39-N ) :   1.3243
B( 36-C , 37-S ) :   1.0882 B( 37-S , 38-C ) :   1.1040 B( 37-S , 39-N ) :   0.1007
B( 38-C , 39-N ) :   1.7558 B( 38-C , 84-H ) :   0.9644 B( 40-C , 41-C ) :   1.3533
B( 40-C , 85-H ) :   0.9196 B( 41-C , 42-C ) :   1.4159 B( 41-C , 86-H ) :   0.9576
B( 42-C , 43-C ) :   1.3449 B( 42-C , 87-H ) :   0.9646 B( 43-C , 44-C ) :   1.2706
B( 43-C , 47-S ) :   1.0905 B( 44-C , 45-C ) :   1.4556 B( 44-C , 88-H ) :   0.9993
B( 45-C , 46-C ) :   1.3021 B( 45-C , 89-H ) :   0.9953 B( 46-C , 47-S ) :   1.0827
B( 46-C , 48-C ) :   1.3345 B( 48-C , 49-C ) :   1.2771 B( 48-C , 52-S ) :   1.1060
B( 49-C , 50-C ) :   1.4773 B( 49-C , 90-H ) :   0.9963 B( 50-C , 51-C ) :   1.2315
B( 50-C , 91-H ) :   1.0013 B( 51-C , 52-S ) :   1.0797 B( 51-C , 53-C ) :   1.4438
B( 53-C , 54-C ) :   1.2278 B( 53-C , 92-H ) :   0.9432 B( 54-C , 55-C ) :   1.5366
B( 54-C , 93-H ) :   0.9189 B( 55-C , 56-C ) :   1.0529 B( 55-C , 64-C ) :   0.9540
B( 56-C , 57-C ) :   1.5948 B( 56-C , 62-C ) :   1.0016 B( 57-C , 58-C ) :   1.1402
B( 57-C , 60-C ) :   1.1842 B( 58-C , 59-N ) :   2.9126 B( 60-C , 61-N ) :   2.9329
B( 62-C , 63-C ) :   1.2808 B( 62-C , 69-C ) :   1.4157 B( 63-C , 64-C ) :   0.9344
B( 63-C , 66-C ) :   1.4179 B( 64-C , 65-O ) :   2.2218 B( 66-C , 67-C ) :   1.2433
B( 66-C , 94-H ) :   1.0114 B( 67-C , 68-C ) :   1.3012 B( 67-C , 72-C ) :   1.1661
B( 68-C , 69-C ) :   1.3314 B( 68-C , 70-S ) :   1.0960 B( 69-C , 95-H ) :   0.9773
B( 70-S , 71-C ) :   1.0830 B( 71-C , 72-C ) :   1.6204 B( 71-C , 73-Br) :   1.0126
B( 72-C , 96-H ) :   0.9986

-----------------------------------------------------------------------------
         ABSORPTION SPECTRUM VIA TRANSITION ELECTRIC DIPOLE MOMENTS
-----------------------------------------------------------------------------
State   Energy  Wavelength   fosc         T2         TX        TY        TZ
        (cm-1)    (nm)                  (au**2)     (au)      (au)      (au)
-----------------------------------------------------------------------------
   0    3531.3   2831.8   0.063063293   5.87923   1.08112  -1.97587   0.89798
   1    6566.4   1522.9   0.026138665   1.31049   0.02023  -0.44210  -1.05576
   2   12520.9    798.7   1.995019138  52.45494  -0.44168   3.22623   6.46926
   3   14576.9    686.0   0.042909026   0.96908   0.44022  -0.75440   0.45405
   4   15760.5    634.5   0.317563286   6.63340   0.00118   2.40256  -0.92796
   5   17045.7    586.7   0.104568226   2.01958   0.22429  -1.35200   0.37598
   6   17769.9    562.8   0.086901855   1.60998  -0.22126  -0.86216   0.90427
   7   18560.8    538.8   0.197496678   3.50298  -0.62328  -0.82249   1.56141
   8   19610.1    509.9   0.260041506   4.36554   0.41932   2.00788   0.39767
   9   20156.2    496.1   0.544854946   8.89915  -0.53200  -2.66030   1.24054
  10   21035.7    475.4   0.265542631   4.15578   0.47482   1.30753  -1.49020
  11   21303.0    469.4   0.146960328   2.27109   0.20218   0.83853  -1.23575
  12   21682.9    461.2   0.151187328   2.29548   0.10172   1.16395  -0.96454
  13   22515.0    444.1   0.047124383   0.68905   0.25577   0.28121  -0.73794
  14   23157.7    431.8   0.012598635   0.17910   0.16163   0.12409  -0.37092
  15   23579.8    424.1   0.026912123   0.37574   0.01146   0.57310   0.21718
  16   24398.6    409.9   0.008982423   0.12120   0.19715   0.17205  -0.22964
  17   24844.1    402.5   0.035453632   0.46980   0.02304   0.53828   0.42370
  18   25439.3    393.1   0.181374562   2.34718  -0.44130  -1.46677   0.03199
  19   25556.6    391.3   0.010942374   0.14096  -0.21277  -0.19349   0.24135
  20   25849.1    386.9   0.036650452   0.46678   0.07053  -0.38212  -0.56195
  21   26225.1    381.3   0.062147539   0.78016   0.00811  -0.69071  -0.55046
  22   26567.8    376.4   0.041321511   0.51203  -0.21391   0.12302  -0.67167
  23   27127.9    368.6   0.029729447   0.36078   0.00321   0.39229  -0.45484
  24   27267.1    366.7   0.081149503   0.97977  -0.05498   0.82033   0.55118
  25   27627.3    362.0   0.026067405   0.31062  -0.14138  -0.53090  -0.09368
  26   28143.1    355.3   0.027531448   0.32206   0.27576   0.49536   0.02514
  27   28378.8    352.4   0.223031122   2.58730  -0.01939  -0.91121   1.32537
  28   29151.8    343.0   0.017182918   0.19405   0.11043  -0.17215  -0.39015
  29   29621.7    337.6   0.017004257   0.18898  -0.01255  -0.03311   0.43328
  30   29827.1    335.3   0.016671287   0.18401  -0.08701   0.27721  -0.31558
  31   30029.8    333.0   0.014111951   0.15471   0.17450  -0.03054  -0.35118
  32   30152.7    331.6   0.034822194   0.38019   0.09729  -0.59082   0.14717
  33   30498.5    327.9   0.033257176   0.35899  -0.01417   0.15579   0.57838
  34   30617.8    326.6   0.109536979   1.17777   0.24937   1.04762   0.13449
  35   30921.5    323.4   0.004721119   0.05026  -0.17009  -0.06130   0.13258
  36   31030.4    322.3   0.027783176   0.29476  -0.09066  -0.46690   0.26181
  37   31278.6    319.7   0.102940064   1.08346  -0.01908  -1.03675   0.09079
  38   31521.6    317.2   0.004861431   0.05077  -0.11031   0.19602  -0.01340
  39   31667.3    315.8   0.010715261   0.11140  -0.20083   0.26407   0.03647
  40   31942.7    313.1   0.042212554   0.43506  -0.30991  -0.27684   0.51222
  41   32244.3    310.1   0.000293981   0.00300  -0.04259   0.00992   0.03301
  42   32377.5    308.9   0.035100873   0.35690   0.10412  -0.53968  -0.23412
  43   32492.7    307.8   0.011014910   0.11160  -0.09324  -0.15342  -0.28172
  44   32784.6    305.0   0.088291437   0.88659  -0.19467  -0.10995  -0.91466
  45   32878.0    304.2   0.004765087   0.04771   0.13067  -0.01244   0.17460
  46   33169.5    301.5   0.046013759   0.45669   0.05188  -0.10128   0.66614
  47   33328.9    300.0   0.003668912   0.03624   0.06774   0.00119  -0.17791
  48   33547.4    298.1   0.062022999   0.60865   0.07593  -0.04320  -0.77525
  49   33776.3    296.1   0.054154925   0.52784   0.15563  -0.43415  -0.56137
  50   34058.0    293.6   0.003977748   0.03845  -0.01220  -0.14723   0.12894
  51   34177.7    292.6   0.150682997   1.45143   0.09272  -1.06847  -0.54882
  52   34311.7    291.4   0.042800071   0.41066  -0.22380   0.25151   0.54526
  53   34530.9    289.6   0.041467869   0.39535  -0.08825   0.55000   0.29165
  54   34731.6    287.9   0.034417237   0.32623   0.16938  -0.27858  -0.46897
  55   34909.4    286.5   0.021352247   0.20136  -0.09226   0.43888   0.01522
  56   35032.5    285.4   0.008648683   0.08127   0.03188   0.27976  -0.04465
  57   35439.9    282.2   0.004365998   0.04056  -0.06200   0.19092  -0.01615
  58   35557.3    281.2   0.019908763   0.18433   0.12646  -0.40716   0.05060
  59   35695.3    280.1   0.063033397   0.58135  -0.08163  -0.49925   0.57047
  60   35841.0    279.0   0.038895546   0.35727  -0.07068  -0.54939   0.22460
  61   36031.6    277.5   0.030061663   0.27467   0.00521  -0.39145   0.34843
  62   36302.6    275.5   0.017435698   0.15812   0.02363  -0.39556   0.03302
  63   36396.1    274.8   0.036081333   0.32636  -0.21014  -0.49854   0.18347
  64   36547.5    273.6   0.015770357   0.14206   0.16632  -0.17233  -0.29103
  65   36739.8    272.2   0.030562757   0.27386  -0.13420  -0.37723   0.33698
  66   36894.5    271.0   0.007640689   0.06818   0.02860   0.08010   0.24687
  67   37102.1    269.5   0.032980408   0.29264   0.21496   0.00928  -0.49633
  68   37220.3    268.7   0.017547547   0.15521   0.06389  -0.18807   0.34023
  69   37441.7    267.1   0.103781446   0.91252  -0.04308  -0.21623   0.92946
  70   37665.7    265.5   0.001617169   0.01413   0.03911  -0.04217  -0.10405
  71   37859.9    264.1   0.005852356   0.05089   0.10246  -0.05513   0.19327
  72   38329.9    260.9   0.016986125   0.14589   0.12411  -0.34302   0.11324
  73   38426.9    260.2   0.031078638   0.26626   0.17959   0.48077   0.05355
  74   38501.4    259.7   0.052112572   0.44560   0.27233   0.60944   0.00323
  75   38592.8    259.1   0.009716144   0.08288  -0.02533  -0.25892  -0.12328
  76   38711.6    258.3   0.003791204   0.03224  -0.01053   0.07993  -0.16044
  77   38787.1    257.8   0.098560719   0.83655  -0.02799   0.05820  -0.91235
  78   38936.6    256.8   0.016421101   0.13884   0.14650  -0.33335  -0.07912
  79   39209.3    255.0   0.023842499   0.20019  -0.12462   0.09523   0.41903
  80   39412.9    253.7   0.097589217   0.81515   0.12899   0.37909   0.80920
  81   39603.9    252.5   0.000150842   0.00125  -0.00011  -0.00119   0.03539
  82   39613.0    252.4   0.000820826   0.00682  -0.00312   0.08086   0.01655
  83   39888.9    250.7   0.019236217   0.15876  -0.00024  -0.39838   0.00741
  84   39947.6    250.3   0.036635923   0.30192  -0.12828  -0.52681   0.08908
  85   40002.6    250.0   0.128395170   1.05666  -0.10406  -0.96929   0.32607
  86   40217.0    248.7   0.075158924   0.61524  -0.11351  -0.74539  -0.21621
  87   40303.2    248.1   0.024380956   0.19915  -0.14082  -0.25423   0.33866

FINAL SINGLE POINT ENERGY    -10939.120463309941

DIPOLE MOMENT
-------------
                                X             Y             Z
Electronic contribution:      4.98173     -43.54754    -176.99648
Nuclear contribution   :     -5.56192      47.42256     181.17727
                        -----------------------------------------
Total Dipole Moment    :     -0.58019       3.87502       4.18079
                        -----------------------------------------
Magnitude (a.u.)       :      5.72987
Magnitude (Debye)      :     14.56416

Rotational constants in cm-1:     0.001003     0.000395     0.000302
Rotational constants in MHz :    30.075984    11.845989     9.044047

                             ****ORCA TERMINATED NORMALLY****
TOTAL RUN TIME: 0 days 0 hours 17 minutes 8 seconds 576 msec
