                         Program Version 4.2.0 -  RELEASE  -
|  1> # ORCA input file
|  2> # SCF done       -159.444990227109          0.000837298641
|  3> ! CAM-B3LYP def2-SVP def2/J RIJCOSX Grid4 TightSCF
|  4> %maxcore 5000
|  5> %tddft
|  6>     Mode sTDDFT
|  7>     Ethresh 5.0
|  8>     maxcore 5000
|  9> end
| 10>
| 11> %pal
| 12>   nprocs 6
| 13>   end
| 14> * xyz 0 1
| 15>    C      -10.47152         3.73000         0.24248
| 16>    C       -9.12018         3.91409         0.03036
| 17>    C       -8.53863         5.13898        -0.35156
| 18>    N       -7.99344         6.10388        -0.65499
| 19>    C       -8.13293         2.91980         0.10327
| 20>    N       -7.27216         2.15370         0.11081
| 21>    C      -11.49016         4.74699         0.02424
| 22>    C      -12.76542         4.15591         0.19511
| 23>    C      -13.93588         4.85221         0.02710
| 24>    C      -13.84671         6.20628        -0.31595
| 25>    C      -12.56883         6.79227        -0.47525
| 26>    C      -11.38450         6.08489        -0.31326
| 27>    S      -12.68612         8.47446        -0.89775
| 28>    C      -14.42621         8.36682        -0.85724
| 29>    C      -14.89704         7.13669        -0.54244
| 30>   Br      -15.45680         9.88837        -1.23425
| 31>    C      -12.60384         2.73031         0.55301
| 32>    O      -13.49931         1.92419         0.67477
| 33>    C      -11.13937         2.51393         0.65761
| 34>    C      -10.48926         1.37619         1.06130
| 35>    C      -11.01775         0.17130         1.56283
| 36>    O      -12.32913         0.06985         1.92969
| 37>    C      -12.56700        -1.12935         2.39810
| 38>    C      -11.41899        -1.89718         2.36703
| 39>    N      -11.30053        -3.22820         2.78619
| 40>    O      -12.29144        -3.78629         3.20923
| 41>    O      -10.19175        -3.75306         2.70447
| 42>    C      -10.38107        -1.06437         1.81948
| 43>    N       -9.13068        -1.52357         1.63358
| 44>    C       -8.04073        -0.94204         1.03089
| 45>    C       -6.85699        -1.56070         0.92651
| 46>    C       -6.60298        -2.93865         1.46599
| 47>    C       -5.72497        -0.87506         0.21677
| 48>    N       -4.51068        -0.95167         0.99931
| 49>    C       -3.27805        -0.73794         0.51222
| 50>    C       -2.97783        -0.38778        -0.77316
| 51>    C       -1.66914        -0.25163        -1.24744
| 52>    C       -0.35358        -0.48727        -0.79271
| 53>    C        0.19883         0.01980        -2.07509
| 54>    C        1.14681         0.34557        -2.95960
| 55>    S        0.38278         0.95239        -4.43182
| 56>    C       -1.23773         0.74208        -3.78239
| 57>    C       -1.15349         0.24629        -2.54110
| 58>    C        0.24861        -1.03598         0.33973
| 59>    C        1.60151        -1.15198         0.46979
| 60>    C        2.28050        -1.73225         1.58170
| 61>    C        3.68293        -1.82149         1.57167
| 62>    O        4.27578        -1.33331         0.44739
| 63>    C        5.59674        -0.83614         0.45951
| 64>    C        4.40305        -2.43750         2.64212
| 65>    O        5.75470        -2.54093         2.47894
| 66>    C        6.51102        -3.16932         3.48483
| 67>    C        3.74986        -2.91541         3.75394
| 68>    C        2.35476        -2.81573         3.81318
| 69>    C        1.60573        -2.24024         2.72807
| 70>    N        0.29945        -2.25156         2.97431
| 71>    S        0.04377        -2.92001         4.42575
| 72>    N        1.57701        -3.22803         4.81150
| 73>    H      -14.89145         4.36870         0.15652
| 74>    H      -10.43699         6.57848        -0.44858
| 75>    H      -15.94167         6.89377        -0.47340
| 76>    H       -9.41269         1.40387         1.02904
| 77>    H      -13.55576        -1.37255         2.73598
| 78>    H       -9.01219        -2.48887         1.95068
| 79>    H       -8.17133         0.03874         0.60912
| 80>    H       -6.66704        -2.95744         2.55426
| 81>    H       -5.61483        -3.28375         1.17512
| 82>    H       -7.33592        -3.64914         1.08397
| 83>    H       -5.98967         0.16807         0.00734
| 84>    H       -5.53916        -1.38141        -0.73864
| 85>    H       -4.62564        -1.03557         1.99606
| 86>    H       -2.47803        -0.87285         1.22567
| 87>    H       -3.76850        -0.17033        -1.47631
| 88>    H        2.21658         0.30074        -2.92639
| 89>    H       -2.07314         1.00950        -4.39795
| 90>    H       -0.38426        -1.40130         1.13397
| 91>    H        2.23011        -0.78909        -0.32991
| 92>    H        5.79727        -0.23993         1.35195
| 93>    H        5.66797        -0.19918        -0.42326
| 94>    H        6.33305        -1.63890         0.38687
| 95>    H        6.44177        -2.63194         4.43555
| 96>    H        7.54056        -3.14475         3.13069
| 97>    H        6.20132        -4.20873         3.62936
| 98>    H        4.26606        -3.38023         4.57521
| 99> *
|100>
|101>                          ****END OF INPUT****

CARTESIAN COORDINATES (ANGSTROEM)
---------------------------------
  C    -10.471520    3.730000    0.242480
  C     -9.120180    3.914090    0.030360
  C     -8.538630    5.138980   -0.351560
  N     -7.993440    6.103880   -0.654990
  C     -8.132930    2.919800    0.103270
  N     -7.272160    2.153700    0.110810
  C    -11.490160    4.746990    0.024240
  C    -12.765420    4.155910    0.195110
  C    -13.935880    4.852210    0.027100
  C    -13.846710    6.206280   -0.315950
  C    -12.568830    6.792270   -0.475250
  C    -11.384500    6.084890   -0.313260
  S    -12.686120    8.474460   -0.897750
  C    -14.426210    8.366820   -0.857240
  C    -14.897040    7.136690   -0.542440
  Br   -15.456800    9.888370   -1.234250
  C    -12.603840    2.730310    0.553010
  O    -13.499310    1.924190    0.674770
  C    -11.139370    2.513930    0.657610
  C    -10.489260    1.376190    1.061300
  C    -11.017750    0.171300    1.562830
  O    -12.329130    0.069850    1.929690
  C    -12.567000   -1.129350    2.398100
  C    -11.418990   -1.897180    2.367030
  N    -11.300530   -3.228200    2.786190
  O    -12.291440   -3.786290    3.209230
  O    -10.191750   -3.753060    2.704470
  C    -10.381070   -1.064370    1.819480
  N     -9.130680   -1.523570    1.633580
  C     -8.040730   -0.942040    1.030890
  C     -6.856990   -1.560700    0.926510
  C     -6.602980   -2.938650    1.465990
  C     -5.724970   -0.875060    0.216770
  N     -4.510680   -0.951670    0.999310
  C     -3.278050   -0.737940    0.512220
  C     -2.977830   -0.387780   -0.773160
  C     -1.669140   -0.251630   -1.247440
  C     -0.353580   -0.487270   -0.792710
  C      0.198830    0.019800   -2.075090
  C      1.146810    0.345570   -2.959600
  S      0.382780    0.952390   -4.431820
  C     -1.237730    0.742080   -3.782390
  C     -1.153490    0.246290   -2.541100
  C      0.248610   -1.035980    0.339730
  C      1.601510   -1.151980    0.469790
  C      2.280500   -1.732250    1.581700
  C      3.682930   -1.821490    1.571670
  O      4.275780   -1.333310    0.447390
  C      5.596740   -0.836140    0.459510
  C      4.403050   -2.437500    2.642120
  O      5.754700   -2.540930    2.478940
  C      6.511020   -3.169320    3.484830
  C      3.749860   -2.915410    3.753940
  C      2.354760   -2.815730    3.813180
  C      1.605730   -2.240240    2.728070
  N      0.299450   -2.251560    2.974310
  S      0.043770   -2.920010    4.425750
  N      1.577010   -3.228030    4.811500
  H    -14.891450    4.368700    0.156520
  H    -10.436990    6.578480   -0.448580
  H    -15.941670    6.893770   -0.473400
  H     -9.412690    1.403870    1.029040
  H    -13.555760   -1.372550    2.735980
  H     -9.012190   -2.488870    1.950680
  H     -8.171330    0.038740    0.609120
  H     -6.667040   -2.957440    2.554260
  H     -5.614830   -3.283750    1.175120
  H     -7.335920   -3.649140    1.083970
  H     -5.989670    0.168070    0.007340
  H     -5.539160   -1.381410   -0.738640
  H     -4.625640   -1.035570    1.996060
  H     -2.478030   -0.872850    1.225670
  H     -3.768500   -0.170330   -1.476310
  H      2.216580    0.300740   -2.926390
  H     -2.073140    1.009500   -4.397950
  H     -0.384260   -1.401300    1.133970
  H      2.230110   -0.789090   -0.329910
  H      5.797270   -0.239930    1.351950
  H      5.667970   -0.199180   -0.423260
  H      6.333050   -1.638900    0.386870
  H      6.441770   -2.631940    4.435550
  H      7.540560   -3.144750    3.130690
  H      6.201320   -4.208730    3.629360
  H      4.266060   -3.380230    4.575210

 Total Charge           Charge          ....    0
 Multiplicity           Mult            ....    1
 Number of Electrons    NEL             ....  452
 Basis Dimension        Dim             ....  972

ORBITAL ENERGIES
----------------

  NO   OCC          E(Eh)            E(eV)
   0   2.0000    -482.888276    -13140.0580
   1   2.0000     -88.995940     -2421.7026
   2   2.0000     -88.978346     -2421.2239
   3   2.0000     -88.904207     -2419.2065
   4   2.0000     -62.565998     -1702.5073
   5   2.0000     -56.399953     -1534.7208
   6   2.0000     -56.397226     -1534.6465
   7   2.0000     -56.397197     -1534.6457
   8   2.0000     -19.335041      -526.1332
   9   2.0000     -19.270295      -524.3714
  10   2.0000     -19.268741      -524.3291
  11   2.0000     -19.249340      -523.8012
  12   2.0000     -19.231127      -523.3056
  13   2.0000     -19.215485      -522.8799
  14   2.0000     -14.680306      -399.4714
  15   2.0000     -14.481260      -394.0551
  16   2.0000     -14.437897      -392.8751
  17   2.0000     -14.431562      -392.7028
  18   2.0000     -14.417275      -392.3140
  19   2.0000     -14.415158      -392.2564
  20   2.0000     -14.413074      -392.1997
  21   2.0000     -10.395294      -282.8703
  22   2.0000     -10.380712      -282.4735
  23   2.0000     -10.369373      -282.1650
  24   2.0000     -10.365765      -282.0668
  25   2.0000     -10.362176      -281.9691
  26   2.0000     -10.354097      -281.7493
  27   2.0000     -10.349428      -281.6222
  28   2.0000     -10.344725      -281.4943
  29   2.0000     -10.338200      -281.3167
  30   2.0000     -10.337072      -281.2860
  31   2.0000     -10.335006      -281.2298
  32   2.0000     -10.328344      -281.0485
  33   2.0000     -10.327354      -281.0216
  34   2.0000     -10.324263      -280.9375
  35   2.0000     -10.320987      -280.8483
  36   2.0000     -10.319377      -280.8045
  37   2.0000     -10.311448      -280.5888
  38   2.0000     -10.311190      -280.5817
  39   2.0000     -10.311050      -280.5779
  40   2.0000     -10.309264      -280.5293
  41   2.0000     -10.305439      -280.4253
  42   2.0000     -10.304525      -280.4004
  43   2.0000     -10.304426      -280.3977
  44   2.0000     -10.303382      -280.3693
  45   2.0000     -10.300012      -280.2776
  46   2.0000     -10.299739      -280.2702
  47   2.0000     -10.299565      -280.2654
  48   2.0000     -10.294724      -280.1337
  49   2.0000     -10.289357      -279.9876
  50   2.0000     -10.279999      -279.7330
  51   2.0000     -10.273286      -279.5503
  52   2.0000     -10.267798      -279.4010
  53   2.0000     -10.263612      -279.2871
  54   2.0000     -10.261205      -279.2216
  55   2.0000     -10.256779      -279.1011
  56   2.0000     -10.250232      -278.9230
  57   2.0000     -10.243158      -278.7305
  58   2.0000     -10.241208      -278.6774
  59   2.0000     -10.240535      -278.6591
  60   2.0000     -10.239775      -278.6384
  61   2.0000     -10.238882      -278.6141
  62   2.0000      -8.795431      -239.3358
  63   2.0000      -8.088078      -220.0878
  64   2.0000      -8.074317      -219.7133
  65   2.0000      -8.000112      -217.6941
  66   2.0000      -6.631765      -180.4595
  67   2.0000      -6.617164      -180.0622
  68   2.0000      -6.616929      -180.0558
  69   2.0000      -6.059488      -164.8870
  70   2.0000      -6.051828      -164.6786
  71   2.0000      -6.050004      -164.6290
  72   2.0000      -6.044024      -164.4662
  73   2.0000      -6.039719      -164.3491
  74   2.0000      -6.035535      -164.2353
  75   2.0000      -5.970239      -162.4585
  76   2.0000      -5.965557      -162.3310
  77   2.0000      -5.961101      -162.2098
  78   2.0000      -2.747612       -74.7663
  79   2.0000      -2.743527       -74.6552
  80   2.0000      -2.743388       -74.6514
  81   2.0000      -2.731769       -74.3352
  82   2.0000      -2.731752       -74.3348
  83   2.0000      -1.347476       -36.6667
  84   2.0000      -1.262819       -34.3630
  85   2.0000      -1.166558       -31.7436
  86   2.0000      -1.157384       -31.4940
  87   2.0000      -1.131555       -30.7912
  88   2.0000      -1.128653       -30.7122
  89   2.0000      -1.097350       -29.8604
  90   2.0000      -1.085664       -29.5424
  91   2.0000      -1.035722       -28.1834
  92   2.0000      -1.029182       -28.0055
  93   2.0000      -1.020676       -27.7740
  94   2.0000      -1.002601       -27.2822
  95   2.0000      -0.993817       -27.0431
  96   2.0000      -0.972768       -26.4704
  97   2.0000      -0.967819       -26.3357
  98   2.0000      -0.954021       -25.9602
  99   2.0000      -0.950496       -25.8643
 100   2.0000      -0.934396       -25.4262
 101   2.0000      -0.931339       -25.3430
 102   2.0000      -0.912560       -24.8320
 103   2.0000      -0.909441       -24.7471
 104   2.0000      -0.893008       -24.3000
 105   2.0000      -0.889338       -24.2001
 106   2.0000      -0.884355       -24.0645
 107   2.0000      -0.863013       -23.4838
 108   2.0000      -0.856853       -23.3161
 109   2.0000      -0.845192       -22.9989
 110   2.0000      -0.836463       -22.7613
 111   2.0000      -0.834706       -22.7135
 112   2.0000      -0.832029       -22.6407
 113   2.0000      -0.816465       -22.2171
 114   2.0000      -0.805101       -21.9079
 115   2.0000      -0.794125       -21.6092
 116   2.0000      -0.791887       -21.5483
 117   2.0000      -0.780909       -21.2496
 118   2.0000      -0.776065       -21.1178
 119   2.0000      -0.766410       -20.8551
 120   2.0000      -0.765011       -20.8170
 121   2.0000      -0.732602       -19.9351
 122   2.0000      -0.728775       -19.8310
 123   2.0000      -0.723565       -19.6892
 124   2.0000      -0.710757       -19.3407
 125   2.0000      -0.700958       -19.0740
 126   2.0000      -0.695998       -18.9391
 127   2.0000      -0.688998       -18.7486
 128   2.0000      -0.684817       -18.6348
 129   2.0000      -0.675272       -18.3751
 130   2.0000      -0.672228       -18.2923
 131   2.0000      -0.667538       -18.1646
 132   2.0000      -0.662164       -18.0184
 133   2.0000      -0.660350       -17.9690
 134   2.0000      -0.653809       -17.7911
 135   2.0000      -0.642254       -17.4766
 136   2.0000      -0.635520       -17.2934
 137   2.0000      -0.626753       -17.0548
 138   2.0000      -0.621437       -16.9102
 139   2.0000      -0.618304       -16.8249
 140   2.0000      -0.610833       -16.6216
 141   2.0000      -0.604871       -16.4594
 142   2.0000      -0.603156       -16.4127
 143   2.0000      -0.601391       -16.3647
 144   2.0000      -0.600136       -16.3305
 145   2.0000      -0.598112       -16.2754
 146   2.0000      -0.592672       -16.1274
 147   2.0000      -0.588963       -16.0265
 148   2.0000      -0.585083       -15.9209
 149   2.0000      -0.583323       -15.8730
 150   2.0000      -0.570328       -15.5194
 151   2.0000      -0.560877       -15.2622
 152   2.0000      -0.559468       -15.2239
 153   2.0000      -0.553290       -15.0558
 154   2.0000      -0.547501       -14.8982
 155   2.0000      -0.545555       -14.8453
 156   2.0000      -0.544401       -14.8139
 157   2.0000      -0.543204       -14.7813
 158   2.0000      -0.538163       -14.6442
 159   2.0000      -0.533968       -14.5300
 160   2.0000      -0.533278       -14.5112
 161   2.0000      -0.528432       -14.3794
 162   2.0000      -0.523819       -14.2538
 163   2.0000      -0.522970       -14.2308
 164   2.0000      -0.520253       -14.1568
 165   2.0000      -0.517537       -14.0829
 166   2.0000      -0.513378       -13.9697
 167   2.0000      -0.512916       -13.9572
 168   2.0000      -0.508260       -13.8305
 169   2.0000      -0.500028       -13.6065
 170   2.0000      -0.499553       -13.5935
 171   2.0000      -0.499014       -13.5789
 172   2.0000      -0.497481       -13.5371
 173   2.0000      -0.494314       -13.4510
 174   2.0000      -0.485698       -13.2165
 175   2.0000      -0.482920       -13.1409
 176   2.0000      -0.479537       -13.0489
 177   2.0000      -0.473281       -12.8786
 178   2.0000      -0.466536       -12.6951
 179   2.0000      -0.465286       -12.6611
 180   2.0000      -0.462089       -12.5741
 181   2.0000      -0.460973       -12.5437
 182   2.0000      -0.454749       -12.3743
 183   2.0000      -0.450965       -12.2714
 184   2.0000      -0.450490       -12.2585
 185   2.0000      -0.449617       -12.2347
 186   2.0000      -0.445911       -12.1339
 187   2.0000      -0.444061       -12.0835
 188   2.0000      -0.442652       -12.0452
 189   2.0000      -0.440237       -11.9795
 190   2.0000      -0.435657       -11.8548
 191   2.0000      -0.432935       -11.7808
 192   2.0000      -0.429546       -11.6885
 193   2.0000      -0.424771       -11.5586
 194   2.0000      -0.422527       -11.4975
 195   2.0000      -0.416560       -11.3352
 196   2.0000      -0.415064       -11.2945
 197   2.0000      -0.414105       -11.2684
 198   2.0000      -0.410294       -11.1647
 199   2.0000      -0.408348       -11.1117
 200   2.0000      -0.405851       -11.0438
 201   2.0000      -0.399540       -10.8720
 202   2.0000      -0.398469       -10.8429
 203   2.0000      -0.394401       -10.7322
 204   2.0000      -0.393092       -10.6966
 205   2.0000      -0.392067       -10.6687
 206   2.0000      -0.388416       -10.5693
 207   2.0000      -0.379562       -10.3284
 208   2.0000      -0.377607       -10.2752
 209   2.0000      -0.374870       -10.2007
 210   2.0000      -0.367565       -10.0019
 211   2.0000      -0.361913        -9.8482
 212   2.0000      -0.361356        -9.8330
 213   2.0000      -0.354108        -9.6358
 214   2.0000      -0.336941        -9.1686
 215   2.0000      -0.336860        -9.1664
 216   2.0000      -0.331319        -9.0156
 217   2.0000      -0.322180        -8.7670
 218   2.0000      -0.318293        -8.6612
 219   2.0000      -0.297840        -8.1046
 220   2.0000      -0.294715        -8.0196
 221   2.0000      -0.279322        -7.6007
 222   2.0000      -0.273758        -7.4493
 223   2.0000      -0.271036        -7.3753
 224   2.0000      -0.260812        -7.0971
 225   2.0000      -0.187215        -5.0944
 226   0.0000      -0.098648        -2.6844
 227   0.0000      -0.070095        -1.9074
 228   0.0000      -0.062346        -1.6965
 229   0.0000      -0.045297        -1.2326
 230   0.0000      -0.015073        -0.4102

MULLIKEN ATOMIC CHARGES
-----------------------
   0 C :    0.314427
   1 C :   -0.368753
   2 C :   -0.184893
   3 N :    0.150998
   4 C :   -0.155254
   5 N :    0.138101
   6 C :    0.015837
   7 C :   -0.013532
   8 C :   -0.076116
   9 C :    0.123971
  10 C :   -0.092438
  11 C :   -0.019686
  12 S :    0.188524
  13 C :   -0.121788
  14 C :    0.034567
  15 Br:    0.026369
  16 C :    0.125910
  17 O :   -0.136564
  18 C :   -0.079113
  19 C :   -0.071801
  20 C :    0.005941
  21 O :   -0.118622
  22 C :    0.123584
  23 C :    0.082311
  24 N :    0.292638
  25 O :   -0.227450
  26 O :   -0.270574
  27 C :    0.087582
  28 N :    0.010038
  29 C :    0.066789
  30 C :   -0.261114
  31 C :    0.067583
  32 C :    0.237760
  33 N :   -0.166398
  34 C :    0.068059
  35 C :   -0.090690
  36 C :    0.068589
  37 C :    0.020415
  38 C :    0.171816
  39 C :   -0.254170
  40 S :    0.017160
  41 C :   -0.231839
  42 C :    0.165860
  43 C :    0.008472
  44 C :   -0.095143
  45 C :    0.039963
  46 C :    0.111655
  47 O :   -0.318804
  48 C :    0.211603
  49 C :    0.230964
  50 O :   -0.327857
  51 C :    0.183384
  52 C :   -0.212279
  53 C :    0.075930
  54 C :    0.021170
  55 N :   -0.301853
  56 S :    0.456553
  57 N :   -0.275536
  58 H :   -0.011133
  59 H :   -0.005522
  60 H :   -0.002182
  61 H :    0.005984
  62 H :    0.043954
  63 H :    0.138954
  64 H :   -0.017495
  65 H :    0.037066
  66 H :    0.026520
  67 H :    0.041396
  68 H :    0.030323
  69 H :    0.027897
  70 H :    0.124912
  71 H :    0.015804
  72 H :   -0.022951
  73 H :    0.014637
  74 H :    0.010256
  75 H :   -0.015370
  76 H :   -0.024984
  77 H :    0.010831
  78 H :    0.024934
  79 H :    0.025162
  80 H :    0.026555
  81 H :    0.036231
  82 H :    0.028414
  83 H :   -0.042449
Sum of atomic charges:   -0.0000000

LOEWDIN ATOMIC CHARGES
----------------------
   0 C :    0.084682
   1 C :   -0.159122
   2 C :   -0.020680
   3 N :   -0.054642
   4 C :    0.001841
   5 N :   -0.066547
   6 C :   -0.024541
   7 C :   -0.048388
   8 C :    0.019961
   9 C :   -0.030485
  10 C :   -0.144954
  11 C :   -0.007471
  12 S :    0.433675
  13 C :   -0.269838
  14 C :   -0.071063
  15 Br:    0.138585
  16 C :    0.073527
  17 O :   -0.141238
  18 C :   -0.105377
  19 C :    0.042745
  20 C :   -0.033817
  21 O :    0.077291
  22 C :    0.129079
  23 C :   -0.114135
  24 N :    0.296615
  25 O :   -0.190835
  26 O :   -0.219626
  27 C :    0.044289
  28 N :    0.057188
  29 C :   -0.000685
  30 C :   -0.065004
  31 C :   -0.060647
  32 C :    0.044679
  33 N :    0.009576
  34 C :    0.068679
  35 C :   -0.140946
  36 C :    0.030288
  37 C :   -0.045090
  38 C :   -0.034335
  39 C :   -0.200722
  40 S :    0.333603
  41 C :   -0.186711
  42 C :   -0.047084
  43 C :   -0.026604
  44 C :   -0.036290
  45 C :   -0.051000
  46 C :    0.041286
  47 O :   -0.099107
  48 C :    0.077992
  49 C :    0.044787
  50 O :   -0.095541
  51 C :    0.078608
  52 C :   -0.099863
  53 C :   -0.052706
  54 C :   -0.041593
  55 N :   -0.292976
  56 S :    0.590806
  57 N :   -0.296262
  58 H :    0.040448
  59 H :    0.041326
  60 H :    0.039163
  61 H :    0.045927
  62 H :    0.047440
  63 H :    0.076835
  64 H :    0.023974
  65 H :    0.036565
  66 H :    0.037445
  67 H :    0.037949
  68 H :    0.027684
  69 H :    0.031868
  70 H :    0.080189
  71 H :    0.034431
  72 H :    0.027111
  73 H :    0.016957
  74 H :    0.017862
  75 H :    0.020210
  76 H :    0.027455
  77 H :    0.012984
  78 H :    0.020642
  79 H :    0.013304
  80 H :    0.017271
  81 H :    0.028464
  82 H :    0.018734
  83 H :    0.033908

  Mayer bond orders larger than 0.100000
B(  0-C ,  1-C ) :   1.5817 B(  0-C ,  6-C ) :   1.0110 B(  0-C , 18-C ) :   1.0930
B(  1-C ,  2-C ) :   1.1466 B(  1-C ,  4-C ) :   1.1599 B(  2-C ,  3-N ) :   2.9665
B(  4-C ,  5-N ) :   2.9125 B(  6-C ,  7-C ) :   1.2729 B(  6-C , 11-C ) :   1.4011
B(  7-C ,  8-C ) :   1.4311 B(  7-C , 16-C ) :   0.9337 B(  8-C ,  9-C ) :   1.2395
B(  8-C , 58-H ) :   1.0177 B(  9-C , 10-C ) :   1.3056 B(  9-C , 14-C ) :   1.1633
B( 10-C , 11-C ) :   1.3340 B( 10-C , 12-S ) :   1.0855 B( 11-C , 59-H ) :   0.9805
B( 12-S , 13-C ) :   1.0877 B( 13-C , 14-C ) :   1.6159 B( 13-C , 15-Br) :   1.0205
B( 14-C , 60-H ) :   1.0015 B( 16-C , 17-O ) :   2.2740 B( 16-C , 18-C ) :   0.9221
B( 18-C , 19-C ) :   1.5303 B( 19-C , 20-C ) :   1.2697 B( 19-C , 61-H ) :   0.9239
B( 20-C , 21-O ) :   1.0846 B( 20-C , 27-C ) :   1.2558 B( 21-O , 22-C ) :   1.2813
B( 22-C , 23-C ) :   1.3899 B( 22-C , 62-H ) :   1.0152 B( 23-C , 24-N ) :   0.9615
B( 23-C , 27-C ) :   1.2298 B( 24-N , 25-O ) :   1.5582 B( 24-N , 26-O ) :   1.4536
B( 25-O , 26-O ) :   0.2546 B( 26-O , 63-H ) :   0.1176 B( 27-C , 28-N ) :   1.3453
B( 28-N , 29-C ) :   1.0869 B( 28-N , 63-H ) :   0.8413 B( 29-C , 30-C ) :   1.8255
B( 29-C , 64-H ) :   0.9365 B( 30-C , 31-C ) :   1.0654 B( 30-C , 32-C ) :   1.0522
B( 31-C , 65-H ) :   0.9517 B( 31-C , 66-H ) :   0.9445 B( 31-C , 67-H ) :   0.9426
B( 32-C , 33-N ) :   0.9599 B( 32-C , 68-H ) :   0.9284 B( 32-C , 69-H ) :   0.9145
B( 33-N , 34-C ) :   1.2717 B( 33-N , 70-H ) :   0.9383 B( 34-C , 35-C ) :   1.5497
B( 34-C , 71-H ) :   0.9687 B( 35-C , 36-C ) :   1.2120 B( 35-C , 72-H ) :   0.9504
B( 36-C , 37-C ) :   1.3828 B( 36-C , 42-C ) :   0.8950 B( 37-C , 38-C ) :   0.8764
B( 37-C , 43-C ) :   1.1799 B( 38-C , 39-C ) :   1.6697 B( 38-C , 42-C ) :   1.1255
B( 39-C , 40-S ) :   1.0500 B( 39-C , 73-H ) :   0.9748 B( 40-S , 41-C ) :   1.0804
B( 41-C , 42-C ) :   1.6390 B( 41-C , 74-H ) :   0.9777 B( 43-C , 44-C ) :   1.5698
B( 43-C , 75-H ) :   0.9417 B( 44-C , 45-C ) :   1.1601 B( 44-C , 76-H ) :   0.9812
B( 45-C , 46-C ) :   1.4293 B( 45-C , 52-C ) :   0.1154 B( 45-C , 54-C ) :   1.1477
B( 46-C , 47-O ) :   1.1902 B( 46-C , 49-C ) :   1.1627 B( 47-O , 48-C ) :   0.9371
B( 48-C , 77-H ) :   0.9732 B( 48-C , 78-H ) :   0.9772 B( 48-C , 79-H ) :   0.9742
B( 49-C , 50-O ) :   1.1320 B( 49-C , 52-C ) :   1.3720 B( 50-O , 51-C ) :   0.9611
B( 51-C , 80-H ) :   0.9687 B( 51-C , 81-H ) :   0.9776 B( 51-C , 82-H ) :   0.9686
B( 52-C , 53-C ) :   1.1399 B( 52-C , 83-H ) :   1.0368 B( 53-C , 54-C ) :   1.1597
B( 53-C , 57-N ) :   1.5443 B( 54-C , 55-N ) :   1.5381 B( 55-N , 56-S ) :   1.2234
B( 55-N , 57-N ) :   0.1452 B( 56-S , 57-N ) :   1.2435

-----------------------------------------------------------------------------
         ABSORPTION SPECTRUM VIA TRANSITION ELECTRIC DIPOLE MOMENTS
-----------------------------------------------------------------------------
State   Energy  Wavelength   fosc         T2         TX        TY        TZ
        (cm-1)    (nm)                  (au**2)     (au)      (au)      (au)
-----------------------------------------------------------------------------
   0    9070.6   1102.5   0.000014293   0.00052   0.00427  -0.02198  -0.00416
   1   14866.8    672.6   0.435623870   9.64651  -2.38742   1.03451  -1.69604
   2   16248.9    615.4   0.000024450   0.00050   0.01288   0.01124  -0.01425
   3   18085.5    552.9   0.000507607   0.00924  -0.08189   0.03908   0.03174
   4   20341.8    491.6   0.625744243  10.12704  -0.71493   3.00701  -0.75749
   5   22277.3    448.9   0.162247273   2.39768  -1.54510   0.00889  -0.10125
   6   24210.7    413.0   0.033432424   0.45461  -0.61893   0.10850   0.24446
   7   26107.0    383.0   0.010340285   0.13039   0.00672  -0.33951   0.12280
   8   26715.4    374.3   0.062797477   0.77385  -0.68818   0.54060  -0.08947
   9   26805.4    373.1   0.000149926   0.00184  -0.04062  -0.00660   0.01216
  10   27951.1    357.8   0.042147577   0.49642  -0.44281   0.54214  -0.08014
  11   28316.7    353.1   0.544346841   6.32862  -1.99510   1.52444  -0.15584
  12   29181.6    342.7   0.135625379   1.53006   1.17925  -0.15080   0.34159
  13   29275.4    341.6   0.008552447   0.09618  -0.28326   0.04684  -0.11723
  14   29587.4    338.0   0.160813511   1.78934   1.25050  -0.46969  -0.07049
  15   30987.2    322.7   0.012690948   0.13483  -0.09227   0.33635  -0.11482
  16   31833.0    314.1   0.153669865   1.58923  -0.79912  -0.92562   0.30639
  17   31877.8    313.7   0.088008029   0.90889   0.85975   0.41185   0.00974
  18   31961.7    312.9   0.309761975   3.19061   0.54272  -1.41573   0.94434
  19   32837.2    304.5   0.150156247   1.50540   0.85090   0.35882  -0.80785
  20   33112.3    302.0   0.044955947   0.44697   0.52607  -0.40488   0.07928
  21   33252.1    300.7   0.477874015   4.73118  -2.08492   0.58397   0.20797
  22   33449.3    299.0   0.000314835   0.00310   0.03069  -0.04393   0.01506
  23   33921.5    294.8   0.000671763   0.00652   0.00862   0.06891  -0.04119
  24   34316.1    291.4   0.003025040   0.02902   0.07954   0.08852  -0.12189
  25   34930.7    286.3   0.288510825   2.71913  -0.90831  -0.55463   1.25956
  26   35077.4    285.1   0.000772553   0.00725  -0.02420   0.08139  -0.00642
  27   35167.2    284.4   0.014782844   0.13839  -0.31905  -0.01454   0.19075
  28   35503.9    281.7   0.004559457   0.04228  -0.09967  -0.11194   0.14076
  29   35660.1    280.4   0.004793596   0.04425   0.03805   0.03929   0.20313
  30   35875.6    278.7   0.580061928   5.32294  -0.39253   0.93883  -2.07062
  31   36083.9    277.1   0.058777415   0.53626  -0.12686  -0.69538   0.19134
  32   37274.3    268.3   0.172791020   1.52612   0.49674   0.42696  -1.04741
  33   38060.2    262.7   0.000002378   0.00002  -0.00284  -0.00329   0.00131
  34   38473.7    259.9   0.072066210   0.61666   0.48183   0.58126  -0.21594
  35   38627.2    258.9   0.246114871   2.09759  -0.43213  -1.32639   0.38929
  36   38632.0    258.9   0.042268090   0.36020  -0.23295  -0.43093   0.34674
  37   38922.5    256.9   0.000833409   0.00705   0.06696   0.04321  -0.02642
  38   39183.1    255.2   0.030388761   0.25532   0.12423  -0.40375   0.27727
  39   39781.4    251.4   0.003523328   0.02916  -0.16437  -0.03788  -0.02654

FINAL SINGLE POINT ENERGY     -6177.497847513418

DIPOLE MOMENT
-------------
                                X             Y             Z
Electronic contribution:   -166.05287     126.84553     -22.25761
Nuclear contribution   :    163.69002    -127.02284      24.08331
                        -----------------------------------------
Total Dipole Moment    :     -2.36285      -0.17732       1.82570
                        -----------------------------------------
Magnitude (a.u.)       :      2.99127
Magnitude (Debye)      :      7.60320

Rotational constants in cm-1:     0.001621     0.000317     0.000281
Rotational constants in MHz :    48.603798     9.515371     8.438195

                             ****ORCA TERMINATED NORMALLY****
TOTAL RUN TIME: 0 days 0 hours 9 minutes 25 seconds 2 msec
