                         Program Version 4.2.0 -  RELEASE  -
|  1> # ORCA input file
|  2> # SCF done       -163.293964341191          0.000479989262
|  3> ! CAM-B3LYP def2-SVP def2/J RIJCOSX Grid4 TightSCF
|  4> %maxcore 5000
|  5> %tddft
|  6>     Mode sTDDFT
|  7>     Ethresh 5.0
|  8>     maxcore 5000
|  9> end
| 10>
| 11> %pal
| 12>   nprocs 6
| 13>   end
| 14> * xyz 0 1
| 15>    C       -6.08252         4.53334         5.23129
| 16>    C       -5.30799         3.43385         4.92827
| 17>    C       -3.96446         3.28285         5.31977
| 18>    N       -2.86696         3.09573         5.60592
| 19>    C       -5.72431         2.30405         4.19910
| 20>    N       -5.96971         1.34147         3.61921
| 21>    C       -5.62608         5.69058         6.00195
| 22>    C       -6.69992         6.60512         6.12101
| 23>    C       -6.58879         7.79697         6.79159
| 24>    C       -5.35405         8.10537         7.37467
| 25>    C       -4.28724         7.18741         7.24979
| 26>    C       -4.40112         5.97908         6.57088
| 27>    S       -2.85094         7.76516         8.04174
| 28>    C       -3.69549         9.21277         8.52270
| 29>    C       -4.98452         9.26338         8.11345
| 30>   Br       -2.79448        10.52187         9.52107
| 31>    C       -7.88329         6.05739         5.42068
| 32>    O       -8.97333         6.59216         5.33392
| 33>    C       -7.45368         4.76213         4.86954
| 34>    C       -8.25744         3.92558         4.11311
| 35>    C       -9.57607         4.17946         3.76891
| 36>    C      -10.32757         3.31525         2.98814
| 37>    C      -11.66271         3.49170         2.57288
| 38>    C      -12.14396         2.47756         1.79043
| 39>    C      -11.20831         1.45423         1.55758
| 40>    S       -9.69612         1.81143         2.36066
| 41>    C      -11.36205         0.29563         0.80801
| 42>    C      -12.49293        -0.14295         0.09076
| 43>    C      -12.30297        -1.32939        -0.55552
| 44>    C      -11.01926        -1.89839        -0.37425
| 45>    S      -10.05689        -0.84647         0.64603
| 46>    C      -10.59455        -3.06172        -0.97426
| 47>    C       -9.38775        -3.76614        -0.86720
| 48>    S       -9.09129        -4.98806        -2.10410
| 49>    C       -7.54496        -5.43406        -1.42130
| 50>    C       -7.32235        -4.68897        -0.27076
| 51>    C       -8.32430        -3.76701         0.03303
| 52>    C       -8.00910        -3.04828         1.30405
| 53>    C       -6.88671        -3.90124         1.92351
| 54>    C       -6.23569        -4.66383         0.75490
| 55>    C       -6.77618        -6.41256        -2.08124
| 56>    C       -5.52809        -6.83167        -1.72149
| 57>    C       -4.83510        -7.81387        -2.46487
| 58>    O       -5.43315        -8.28105        -3.58525
| 59>    C       -4.62543        -9.19960        -4.16818
| 60>    C       -3.47710        -9.33943        -3.40686
| 61>    C       -3.59233        -8.45883        -2.31421
| 62>    C       -2.53557        -8.35495        -1.29752
| 63>    O       -1.51783        -9.00447        -1.40491
| 64>    C       -2.75874        -7.42875        -0.12829
| 65>    C       -5.03665        -9.80346        -5.37270
| 66>    C       -6.20590        -9.47819        -6.00783
| 67>    C       -6.69879       -10.00355        -7.23213
| 68>    C       -7.87946        -9.46678        -7.63658
| 69>    C       -8.39569        -8.48509        -6.75337
| 70>    S       -7.32206        -8.27959        -5.38342
| 71>    C       -9.54802        -7.74654        -6.87309
| 72>    C      -10.50776        -7.78537        -7.92359
| 73>    C      -11.53886        -6.92666        -7.76682
| 74>    C      -11.47567        -6.13620        -6.57011
| 75>    S      -10.01592        -6.56607        -5.66536
| 76>    C      -12.34678        -5.20817        -6.15221
| 77>    H       -7.42670         8.47259         6.86463
| 78>    H       -3.55591         5.31482         6.50466
| 79>    H       -5.64935        10.08176         8.32194
| 80>    H       -7.82832         2.99956         3.74978
| 81>    H      -10.04535         5.08987         4.11201
| 82>    H      -12.22821         4.36013         2.86016
| 83>    H      -13.13881         2.44782         1.38335
| 84>    H      -13.40734         0.42147         0.06536
| 85>    H      -13.05034        -1.81848        -1.15526
| 86>    H      -11.29862        -3.48743        -1.68055
| 87>    H       -8.86944        -2.96405         1.96572
| 88>    H       -7.65060        -2.03960         1.08666
| 89>    H       -7.32067        -4.61794         2.62236
| 90>    H       -6.16915        -3.29080         2.46739
| 91>    H       -5.91520        -5.66176         1.05425
| 92>    H       -5.36715        -4.12486         0.36613
| 93>    H       -7.23086        -6.85155        -2.95898
| 94>    H       -5.04068        -6.41052        -0.86219
| 95>    H       -2.64682        -9.98720        -3.59899
| 96>    H       -2.84098        -6.40247        -0.47918
| 97>    H       -1.91167        -7.50596         0.54894
| 98>    H       -3.66940        -7.70228         0.39920
| 99>    H       -4.38212       -10.54173        -5.80821
|100>    H       -6.15395       -10.75854        -7.77108
|101>    H       -8.39127        -9.74395        -8.54076
|102>    H      -10.39318        -8.45107        -8.76065
|103>    H      -12.35624        -6.81242        -8.45657
|104>    H      -13.22230        -4.97465        -6.73186
|105>    H      -12.19888        -4.67051        -5.23374
|106> *
|107>
|108>                          ****END OF INPUT****

CARTESIAN COORDINATES (ANGSTROEM)
---------------------------------
  C     -6.082520    4.533340    5.231290
  C     -5.307990    3.433850    4.928270
  C     -3.964460    3.282850    5.319770
  N     -2.866960    3.095730    5.605920
  C     -5.724310    2.304050    4.199100
  N     -5.969710    1.341470    3.619210
  C     -5.626080    5.690580    6.001950
  C     -6.699920    6.605120    6.121010
  C     -6.588790    7.796970    6.791590
  C     -5.354050    8.105370    7.374670
  C     -4.287240    7.187410    7.249790
  C     -4.401120    5.979080    6.570880
  S     -2.850940    7.765160    8.041740
  C     -3.695490    9.212770    8.522700
  C     -4.984520    9.263380    8.113450
  Br    -2.794480   10.521870    9.521070
  C     -7.883290    6.057390    5.420680
  O     -8.973330    6.592160    5.333920
  C     -7.453680    4.762130    4.869540
  C     -8.257440    3.925580    4.113110
  C     -9.576070    4.179460    3.768910
  C    -10.327570    3.315250    2.988140
  C    -11.662710    3.491700    2.572880
  C    -12.143960    2.477560    1.790430
  C    -11.208310    1.454230    1.557580
  S     -9.696120    1.811430    2.360660
  C    -11.362050    0.295630    0.808010
  C    -12.492930   -0.142950    0.090760
  C    -12.302970   -1.329390   -0.555520
  C    -11.019260   -1.898390   -0.374250
  S    -10.056890   -0.846470    0.646030
  C    -10.594550   -3.061720   -0.974260
  C     -9.387750   -3.766140   -0.867200
  S     -9.091290   -4.988060   -2.104100
  C     -7.544960   -5.434060   -1.421300
  C     -7.322350   -4.688970   -0.270760
  C     -8.324300   -3.767010    0.033030
  C     -8.009100   -3.048280    1.304050
  C     -6.886710   -3.901240    1.923510
  C     -6.235690   -4.663830    0.754900
  C     -6.776180   -6.412560   -2.081240
  C     -5.528090   -6.831670   -1.721490
  C     -4.835100   -7.813870   -2.464870
  O     -5.433150   -8.281050   -3.585250
  C     -4.625430   -9.199600   -4.168180
  C     -3.477100   -9.339430   -3.406860
  C     -3.592330   -8.458830   -2.314210
  C     -2.535570   -8.354950   -1.297520
  O     -1.517830   -9.004470   -1.404910
  C     -2.758740   -7.428750   -0.128290
  C     -5.036650   -9.803460   -5.372700
  C     -6.205900   -9.478190   -6.007830
  C     -6.698790  -10.003550   -7.232130
  C     -7.879460   -9.466780   -7.636580
  C     -8.395690   -8.485090   -6.753370
  S     -7.322060   -8.279590   -5.383420
  C     -9.548020   -7.746540   -6.873090
  C    -10.507760   -7.785370   -7.923590
  C    -11.538860   -6.926660   -7.766820
  C    -11.475670   -6.136200   -6.570110
  S    -10.015920   -6.566070   -5.665360
  C    -12.346780   -5.208170   -6.152210
  H     -7.426700    8.472590    6.864630
  H     -3.555910    5.314820    6.504660
  H     -5.649350   10.081760    8.321940
  H     -7.828320    2.999560    3.749780
  H    -10.045350    5.089870    4.112010
  H    -12.228210    4.360130    2.860160
  H    -13.138810    2.447820    1.383350
  H    -13.407340    0.421470    0.065360
  H    -13.050340   -1.818480   -1.155260
  H    -11.298620   -3.487430   -1.680550
  H     -8.869440   -2.964050    1.965720
  H     -7.650600   -2.039600    1.086660
  H     -7.320670   -4.617940    2.622360
  H     -6.169150   -3.290800    2.467390
  H     -5.915200   -5.661760    1.054250
  H     -5.367150   -4.124860    0.366130
  H     -7.230860   -6.851550   -2.958980
  H     -5.040680   -6.410520   -0.862190
  H     -2.646820   -9.987200   -3.598990
  H     -2.840980   -6.402470   -0.479180
  H     -1.911670   -7.505960    0.548940
  H     -3.669400   -7.702280    0.399200
  H     -4.382120  -10.541730   -5.808210
  H     -6.153950  -10.758540   -7.771080
  H     -8.391270   -9.743950   -8.540760
  H    -10.393180   -8.451070   -8.760650
  H    -12.356240   -6.812420   -8.456570
  H    -13.222300   -4.974650   -6.731860
  H    -12.198880   -4.670510   -5.233740

 Total Charge           Charge          ....    0
 Multiplicity           Mult            ....    1
 Number of Electrons    NEL             ....  498
 Basis Dimension        Dim             .... 1055

ORBITAL ENERGIES
----------------

  NO   OCC          E(Eh)            E(eV)
   0   2.0000    -482.873119    -13139.6456
   1   2.0000     -88.963366     -2420.8162
   2   2.0000     -88.959853     -2420.7207
   3   2.0000     -88.959821     -2420.7198
   4   2.0000     -88.953861     -2420.5576
   5   2.0000     -88.946234     -2420.3501
   6   2.0000     -88.943788     -2420.2835
   7   2.0000     -62.550815     -1702.0942
   8   2.0000     -56.384748     -1534.3070
   9   2.0000     -56.382067     -1534.2340
  10   2.0000     -56.382027     -1534.2329
  11   2.0000     -19.297100      -525.1008
  12   2.0000     -19.199437      -522.4432
  13   2.0000     -19.192315      -522.2494
  14   2.0000     -14.395381      -391.7182
  15   2.0000     -14.391734      -391.6190
  16   2.0000     -10.357757      -281.8489
  17   2.0000     -10.347234      -281.5625
  18   2.0000     -10.343615      -281.4641
  19   2.0000     -10.342606      -281.4366
  20   2.0000     -10.337232      -281.2904
  21   2.0000     -10.333432      -281.1870
  22   2.0000     -10.321933      -280.8741
  23   2.0000     -10.320320      -280.8302
  24   2.0000     -10.316889      -280.7368
  25   2.0000     -10.314975      -280.6848
  26   2.0000     -10.314956      -280.6842
  27   2.0000     -10.314248      -280.6650
  28   2.0000     -10.314079      -280.6604
  29   2.0000     -10.313815      -280.6532
  30   2.0000     -10.313411      -280.6422
  31   2.0000     -10.313288      -280.6388
  32   2.0000     -10.312412      -280.6150
  33   2.0000     -10.308334      -280.5040
  34   2.0000     -10.307469      -280.4805
  35   2.0000     -10.305385      -280.4238
  36   2.0000     -10.300307      -280.2856
  37   2.0000     -10.299990      -280.2770
  38   2.0000     -10.298880      -280.2468
  39   2.0000     -10.296711      -280.1877
  40   2.0000     -10.294646      -280.1316
  41   2.0000     -10.292826      -280.0820
  42   2.0000     -10.292252      -280.0664
  43   2.0000     -10.291541      -280.0471
  44   2.0000     -10.290210      -280.0109
  45   2.0000     -10.289752      -279.9984
  46   2.0000     -10.289407      -279.9890
  47   2.0000     -10.288960      -279.9768
  48   2.0000     -10.287949      -279.9493
  49   2.0000     -10.287541      -279.9382
  50   2.0000     -10.286737      -279.9163
  51   2.0000     -10.285850      -279.8922
  52   2.0000     -10.285354      -279.8787
  53   2.0000     -10.282514      -279.8014
  54   2.0000     -10.282092      -279.7899
  55   2.0000     -10.281914      -279.7851
  56   2.0000     -10.281336      -279.7694
  57   2.0000     -10.279251      -279.7127
  58   2.0000     -10.276562      -279.6395
  59   2.0000     -10.274143      -279.5736
  60   2.0000     -10.273939      -279.5681
  61   2.0000     -10.271288      -279.4960
  62   2.0000     -10.269667      -279.4518
  63   2.0000     -10.269129      -279.4372
  64   2.0000     -10.267142      -279.3831
  65   2.0000     -10.265013      -279.3252
  66   2.0000      -8.780226      -238.9221
  67   2.0000      -8.059082      -219.2988
  68   2.0000      -8.055818      -219.2099
  69   2.0000      -8.055302      -219.1959
  70   2.0000      -8.049853      -219.0476
  71   2.0000      -8.041443      -218.8188
  72   2.0000      -8.040471      -218.7923
  73   2.0000      -6.616440      -180.0425
  74   2.0000      -6.601992      -179.6493
  75   2.0000      -6.601829      -179.6449
  76   2.0000      -6.028805      -164.0521
  77   2.0000      -6.025522      -163.9628
  78   2.0000      -6.024606      -163.9379
  79   2.0000      -6.024578      -163.9371
  80   2.0000      -6.021251      -163.8466
  81   2.0000      -6.020679      -163.8310
  82   2.0000      -6.020216      -163.8184
  83   2.0000      -6.019419      -163.7967
  84   2.0000      -6.017167      -163.7354
  85   2.0000      -6.017035      -163.7319
  86   2.0000      -6.015387      -163.6870
  87   2.0000      -6.011394      -163.5784
  88   2.0000      -6.011114      -163.5707
  89   2.0000      -6.010288      -163.5483
  90   2.0000      -6.007064      -163.4605
  91   2.0000      -6.006402      -163.4425
  92   2.0000      -6.002280      -163.3304
  93   2.0000      -6.000985      -163.2951
  94   2.0000      -2.732348       -74.3510
  95   2.0000      -2.728252       -74.2395
  96   2.0000      -2.728145       -74.2366
  97   2.0000      -2.716660       -73.9241
  98   2.0000      -2.716641       -73.9236
  99   2.0000      -1.218337       -33.1526
 100   2.0000      -1.117081       -30.3973
 101   2.0000      -1.105317       -30.0772
 102   2.0000      -1.010480       -27.4966
 103   2.0000      -1.003814       -27.3152
 104   2.0000      -0.999657       -27.2020
 105   2.0000      -0.996453       -27.1149
 106   2.0000      -0.993227       -27.0271
 107   2.0000      -0.984380       -26.7863
 108   2.0000      -0.974244       -26.5105
 109   2.0000      -0.972848       -26.4725
 110   2.0000      -0.968162       -26.3450
 111   2.0000      -0.929590       -25.2954
 112   2.0000      -0.925680       -25.1890
 113   2.0000      -0.923784       -25.1374
 114   2.0000      -0.909117       -24.7383
 115   2.0000      -0.907032       -24.6816
 116   2.0000      -0.898095       -24.4384
 117   2.0000      -0.889562       -24.2062
 118   2.0000      -0.885852       -24.1053
 119   2.0000      -0.872778       -23.7495
 120   2.0000      -0.867440       -23.6042
 121   2.0000      -0.863324       -23.4922
 122   2.0000      -0.858337       -23.3565
 123   2.0000      -0.849657       -23.1204
 124   2.0000      -0.846205       -23.0264
 125   2.0000      -0.834141       -22.6981
 126   2.0000      -0.832964       -22.6661
 127   2.0000      -0.826053       -22.4780
 128   2.0000      -0.822704       -22.3869
 129   2.0000      -0.812551       -22.1106
 130   2.0000      -0.811171       -22.0731
 131   2.0000      -0.806233       -21.9387
 132   2.0000      -0.797849       -21.7106
 133   2.0000      -0.785837       -21.3837
 134   2.0000      -0.769525       -20.9398
 135   2.0000      -0.753100       -20.4929
 136   2.0000      -0.738621       -20.0989
 137   2.0000      -0.732536       -19.9333
 138   2.0000      -0.724211       -19.7068
 139   2.0000      -0.715677       -19.4746
 140   2.0000      -0.703745       -19.1499
 141   2.0000      -0.693370       -18.8676
 142   2.0000      -0.683403       -18.5963
 143   2.0000      -0.681026       -18.5317
 144   2.0000      -0.677838       -18.4449
 145   2.0000      -0.673501       -18.3269
 146   2.0000      -0.669823       -18.2268
 147   2.0000      -0.662084       -18.0162
 148   2.0000      -0.651816       -17.7368
 149   2.0000      -0.651487       -17.7279
 150   2.0000      -0.640881       -17.4393
 151   2.0000      -0.637262       -17.3408
 152   2.0000      -0.631979       -17.1970
 153   2.0000      -0.628059       -17.0904
 154   2.0000      -0.624831       -17.0025
 155   2.0000      -0.621788       -16.9197
 156   2.0000      -0.613328       -16.6895
 157   2.0000      -0.603955       -16.4345
 158   2.0000      -0.603292       -16.4164
 159   2.0000      -0.597445       -16.2573
 160   2.0000      -0.586676       -15.9643
 161   2.0000      -0.582632       -15.8542
 162   2.0000      -0.580687       -15.8013
 163   2.0000      -0.575299       -15.6547
 164   2.0000      -0.574651       -15.6370
 165   2.0000      -0.568435       -15.4679
 166   2.0000      -0.566095       -15.4042
 167   2.0000      -0.560642       -15.2558
 168   2.0000      -0.552662       -15.0387
 169   2.0000      -0.540002       -14.6942
 170   2.0000      -0.538172       -14.6444
 171   2.0000      -0.535467       -14.5708
 172   2.0000      -0.531382       -14.4596
 173   2.0000      -0.525770       -14.3069
 174   2.0000      -0.524795       -14.2804
 175   2.0000      -0.521790       -14.1986
 176   2.0000      -0.518734       -14.1155
 177   2.0000      -0.516201       -14.0465
 178   2.0000      -0.514534       -14.0012
 179   2.0000      -0.512660       -13.9502
 180   2.0000      -0.511315       -13.9136
 181   2.0000      -0.510757       -13.8984
 182   2.0000      -0.506273       -13.7764
 183   2.0000      -0.501985       -13.6597
 184   2.0000      -0.498066       -13.5531
 185   2.0000      -0.497835       -13.5468
 186   2.0000      -0.495001       -13.4697
 187   2.0000      -0.493469       -13.4280
 188   2.0000      -0.492085       -13.3903
 189   2.0000      -0.491006       -13.3609
 190   2.0000      -0.488754       -13.2997
 191   2.0000      -0.488073       -13.2811
 192   2.0000      -0.486880       -13.2487
 193   2.0000      -0.480117       -13.0647
 194   2.0000      -0.476592       -12.9687
 195   2.0000      -0.475635       -12.9427
 196   2.0000      -0.474067       -12.9000
 197   2.0000      -0.472059       -12.8454
 198   2.0000      -0.469726       -12.7819
 199   2.0000      -0.468679       -12.7534
 200   2.0000      -0.465965       -12.6796
 201   2.0000      -0.464999       -12.6533
 202   2.0000      -0.457092       -12.4381
 203   2.0000      -0.454843       -12.3769
 204   2.0000      -0.452966       -12.3258
 205   2.0000      -0.448616       -12.2075
 206   2.0000      -0.445134       -12.1127
 207   2.0000      -0.441396       -12.0110
 208   2.0000      -0.440763       -11.9938
 209   2.0000      -0.439064       -11.9475
 210   2.0000      -0.435116       -11.8401
 211   2.0000      -0.432379       -11.7656
 212   2.0000      -0.430951       -11.7268
 213   2.0000      -0.430333       -11.7100
 214   2.0000      -0.424132       -11.5412
 215   2.0000      -0.423766       -11.5313
 216   2.0000      -0.422862       -11.5067
 217   2.0000      -0.422306       -11.4915
 218   2.0000      -0.421294       -11.4640
 219   2.0000      -0.418579       -11.3901
 220   2.0000      -0.408572       -11.1178
 221   2.0000      -0.406332       -11.0569
 222   2.0000      -0.403991       -10.9931
 223   2.0000      -0.402719       -10.9585
 224   2.0000      -0.401452       -10.9241
 225   2.0000      -0.398295       -10.8382
 226   2.0000      -0.393407       -10.7052
 227   2.0000      -0.388521       -10.5722
 228   2.0000      -0.386813       -10.5257
 229   2.0000      -0.374149       -10.1811
 230   2.0000      -0.367245        -9.9932
 231   2.0000      -0.364260        -9.9120
 232   2.0000      -0.362762        -9.8713
 233   2.0000      -0.353033        -9.6065
 234   2.0000      -0.348067        -9.4714
 235   2.0000      -0.341571        -9.2946
 236   2.0000      -0.340869        -9.2755
 237   2.0000      -0.331566        -9.0224
 238   2.0000      -0.325980        -8.8704
 239   2.0000      -0.325468        -8.8564
 240   2.0000      -0.315257        -8.5786
 241   2.0000      -0.314302        -8.5526
 242   2.0000      -0.313054        -8.5186
 243   2.0000      -0.297982        -8.1085
 244   2.0000      -0.291947        -7.9443
 245   2.0000      -0.276770        -7.5313
 246   2.0000      -0.264564        -7.1992
 247   2.0000      -0.226401        -6.1607
 248   2.0000      -0.210505        -5.7281
 249   0.0000      -0.108577        -2.9545
 250   0.0000      -0.074482        -2.0267
 251   0.0000      -0.056427        -1.5355
 252   0.0000      -0.043231        -1.1764
 253   0.0000      -0.024791        -0.6746

MULLIKEN ATOMIC CHARGES
-----------------------
   0 C :    0.334208
   1 C :   -0.376586
   2 C :   -0.189295
   3 N :    0.130801
   4 C :   -0.185901
   5 N :    0.118024
   6 C :    0.014880
   7 C :   -0.005349
   8 C :   -0.085196
   9 C :    0.120095
  10 C :   -0.092064
  11 C :   -0.032047
  12 S :    0.176056
  13 C :   -0.123634
  14 C :    0.036757
  15 Br:    0.010161
  16 C :    0.136101
  17 O :   -0.170975
  18 C :   -0.094340
  19 C :   -0.040762
  20 C :   -0.024043
  21 C :    0.006236
  22 C :    0.020631
  23 C :    0.042167
  24 C :   -0.056021
  25 S :    0.102428
  26 C :   -0.016582
  27 C :    0.021524
  28 C :    0.045983
  29 C :   -0.035253
  30 S :    0.091872
  31 C :    0.031003
  32 C :   -0.159504
  33 S :    0.129610
  34 C :   -0.115618
  35 C :   -0.108774
  36 C :   -0.062418
  37 C :    0.102131
  38 C :    0.033982
  39 C :    0.113925
  40 C :    0.067495
  41 C :   -0.064631
  42 C :    0.159692
  43 O :   -0.233182
  44 C :    0.203047
  45 C :   -0.070918
  46 C :    0.012707
  47 C :   -0.021826
  48 O :   -0.174605
  49 C :    0.045941
  50 C :   -0.042351
  51 C :   -0.004082
  52 C :    0.026389
  53 C :    0.032711
  54 C :   -0.037140
  55 S :    0.073887
  56 C :   -0.065250
  57 C :    0.030706
  58 C :    0.052494
  59 C :   -0.063341
  60 S :    0.076005
  61 C :   -0.026146
  62 H :   -0.016941
  63 H :   -0.010418
  64 H :   -0.007620
  65 H :    0.010790
  66 H :    0.013186
  67 H :   -0.003793
  68 H :   -0.009512
  69 H :   -0.008698
  70 H :   -0.004353
  71 H :   -0.006740
  72 H :    0.026751
  73 H :    0.050384
  74 H :    0.017390
  75 H :    0.019039
  76 H :    0.025006
  77 H :    0.029490
  78 H :   -0.008658
  79 H :   -0.036979
  80 H :   -0.003617
  81 H :    0.048588
  82 H :    0.030201
  83 H :    0.040437
  84 H :   -0.007291
  85 H :   -0.010593
  86 H :   -0.014400
  87 H :   -0.009348
  88 H :   -0.008942
  89 H :    0.020463
  90 H :    0.014361
Sum of atomic charges:   -0.0000000

LOEWDIN ATOMIC CHARGES
----------------------
   0 C :    0.073567
   1 C :   -0.164605
   2 C :   -0.019095
   3 N :   -0.075869
   4 C :   -0.019057
   5 N :   -0.079103
   6 C :   -0.017332
   7 C :   -0.047576
   8 C :    0.015096
   9 C :   -0.037167
  10 C :   -0.146464
  11 C :   -0.015230
  12 S :    0.424487
  13 C :   -0.276054
  14 C :   -0.071339
  15 Br:    0.126580
  16 C :    0.080941
  17 O :   -0.163359
  18 C :   -0.115832
  19 C :    0.046723
  20 C :   -0.078854
  21 C :   -0.102769
  22 C :   -0.049934
  23 C :   -0.008441
  24 C :   -0.202677
  25 S :    0.410379
  26 C :   -0.144807
  27 C :   -0.048029
  28 C :   -0.008743
  29 C :   -0.168066
  30 S :    0.429419
  31 C :   -0.036188
  32 C :   -0.184034
  33 S :    0.432692
  34 C :   -0.155645
  35 C :   -0.051706
  36 C :   -0.034763
  37 C :   -0.037978
  38 C :   -0.014399
  39 C :   -0.028118
  40 C :   -0.028173
  41 C :   -0.043758
  42 C :    0.051676
  43 O :    0.005643
  44 C :    0.034108
  45 C :   -0.029182
  46 C :   -0.102561
  47 C :    0.080291
  48 O :   -0.147879
  49 C :   -0.078463
  50 C :   -0.079421
  51 C :   -0.136928
  52 C :   -0.035746
  53 C :   -0.028335
  54 C :   -0.187465
  55 S :    0.390392
  56 C :   -0.172922
  57 C :   -0.025488
  58 C :   -0.029772
  59 C :   -0.138160
  60 S :    0.350062
  61 C :   -0.077341
  62 H :    0.037977
  63 H :    0.039571
  64 H :    0.036960
  65 H :    0.029916
  66 H :    0.037537
  67 H :    0.037306
  68 H :    0.033972
  69 H :    0.033908
  70 H :    0.036350
  71 H :    0.037503
  72 H :    0.028311
  73 H :    0.035240
  74 H :    0.027469
  75 H :    0.030728
  76 H :    0.029232
  77 H :    0.035831
  78 H :    0.025522
  79 H :    0.031836
  80 H :    0.037350
  81 H :    0.041884
  82 H :    0.041875
  83 H :    0.039010
  84 H :    0.042746
  85 H :    0.033868
  86 H :    0.031054
  87 H :    0.033344
  88 H :    0.034202
  89 H :    0.028967
  90 H :    0.023300

  Mayer bond orders larger than 0.100000
B(  0-C ,  1-C ) :   1.5607 B(  0-C ,  6-C ) :   0.9845 B(  0-C , 18-C ) :   1.1342
B(  1-C ,  2-C ) :   1.1547 B(  1-C ,  4-C ) :   1.1594 B(  2-C ,  3-N ) :   2.9590
B(  4-C ,  5-N ) :   2.9517 B(  6-C ,  7-C ) :   1.2797 B(  6-C , 11-C ) :   1.4228
B(  7-C ,  8-C ) :   1.4337 B(  7-C , 16-C ) :   0.9315 B(  8-C ,  9-C ) :   1.2347
B(  8-C , 62-H ) :   1.0162 B(  9-C , 10-C ) :   1.3203 B(  9-C , 14-C ) :   1.1606
B( 10-C , 11-C ) :   1.3173 B( 10-C , 12-S ) :   1.0812 B( 11-C , 63-H ) :   0.9791
B( 12-S , 13-C ) :   1.0853 B( 13-C , 14-C ) :   1.6207 B( 13-C , 15-Br) :   1.0110
B( 14-C , 64-H ) :   0.9997 B( 16-C , 17-O ) :   2.1805 B( 16-C , 18-C ) :   0.9742
B( 18-C , 19-C ) :   1.4417 B( 19-C , 20-C ) :   1.2957 B( 19-C , 65-H ) :   0.9427
B( 20-C , 21-C ) :   1.3775 B( 20-C , 66-H ) :   0.9792 B( 21-C , 22-C ) :   1.2047
B( 21-C , 25-S ) :   1.0959 B( 22-C , 23-C ) :   1.5105 B( 22-C , 67-H ) :   1.0019
B( 23-C , 24-C ) :   1.2434 B( 23-C , 68-H ) :   0.9947 B( 24-C , 25-S ) :   1.0447
B( 24-C , 26-C ) :   1.4275 B( 26-C , 27-C ) :   1.2145 B( 26-C , 30-S ) :   1.0915
B( 27-C , 28-C ) :   1.5556 B( 27-C , 69-H ) :   0.9937 B( 28-C , 29-C ) :   1.1679
B( 28-C , 70-H ) :   0.9993 B( 29-C , 30-S ) :   1.0227 B( 29-C , 31-C ) :   1.5695
B( 31-C , 32-C ) :   1.1944 B( 31-C , 71-H ) :   0.9431 B( 32-C , 33-S ) :   1.0882
B( 32-C , 36-C ) :   1.4022 B( 33-S , 34-C ) :   1.1275 B( 34-C , 35-C ) :   1.4256
B( 34-C , 40-C ) :   1.1598 B( 35-C , 36-C ) :   1.4076 B( 35-C , 39-C ) :   1.0506
B( 36-C , 37-C ) :   1.0432 B( 37-C , 38-C ) :   1.0803 B( 37-C , 72-H ) :   0.9242
B( 37-C , 73-H ) :   0.9025 B( 38-C , 39-C ) :   1.0836 B( 38-C , 74-H ) :   0.9456
B( 38-C , 75-H ) :   0.9374 B( 39-C , 76-H ) :   0.9153 B( 39-C , 77-H ) :   0.9033
B( 40-C , 41-C ) :   1.5985 B( 40-C , 78-H ) :   0.9579 B( 41-C , 42-C ) :   1.1972
B( 41-C , 79-H ) :   0.9480 B( 42-C , 43-O ) :   1.1499 B( 42-C , 46-C ) :   1.3266
B( 43-O , 44-C ) :   1.0897 B( 44-C , 45-C ) :   1.3815 B( 44-C , 50-C ) :   1.1738
B( 45-C , 46-C ) :   1.2546 B( 45-C , 80-H ) :   1.0238 B( 46-C , 47-C ) :   0.9241
B( 47-C , 48-O ) :   2.2178 B( 47-C , 49-C ) :   1.0803 B( 49-C , 81-H ) :   0.9366
B( 49-C , 82-H ) :   0.9364 B( 49-C , 83-H ) :   0.9439 B( 50-C , 51-C ) :   1.5599
B( 50-C , 84-H ) :   0.9710 B( 51-C , 52-C ) :   1.1361 B( 51-C , 55-S ) :   1.0498
B( 52-C , 53-C ) :   1.6116 B( 52-C , 85-H ) :   0.9995 B( 53-C , 54-C ) :   1.1729
B( 53-C , 86-H ) :   0.9934 B( 54-C , 55-S ) :   1.0171 B( 54-C , 56-C ) :   1.5563
B( 56-C , 57-C ) :   1.1520 B( 56-C , 60-S ) :   1.0450 B( 57-C , 58-C ) :   1.6621
B( 57-C , 87-H ) :   0.9916 B( 58-C , 59-C ) :   1.0787 B( 58-C , 88-H ) :   0.9928
B( 59-C , 60-S ) :   1.0102 B( 59-C , 61-C ) :   1.8649 B( 61-C , 89-H ) :   0.9502
B( 61-C , 90-H ) :   0.9408

-----------------------------------------------------------------------------
         ABSORPTION SPECTRUM VIA TRANSITION ELECTRIC DIPOLE MOMENTS
-----------------------------------------------------------------------------
State   Energy  Wavelength   fosc         T2         TX        TY        TZ
        (cm-1)    (nm)                  (au**2)     (au)      (au)      (au)
-----------------------------------------------------------------------------
   0    9264.2   1079.4   1.240845912  44.09465  -0.59207  -5.19316  -4.09575
   1   13556.3    737.7   0.170183146   4.13287  -0.70529  -1.82780  -0.54276
   2   16893.6    591.9   0.089789819   1.74977   0.72466  -0.24793   1.07850
   3   19956.3    501.1   0.171811027   2.83430  -1.44630   0.72822  -0.46064
   4   21466.6    465.8   0.667495954  10.23671   2.84123  -1.43861   0.30749
   5   21834.6    458.0   0.370978691   5.59346   1.96933  -1.30964   0.00534
   6   23145.4    432.1   1.198444101  17.04624   3.72119  -1.71798   0.49755
   7   24768.6    403.7   0.136627583   1.81599   0.90829   0.74797   0.65692
   8   25192.3    396.9   0.153702619   2.00858   1.33976  -0.00205   0.46220
   9   26884.9    372.0   0.000480977   0.00589  -0.01987   0.05781   0.04640
  10   26946.6    371.1   0.030115237   0.36792  -0.10418   0.45833   0.38341
  11   27805.1    359.6   0.085848951   1.01645  -0.80080  -0.28348  -0.54297
  12   28575.3    350.0   0.135688784   1.56325  -0.75365   0.85549   0.51322
  13   28724.7    348.1   0.088257916   1.01152   0.72637  -0.62496  -0.30549
  14   29458.3    339.5   0.061789106   0.69052   0.07222   0.49761   0.66159
  15   30062.1    332.6   0.086458365   0.94681  -0.54206   0.76458   0.26153
  16   30328.3    329.7   0.074293838   0.80645  -0.81921  -0.08659  -0.35756
  17   31150.2    321.0   0.063636600   0.67255   0.01433  -0.67489  -0.46569
  18   31636.3    316.1   0.003822717   0.03978   0.10837   0.15020   0.07400
  19   31656.3    315.9   0.061986065   0.64463   0.53178   0.50482   0.32709
  20   32016.8    312.3   0.030548318   0.31411   0.08652  -0.42193  -0.35862
  21   32263.5    309.9   0.631367426   6.44238   0.52985   2.02453   1.43629
  22   32912.7    303.8   0.008381693   0.08384  -0.13374   0.09189  -0.23981
  23   33196.8    301.2   0.033649179   0.33370   0.23176   0.25018   0.46625
  24   33729.7    296.5   0.000069578   0.00068  -0.02300   0.00251   0.01199
  25   34212.5    292.3   0.044720223   0.43032   0.01110   0.63080   0.17970
  26   34782.2    287.5   0.019301781   0.18269  -0.35870  -0.15221  -0.17567
  27   34792.2    287.4   0.055325138   0.52350   0.55415  -0.46080   0.06386
  28   34947.4    286.1   0.044375736   0.41803   0.11692  -0.44568  -0.45358
  29   34997.4    285.7   0.005962577   0.05609   0.14096   0.06040   0.18048
  30   35621.5    280.7   0.015911207   0.14705  -0.18098   0.32731  -0.08465
  31   35788.3    279.4   0.031191385   0.28693  -0.22338   0.47123   0.12235
  32   36657.7    272.8   0.054776073   0.49193   0.62762  -0.31270  -0.01567
  33   37042.2    270.0   0.000801549   0.00712  -0.01576  -0.06621  -0.04991
  34   37113.5    269.4   0.067808310   0.60149  -0.64821   0.29310  -0.30887
  35   37541.3    266.4   0.045236697   0.39670   0.00632   0.51507   0.36243
  36   37956.1    263.5   0.118252929   1.02567  -0.73117   0.68918   0.12681
  37   38320.8    261.0   0.092739821   0.79672   0.13312   0.61877   0.62938
  38   38572.9    259.2   0.028382931   0.24224   0.27792  -0.38612  -0.12615
  39   38753.2    258.0   0.027055761   0.22984   0.42431  -0.16915   0.14557
  40   39008.2    256.4   0.024504187   0.20680  -0.06515   0.38160   0.23863
  41   39309.8    254.4   0.128532130   1.07643  -0.63125   0.78613   0.24486
  42   39589.8    252.6   0.000120358   0.00100   0.00761  -0.02077  -0.02262
  43   39646.8    252.2   0.003094907   0.02570  -0.08980  -0.12861  -0.03308
  44   40284.5    248.2   0.050875001   0.41576   0.56372  -0.01323   0.31274

FINAL SINGLE POINT ENERGY     -7217.345322980483

DIPOLE MOMENT
-------------
                                X             Y             Z
Electronic contribution:     58.07046     167.86717     120.38638
Nuclear contribution   :    -62.00589    -169.90720    -123.56179
                        -----------------------------------------
Total Dipole Moment    :     -3.93543      -2.04003      -3.17541
                        -----------------------------------------
Magnitude (a.u.)       :      5.45276
Magnitude (Debye)      :     13.85981

Rotational constants in cm-1:     0.001723     0.000243     0.000217
Rotational constants in MHz :    51.669089     7.273454     6.512023

                             ****ORCA TERMINATED NORMALLY****
TOTAL RUN TIME: 0 days 0 hours 10 minutes 37 seconds 957 msec
