                         Program Version 4.2.0 -  RELEASE  -
|  1> # ORCA input file
|  2> # SCF done       -214.123820405748          0.000485772413
|  3> ! CAM-B3LYP def2-SVP def2/J RIJCOSX Grid4 TightSCF
|  4> %maxcore 5000
|  5> %tddft
|  6>     Mode sTDDFT
|  7>     Ethresh 5.0
|  8>     maxcore 5000
|  9> end
| 10>
| 11> %pal
| 12>   nprocs 6
| 13>   end
| 14> * xyz 0 1
| 15>    C       -7.86595        -1.47644        -0.82852
| 16>    C       -7.38071        -2.70695        -0.47579
| 17>    C       -8.04700        -3.59370         0.39690
| 18>    N       -8.54898        -4.35357         1.09510
| 19>    C       -6.12551        -3.22470        -0.86571
| 20>    N       -5.10282        -3.69132        -1.09613
| 21>    C       -9.06836        -0.84963        -0.29884
| 22>    C       -9.09653         0.50278        -0.71857
| 23>    C      -10.10289         1.36732        -0.36073
| 24>    C      -11.13271         0.87260         0.44566
| 25>    C      -11.09999        -0.48333         0.85382
| 26>    C      -10.08115        -1.35637         0.49503
| 27>    S      -12.47248        -0.88762         1.83847
| 28>    C      -13.06305         0.74673         1.69349
| 29>    C      -12.27462         1.55548         0.94575
| 30>   Br      -14.66323         1.23058         2.54201
| 31>    C       -7.92130         0.79028        -1.56700
| 32>    O       -7.64625         1.85535        -2.06698
| 33>    C       -7.21094        -0.51470        -1.70220
| 34>    C       -6.23895        -0.82752        -2.60322
| 35>    C       -5.49730         0.03715        -3.44181
| 36>    O       -5.45836         1.38661        -3.30532
| 37>    C       -4.64711        -0.30859        -4.48123
| 38>    C       -4.13318        -1.43916        -5.26941
| 39>    O       -4.36784        -2.61481        -5.21258
| 40>    N       -3.26789        -0.83010        -6.17741
| 41>    C       -3.17675         0.55416        -6.07524
| 42>    O       -2.48167         1.25584        -6.76709
| 43>    C       -4.08643         0.88614        -4.97720
| 44>    C       -4.61817         1.92080        -4.21410
| 45>    C       -4.42494         3.32746        -4.23698
| 46>    C       -3.56569         3.91536        -5.10062
| 47>    C       -3.27457         5.32294        -5.13338
| 48>    C       -3.47899         6.08655        -4.01167
| 49>    S       -3.01200         7.72088        -4.15101
| 50>    C       -2.53482         7.43805        -5.79756
| 51>    C       -2.72172         6.11324        -6.22028
| 52>    C       -2.42082         5.79704        -7.57049
| 53>    C       -2.62682         4.38901        -8.06315
| 54>    C       -4.10826         4.07382        -8.27700
| 55>    C       -1.96340         6.78233        -8.44116
| 56>    C       -1.78923         6.48247        -9.90837
| 57>    C       -0.35040         6.08851       -10.24702
| 58>    C       -1.66858         8.08626        -7.96936
| 59>    C       -1.02773         9.22691        -8.59685
| 60>    C       -0.95023        10.29316        -7.74066
| 61>    S       -1.61296        10.02658        -6.18794
| 62>    C       -1.98802         8.39169        -6.63803
| 63>    C       -0.44473         9.32922        -9.91190
| 64>    C        0.63305        10.09513       -10.18714
| 65>    C        1.20565        10.20844       -11.48148
| 66>    S        2.61188        11.20988       -11.74496
| 67>    C        2.69986        10.84448       -13.45245
| 68>    C        1.67386         9.96613       -13.76197
| 69>    C        0.84607         9.62050       -12.67910
| 70>    S       -0.41001         8.54585       -13.23294
| 71>    C        0.25895         8.62737       -14.88148
| 72>    S       -0.33227         7.84959       -16.17048
| 73>    O        1.34435         9.40355       -14.94244
| 74>    C        3.62980        11.46781       -14.31283
| 75>    C        3.64917        11.25057       -15.65470
| 76>    C        4.47480        11.96847       -16.54439
| 77>    C        4.35495        11.99827       -17.90210
| 78>    C        3.32496        11.49376       -18.78630
| 79>    C        1.99096        11.33893       -18.50785
| 80>    C        1.03993        10.91189       -19.46026
| 81>    N        0.22745        10.56706       -20.19348
| 82>    C        1.35807        11.68937       -17.29672
| 83>    N        0.76123        11.99486       -16.36432
| 84>    C        3.91726        11.39542       -20.11878
| 85>    C        5.18381        12.03369       -20.10447
| 86>    C        5.47706        12.50258       -18.73611
| 87>    O        6.44189        13.12382       -18.35293
| 88>    C        5.97004        12.14080       -21.22578
| 89>    C        5.49093        11.58173       -22.41498
| 90>    C        4.23339        10.93185       -22.41531
| 91>    C        3.43369        10.83039       -21.28332
| 92>    S        3.84095        10.30068       -23.98530
| 93>    C        5.34889        10.91218       -24.61242
| 94>    C        6.10908        11.55583       -23.69508
| 95>   Br        5.77659        10.64420       -26.41821
| 96>    H      -10.09552         2.39357        -0.69291
| 97>    H      -10.10209        -2.38134         0.82547
| 98>    H      -12.48877         2.59089         0.75358
| 99>    H       -5.97455        -1.86810        -2.74666
|100>    H       -2.74593        -1.35817        -6.86241
|101>    H       -5.02299         3.88461        -3.53204
|102>    H       -3.04077         3.27049        -5.78511
|103>    H       -3.84762         5.74190        -3.06573
|104>    H       -2.19330         3.68649        -7.35516
|105>    H       -2.09447         4.22356        -8.99586
|106>    H       -4.22524         3.03121        -8.56094
|107>    H       -4.51978         4.69918        -9.06667
|108>    H       -4.68257         4.25041        -7.37071
|109>    H       -2.08881         7.35696       -10.48371
|110>    H       -2.46345         5.68465       -10.21400
|111>    H        0.34688         6.86275        -9.93505
|112>    H       -0.24484         5.93648       -11.31866
|113>    H       -0.07945         5.16691        -9.73740
|114>    H       -0.55619        11.26406        -7.96886
|115>    H       -0.88606         8.77417       -10.72250
|116>    H        1.13612        10.64687        -9.40650
|117>    H        4.29186        12.19805       -13.86847
|118>    H        2.98607        10.50737       -16.06943
|119>    H        5.31201        12.52115       -16.13204
|120>    H        6.92604        12.63880       -21.18668
|121>    H        2.48666        10.31908       -21.33126
|122>    H        7.06643        11.99446       -23.90978
|123> *
|124>
|125>                          ****END OF INPUT****

CARTESIAN COORDINATES (ANGSTROEM)
---------------------------------
  C     -7.865950   -1.476440   -0.828520
  C     -7.380710   -2.706950   -0.475790
  C     -8.047000   -3.593700    0.396900
  N     -8.548980   -4.353570    1.095100
  C     -6.125510   -3.224700   -0.865710
  N     -5.102820   -3.691320   -1.096130
  C     -9.068360   -0.849630   -0.298840
  C     -9.096530    0.502780   -0.718570
  C    -10.102890    1.367320   -0.360730
  C    -11.132710    0.872600    0.445660
  C    -11.099990   -0.483330    0.853820
  C    -10.081150   -1.356370    0.495030
  S    -12.472480   -0.887620    1.838470
  C    -13.063050    0.746730    1.693490
  C    -12.274620    1.555480    0.945750
  Br   -14.663230    1.230580    2.542010
  C     -7.921300    0.790280   -1.567000
  O     -7.646250    1.855350   -2.066980
  C     -7.210940   -0.514700   -1.702200
  C     -6.238950   -0.827520   -2.603220
  C     -5.497300    0.037150   -3.441810
  O     -5.458360    1.386610   -3.305320
  C     -4.647110   -0.308590   -4.481230
  C     -4.133180   -1.439160   -5.269410
  O     -4.367840   -2.614810   -5.212580
  N     -3.267890   -0.830100   -6.177410
  C     -3.176750    0.554160   -6.075240
  O     -2.481670    1.255840   -6.767090
  C     -4.086430    0.886140   -4.977200
  C     -4.618170    1.920800   -4.214100
  C     -4.424940    3.327460   -4.236980
  C     -3.565690    3.915360   -5.100620
  C     -3.274570    5.322940   -5.133380
  C     -3.478990    6.086550   -4.011670
  S     -3.012000    7.720880   -4.151010
  C     -2.534820    7.438050   -5.797560
  C     -2.721720    6.113240   -6.220280
  C     -2.420820    5.797040   -7.570490
  C     -2.626820    4.389010   -8.063150
  C     -4.108260    4.073820   -8.277000
  C     -1.963400    6.782330   -8.441160
  C     -1.789230    6.482470   -9.908370
  C     -0.350400    6.088510  -10.247020
  C     -1.668580    8.086260   -7.969360
  C     -1.027730    9.226910   -8.596850
  C     -0.950230   10.293160   -7.740660
  S     -1.612960   10.026580   -6.187940
  C     -1.988020    8.391690   -6.638030
  C     -0.444730    9.329220   -9.911900
  C      0.633050   10.095130  -10.187140
  C      1.205650   10.208440  -11.481480
  S      2.611880   11.209880  -11.744960
  C      2.699860   10.844480  -13.452450
  C      1.673860    9.966130  -13.761970
  C      0.846070    9.620500  -12.679100
  S     -0.410010    8.545850  -13.232940
  C      0.258950    8.627370  -14.881480
  S     -0.332270    7.849590  -16.170480
  O      1.344350    9.403550  -14.942440
  C      3.629800   11.467810  -14.312830
  C      3.649170   11.250570  -15.654700
  C      4.474800   11.968470  -16.544390
  C      4.354950   11.998270  -17.902100
  C      3.324960   11.493760  -18.786300
  C      1.990960   11.338930  -18.507850
  C      1.039930   10.911890  -19.460260
  N      0.227450   10.567060  -20.193480
  C      1.358070   11.689370  -17.296720
  N      0.761230   11.994860  -16.364320
  C      3.917260   11.395420  -20.118780
  C      5.183810   12.033690  -20.104470
  C      5.477060   12.502580  -18.736110
  O      6.441890   13.123820  -18.352930
  C      5.970040   12.140800  -21.225780
  C      5.490930   11.581730  -22.414980
  C      4.233390   10.931850  -22.415310
  C      3.433690   10.830390  -21.283320
  S      3.840950   10.300680  -23.985300
  C      5.348890   10.912180  -24.612420
  C      6.109080   11.555830  -23.695080
  Br     5.776590   10.644200  -26.418210
  H    -10.095520    2.393570   -0.692910
  H    -10.102090   -2.381340    0.825470
  H    -12.488770    2.590890    0.753580
  H     -5.974550   -1.868100   -2.746660
  H     -2.745930   -1.358170   -6.862410
  H     -5.022990    3.884610   -3.532040
  H     -3.040770    3.270490   -5.785110
  H     -3.847620    5.741900   -3.065730
  H     -2.193300    3.686490   -7.355160
  H     -2.094470    4.223560   -8.995860
  H     -4.225240    3.031210   -8.560940
  H     -4.519780    4.699180   -9.066670
  H     -4.682570    4.250410   -7.370710
  H     -2.088810    7.356960  -10.483710
  H     -2.463450    5.684650  -10.214000
  H      0.346880    6.862750   -9.935050
  H     -0.244840    5.936480  -11.318660
  H     -0.079450    5.166910   -9.737400
  H     -0.556190   11.264060   -7.968860
  H     -0.886060    8.774170  -10.722500
  H      1.136120   10.646870   -9.406500
  H      4.291860   12.198050  -13.868470
  H      2.986070   10.507370  -16.069430
  H      5.312010   12.521150  -16.132040
  H      6.926040   12.638800  -21.186680
  H      2.486660   10.319080  -21.331260
  H      7.066430   11.994460  -23.909780

 Total Charge           Charge          ....    0
 Multiplicity           Mult            ....    1
 Number of Electrons    NEL             ....  658
 Basis Dimension        Dim             .... 1333

ORBITAL ENERGIES
----------------

  NO   OCC          E(Eh)            E(eV)
   0   2.0000    -482.888643    -13140.0680
   1   2.0000    -482.883702    -13139.9335
   2   2.0000     -88.984445     -2421.3899
   3   2.0000     -88.981344     -2421.3055
   4   2.0000     -88.978732     -2421.2344
   5   2.0000     -88.973317     -2421.0870
   6   2.0000     -88.967705     -2420.9343
   7   2.0000     -88.964440     -2420.8455
   8   2.0000     -88.897881     -2419.0343
   9   2.0000     -62.566347     -1702.5169
  10   2.0000     -62.561401     -1702.3823
  11   2.0000     -56.400302     -1534.7303
  12   2.0000     -56.397578     -1534.6561
  13   2.0000     -56.397549     -1534.6553
  14   2.0000     -56.395350     -1534.5955
  15   2.0000     -56.392641     -1534.5218
  16   2.0000     -56.392605     -1534.5208
  17   2.0000     -19.322554      -525.7934
  18   2.0000     -19.317391      -525.6529
  19   2.0000     -19.225851      -523.1620
  20   2.0000     -19.223197      -523.0898
  21   2.0000     -19.219095      -522.9782
  22   2.0000     -19.211387      -522.7684
  23   2.0000     -14.465280      -393.6203
  24   2.0000     -14.418946      -392.3595
  25   2.0000     -14.417061      -392.3082
  26   2.0000     -14.411293      -392.1512
  27   2.0000     -14.410696      -392.1350
  28   2.0000     -10.415290      -283.4144
  29   2.0000     -10.413197      -283.3575
  30   2.0000     -10.411391      -283.3084
  31   2.0000     -10.378105      -282.4026
  32   2.0000     -10.372942      -282.2621
  33   2.0000     -10.369180      -282.1597
  34   2.0000     -10.369061      -282.1565
  35   2.0000     -10.362366      -281.9743
  36   2.0000     -10.362033      -281.9652
  37   2.0000     -10.356488      -281.8144
  38   2.0000     -10.347712      -281.5756
  39   2.0000     -10.345208      -281.5074
  40   2.0000     -10.341054      -281.3944
  41   2.0000     -10.338908      -281.3360
  42   2.0000     -10.335818      -281.2519
  43   2.0000     -10.329474      -281.0793
  44   2.0000     -10.329083      -281.0686
  45   2.0000     -10.327415      -281.0232
  46   2.0000     -10.327087      -281.0143
  47   2.0000     -10.323291      -280.9110
  48   2.0000     -10.321249      -280.8555
  49   2.0000     -10.318973      -280.7935
  50   2.0000     -10.314869      -280.6819
  51   2.0000     -10.313962      -280.6572
  52   2.0000     -10.313870      -280.6547
  53   2.0000     -10.312384      -280.6142
  54   2.0000     -10.311947      -280.6023
  55   2.0000     -10.311630      -280.5937
  56   2.0000     -10.311498      -280.5901
  57   2.0000     -10.310101      -280.5521
  58   2.0000     -10.310028      -280.5501
  59   2.0000     -10.309407      -280.5332
  60   2.0000     -10.309134      -280.5258
  61   2.0000     -10.308182      -280.4999
  62   2.0000     -10.307230      -280.4740
  63   2.0000     -10.306117      -280.4437
  64   2.0000     -10.305023      -280.4139
  65   2.0000     -10.304857      -280.4094
  66   2.0000     -10.304773      -280.4071
  67   2.0000     -10.302522      -280.3459
  68   2.0000     -10.301356      -280.3142
  69   2.0000     -10.300454      -280.2896
  70   2.0000     -10.299986      -280.2769
  71   2.0000     -10.298904      -280.2474
  72   2.0000     -10.298608      -280.2394
  73   2.0000     -10.297839      -280.2185
  74   2.0000     -10.296516      -280.1824
  75   2.0000     -10.296398      -280.1792
  76   2.0000     -10.295584      -280.1571
  77   2.0000     -10.294469      -280.1267
  78   2.0000     -10.292543      -280.0743
  79   2.0000     -10.291483      -280.0455
  80   2.0000     -10.290690      -280.0239
  81   2.0000     -10.290186      -280.0102
  82   2.0000     -10.289823      -280.0003
  83   2.0000     -10.283660      -279.8326
  84   2.0000     -10.283102      -279.8174
  85   2.0000     -10.271964      -279.5144
  86   2.0000     -10.263325      -279.2793
  87   2.0000     -10.260154      -279.1930
  88   2.0000     -10.256161      -279.0843
  89   2.0000      -8.795771      -239.3451
  90   2.0000      -8.790816      -239.2103
  91   2.0000      -8.079488      -219.8540
  92   2.0000      -8.076608      -219.7757
  93   2.0000      -8.074822      -219.7271
  94   2.0000      -8.069252      -219.5755
  95   2.0000      -8.064008      -219.4328
  96   2.0000      -8.060700      -219.3428
  97   2.0000      -7.995492      -217.5684
  98   2.0000      -6.632085      -180.4682
  99   2.0000      -6.627104      -180.3327
 100   2.0000      -6.617506      -180.0715
 101   2.0000      -6.617289      -180.0656
 102   2.0000      -6.612541      -179.9364
 103   2.0000      -6.612370      -179.9317
 104   2.0000      -6.049563      -164.6170
 105   2.0000      -6.046023      -164.5207
 106   2.0000      -6.045228      -164.4990
 107   2.0000      -6.044506      -164.4794
 108   2.0000      -6.042125      -164.4146
 109   2.0000      -6.040234      -164.3631
 110   2.0000      -6.040037      -164.3578
 111   2.0000      -6.038933      -164.3277
 112   2.0000      -6.038222      -164.3084
 113   2.0000      -6.036011      -164.2482
 114   2.0000      -6.034676      -164.2119
 115   2.0000      -6.033368      -164.1763
 116   2.0000      -6.030504      -164.0984
 117   2.0000      -6.030144      -164.0886
 118   2.0000      -6.029156      -164.0617
 119   2.0000      -6.025914      -163.9734
 120   2.0000      -6.025903      -163.9731
 121   2.0000      -6.022484      -163.8801
 122   2.0000      -5.965063      -162.3176
 123   2.0000      -5.962217      -162.2402
 124   2.0000      -5.955422      -162.0553
 125   2.0000      -2.747954       -74.7756
 126   2.0000      -2.743865       -74.6643
 127   2.0000      -2.743708       -74.6601
 128   2.0000      -2.742996       -74.6407
 129   2.0000      -2.738902       -74.5293
 130   2.0000      -2.738730       -74.5246
 131   2.0000      -2.732119       -74.3447
 132   2.0000      -2.732096       -74.3441
 133   2.0000      -2.727180       -74.2103
 134   2.0000      -2.727168       -74.2100
 135   2.0000      -1.246076       -33.9075
 136   2.0000      -1.239501       -33.7285
 137   2.0000      -1.168280       -31.7905
 138   2.0000      -1.148227       -31.2448
 139   2.0000      -1.135810       -30.9070
 140   2.0000      -1.126423       -30.6515
 141   2.0000      -1.054910       -28.7056
 142   2.0000      -1.026815       -27.9411
 143   2.0000      -1.020035       -27.7566
 144   2.0000      -1.016866       -27.6703
 145   2.0000      -1.016475       -27.6597
 146   2.0000      -1.013965       -27.5914
 147   2.0000      -1.009796       -27.4780
 148   2.0000      -0.996617       -27.1193
 149   2.0000      -0.993714       -27.0403
 150   2.0000      -0.989544       -26.9269
 151   2.0000      -0.986351       -26.8400
 152   2.0000      -0.985665       -26.8213
 153   2.0000      -0.953653       -25.9502
 154   2.0000      -0.950868       -25.8744
 155   2.0000      -0.941075       -25.6080
 156   2.0000      -0.938669       -25.5425
 157   2.0000      -0.935401       -25.4536
 158   2.0000      -0.934139       -25.4192
 159   2.0000      -0.924141       -25.1472
 160   2.0000      -0.916667       -24.9438
 161   2.0000      -0.911998       -24.8167
 162   2.0000      -0.907925       -24.7059
 163   2.0000      -0.905637       -24.6436
 164   2.0000      -0.896063       -24.3831
 165   2.0000      -0.889656       -24.2088
 166   2.0000      -0.886840       -24.1321
 167   2.0000      -0.883284       -24.0354
 168   2.0000      -0.882493       -24.0138
 169   2.0000      -0.872686       -23.7470
 170   2.0000      -0.866851       -23.5882
 171   2.0000      -0.857460       -23.3327
 172   2.0000      -0.850106       -23.1326
 173   2.0000      -0.837122       -22.7793
 174   2.0000      -0.832865       -22.6634
 175   2.0000      -0.826667       -22.4947
 176   2.0000      -0.823128       -22.3985
 177   2.0000      -0.813859       -22.1462
 178   2.0000      -0.805006       -21.9053
 179   2.0000      -0.797367       -21.6975
 180   2.0000      -0.789315       -21.4784
 181   2.0000      -0.782141       -21.2831
 182   2.0000      -0.774297       -21.0697
 183   2.0000      -0.769894       -20.9499
 184   2.0000      -0.766454       -20.8563
 185   2.0000      -0.762503       -20.7488
 186   2.0000      -0.755870       -20.5683
 187   2.0000      -0.743220       -20.2240
 188   2.0000      -0.730802       -19.8861
 189   2.0000      -0.726564       -19.7708
 190   2.0000      -0.723573       -19.6894
 191   2.0000      -0.711013       -19.3476
 192   2.0000      -0.709365       -19.3028
 193   2.0000      -0.703418       -19.1410
 194   2.0000      -0.700533       -19.0625
 195   2.0000      -0.697317       -18.9750
 196   2.0000      -0.693289       -18.8654
 197   2.0000      -0.690419       -18.7873
 198   2.0000      -0.685074       -18.6418
 199   2.0000      -0.681181       -18.5359
 200   2.0000      -0.675474       -18.3806
 201   2.0000      -0.664809       -18.0904
 202   2.0000      -0.662420       -18.0254
 203   2.0000      -0.656951       -17.8766
 204   2.0000      -0.648829       -17.6555
 205   2.0000      -0.639856       -17.4114
 206   2.0000      -0.637399       -17.3445
 207   2.0000      -0.630818       -17.1654
 208   2.0000      -0.625265       -17.0143
 209   2.0000      -0.620888       -16.8952
 210   2.0000      -0.617958       -16.8155
 211   2.0000      -0.612907       -16.6781
 212   2.0000      -0.610016       -16.5994
 213   2.0000      -0.606800       -16.5119
 214   2.0000      -0.605735       -16.4829
 215   2.0000      -0.601090       -16.3565
 216   2.0000      -0.598387       -16.2829
 217   2.0000      -0.595958       -16.2169
 218   2.0000      -0.591681       -16.1005
 219   2.0000      -0.589963       -16.0537
 220   2.0000      -0.584729       -15.9113
 221   2.0000      -0.583639       -15.8816
 222   2.0000      -0.578574       -15.7438
 223   2.0000      -0.571525       -15.5520
 224   2.0000      -0.568435       -15.4679
 225   2.0000      -0.560575       -15.2540
 226   2.0000      -0.556317       -15.1381
 227   2.0000      -0.555399       -15.1132
 228   2.0000      -0.551111       -14.9965
 229   2.0000      -0.547952       -14.9105
 230   2.0000      -0.544873       -14.8267
 231   2.0000      -0.542497       -14.7621
 232   2.0000      -0.539543       -14.6817
 233   2.0000      -0.537708       -14.6318
 234   2.0000      -0.536903       -14.6099
 235   2.0000      -0.535212       -14.5638
 236   2.0000      -0.532076       -14.4785
 237   2.0000      -0.529707       -14.4140
 238   2.0000      -0.527354       -14.3500
 239   2.0000      -0.526897       -14.3376
 240   2.0000      -0.526163       -14.3176
 241   2.0000      -0.521736       -14.1971
 242   2.0000      -0.517546       -14.0832
 243   2.0000      -0.513558       -13.9746
 244   2.0000      -0.511644       -13.9225
 245   2.0000      -0.511066       -13.9068
 246   2.0000      -0.509586       -13.8665
 247   2.0000      -0.507738       -13.8162
 248   2.0000      -0.504732       -13.7345
 249   2.0000      -0.502844       -13.6831
 250   2.0000      -0.500145       -13.6096
 251   2.0000      -0.499119       -13.5817
 252   2.0000      -0.497638       -13.5414
 253   2.0000      -0.496375       -13.5071
 254   2.0000      -0.496193       -13.5021
 255   2.0000      -0.493933       -13.4406
 256   2.0000      -0.493353       -13.4248
 257   2.0000      -0.491731       -13.3807
 258   2.0000      -0.489288       -13.3142
 259   2.0000      -0.482920       -13.1409
 260   2.0000      -0.479634       -13.0515
 261   2.0000      -0.478415       -13.0183
 262   2.0000      -0.476331       -12.9616
 263   2.0000      -0.474485       -12.9114
 264   2.0000      -0.468545       -12.7498
 265   2.0000      -0.468156       -12.7392
 266   2.0000      -0.465144       -12.6572
 267   2.0000      -0.464252       -12.6329
 268   2.0000      -0.461723       -12.5641
 269   2.0000      -0.458507       -12.4766
 270   2.0000      -0.457834       -12.4583
 271   2.0000      -0.451804       -12.2942
 272   2.0000      -0.451787       -12.2938
 273   2.0000      -0.451036       -12.2733
 274   2.0000      -0.450815       -12.2673
 275   2.0000      -0.449544       -12.2327
 276   2.0000      -0.448407       -12.2018
 277   2.0000      -0.445645       -12.1266
 278   2.0000      -0.445333       -12.1181
 279   2.0000      -0.443567       -12.0701
 280   2.0000      -0.442168       -12.0320
 281   2.0000      -0.440881       -11.9970
 282   2.0000      -0.439050       -11.9472
 283   2.0000      -0.436684       -11.8828
 284   2.0000      -0.435840       -11.8598
 285   2.0000      -0.434918       -11.8347
 286   2.0000      -0.433053       -11.7840
 287   2.0000      -0.429777       -11.6948
 288   2.0000      -0.428141       -11.6503
 289   2.0000      -0.425980       -11.5915
 290   2.0000      -0.423320       -11.5191
 291   2.0000      -0.419559       -11.4168
 292   2.0000      -0.417530       -11.3616
 293   2.0000      -0.416409       -11.3311
 294   2.0000      -0.414754       -11.2860
 295   2.0000      -0.411591       -11.2000
 296   2.0000      -0.408505       -11.1160
 297   2.0000      -0.405381       -11.0310
 298   2.0000      -0.402407       -10.9501
 299   2.0000      -0.396392       -10.7864
 300   2.0000      -0.395481       -10.7616
 301   2.0000      -0.391552       -10.6547
 302   2.0000      -0.390524       -10.6267
 303   2.0000      -0.384817       -10.4714
 304   2.0000      -0.382512       -10.4087
 305   2.0000      -0.381497       -10.3811
 306   2.0000      -0.380212       -10.3461
 307   2.0000      -0.377888       -10.2829
 308   2.0000      -0.373073       -10.1518
 309   2.0000      -0.372183       -10.1276
 310   2.0000      -0.371249       -10.1022
 311   2.0000      -0.365191        -9.9373
 312   2.0000      -0.358435        -9.7535
 313   2.0000      -0.357570        -9.7300
 314   2.0000      -0.346880        -9.4391
 315   2.0000      -0.340315        -9.2604
 316   2.0000      -0.334519        -9.1027
 317   2.0000      -0.331966        -9.0333
 318   2.0000      -0.320797        -8.7293
 319   2.0000      -0.318847        -8.6763
 320   2.0000      -0.312689        -8.5087
 321   2.0000      -0.303465        -8.2577
 322   2.0000      -0.299481        -8.1493
 323   2.0000      -0.294911        -8.0249
 324   2.0000      -0.291930        -7.9438
 325   2.0000      -0.291650        -7.9362
 326   2.0000      -0.284467        -7.7408
 327   2.0000      -0.264636        -7.2011
 328   2.0000      -0.255483        -6.9520
 329   0.0000      -0.102548        -2.7905
 330   0.0000      -0.096301        -2.6205
 331   0.0000      -0.065288        -1.7766
 332   0.0000      -0.062278        -1.6947
 333   0.0000      -0.058283        -1.5859

MULLIKEN ATOMIC CHARGES
-----------------------
   0 C :    0.293790
   1 C :   -0.331665
   2 C :   -0.183169
   3 N :    0.149821
   4 C :   -0.208636
   5 N :    0.175750
   6 C :    0.019345
   7 C :   -0.018472
   8 C :   -0.072165
   9 C :    0.118062
  10 C :   -0.090065
  11 C :   -0.018205
  12 S :    0.188681
  13 C :   -0.123650
  14 C :    0.039531
  15 Br:    0.026666
  16 C :    0.135316
  17 O :   -0.127548
  18 C :   -0.065090
  19 C :   -0.057389
  20 C :    0.075928
  21 O :   -0.157447
  22 C :   -0.014536
  23 C :    0.175210
  24 O :   -0.122042
  25 N :   -0.160327
  26 C :    0.195128
  27 O :   -0.157432
  28 C :   -0.101074
  29 C :    0.141866
  30 C :   -0.011972
  31 C :   -0.018450
  32 C :    0.076030
  33 C :   -0.110540
  34 S :    0.150492
  35 C :   -0.154175
  36 C :    0.124132
  37 C :   -0.110347
  38 C :    0.022935
  39 C :    0.030286
  40 C :   -0.114187
  41 C :    0.007802
  42 C :    0.034437
  43 C :    0.118408
  44 C :    0.074799
  45 C :   -0.121749
  46 S :    0.141047
  47 C :   -0.150949
  48 C :   -0.009449
  49 C :    0.048146
  50 C :   -0.193420
  51 S :    0.164431
  52 C :   -0.168631
  53 C :    0.234577
  54 C :   -0.016182
  55 S :    0.140346
  56 C :    0.071893
  57 S :   -0.116185
  58 O :   -0.151248
  59 C :    0.065498
  60 C :   -0.005113
  61 C :    0.025630
  62 C :   -0.113157
  63 C :    0.285676
  64 C :   -0.330182
  65 C :   -0.181118
  66 N :    0.149352
  67 C :   -0.200242
  68 N :    0.156296
  69 C :    0.004950
  70 C :   -0.007498
  71 C :    0.139709
  72 O :   -0.145373
  73 C :   -0.069289
  74 C :    0.112301
  75 C :   -0.091018
  76 C :   -0.017705
  77 S :    0.185913
  78 C :   -0.124629
  79 C :    0.042165
  80 Br:    0.021814
  81 H :   -0.010948
  82 H :   -0.004628
  83 H :   -0.002501
  84 H :    0.042525
  85 H :    0.142752
  86 H :   -0.002249
  87 H :    0.023620
  88 H :    0.028010
  89 H :    0.028052
  90 H :   -0.003521
  91 H :    0.018064
  92 H :    0.005529
  93 H :    0.017025
  94 H :    0.006697
  95 H :    0.008196
  96 H :    0.015757
  97 H :    0.019352
  98 H :    0.011516
  99 H :    0.024549
 100 H :   -0.003443
 101 H :   -0.020146
 102 H :   -0.005917
 103 H :    0.043683
 104 H :    0.014119
 105 H :   -0.011039
 106 H :   -0.003308
 107 H :   -0.004185
Sum of atomic charges:   -0.0000000

LOEWDIN ATOMIC CHARGES
----------------------
   0 C :    0.071451
   1 C :   -0.132221
   2 C :   -0.017547
   3 N :   -0.048582
   4 C :   -0.028674
   5 N :   -0.038464
   6 C :   -0.021365
   7 C :   -0.051339
   8 C :    0.021760
   9 C :   -0.031637
  10 C :   -0.143126
  11 C :   -0.009414
  12 S :    0.434492
  13 C :   -0.270635
  14 C :   -0.070625
  15 Br:    0.139285
  16 C :    0.076154
  17 O :   -0.132793
  18 C :   -0.077286
  19 C :    0.046226
  20 C :    0.038327
  21 O :    0.050960
  22 C :   -0.057519
  23 C :    0.086871
  24 O :   -0.137580
  25 N :   -0.001865
  26 C :    0.092373
  27 O :   -0.161211
  28 C :   -0.117027
  29 C :    0.095499
  30 C :   -0.056257
  31 C :    0.040097
  32 C :   -0.069575
  33 C :   -0.150930
  34 S :    0.437023
  35 C :   -0.177919
  36 C :   -0.036664
  37 C :   -0.014001
  38 C :   -0.032034
  39 C :   -0.049431
  40 C :   -0.017542
  41 C :   -0.031477
  42 C :   -0.053506
  43 C :   -0.038180
  44 C :   -0.064431
  45 C :   -0.162419
  46 S :    0.426513
  47 C :   -0.178970
  48 C :    0.000880
  49 C :   -0.048391
  50 C :   -0.170696
  51 S :    0.456875
  52 C :   -0.202447
  53 C :    0.016821
  54 C :   -0.216391
  55 S :    0.396561
  56 C :   -0.233922
  57 S :    0.017137
  58 O :    0.005529
  59 C :    0.010941
  60 C :   -0.030872
  61 C :    0.064683
  62 C :   -0.092624
  63 C :    0.069395
  64 C :   -0.134883
  65 C :   -0.017295
  66 N :   -0.050607
  67 C :   -0.018347
  68 N :   -0.057514
  69 C :   -0.017107
  70 C :   -0.053019
  71 C :    0.081404
  72 O :   -0.145886
  73 C :    0.022053
  74 C :   -0.034183
  75 C :   -0.143218
  76 C :   -0.012005
  77 S :    0.432250
  78 C :   -0.272568
  79 C :   -0.070178
  80 Br:    0.135688
  81 H :    0.040667
  82 H :    0.041383
  83 H :    0.039106
  84 H :    0.060314
  85 H :    0.097498
  86 H :    0.039659
  87 H :    0.035907
  88 H :    0.025609
  89 H :    0.029213
  90 H :    0.027412
  91 H :    0.026192
  92 H :    0.022890
  93 H :    0.022373
  94 H :    0.022327
  95 H :    0.029580
  96 H :    0.022764
  97 H :    0.021821
  98 H :    0.025571
  99 H :    0.024043
 100 H :    0.017505
 101 H :    0.029617
 102 H :    0.036737
 103 H :    0.034155
 104 H :    0.044089
 105 H :    0.040936
 106 H :    0.041200
 107 H :    0.038583

  Mayer bond orders larger than 0.100000
B(  0-C ,  1-C ) :   1.6534 B(  0-C ,  6-C ) :   1.0095 B(  0-C , 18-C ) :   1.0470
B(  1-C ,  2-C ) :   1.1372 B(  1-C ,  4-C ) :   1.1371 B(  2-C ,  3-N ) :   2.9746
B(  4-C ,  5-N ) :   3.0040 B(  6-C ,  7-C ) :   1.2732 B(  6-C , 11-C ) :   1.4066
B(  7-C ,  8-C ) :   1.4228 B(  7-C , 16-C ) :   0.9392 B(  8-C ,  9-C ) :   1.2505
B(  8-C , 81-H ) :   1.0159 B(  9-C , 10-C ) :   1.3017 B(  9-C , 14-C ) :   1.1638
B( 10-C , 11-C ) :   1.3343 B( 10-C , 12-S ) :   1.0862 B( 11-C , 82-H ) :   0.9802
B( 12-S , 13-C ) :   1.0871 B( 13-C , 14-C ) :   1.6168 B( 13-C , 15-Br) :   1.0209
B( 14-C , 83-H ) :   1.0003 B( 16-C , 17-O ) :   2.2733 B( 16-C , 18-C ) :   0.9211
B( 18-C , 19-C ) :   1.5793 B( 19-C , 20-C ) :   1.2037 B( 19-C , 84-H ) :   0.9364
B( 20-C , 21-O ) :   1.1458 B( 20-C , 22-C ) :   1.3821 B( 21-O , 29-C ) :   1.1962
B( 22-C , 23-C ) :   0.8680 B( 22-C , 28-C ) :   1.3193 B( 23-C , 24-O ) :   2.2679
B( 23-C , 25-N ) :   1.0784 B( 25-N , 26-C ) :   1.1035 B( 25-N , 85-H ) :   0.9142
B( 26-C , 27-O ) :   2.1552 B( 26-C , 28-C ) :   0.8937 B( 28-C , 29-C ) :   1.3618
B( 29-C , 30-C ) :   1.1566 B( 30-C , 31-C ) :   1.6505 B( 30-C , 86-H ) :   0.9694
B( 31-C , 32-C ) :   1.0623 B( 31-C , 87-H ) :   0.9536 B( 32-C , 33-C ) :   1.5717
B( 32-C , 36-C ) :   1.1298 B( 33-C , 34-S ) :   1.1482 B( 33-C , 88-H ) :   0.9590
B( 34-S , 35-C ) :   1.0746 B( 35-C , 36-C ) :   1.3840 B( 35-C , 47-C ) :   1.3767
B( 36-C , 37-C ) :   1.2551 B( 37-C , 38-C ) :   1.0557 B( 37-C , 40-C ) :   1.5274
B( 38-C , 39-C ) :   1.1049 B( 38-C , 89-H ) :   0.9249 B( 38-C , 90-H ) :   0.9068
B( 39-C , 91-H ) :   0.9650 B( 39-C , 92-H ) :   0.9574 B( 39-C , 93-H ) :   0.9663
B( 40-C , 41-C ) :   1.0503 B( 40-C , 43-C ) :   1.2567 B( 41-C , 42-C ) :   1.1075
B( 41-C , 94-H ) :   0.9291 B( 41-C , 95-H ) :   0.9132 B( 42-C , 96-H ) :   0.9626
B( 42-C , 97-H ) :   0.9627 B( 42-C , 98-H ) :   0.9565 B( 43-C , 44-C ) :   1.1408
B( 43-C , 47-C ) :   1.3807 B( 44-C , 45-C ) :   1.5851 B( 44-C , 48-C ) :   1.0567
B( 45-C , 46-S ) :   1.1302 B( 45-C , 99-H ) :   0.9617 B( 46-S , 47-C ) :   1.0780
B( 48-C , 49-C ) :   1.7250 B( 48-C ,100-H ) :   0.9531 B( 49-C , 50-C ) :   1.1279
B( 49-C ,101-H ) :   0.9632 B( 50-C , 51-S ) :   1.1331 B( 50-C , 54-C ) :   1.5221
B( 51-S , 52-C ) :   1.0788 B( 52-C , 53-C ) :   1.4734 B( 52-C , 59-C ) :   1.1456
B( 53-C , 54-C ) :   1.2870 B( 53-C , 58-O ) :   1.0843 B( 54-C , 55-S ) :   1.0018
B( 55-S , 56-C ) :   1.0521 B( 55-S , 57-S ) :   0.1191 B( 56-C , 57-S ) :   1.7838
B( 56-C , 58-O ) :   1.0736 B( 59-C , 60-C ) :   1.6386 B( 59-C ,102-H ) :   0.9698
B( 60-C , 61-C ) :   1.1412 B( 60-C ,103-H ) :   0.9468 B( 61-C , 62-C ) :   1.6066
B( 61-C ,104-H ) :   0.9612 B( 62-C , 63-C ) :   1.0413 B( 62-C , 71-C ) :   0.9440
B( 63-C , 64-C ) :   1.6375 B( 63-C , 69-C ) :   1.0107 B( 64-C , 65-C ) :   1.1338
B( 64-C , 67-C ) :   1.1625 B( 65-C , 66-N ) :   2.9827 B( 67-C , 68-N ) :   2.9877
B( 69-C , 70-C ) :   1.2762 B( 69-C , 76-C ) :   1.4145 B( 70-C , 71-C ) :   0.9217
B( 70-C , 73-C ) :   1.4279 B( 71-C , 72-O ) :   2.2667 B( 73-C , 74-C ) :   1.2498
B( 73-C ,105-H ) :   1.0154 B( 74-C , 75-C ) :   1.3090 B( 74-C , 79-C ) :   1.1639
B( 75-C , 76-C ) :   1.3276 B( 75-C , 77-S ) :   1.0854 B( 76-C ,106-H ) :   0.9812
B( 77-S , 78-C ) :   1.0866 B( 78-C , 79-C ) :   1.6191 B( 78-C , 80-Br) :   1.0177
B( 79-C ,107-H ) :   0.9996

-----------------------------------------------------------------------------
         ABSORPTION SPECTRUM VIA TRANSITION ELECTRIC DIPOLE MOMENTS
-----------------------------------------------------------------------------
State   Energy  Wavelength   fosc         T2         TX        TY        TZ
        (cm-1)    (nm)                  (au**2)     (au)      (au)      (au)
-----------------------------------------------------------------------------
   0   19155.6    522.0   1.670241022  28.70506  -1.99335  -1.58613   4.71336
   1   20333.9    491.8   0.623030921  10.08706  -1.98991  -2.07227   1.35390
   2   25229.2    396.4   0.059235649   0.77296  -0.40386  -0.11084   0.77303
   3   25299.9    395.3   0.034987889   0.45528   0.18598  -0.34479  -0.54937
   4   26019.4    384.3   0.092554159   1.17105   1.00984  -0.36070  -0.14551
   5   26287.5    380.4   0.040955440   0.51291   0.23521   0.67302   0.06806
   6   26974.2    370.7   0.050236044   0.61311  -0.51867   0.47794   0.34010
   7   27237.0    367.1   0.307965452   3.72236   1.36920   0.91716  -1.00323
   8   27284.3    366.5   0.159668289   1.92655   0.94886   0.71213  -0.72048
   9   27646.2    361.7   0.109793193   1.30742  -0.81028   0.13787   0.79490
  10   27696.4    361.1   0.265766997   3.15902   0.14066  -1.58982  -0.78212
  11   28091.0    356.0   0.173905386   2.03808  -0.39838   1.37066   0.02590
  12   28930.5    345.7   0.252504486   2.87335  -0.35555   0.03510   1.65702
  13   29078.9    343.9   0.086177180   0.97564   0.63905   0.42938  -0.61878
  14   29412.8    340.0   0.335503062   3.75522   1.57724   0.02574  -1.12555
  15   29525.7    338.7   0.047388891   0.52839   0.24387   0.29563  -0.61767
  16   30146.6    331.7   0.005196703   0.05675   0.19971   0.03708  -0.12446
  17   30564.3    327.2   0.028240938   0.30419   0.33270  -0.05827  -0.43600
  18   31402.1    318.5   0.128112234   1.34310  -0.41863   0.18893   1.06403
  19   31644.5    316.0   0.010734330   0.11167  -0.21106   0.17409   0.19189
  20   32318.8    309.4   0.051682476   0.52646   0.57803  -0.41347  -0.14621
  21   33012.4    302.9   0.014882551   0.14841   0.16633  -0.02970  -0.34621
  22   33062.4    302.5   0.613490712   6.10871  -1.84908   1.56593   0.48732
  23   33241.3    300.8   0.705297704   6.98506   1.61254  -0.00446  -2.09398
  24   33429.6    299.1   0.042191771   0.41550   0.19592   0.17012   0.59006
  25   33628.0    297.4   0.002155502   0.02110   0.13499  -0.04649  -0.02683
  26   33940.2    294.6   0.011671998   0.11322   0.01520   0.11806   0.31472
  27   34138.1    292.9   0.098257503   0.94755  -0.34051  -0.45977  -0.78753
  28   34542.8    289.5   0.000386730   0.00369  -0.03857  -0.03016  -0.03590
  29   34579.0    289.2   0.005955923   0.05670  -0.06161   0.18080   0.14220
  30   34637.5    288.7   0.001884300   0.01791   0.05849   0.11022  -0.04837
  31   34933.2    286.3   0.057316098   0.54015   0.00729   0.73116   0.07416
  32   35195.7    284.1   0.080270750   0.75083  -0.81639  -0.14110   0.25384
  33   35800.4    279.3   0.010772976   0.09907  -0.14991  -0.04724  -0.27269
  34   36328.5    275.3   0.027545924   0.24962   0.03514  -0.42818  -0.25505
  35   36854.1    271.3   0.012873249   0.11499   0.22731  -0.15869  -0.19530
  36   36877.0    271.2   0.012406536   0.11076  -0.19896   0.11028   0.24292
  37   36951.0    270.6   0.145646210   1.29762  -0.64487   0.77154   0.53525
  38   37154.2    269.1   0.003799777   0.03367   0.16383  -0.07884   0.02477
  39   37453.3    267.0   0.278627604   2.44912   0.99075   1.11975   0.46228
  40   37486.4    266.8   0.081762281   0.71805  -0.56995  -0.58128  -0.23521
  41   37689.4    265.3   0.061730835   0.53921  -0.47153   0.35240  -0.43895
  42   38004.1    263.1   0.012924713   0.11196   0.26628   0.18329   0.08637
  43   38143.6    262.2   0.049124358   0.42399   0.34712  -0.18630  -0.51844
  44   38484.0    259.8   0.004398395   0.03763   0.10071  -0.11808   0.11637
  45   38945.5    256.8   0.394324947   3.33329  -0.57454  -1.41537   0.99997
  46   39212.2    255.0   0.007301714   0.06130  -0.05871   0.01595   0.24000
  47   39384.3    253.9   0.268726414   2.24628  -0.24133  -0.36924   1.43238
  48   39931.8    250.4   0.050866457   0.41936   0.26091   0.53143  -0.26244
  49   40122.7    249.2   0.150217043   1.23255  -1.03889  -0.38977  -0.03657
  50   40241.9    248.5   0.032517702   0.26602   0.17587   0.44333   0.19634

FINAL SINGLE POINT ENERGY    -10996.349420917504

DIPOLE MOMENT
-------------
                                X             Y             Z
Electronic contribution:    -53.81439      -0.73575     -47.74500
Nuclear contribution   :     54.21730       2.93727      48.73736
                        -----------------------------------------
Total Dipole Moment    :      0.40291       2.20152       0.99236
                        -----------------------------------------
Magnitude (a.u.)       :      2.44822
Magnitude (Debye)      :      6.22288

Rotational constants in cm-1:     0.001305     0.000098     0.000096
Rotational constants in MHz :    39.121232     2.934172     2.864975

                             ****ORCA TERMINATED NORMALLY****
TOTAL RUN TIME: 0 days 0 hours 12 minutes 20 seconds 690 msec
