                         Program Version 4.2.0 -  RELEASE  -
|  1> # ORCA input file
|  2> # SCF done       -165.529975378756          0.000427292981
|  3> ! CAM-B3LYP def2-SVP def2/J RIJCOSX Grid4 TightSCF
|  4> %maxcore 5000
|  5> %tddft
|  6>     Mode sTDDFT
|  7>     Ethresh 5.0
|  8>     maxcore 5000
|  9> end
| 10>
| 11> %pal
| 12>   nprocs 6
| 13>   end
| 14> * xyz 0 1
| 15>    C       -2.46925        -4.09476        -6.39365
| 16>    C       -2.78347        -5.09388        -5.49587
| 17>    C       -2.01835        -6.26087        -5.31416
| 18>    N       -1.44139        -7.23407        -5.10940
| 19>    C       -3.89090        -5.11359        -4.62715
| 20>    N       -4.75698        -5.22659        -3.87830
| 21>    C       -1.30363        -4.10387        -7.27852
| 22>    C       -1.30258        -2.90769        -8.03551
| 23>    C       -0.33615        -2.62050        -8.96591
| 24>    C        0.68295        -3.56073        -9.16089
| 25>    C        0.67458        -4.75042        -8.39943
| 26>    C       -0.30536        -5.04106        -7.45647
| 27>    S        2.02259        -5.77442        -8.79772
| 28>    C        2.56922        -4.60304        -9.96774
| 29>    C        1.78637        -3.50277       -10.05694
| 30>   Br        4.12412        -4.94450       -10.96216
| 31>    C       -2.47731        -2.09102        -7.65186
| 32>    O       -2.77156        -1.00113        -8.10724
| 33>    C       -3.18816        -2.87621        -6.63215
| 34>    C       -4.37553        -2.49346        -6.02802
| 35>    C       -5.05451        -1.30771        -6.25052
| 36>    C       -6.26221        -1.02395        -5.62512
| 37>    C       -7.04746         0.13690        -5.74691
| 38>    C       -8.20462         0.11055        -5.01013
| 39>    C       -8.37669        -1.07538        -4.28152
| 40>    S       -7.03012        -2.15756        -4.54016
| 41>    C       -9.42771        -1.47059        -3.45769
| 42>    C      -10.60195        -0.78828        -3.10145
| 43>    C      -11.42997        -1.51667        -2.28892
| 44>    C      -10.94298        -2.79887        -1.96068
| 45>    S       -9.39170        -3.05027        -2.72486
| 46>    C      -11.62435        -3.74662        -1.21675
| 47>    C      -11.22784        -5.01858        -0.81942
| 48>    S      -12.48266        -6.08983        -0.17733
| 49>    C      -11.39823        -7.43361         0.05569
| 50>    C      -10.10191        -7.03899        -0.31050
| 51>    C      -10.01225        -5.71300        -0.79934
| 52>    S       -8.35721        -5.35624        -1.15971
| 53>    C       -7.95914        -6.98580        -0.66037
| 54>    N       -8.92777        -7.71801        -0.26142
| 55>    C      -11.84837        -8.67855         0.50068
| 56>    C      -11.00297        -9.74459         0.68608
| 57>    C      -11.41022       -11.03127         1.04289
| 58>    S      -10.21857       -12.30562         1.26307
| 59>    C      -11.41497       -13.54270         1.57196
| 60>    C      -12.69339       -12.96448         1.51900
| 61>    C      -12.67664       -11.57876         1.23495
| 62>    S      -14.29716       -10.97646         1.18965
| 63>    C      -14.83816       -12.61106         1.55332
| 64>    N      -13.93054       -13.49677         1.68991
| 65>    C      -11.04806       -14.86866         1.80004
| 66>    C      -11.95203       -15.89644         1.94607
| 67>    C      -11.57171       -17.21977         2.14527
| 68>    C      -12.44592       -18.28605         2.21167
| 69>    C      -12.10430       -19.64439         2.39991
| 70>    C      -13.16696       -20.49724         2.38818
| 71>    C      -14.41033       -19.85556         2.18705
| 72>    S      -14.18031       -18.12498         2.02931
| 73>    C      -15.65569       -20.44123         2.09870
| 74>    C      -15.96190       -21.82663         2.19226
| 75>    C      -17.27467       -22.11817         2.04938
| 76>    C      -18.11321       -20.97553         1.83107
| 77>    S      -17.11275       -19.51356         1.82600
| 78>    C      -19.44140       -20.95377         1.65065
| 79>    H       -0.36353        -1.70049        -9.52865
| 80>    H       -0.26652        -5.96436        -6.90329
| 81>    H        1.97600        -2.68318       -10.72593
| 82>    H       -4.82173        -3.18183        -5.32005
| 83>    H       -4.64432        -0.57719        -6.93202
| 84>    H       -6.74353         0.95809        -6.37138
| 85>    H       -8.92423         0.90945        -4.98431
| 86>    H      -10.81345         0.20833        -3.44468
| 87>    H      -12.37601        -1.16371        -1.91753
| 88>    H      -12.63596        -3.47581        -0.93874
| 89>    H       -6.94107        -7.31939        -0.70421
| 90>    H      -12.90903        -8.78398         0.68229
| 91>    H       -9.94505        -9.58995         0.52805
| 92>    H      -15.88633       -12.81408         1.64785
| 93>    H       -9.98826       -15.08433         1.83389
| 94>    H      -13.00710       -15.66532         1.88459
| 95>    H      -10.51704       -17.44654         2.23995
| 96>    H      -11.08177       -19.95036         2.53515
| 97>    H      -13.08806       -21.56198         2.51384
| 98>    H      -15.19377       -22.56020         2.36076
| 99>    H      -17.69377       -23.10782         2.08773
|100>    H      -20.01112       -21.86615         1.65914
|101>    H      -19.97588       -20.03526         1.49206
|102> *
|103>
|104>                          ****END OF INPUT****

CARTESIAN COORDINATES (ANGSTROEM)
---------------------------------
  C     -2.469250   -4.094760   -6.393650
  C     -2.783470   -5.093880   -5.495870
  C     -2.018350   -6.260870   -5.314160
  N     -1.441390   -7.234070   -5.109400
  C     -3.890900   -5.113590   -4.627150
  N     -4.756980   -5.226590   -3.878300
  C     -1.303630   -4.103870   -7.278520
  C     -1.302580   -2.907690   -8.035510
  C     -0.336150   -2.620500   -8.965910
  C      0.682950   -3.560730   -9.160890
  C      0.674580   -4.750420   -8.399430
  C     -0.305360   -5.041060   -7.456470
  S      2.022590   -5.774420   -8.797720
  C      2.569220   -4.603040   -9.967740
  C      1.786370   -3.502770  -10.056940
  Br     4.124120   -4.944500  -10.962160
  C     -2.477310   -2.091020   -7.651860
  O     -2.771560   -1.001130   -8.107240
  C     -3.188160   -2.876210   -6.632150
  C     -4.375530   -2.493460   -6.028020
  C     -5.054510   -1.307710   -6.250520
  C     -6.262210   -1.023950   -5.625120
  C     -7.047460    0.136900   -5.746910
  C     -8.204620    0.110550   -5.010130
  C     -8.376690   -1.075380   -4.281520
  S     -7.030120   -2.157560   -4.540160
  C     -9.427710   -1.470590   -3.457690
  C    -10.601950   -0.788280   -3.101450
  C    -11.429970   -1.516670   -2.288920
  C    -10.942980   -2.798870   -1.960680
  S     -9.391700   -3.050270   -2.724860
  C    -11.624350   -3.746620   -1.216750
  C    -11.227840   -5.018580   -0.819420
  S    -12.482660   -6.089830   -0.177330
  C    -11.398230   -7.433610    0.055690
  C    -10.101910   -7.038990   -0.310500
  C    -10.012250   -5.713000   -0.799340
  S     -8.357210   -5.356240   -1.159710
  C     -7.959140   -6.985800   -0.660370
  N     -8.927770   -7.718010   -0.261420
  C    -11.848370   -8.678550    0.500680
  C    -11.002970   -9.744590    0.686080
  C    -11.410220  -11.031270    1.042890
  S    -10.218570  -12.305620    1.263070
  C    -11.414970  -13.542700    1.571960
  C    -12.693390  -12.964480    1.519000
  C    -12.676640  -11.578760    1.234950
  S    -14.297160  -10.976460    1.189650
  C    -14.838160  -12.611060    1.553320
  N    -13.930540  -13.496770    1.689910
  C    -11.048060  -14.868660    1.800040
  C    -11.952030  -15.896440    1.946070
  C    -11.571710  -17.219770    2.145270
  C    -12.445920  -18.286050    2.211670
  C    -12.104300  -19.644390    2.399910
  C    -13.166960  -20.497240    2.388180
  C    -14.410330  -19.855560    2.187050
  S    -14.180310  -18.124980    2.029310
  C    -15.655690  -20.441230    2.098700
  C    -15.961900  -21.826630    2.192260
  C    -17.274670  -22.118170    2.049380
  C    -18.113210  -20.975530    1.831070
  S    -17.112750  -19.513560    1.826000
  C    -19.441400  -20.953770    1.650650
  H     -0.363530   -1.700490   -9.528650
  H     -0.266520   -5.964360   -6.903290
  H      1.976000   -2.683180  -10.725930
  H     -4.821730   -3.181830   -5.320050
  H     -4.644320   -0.577190   -6.932020
  H     -6.743530    0.958090   -6.371380
  H     -8.924230    0.909450   -4.984310
  H    -10.813450    0.208330   -3.444680
  H    -12.376010   -1.163710   -1.917530
  H    -12.635960   -3.475810   -0.938740
  H     -6.941070   -7.319390   -0.704210
  H    -12.909030   -8.783980    0.682290
  H     -9.945050   -9.589950    0.528050
  H    -15.886330  -12.814080    1.647850
  H     -9.988260  -15.084330    1.833890
  H    -13.007100  -15.665320    1.884590
  H    -10.517040  -17.446540    2.239950
  H    -11.081770  -19.950360    2.535150
  H    -13.088060  -21.561980    2.513840
  H    -15.193770  -22.560200    2.360760
  H    -17.693770  -23.107820    2.087730
  H    -20.011120  -21.866150    1.659140
  H    -19.975880  -20.035260    1.492060

 Total Charge           Charge          ....    0
 Multiplicity           Mult            ....    1
 Number of Electrons    NEL             ....  532
 Basis Dimension        Dim             .... 1065

ORBITAL ENERGIES
----------------

  NO   OCC          E(Eh)            E(eV)
   0   2.0000    -482.868531    -13139.5207
   1   2.0000     -88.972091     -2421.0537
   2   2.0000     -88.970438     -2421.0087
   3   2.0000     -88.969025     -2420.9703
   4   2.0000     -88.966372     -2420.8981
   5   2.0000     -88.958233     -2420.6766
   6   2.0000     -88.954216     -2420.5673
   7   2.0000     -88.948185     -2420.4032
   8   2.0000     -88.946100     -2420.3464
   9   2.0000     -88.945981     -2420.3432
  10   2.0000     -62.546236     -1701.9696
  11   2.0000     -56.380163     -1534.1822
  12   2.0000     -56.377491     -1534.1095
  13   2.0000     -56.377449     -1534.1084
  14   2.0000     -19.183554      -522.0110
  15   2.0000     -14.424957      -392.5230
  16   2.0000     -14.421396      -392.4261
  17   2.0000     -14.388058      -391.5190
  18   2.0000     -14.383977      -391.4079
  19   2.0000     -10.344566      -281.4900
  20   2.0000     -10.339180      -281.3434
  21   2.0000     -10.337990      -281.3110
  22   2.0000     -10.333773      -281.1962
  23   2.0000     -10.327206      -281.0176
  24   2.0000     -10.326345      -280.9941
  25   2.0000     -10.321922      -280.8738
  26   2.0000     -10.320354      -280.8311
  27   2.0000     -10.319175      -280.7990
  28   2.0000     -10.318806      -280.7890
  29   2.0000     -10.315203      -280.6909
  30   2.0000     -10.314311      -280.6667
  31   2.0000     -10.314070      -280.6601
  32   2.0000     -10.313754      -280.6515
  33   2.0000     -10.313284      -280.6387
  34   2.0000     -10.313094      -280.6336
  35   2.0000     -10.312944      -280.6295
  36   2.0000     -10.312903      -280.6284
  37   2.0000     -10.312413      -280.6150
  38   2.0000     -10.311340      -280.5858
  39   2.0000     -10.308214      -280.5008
  40   2.0000     -10.305849      -280.4364
  41   2.0000     -10.304357      -280.3958
  42   2.0000     -10.301068      -280.3063
  43   2.0000     -10.299731      -280.2699
  44   2.0000     -10.295831      -280.1638
  45   2.0000     -10.293988      -280.1137
  46   2.0000     -10.293563      -280.1021
  47   2.0000     -10.293430      -280.0985
  48   2.0000     -10.292237      -280.0660
  49   2.0000     -10.292039      -280.0606
  50   2.0000     -10.291170      -280.0370
  51   2.0000     -10.289578      -279.9937
  52   2.0000     -10.288120      -279.9540
  53   2.0000     -10.287781      -279.9448
  54   2.0000     -10.283657      -279.8325
  55   2.0000     -10.282964      -279.8137
  56   2.0000     -10.280777      -279.7542
  57   2.0000     -10.280361      -279.7428
  58   2.0000     -10.279631      -279.7230
  59   2.0000     -10.278993      -279.7056
  60   2.0000     -10.278826      -279.7011
  61   2.0000     -10.278194      -279.6839
  62   2.0000     -10.276739      -279.6443
  63   2.0000     -10.276008      -279.6244
  64   2.0000     -10.275073      -279.5989
  65   2.0000     -10.264085      -279.2999
  66   2.0000     -10.256396      -279.0907
  67   2.0000     -10.255944      -279.0784
  68   2.0000      -8.775650      -238.7976
  69   2.0000      -8.067834      -219.5369
  70   2.0000      -8.065772      -219.4808
  71   2.0000      -8.064562      -219.4479
  72   2.0000      -8.061468      -219.3637
  73   2.0000      -8.054634      -219.1777
  74   2.0000      -8.050223      -219.0577
  75   2.0000      -8.044411      -218.8996
  76   2.0000      -8.042797      -218.8556
  77   2.0000      -8.041918      -218.8317
  78   2.0000      -6.611855      -179.9177
  79   2.0000      -6.597417      -179.5248
  80   2.0000      -6.597265      -179.5207
  81   2.0000      -6.037299      -164.2832
  82   2.0000      -6.035164      -164.2252
  83   2.0000      -6.034040      -164.1946
  84   2.0000      -6.033134      -164.1699
  85   2.0000      -6.031229      -164.1181
  86   2.0000      -6.030796      -164.1063
  87   2.0000      -6.029634      -164.0747
  88   2.0000      -6.029517      -164.0715
  89   2.0000      -6.027481      -164.0161
  90   2.0000      -6.026829      -163.9984
  91   2.0000      -6.026300      -163.9839
  92   2.0000      -6.024199      -163.9268
  93   2.0000      -6.023391      -163.9048
  94   2.0000      -6.020083      -163.8148
  95   2.0000      -6.019912      -163.8101
  96   2.0000      -6.015805      -163.6984
  97   2.0000      -6.015676      -163.6949
  98   2.0000      -6.014119      -163.6525
  99   2.0000      -6.012603      -163.6112
 100   2.0000      -6.011445      -163.5797
 101   2.0000      -6.011429      -163.5793
 102   2.0000      -6.010145      -163.5444
 103   2.0000      -6.008655      -163.5038
 104   2.0000      -6.007397      -163.4696
 105   2.0000      -6.005307      -163.4127
 106   2.0000      -6.003386      -163.3604
 107   2.0000      -6.003295      -163.3580
 108   2.0000      -2.727727       -74.2252
 109   2.0000      -2.723667       -74.1147
 110   2.0000      -2.723600       -74.1129
 111   2.0000      -2.712101       -73.8000
 112   2.0000      -2.712088       -73.7997
 113   2.0000      -1.096425       -29.8352
 114   2.0000      -1.077776       -29.3278
 115   2.0000      -1.076451       -29.2917
 116   2.0000      -1.004697       -27.3392
 117   2.0000      -0.998675       -27.1753
 118   2.0000      -0.997361       -27.1396
 119   2.0000      -0.987869       -26.8813
 120   2.0000      -0.986035       -26.8314
 121   2.0000      -0.982952       -26.7475
 122   2.0000      -0.976305       -26.5666
 123   2.0000      -0.975841       -26.5540
 124   2.0000      -0.965624       -26.2760
 125   2.0000      -0.960689       -26.1417
 126   2.0000      -0.930800       -25.3283
 127   2.0000      -0.919316       -25.0159
 128   2.0000      -0.917577       -24.9685
 129   2.0000      -0.901260       -24.5245
 130   2.0000      -0.898935       -24.4613
 131   2.0000      -0.888047       -24.1650
 132   2.0000      -0.884180       -24.0597
 133   2.0000      -0.880888       -23.9702
 134   2.0000      -0.876988       -23.8641
 135   2.0000      -0.861549       -23.4440
 136   2.0000      -0.859448       -23.3868
 137   2.0000      -0.851813       -23.1790
 138   2.0000      -0.851136       -23.1606
 139   2.0000      -0.849827       -23.1250
 140   2.0000      -0.837663       -22.7940
 141   2.0000      -0.832474       -22.6528
 142   2.0000      -0.827331       -22.5128
 143   2.0000      -0.824370       -22.4323
 144   2.0000      -0.823937       -22.4205
 145   2.0000      -0.814263       -22.1572
 146   2.0000      -0.804952       -21.9039
 147   2.0000      -0.798633       -21.7319
 148   2.0000      -0.781679       -21.2706
 149   2.0000      -0.765291       -20.8246
 150   2.0000      -0.749631       -20.3985
 151   2.0000      -0.734561       -19.9884
 152   2.0000      -0.729722       -19.8567
 153   2.0000      -0.718520       -19.5519
 154   2.0000      -0.714949       -19.4547
 155   2.0000      -0.705682       -19.2026
 156   2.0000      -0.699743       -19.0410
 157   2.0000      -0.693239       -18.8640
 158   2.0000      -0.690496       -18.7893
 159   2.0000      -0.673282       -18.3209
 160   2.0000      -0.672177       -18.2909
 161   2.0000      -0.668146       -18.1812
 162   2.0000      -0.661698       -18.0057
 163   2.0000      -0.648284       -17.6407
 164   2.0000      -0.646810       -17.6006
 165   2.0000      -0.638727       -17.3806
 166   2.0000      -0.637840       -17.3565
 167   2.0000      -0.632278       -17.2052
 168   2.0000      -0.627528       -17.0759
 169   2.0000      -0.626493       -17.0477
 170   2.0000      -0.618053       -16.8181
 171   2.0000      -0.615150       -16.7391
 172   2.0000      -0.608083       -16.5468
 173   2.0000      -0.605427       -16.4745
 174   2.0000      -0.604164       -16.4401
 175   2.0000      -0.596774       -16.2391
 176   2.0000      -0.592440       -16.1211
 177   2.0000      -0.573454       -15.6045
 178   2.0000      -0.571614       -15.5544
 179   2.0000      -0.568357       -15.4658
 180   2.0000      -0.564808       -15.3692
 181   2.0000      -0.562150       -15.2969
 182   2.0000      -0.559988       -15.2380
 183   2.0000      -0.549912       -14.9639
 184   2.0000      -0.544494       -14.8164
 185   2.0000      -0.539987       -14.6938
 186   2.0000      -0.536220       -14.5913
 187   2.0000      -0.535061       -14.5598
 188   2.0000      -0.533344       -14.5130
 189   2.0000      -0.530360       -14.4318
 190   2.0000      -0.529993       -14.4218
 191   2.0000      -0.523210       -14.2373
 192   2.0000      -0.517829       -14.0908
 193   2.0000      -0.517390       -14.0789
 194   2.0000      -0.511196       -13.9103
 195   2.0000      -0.509134       -13.8542
 196   2.0000      -0.508157       -13.8277
 197   2.0000      -0.504147       -13.7185
 198   2.0000      -0.503092       -13.6898
 199   2.0000      -0.500751       -13.6261
 200   2.0000      -0.499486       -13.5917
 201   2.0000      -0.499032       -13.5794
 202   2.0000      -0.491695       -13.3797
 203   2.0000      -0.489416       -13.3177
 204   2.0000      -0.484700       -13.1893
 205   2.0000      -0.482853       -13.1391
 206   2.0000      -0.480532       -13.0759
 207   2.0000      -0.478824       -13.0295
 208   2.0000      -0.472604       -12.8602
 209   2.0000      -0.470517       -12.8034
 210   2.0000      -0.469103       -12.7649
 211   2.0000      -0.468822       -12.7573
 212   2.0000      -0.467170       -12.7123
 213   2.0000      -0.464078       -12.6282
 214   2.0000      -0.462754       -12.5922
 215   2.0000      -0.460380       -12.5276
 216   2.0000      -0.458178       -12.4677
 217   2.0000      -0.454034       -12.3549
 218   2.0000      -0.450021       -12.2457
 219   2.0000      -0.446579       -12.1520
 220   2.0000      -0.445710       -12.1284
 221   2.0000      -0.438382       -11.9290
 222   2.0000      -0.436771       -11.8851
 223   2.0000      -0.434633       -11.8270
 224   2.0000      -0.434297       -11.8178
 225   2.0000      -0.434061       -11.8114
 226   2.0000      -0.428566       -11.6619
 227   2.0000      -0.425140       -11.5687
 228   2.0000      -0.424914       -11.5625
 229   2.0000      -0.423738       -11.5305
 230   2.0000      -0.421463       -11.4686
 231   2.0000      -0.420731       -11.4487
 232   2.0000      -0.416959       -11.3460
 233   2.0000      -0.415833       -11.3154
 234   2.0000      -0.414992       -11.2925
 235   2.0000      -0.402691       -10.9578
 236   2.0000      -0.401226       -10.9179
 237   2.0000      -0.399811       -10.8794
 238   2.0000      -0.399356       -10.8670
 239   2.0000      -0.395947       -10.7743
 240   2.0000      -0.394392       -10.7320
 241   2.0000      -0.382832       -10.4174
 242   2.0000      -0.379592       -10.3292
 243   2.0000      -0.366781        -9.9806
 244   2.0000      -0.365607        -9.9487
 245   2.0000      -0.360420        -9.8075
 246   2.0000      -0.358671        -9.7599
 247   2.0000      -0.358312        -9.7502
 248   2.0000      -0.357092        -9.7170
 249   2.0000      -0.353517        -9.6197
 250   2.0000      -0.342827        -9.3288
 251   2.0000      -0.341324        -9.2879
 252   2.0000      -0.338298        -9.2056
 253   2.0000      -0.332480        -9.0472
 254   2.0000      -0.324037        -8.8175
 255   2.0000      -0.321425        -8.7464
 256   2.0000      -0.319542        -8.6952
 257   2.0000      -0.318332        -8.6623
 258   2.0000      -0.304815        -8.2944
 259   2.0000      -0.304318        -8.2809
 260   2.0000      -0.291684        -7.9371
 261   2.0000      -0.280999        -7.6464
 262   2.0000      -0.270156        -7.3513
 263   2.0000      -0.252899        -6.8817
 264   2.0000      -0.218906        -5.9567
 265   2.0000      -0.198835        -5.4106
 266   0.0000      -0.109896        -2.9904
 267   0.0000      -0.083789        -2.2800
 268   0.0000      -0.053881        -1.4662
 269   0.0000      -0.039614        -1.0780
 270   0.0000      -0.025257        -0.6873

MULLIKEN ATOMIC CHARGES
-----------------------
   0 C :    0.333806
   1 C :   -0.378120
   2 C :   -0.195955
   3 N :    0.124547
   4 C :   -0.189747
   5 N :    0.113166
   6 C :    0.009652
   7 C :   -0.005594
   8 C :   -0.081736
   9 C :    0.117551
  10 C :   -0.093342
  11 C :   -0.027595
  12 S :    0.172006
  13 C :   -0.124046
  14 C :    0.035285
  15 Br:    0.005880
  16 C :    0.130188
  17 O :   -0.171209
  18 C :   -0.092722
  19 C :   -0.050226
  20 C :   -0.024042
  21 C :    0.006973
  22 C :    0.015776
  23 C :    0.040574
  24 C :   -0.056250
  25 S :    0.091614
  26 C :   -0.010998
  27 C :    0.016260
  28 C :    0.044924
  29 C :   -0.053744
  30 S :    0.094477
  31 C :    0.061179
  32 C :   -0.226268
  33 S :    0.140146
  34 C :   -0.102487
  35 C :    0.043789
  36 C :    0.007002
  37 S :    0.147688
  38 C :    0.029310
  39 N :   -0.055813
  40 C :   -0.010401
  41 C :    0.074475
  42 C :   -0.186981
  43 S :    0.162039
  44 C :   -0.111802
  45 C :    0.063587
  46 C :   -0.010815
  47 S :    0.093748
  48 C :    0.023429
  49 N :   -0.045046
  50 C :   -0.006381
  51 C :    0.020197
  52 C :   -0.018397
  53 C :   -0.012846
  54 C :    0.032669
  55 C :    0.028069
  56 C :   -0.048736
  57 S :    0.089491
  58 C :   -0.063438
  59 C :    0.027567
  60 C :    0.056299
  61 C :   -0.065607
  62 S :    0.088942
  63 C :   -0.026133
  64 H :   -0.019297
  65 H :   -0.013427
  66 H :   -0.008770
  67 H :    0.014238
  68 H :    0.009899
  69 H :   -0.007123
  70 H :   -0.010443
  71 H :   -0.010733
  72 H :   -0.007002
  73 H :   -0.006621
  74 H :    0.059545
  75 H :   -0.035222
  76 H :    0.000813
  77 H :    0.047063
  78 H :   -0.024659
  79 H :    0.021078
  80 H :   -0.015478
  81 H :   -0.010820
  82 H :   -0.010732
  83 H :   -0.008647
  84 H :   -0.008501
  85 H :    0.023831
  86 H :    0.025177
Sum of atomic charges:   -0.0000000

LOEWDIN ATOMIC CHARGES
----------------------
   0 C :    0.073009
   1 C :   -0.171689
   2 C :   -0.019714
   3 N :   -0.083048
   4 C :   -0.018540
   5 N :   -0.088718
   6 C :   -0.016339
   7 C :   -0.046754
   8 C :    0.013294
   9 C :   -0.038691
  10 C :   -0.147435
  11 C :   -0.016932
  12 S :    0.421722
  13 C :   -0.277739
  14 C :   -0.071507
  15 Br:    0.123095
  16 C :    0.079196
  17 O :   -0.166466
  18 C :   -0.122210
  19 C :    0.041728
  20 C :   -0.082208
  21 C :   -0.103490
  22 C :   -0.057053
  23 C :   -0.010812
  24 C :   -0.207898
  25 S :    0.413605
  26 C :   -0.142238
  27 C :   -0.055058
  28 C :   -0.010438
  29 C :   -0.180586
  30 S :    0.408558
  31 C :   -0.036794
  32 C :   -0.206035
  33 S :    0.441257
  34 C :   -0.138708
  35 C :   -0.074527
  36 C :   -0.194001
  37 S :    0.427484
  38 C :   -0.091699
  39 N :   -0.085286
  40 C :   -0.075575
  41 C :   -0.003115
  42 C :   -0.202561
  43 S :    0.454931
  44 C :   -0.150021
  45 C :   -0.073903
  46 C :   -0.190787
  47 S :    0.391421
  48 C :   -0.097747
  49 N :   -0.076681
  50 C :   -0.057743
  51 C :    0.000215
  52 C :   -0.065488
  53 C :   -0.133524
  54 C :   -0.037993
  55 C :   -0.024942
  56 C :   -0.183852
  57 S :    0.382630
  58 C :   -0.169926
  59 C :   -0.027262
  60 C :   -0.026331
  61 C :   -0.140179
  62 S :    0.359971
  63 C :   -0.067759
  64 H :    0.037155
  65 H :    0.038912
  66 H :    0.036427
  67 H :    0.028261
  68 H :    0.036661
  69 H :    0.035640
  70 H :    0.033169
  71 H :    0.033387
  72 H :    0.035414
  73 H :    0.039099
  74 H :    0.028221
  75 H :    0.015905
  76 H :    0.035152
  77 H :    0.022006
  78 H :    0.028261
  79 H :    0.027413
  80 H :    0.032063
  81 H :    0.034203
  82 H :    0.032322
  83 H :    0.033351
  84 H :    0.034777
  85 H :    0.030338
  86 H :    0.027747

  Mayer bond orders larger than 0.100000
B(  0-C ,  1-C ) :   1.5446 B(  0-C ,  6-C ) :   0.9805 B(  0-C , 18-C ) :   1.1516
B(  1-C ,  2-C ) :   1.1565 B(  1-C ,  4-C ) :   1.1610 B(  2-C ,  3-N ) :   2.9568
B(  4-C ,  5-N ) :   2.9566 B(  6-C ,  7-C ) :   1.2810 B(  6-C , 11-C ) :   1.4274
B(  7-C ,  8-C ) :   1.4358 B(  7-C , 16-C ) :   0.9285 B(  8-C ,  9-C ) :   1.2346
B(  8-C , 64-H ) :   1.0158 B(  9-C , 10-C ) :   1.3248 B(  9-C , 14-C ) :   1.1583
B( 10-C , 11-C ) :   1.3143 B( 10-C , 12-S ) :   1.0796 B( 11-C , 65-H ) :   0.9787
B( 12-S , 13-C ) :   1.0847 B( 13-C , 14-C ) :   1.6215 B( 13-C , 15-Br) :   1.0079
B( 14-C , 66-H ) :   1.0004 B( 16-C , 17-O ) :   2.1861 B( 16-C , 18-C ) :   0.9800
B( 18-C , 19-C ) :   1.4121 B( 19-C , 20-C ) :   1.3297 B( 19-C , 67-H ) :   0.9399
B( 20-C , 21-C ) :   1.3443 B( 20-C , 68-H ) :   0.9825 B( 21-C , 22-C ) :   1.2308
B( 21-C , 25-S ) :   1.1026 B( 22-C , 23-C ) :   1.4768 B( 22-C , 69-H ) :   1.0013
B( 23-C , 24-C ) :   1.2772 B( 23-C , 70-H ) :   0.9950 B( 24-C , 25-S ) :   1.0517
B( 24-C , 26-C ) :   1.3803 B( 26-C , 27-C ) :   1.2506 B( 26-C , 30-S ) :   1.1089
B( 27-C , 28-C ) :   1.5123 B( 27-C , 71-H ) :   0.9938 B( 28-C , 29-C ) :   1.2116
B( 28-C , 72-H ) :   0.9990 B( 29-C , 30-S ) :   1.0292 B( 29-C , 31-C ) :   1.4968
B( 31-C , 32-C ) :   1.2853 B( 31-C , 73-H ) :   0.9433 B( 32-C , 33-S ) :   1.0752
B( 32-C , 36-C ) :   1.3781 B( 33-S , 34-C ) :   1.1368 B( 34-C , 35-C ) :   1.3232
B( 34-C , 40-C ) :   1.2504 B( 35-C , 36-C ) :   1.3043 B( 35-C , 39-N ) :   1.3121
B( 36-C , 37-S ) :   1.0796 B( 37-S , 38-C ) :   1.1021 B( 38-C , 39-N ) :   1.7498
B( 38-C , 74-H ) :   0.9646 B( 40-C , 41-C ) :   1.5408 B( 40-C , 75-H ) :   0.9471
B( 41-C , 42-C ) :   1.2375 B( 41-C , 76-H ) :   0.9373 B( 42-C , 43-S ) :   1.0927
B( 42-C , 46-C ) :   1.4158 B( 43-S , 44-C ) :   1.1331 B( 44-C , 45-C ) :   1.3349
B( 44-C , 50-C ) :   1.2067 B( 45-C , 46-C ) :   1.2995 B( 45-C , 49-N ) :   1.3064
B( 46-C , 47-S ) :   1.0759 B( 47-S , 48-C ) :   1.0816 B( 47-S , 49-N ) :   0.1020
B( 48-C , 49-N ) :   1.7734 B( 48-C , 77-H ) :   0.9637 B( 50-C , 51-C ) :   1.5527
B( 50-C , 78-H ) :   0.9639 B( 51-C , 52-C ) :   1.2064 B( 51-C , 79-H ) :   0.9553
B( 52-C , 53-C ) :   1.5037 B( 52-C , 80-H ) :   0.9847 B( 53-C , 54-C ) :   1.1585
B( 53-C , 57-S ) :   1.0519 B( 54-C , 55-C ) :   1.5779 B( 54-C , 81-H ) :   1.0003
B( 55-C , 56-C ) :   1.1898 B( 55-C , 82-H ) :   0.9935 B( 56-C , 57-S ) :   1.0376
B( 56-C , 58-C ) :   1.5289 B( 58-C , 59-C ) :   1.1591 B( 58-C , 62-S ) :   1.0553
B( 59-C , 60-C ) :   1.6558 B( 59-C , 83-H ) :   0.9916 B( 60-C , 61-C ) :   1.0813
B( 60-C , 84-H ) :   0.9937 B( 61-C , 62-S ) :   1.0070 B( 61-C , 63-C ) :   1.8585
B( 63-C , 85-H ) :   0.9516 B( 63-C , 86-H ) :   0.9424

-----------------------------------------------------------------------------
         ABSORPTION SPECTRUM VIA TRANSITION ELECTRIC DIPOLE MOMENTS
-----------------------------------------------------------------------------
State   Energy  Wavelength   fosc         T2         TX        TY        TZ
        (cm-1)    (nm)                  (au**2)     (au)      (au)      (au)
-----------------------------------------------------------------------------
   0    7310.3   1367.9   1.654945228  74.52863   5.10542   5.84800  -3.77680
   1   13005.1    768.9   0.939412859  23.78042  -0.21666   4.81686   0.72893
   2   14471.8    691.0   0.165546303   3.76594  -0.47803  -1.87925  -0.07651
   3   18676.8    535.4   0.064513482   1.13717  -1.05142   0.05139  -0.17039
   4   19357.3    516.6   0.621525041  10.57035  -2.47060   2.04309  -0.54061
   5   20585.6    485.8   0.179603978   2.87229   0.33890  -1.56575   0.55304
   6   21832.8    458.0   0.122132527   1.84161   1.20609  -0.61954  -0.05582
   7   23331.2    428.6   0.032785539   0.46262   0.35275  -0.23345  -0.53262
   8   24428.1    409.4   0.137141474   1.84822  -1.18111  -0.23085   0.63239
   9   25371.9    394.1   0.064587399   0.83805  -0.58400   0.68753   0.15592
  10   26093.7    383.2   0.097721616   1.23291   1.10983  -0.00890  -0.03337
  11   26647.1    375.3   0.031505489   0.38924   0.23110  -0.43962  -0.37757
  12   26772.5    373.5   0.130614165   1.60612   1.23991  -0.25800   0.04666
  13   26994.9    370.4   0.000279213   0.00341   0.00594   0.04305   0.03894
  14   28524.5    350.6   0.006446540   0.07440  -0.16594   0.20239  -0.07685
  15   29485.7    339.1   0.010172882   0.11358   0.05615  -0.05522   0.32769
  16   29603.7    337.8   0.045383822   0.50470   0.45007   0.29994  -0.46062
  17   30269.4    330.4   0.039577558   0.43045   0.46327  -0.41342  -0.21194
  18   30504.2    327.8   0.289752400   3.12711  -1.63895   0.62069  -0.23598
  19   30850.4    324.1   0.086161822   0.91945  -0.56913  -0.34709   0.68926
  20   31386.3    318.6   0.003756614   0.03940  -0.19357  -0.04190  -0.01340
  21   31505.4    317.4   0.002222019   0.02322  -0.12375   0.00582   0.08872
  22   31608.4    316.4   0.183683647   1.91312   1.10775   0.13083  -0.81786
  23   31697.0    315.5   0.010660756   0.11072   0.27594  -0.13034  -0.13263
  24   31927.9    313.2   0.294839879   3.04012  -1.69057   0.35619   0.23501
  25   32301.2    309.6   0.069185720   0.70514  -0.66420  -0.00460   0.51376
  26   32551.8    307.2   0.103602974   1.04779  -0.86693   0.10603   0.53382
  27   32781.2    305.1   0.005010838   0.05032  -0.15473   0.04627   0.15569
  28   33028.6    302.8   0.146609170   1.46132   0.96145  -0.08815  -0.72743
  29   33159.1    301.6   0.038975747   0.38696  -0.42396   0.04821   0.45265
  30   33870.3    295.2   0.011421938   0.11102  -0.31901  -0.09615   0.00244
  31   33977.8    294.3   0.007016942   0.06799   0.02717  -0.11573   0.23207
  32   34842.5    287.0   0.050577304   0.47788   0.61973  -0.09514  -0.29114
  33   34918.6    286.4   0.008387368   0.07908  -0.21775   0.17791   0.00240
  34   35354.4    282.9   0.019929025   0.18557   0.06322  -0.42568   0.01943
  35   35602.0    280.9   0.078626393   0.72706  -0.46679  -0.58125   0.41391
  36   35748.8    279.7   0.006938012   0.06389   0.06113   0.18230  -0.16408
  37   36039.1    277.5   0.093607604   0.85509  -0.35935  -0.57978   0.62435
  38   36109.3    276.9   0.051820341   0.47245  -0.16414  -0.38902   0.54238
  39   36975.8    270.4   0.154913347   1.37926  -0.61933  -0.73944   0.67002
  40   37132.9    269.3   0.028157190   0.24964   0.39520   0.28473   0.11128
  41   37579.6    266.1   0.152151827   1.33291  -1.09870  -0.29810   0.19212
  42   37729.9    265.0   0.032651428   0.28490  -0.28941   0.05007  -0.44568
  43   37852.0    264.2   0.005079465   0.04418  -0.17769   0.05082  -0.10010
  44   37988.5    263.2   0.070542039   0.61132  -0.01725  -0.71771   0.30971
  45   38104.9    262.4   0.012196433   0.10537   0.20103   0.23959  -0.08693
  46   38454.3    260.0   0.000296643   0.00254   0.01680   0.02639  -0.03951
  47   38616.9    259.0   0.017192949   0.14657  -0.24824  -0.29020   0.02707
  48   38746.8    258.1   0.007135835   0.06063  -0.19354  -0.12173   0.09141
  49   39112.7    255.7   0.017167967   0.14450   0.33769  -0.15951  -0.07089
  50   39216.3    255.0   0.071536253   0.60053   0.38626  -0.65651   0.14256
  51   39581.6    252.6   0.064602678   0.53732   0.13111   0.65624  -0.29913
  52   39733.7    251.7   0.039729552   0.32918  -0.18427   0.52522  -0.13917
  53   40023.0    249.9   0.015308210   0.12592   0.15342   0.27249  -0.16773
  54   40089.3    249.4   0.000192045   0.00158   0.03740   0.00610   0.01188

FINAL SINGLE POINT ENERGY     -8328.968727592144

DIPOLE MOMENT
-------------
                                X             Y             Z
Electronic contribution:    156.75342      66.82185     -99.17142
Nuclear contribution   :   -162.00829     -68.97371     101.65345
                        -----------------------------------------
Total Dipole Moment    :     -5.25487      -2.15186       2.48202
                        -----------------------------------------
Magnitude (a.u.)       :      6.19714
Magnitude (Debye)      :     15.75188

Rotational constants in cm-1:     0.000981     0.000186     0.000160
Rotational constants in MHz :    29.413804     5.564247     4.785015

                             ****ORCA TERMINATED NORMALLY****
TOTAL RUN TIME: 0 days 0 hours 14 minutes 47 seconds 13 msec
