                         Program Version 4.2.0 -  RELEASE  -
|  1> # ORCA input file
|  2> # SCF done       -167.019877175659          0.000520020386
|  3> ! CAM-B3LYP def2-SVP def2/J RIJCOSX Grid4 TightSCF
|  4> %maxcore 5000
|  5> %tddft
|  6>     Mode sTDDFT
|  7>     Ethresh 5.0
|  8>     maxcore 5000
|  9> end
| 10>
| 11> %pal
| 12>   nprocs 6
| 13>   end
| 14> * xyz 0 1
| 15>    C      -12.71599        -0.40768         1.26502
| 16>    C      -14.06182        -0.16458         1.12975
| 17>    C      -15.06151        -0.86278         1.83604
| 18>    N      -15.92389        -1.38839         2.38344
| 19>    C      -14.64784         0.76111         0.24254
| 20>    N      -15.21512         1.46884        -0.46314
| 21>    C      -12.13368        -1.45057         2.09736
| 22>    C      -10.74554        -1.51652         1.82929
| 23>    C       -9.90996        -2.40811         2.45567
| 24>    C      -10.47069        -3.27366         3.40133
| 25>    C      -11.85815        -3.19741         3.66691
| 26>    C      -12.70431        -2.29959         3.02817
| 27>    S      -12.34164        -4.35043         4.87437
| 28>    C      -10.69538        -4.91194         5.00210
| 29>    C       -9.82726        -4.27065         4.18470
| 30>   Br      -10.27808        -6.28996         6.20475
| 31>    C      -10.38957        -0.50211         0.81651
| 32>    O       -9.28477        -0.34989         0.33562
| 33>    C      -11.63460         0.25477         0.55549
| 34>    C      -11.78485         1.45125        -0.09351
| 35>    C      -10.87093         2.22459        -0.84152
| 36>    S      -11.40785         3.84743        -1.28392
| 37>    C       -9.92623         4.14950        -2.12608
| 38>    C       -9.07152         3.02594        -2.07551
| 39>    C       -9.61936         1.95584        -1.34929
| 40>    C       -7.83418         3.11079        -2.75153
| 41>    C       -7.50196         4.31176        -3.39574
| 42>    S       -5.97503         4.17144        -4.22041
| 43>    C       -5.79828         2.54327        -3.67181
| 44>    C       -6.83321         2.11604        -2.91452
| 45>    C       -8.34626         5.43578        -3.40279
| 46>    C       -9.57950         5.32572        -2.78015
| 47>    C       -7.97575         6.68332        -4.07331
| 48>    C       -6.87559         7.39963        -3.84774
| 49>    C       -5.84111         7.07081        -2.81799
| 50>    C       -6.58959         8.63326        -4.67543
| 51>    N       -5.56317         8.37710        -5.66017
| 52>    C       -5.81901         7.76332        -6.83470
| 53>    C       -4.86587         7.30335        -7.68874
| 54>    C       -5.16912         6.74931        -8.94388
| 55>    C       -4.24461         6.32580        -9.86375
| 56>    C       -4.50280         5.78078       -11.14310
| 57>    C       -3.38602         5.47644       -11.86198
| 58>    C       -2.17628         5.75973       -11.19234
| 59>    S       -2.50403         6.42265        -9.60618
| 60>    C       -0.88867         5.57391       -11.66227
| 61>    C       -0.49272         5.06779       -12.91801
| 62>    C        0.85718         5.01026       -13.08964
| 63>    C        1.61665         5.46329       -11.98173
| 64>    S        0.52063         5.97398       -10.70413
| 65>    C        2.98725         5.48577       -11.92994
| 66>    C        3.84238         5.89742       -10.88725
| 67>    C        5.24037         5.84320       -10.95234
| 68>    C        5.77545         6.31762        -9.73236
| 69>    C        7.07244         6.45729        -9.28664
| 70>    C        7.26791         6.96230        -7.99238
| 71>    C        8.42106         7.21302        -7.26101
| 72>    C        8.06150         7.72889        -5.97825
| 73>    C        6.68001         7.79891        -5.91619
| 74>    C        6.14120         7.32888        -7.15260
| 75>    C        4.85011         7.19317        -7.59154
| 76>    C        4.64932         6.68169        -8.89024
| 77>    C        3.49028         6.42381        -9.59882
| 78>    C        9.02706         8.09212        -4.96842
| 79>    C        8.74189         8.57237        -3.76096
| 80>    H       -8.85614        -2.43598         2.22659
| 81>    H      -13.75381        -2.27777         3.26896
| 82>    H       -8.77614        -4.48926         4.13561
| 83>    H      -12.75877         1.91877        -0.00431
| 84>    H       -9.12117         1.01795        -1.19323
| 85>    H       -4.91821         2.00044        -3.95607
| 86>    H       -6.89924         1.13293        -2.48594
| 87>    H      -10.26168         6.16150        -2.78492
| 88>    H       -8.70917         7.04887        -4.78202
| 89>    H       -5.58091         7.96751        -2.25636
| 90>    H       -4.93321         6.69228        -3.28779
| 91>    H       -6.20354         6.31885        -2.12326
| 92>    H       -6.24900         9.45145        -4.03453
| 93>    H       -7.49199         8.95397        -5.20167
| 94>    H       -4.61224         8.33454        -5.32393
| 95>    H       -6.86472         7.70292        -7.10347
| 96>    H       -3.82241         7.37594        -7.41217
| 97>    H       -6.21218         6.65583        -9.21750
| 98>    H       -5.50954         5.63475       -11.49382
| 99>    H       -3.40074         5.05887       -12.85271
|100>    H       -1.20905         4.76191       -13.65931
|101>    H        1.33888         4.65281       -13.98308
|102>    H        3.48697         5.12569       -12.82225
|103>    H        5.81381         5.49390       -11.79147
|104>    H        7.91585         6.18690        -9.90654
|105>    H        9.43102         7.04868        -7.59344
|106>    H        6.09156         8.14442        -5.08692
|107>    H        4.00472         7.46247        -6.97363
|108>    H        2.48938         6.58956        -9.24626
|109>    H       10.06247         7.94800        -5.25296
|110>    H        7.72875         8.73297        -3.43462
|111>    H        9.51567         8.82325        -3.05620
|112> *
|113>
|114>                          ****END OF INPUT****

CARTESIAN COORDINATES (ANGSTROEM)
---------------------------------
  C    -12.715990   -0.407680    1.265020
  C    -14.061820   -0.164580    1.129750
  C    -15.061510   -0.862780    1.836040
  N    -15.923890   -1.388390    2.383440
  C    -14.647840    0.761110    0.242540
  N    -15.215120    1.468840   -0.463140
  C    -12.133680   -1.450570    2.097360
  C    -10.745540   -1.516520    1.829290
  C     -9.909960   -2.408110    2.455670
  C    -10.470690   -3.273660    3.401330
  C    -11.858150   -3.197410    3.666910
  C    -12.704310   -2.299590    3.028170
  S    -12.341640   -4.350430    4.874370
  C    -10.695380   -4.911940    5.002100
  C     -9.827260   -4.270650    4.184700
  Br   -10.278080   -6.289960    6.204750
  C    -10.389570   -0.502110    0.816510
  O     -9.284770   -0.349890    0.335620
  C    -11.634600    0.254770    0.555490
  C    -11.784850    1.451250   -0.093510
  C    -10.870930    2.224590   -0.841520
  S    -11.407850    3.847430   -1.283920
  C     -9.926230    4.149500   -2.126080
  C     -9.071520    3.025940   -2.075510
  C     -9.619360    1.955840   -1.349290
  C     -7.834180    3.110790   -2.751530
  C     -7.501960    4.311760   -3.395740
  S     -5.975030    4.171440   -4.220410
  C     -5.798280    2.543270   -3.671810
  C     -6.833210    2.116040   -2.914520
  C     -8.346260    5.435780   -3.402790
  C     -9.579500    5.325720   -2.780150
  C     -7.975750    6.683320   -4.073310
  C     -6.875590    7.399630   -3.847740
  C     -5.841110    7.070810   -2.817990
  C     -6.589590    8.633260   -4.675430
  N     -5.563170    8.377100   -5.660170
  C     -5.819010    7.763320   -6.834700
  C     -4.865870    7.303350   -7.688740
  C     -5.169120    6.749310   -8.943880
  C     -4.244610    6.325800   -9.863750
  C     -4.502800    5.780780  -11.143100
  C     -3.386020    5.476440  -11.861980
  C     -2.176280    5.759730  -11.192340
  S     -2.504030    6.422650   -9.606180
  C     -0.888670    5.573910  -11.662270
  C     -0.492720    5.067790  -12.918010
  C      0.857180    5.010260  -13.089640
  C      1.616650    5.463290  -11.981730
  S      0.520630    5.973980  -10.704130
  C      2.987250    5.485770  -11.929940
  C      3.842380    5.897420  -10.887250
  C      5.240370    5.843200  -10.952340
  C      5.775450    6.317620   -9.732360
  C      7.072440    6.457290   -9.286640
  C      7.267910    6.962300   -7.992380
  C      8.421060    7.213020   -7.261010
  C      8.061500    7.728890   -5.978250
  C      6.680010    7.798910   -5.916190
  C      6.141200    7.328880   -7.152600
  C      4.850110    7.193170   -7.591540
  C      4.649320    6.681690   -8.890240
  C      3.490280    6.423810   -9.598820
  C      9.027060    8.092120   -4.968420
  C      8.741890    8.572370   -3.760960
  H     -8.856140   -2.435980    2.226590
  H    -13.753810   -2.277770    3.268960
  H     -8.776140   -4.489260    4.135610
  H    -12.758770    1.918770   -0.004310
  H     -9.121170    1.017950   -1.193230
  H     -4.918210    2.000440   -3.956070
  H     -6.899240    1.132930   -2.485940
  H    -10.261680    6.161500   -2.784920
  H     -8.709170    7.048870   -4.782020
  H     -5.580910    7.967510   -2.256360
  H     -4.933210    6.692280   -3.287790
  H     -6.203540    6.318850   -2.123260
  H     -6.249000    9.451450   -4.034530
  H     -7.491990    8.953970   -5.201670
  H     -4.612240    8.334540   -5.323930
  H     -6.864720    7.702920   -7.103470
  H     -3.822410    7.375940   -7.412170
  H     -6.212180    6.655830   -9.217500
  H     -5.509540    5.634750  -11.493820
  H     -3.400740    5.058870  -12.852710
  H     -1.209050    4.761910  -13.659310
  H      1.338880    4.652810  -13.983080
  H      3.486970    5.125690  -12.822250
  H      5.813810    5.493900  -11.791470
  H      7.915850    6.186900   -9.906540
  H      9.431020    7.048680   -7.593440
  H      6.091560    8.144420   -5.086920
  H      4.004720    7.462470   -6.973630
  H      2.489380    6.589560   -9.246260
  H     10.062470    7.948000   -5.252960
  H      7.728750    8.732970   -3.434620
  H      9.515670    8.823250   -3.056200

 Total Charge           Charge          ....    0
 Multiplicity           Mult            ....    1
 Number of Electrons    NEL             ....  506
 Basis Dimension        Dim             .... 1108

ORBITAL ENERGIES
----------------

  NO   OCC          E(Eh)            E(eV)
   0   2.0000    -482.887165    -13140.0278
   1   2.0000     -88.977042     -2421.1884
   2   2.0000     -88.959966     -2420.7237
   3   2.0000     -88.958174     -2420.6750
   4   2.0000     -88.922831     -2419.7132
   5   2.0000     -88.922581     -2419.7064
   6   2.0000     -62.564860     -1702.4764
   7   2.0000     -56.398817     -1534.6898
   8   2.0000     -56.396091     -1534.6156
   9   2.0000     -56.396062     -1534.6149
  10   2.0000     -19.222029      -523.0580
  11   2.0000     -14.438020      -392.8785
  12   2.0000     -14.415967      -392.2784
  13   2.0000     -14.415374      -392.2623
  14   2.0000     -10.373146      -282.2676
  15   2.0000     -10.360664      -281.9280
  16   2.0000     -10.343086      -281.4497
  17   2.0000     -10.342530      -281.4346
  18   2.0000     -10.327323      -281.0207
  19   2.0000     -10.325809      -280.9795
  20   2.0000     -10.319326      -280.8031
  21   2.0000     -10.318705      -280.7862
  22   2.0000     -10.318293      -280.7750
  23   2.0000     -10.316616      -280.7294
  24   2.0000     -10.314068      -280.6601
  25   2.0000     -10.313594      -280.6472
  26   2.0000     -10.309646      -280.5397
  27   2.0000     -10.309562      -280.5375
  28   2.0000     -10.307309      -280.4761
  29   2.0000     -10.305957      -280.4393
  30   2.0000     -10.303955      -280.3849
  31   2.0000     -10.303073      -280.3609
  32   2.0000     -10.302589      -280.3477
  33   2.0000     -10.302340      -280.3409
  34   2.0000     -10.298410      -280.2340
  35   2.0000     -10.294222      -280.1200
  36   2.0000     -10.291873      -280.0561
  37   2.0000     -10.291710      -280.0517
  38   2.0000     -10.291057      -280.0339
  39   2.0000     -10.290704      -280.0243
  40   2.0000     -10.289905      -280.0025
  41   2.0000     -10.289668      -279.9961
  42   2.0000     -10.288475      -279.9636
  43   2.0000     -10.287981      -279.9502
  44   2.0000     -10.283931      -279.8400
  45   2.0000     -10.283360      -279.8245
  46   2.0000     -10.281862      -279.7837
  47   2.0000     -10.280214      -279.7388
  48   2.0000     -10.279606      -279.7223
  49   2.0000     -10.274139      -279.5735
  50   2.0000     -10.273105      -279.5454
  51   2.0000     -10.272292      -279.5233
  52   2.0000     -10.268301      -279.4147
  53   2.0000     -10.266354      -279.3617
  54   2.0000     -10.264808      -279.3196
  55   2.0000     -10.264145      -279.3016
  56   2.0000     -10.263831      -279.2930
  57   2.0000     -10.260749      -279.2092
  58   2.0000     -10.260581      -279.2046
  59   2.0000     -10.259467      -279.1743
  60   2.0000     -10.257246      -279.1139
  61   2.0000     -10.256474      -279.0928
  62   2.0000     -10.256252      -279.0868
  63   2.0000     -10.253344      -279.0077
  64   2.0000     -10.252895      -278.9955
  65   2.0000     -10.252442      -278.9831
  66   2.0000     -10.252174      -278.9758
  67   2.0000     -10.251727      -278.9637
  68   2.0000     -10.248888      -278.8864
  69   2.0000      -8.794272      -239.3043
  70   2.0000      -8.073072      -219.6795
  71   2.0000      -8.055867      -219.2113
  72   2.0000      -8.053622      -219.1502
  73   2.0000      -8.018885      -218.2049
  74   2.0000      -8.018832      -218.2035
  75   2.0000      -6.630598      -180.4277
  76   2.0000      -6.616009      -180.0308
  77   2.0000      -6.615778      -180.0245
  78   2.0000      -6.042771      -164.4322
  79   2.0000      -6.038477      -164.3153
  80   2.0000      -6.034274      -164.2009
  81   2.0000      -6.025286      -163.9564
  82   2.0000      -6.023201      -163.8996
  83   2.0000      -6.021378      -163.8500
  84   2.0000      -6.018758      -163.7787
  85   2.0000      -6.017390      -163.7415
  86   2.0000      -6.015449      -163.6887
  87   2.0000      -5.988675      -162.9601
  88   2.0000      -5.988618      -162.9586
  89   2.0000      -5.984691      -162.8517
  90   2.0000      -5.984662      -162.8509
  91   2.0000      -5.979686      -162.7155
  92   2.0000      -5.979671      -162.7151
  93   2.0000      -2.746437       -74.7344
  94   2.0000      -2.742356       -74.6233
  95   2.0000      -2.742245       -74.6203
  96   2.0000      -2.730622       -74.3040
  97   2.0000      -2.730596       -74.3033
  98   2.0000      -1.136196       -30.9175
  99   2.0000      -1.040191       -28.3050
 100   2.0000      -1.024728       -27.8843
 101   2.0000      -1.014528       -27.6067
 102   2.0000      -1.010915       -27.5084
 103   2.0000      -0.993950       -27.0467
 104   2.0000      -0.991891       -26.9907
 105   2.0000      -0.981896       -26.7188
 106   2.0000      -0.975255       -26.5380
 107   2.0000      -0.971450       -26.4345
 108   2.0000      -0.952514       -25.9192
 109   2.0000      -0.945782       -25.7360
 110   2.0000      -0.945231       -25.7210
 111   2.0000      -0.936289       -25.4777
 112   2.0000      -0.914804       -24.8931
 113   2.0000      -0.909790       -24.7567
 114   2.0000      -0.895920       -24.3792
 115   2.0000      -0.887933       -24.1619
 116   2.0000      -0.887428       -24.1482
 117   2.0000      -0.881953       -23.9992
 118   2.0000      -0.873041       -23.7566
 119   2.0000      -0.862286       -23.4640
 120   2.0000      -0.855569       -23.2812
 121   2.0000      -0.852218       -23.1900
 122   2.0000      -0.839692       -22.8492
 123   2.0000      -0.834593       -22.7104
 124   2.0000      -0.830837       -22.6082
 125   2.0000      -0.822061       -22.3694
 126   2.0000      -0.819714       -22.3055
 127   2.0000      -0.812639       -22.1130
 128   2.0000      -0.804932       -21.9033
 129   2.0000      -0.800483       -21.7823
 130   2.0000      -0.790516       -21.5110
 131   2.0000      -0.787726       -21.4351
 132   2.0000      -0.783919       -21.3315
 133   2.0000      -0.768494       -20.9118
 134   2.0000      -0.762370       -20.7452
 135   2.0000      -0.756352       -20.5814
 136   2.0000      -0.739603       -20.1256
 137   2.0000      -0.735659       -20.0183
 138   2.0000      -0.719657       -19.5829
 139   2.0000      -0.712837       -19.3973
 140   2.0000      -0.701446       -19.0873
 141   2.0000      -0.694503       -18.8984
 142   2.0000      -0.692549       -18.8452
 143   2.0000      -0.688996       -18.7485
 144   2.0000      -0.677116       -18.4253
 145   2.0000      -0.672471       -18.2989
 146   2.0000      -0.662578       -18.0297
 147   2.0000      -0.658130       -17.9086
 148   2.0000      -0.655156       -17.8277
 149   2.0000      -0.653487       -17.7823
 150   2.0000      -0.637037       -17.3347
 151   2.0000      -0.634967       -17.2783
 152   2.0000      -0.629623       -17.1329
 153   2.0000      -0.622341       -16.9348
 154   2.0000      -0.621450       -16.9105
 155   2.0000      -0.613896       -16.7049
 156   2.0000      -0.612203       -16.6589
 157   2.0000      -0.606587       -16.5061
 158   2.0000      -0.605187       -16.4680
 159   2.0000      -0.601465       -16.3667
 160   2.0000      -0.594419       -16.1750
 161   2.0000      -0.590952       -16.0806
 162   2.0000      -0.584593       -15.9076
 163   2.0000      -0.578877       -15.7520
 164   2.0000      -0.572476       -15.5779
 165   2.0000      -0.567573       -15.4445
 166   2.0000      -0.566693       -15.4205
 167   2.0000      -0.565398       -15.3853
 168   2.0000      -0.560109       -15.2413
 169   2.0000      -0.556255       -15.1365
 170   2.0000      -0.551509       -15.0073
 171   2.0000      -0.549033       -14.9399
 172   2.0000      -0.543424       -14.7873
 173   2.0000      -0.541567       -14.7368
 174   2.0000      -0.539919       -14.6919
 175   2.0000      -0.533021       -14.5042
 176   2.0000      -0.525102       -14.2887
 177   2.0000      -0.524280       -14.2664
 178   2.0000      -0.522688       -14.2231
 179   2.0000      -0.519994       -14.1497
 180   2.0000      -0.514970       -14.0131
 181   2.0000      -0.512556       -13.9474
 182   2.0000      -0.509865       -13.8741
 183   2.0000      -0.509206       -13.8562
 184   2.0000      -0.503081       -13.6895
 185   2.0000      -0.500782       -13.6270
 186   2.0000      -0.498229       -13.5575
 187   2.0000      -0.495641       -13.4871
 188   2.0000      -0.495174       -13.4744
 189   2.0000      -0.492622       -13.4049
 190   2.0000      -0.486067       -13.2266
 191   2.0000      -0.484165       -13.1748
 192   2.0000      -0.483109       -13.1461
 193   2.0000      -0.476338       -12.9618
 194   2.0000      -0.475453       -12.9377
 195   2.0000      -0.474810       -12.9202
 196   2.0000      -0.472105       -12.8466
 197   2.0000      -0.471145       -12.8205
 198   2.0000      -0.468989       -12.7618
 199   2.0000      -0.463397       -12.6097
 200   2.0000      -0.460630       -12.5344
 201   2.0000      -0.459959       -12.5161
 202   2.0000      -0.458993       -12.4898
 203   2.0000      -0.453883       -12.3508
 204   2.0000      -0.452993       -12.3266
 205   2.0000      -0.451673       -12.2906
 206   2.0000      -0.449672       -12.2362
 207   2.0000      -0.449259       -12.2250
 208   2.0000      -0.447705       -12.1827
 209   2.0000      -0.445447       -12.1212
 210   2.0000      -0.443854       -12.0779
 211   2.0000      -0.443157       -12.0589
 212   2.0000      -0.442595       -12.0436
 213   2.0000      -0.440318       -11.9817
 214   2.0000      -0.436305       -11.8725
 215   2.0000      -0.430518       -11.7150
 216   2.0000      -0.428266       -11.6537
 217   2.0000      -0.427326       -11.6281
 218   2.0000      -0.423465       -11.5231
 219   2.0000      -0.423201       -11.5159
 220   2.0000      -0.421575       -11.4716
 221   2.0000      -0.421137       -11.4597
 222   2.0000      -0.413886       -11.2624
 223   2.0000      -0.411340       -11.1931
 224   2.0000      -0.409306       -11.1378
 225   2.0000      -0.407869       -11.0987
 226   2.0000      -0.407233       -11.0814
 227   2.0000      -0.400540       -10.8993
 228   2.0000      -0.392819       -10.6892
 229   2.0000      -0.389872       -10.6090
 230   2.0000      -0.385210       -10.4821
 231   2.0000      -0.382013       -10.3951
 232   2.0000      -0.376561       -10.2468
 233   2.0000      -0.376093       -10.2340
 234   2.0000      -0.366092        -9.9619
 235   2.0000      -0.364573        -9.9205
 236   2.0000      -0.355119        -9.6633
 237   2.0000      -0.353281        -9.6133
 238   2.0000      -0.343404        -9.3445
 239   2.0000      -0.338035        -9.1984
 240   2.0000      -0.331729        -9.0268
 241   2.0000      -0.318193        -8.6585
 242   2.0000      -0.318026        -8.6539
 243   2.0000      -0.316643        -8.6163
 244   2.0000      -0.304912        -8.2971
 245   2.0000      -0.300444        -8.1755
 246   2.0000      -0.295422        -8.0388
 247   2.0000      -0.292115        -7.9488
 248   2.0000      -0.269196        -7.3252
 249   2.0000      -0.265239        -7.2175
 250   2.0000      -0.256308        -6.9745
 251   2.0000      -0.232107        -6.3159
 252   2.0000      -0.179791        -4.8924
 253   0.0000      -0.095428        -2.5967
 254   0.0000      -0.086442        -2.3522
 255   0.0000      -0.063703        -1.7334
 256   0.0000      -0.047680        -1.2974
 257   0.0000      -0.022624        -0.6156

MULLIKEN ATOMIC CHARGES
-----------------------
   0 C :    0.298801
   1 C :   -0.347455
   2 C :   -0.185916
   3 N :    0.150921
   4 C :   -0.202967
   5 N :    0.163079
   6 C :    0.015032
   7 C :   -0.010051
   8 C :   -0.073417
   9 C :    0.119407
  10 C :   -0.091785
  11 C :   -0.019030
  12 S :    0.187111
  13 C :   -0.122217
  14 C :    0.037018
  15 Br:    0.024534
  16 C :    0.156882
  17 O :   -0.157425
  18 C :   -0.085795
  19 C :    0.046822
  20 C :   -0.100169
  21 S :    0.135856
  22 C :   -0.044856
  23 C :    0.085870
  24 C :   -0.015715
  25 C :    0.091190
  26 C :   -0.134445
  27 S :    0.128262
  28 C :   -0.050507
  29 C :    0.009649
  30 C :    0.043517
  31 C :   -0.062336
  32 C :   -0.061895
  33 C :   -0.174160
  34 C :    0.097375
  35 C :    0.197186
  36 N :   -0.153423
  37 C :    0.060695
  38 C :   -0.022152
  39 C :   -0.014654
  40 C :   -0.034293
  41 C :    0.035401
  42 C :    0.013688
  43 C :   -0.044563
  44 S :    0.046757
  45 C :   -0.043589
  46 C :    0.027461
  47 C :    0.021176
  48 C :   -0.015233
  49 S :    0.028246
  50 C :   -0.033252
  51 C :    0.070685
  52 C :   -0.044687
  53 C :    0.068572
  54 C :   -0.006048
  55 C :    0.059600
  56 C :   -0.032885
  57 C :    0.062146
  58 C :   -0.025596
  59 C :    0.043783
  60 C :    0.003001
  61 C :    0.038981
  62 C :   -0.029010
  63 C :    0.006125
  64 C :   -0.019787
  65 H :   -0.010471
  66 H :   -0.004711
  67 H :   -0.002691
  68 H :    0.016730
  69 H :    0.005904
  70 H :    0.032409
  71 H :   -0.008548
  72 H :   -0.028347
  73 H :    0.000088
  74 H :    0.014120
  75 H :    0.030050
  76 H :    0.038472
  77 H :    0.014052
  78 H :    0.011171
  79 H :    0.120115
  80 H :   -0.004061
  81 H :   -0.018261
  82 H :   -0.025671
  83 H :   -0.023644
  84 H :   -0.023989
  85 H :   -0.023151
  86 H :   -0.023357
  87 H :   -0.033855
  88 H :   -0.034158
  89 H :   -0.031514
  90 H :   -0.027402
  91 H :   -0.034119
  92 H :   -0.028628
  93 H :   -0.009511
  94 H :   -0.023850
  95 H :    0.005415
  96 H :    0.015897
Sum of atomic charges:   -0.0000000

LOEWDIN ATOMIC CHARGES
----------------------
   0 C :    0.076786
   1 C :   -0.141775
   2 C :   -0.017968
   3 N :   -0.053861
   4 C :   -0.027036
   5 N :   -0.048796
   6 C :   -0.021376
   7 C :   -0.050050
   8 C :    0.021428
   9 C :   -0.032258
  10 C :   -0.143416
  11 C :   -0.008960
  12 S :    0.433081
  13 C :   -0.270609
  14 C :   -0.070621
  15 Br:    0.137431
  16 C :    0.088839
  17 O :   -0.144255
  18 C :   -0.094070
  19 C :    0.053088
  20 C :   -0.172005
  21 S :    0.420236
  22 C :   -0.144079
  23 C :   -0.053241
  24 C :    0.005024
  25 C :   -0.033963
  26 C :   -0.165342
  27 S :    0.435150
  28 C :   -0.156483
  29 C :   -0.058792
  30 C :   -0.025542
  31 C :   -0.043234
  32 C :   -0.052538
  33 C :   -0.030452
  34 C :   -0.059161
  35 C :    0.046811
  36 N :   -0.002167
  37 C :    0.044359
  38 C :   -0.118832
  39 C :   -0.040078
  40 C :   -0.176060
  41 C :   -0.032637
  42 C :   -0.051837
  43 C :   -0.174977
  44 S :    0.344923
  45 C :   -0.196540
  46 C :   -0.039415
  47 C :   -0.045065
  48 C :   -0.151029
  49 S :    0.355563
  50 C :   -0.066494
  51 C :   -0.062531
  52 C :    0.006797
  53 C :   -0.063190
  54 C :    0.067797
  55 C :   -0.070697
  56 C :    0.037007
  57 C :   -0.067696
  58 C :    0.020126
  59 C :   -0.063409
  60 C :    0.075974
  61 C :   -0.067924
  62 C :    0.037885
  63 C :   -0.024192
  64 C :   -0.053907
  65 H :    0.040580
  66 H :    0.041360
  67 H :    0.039001
  68 H :    0.044167
  69 H :    0.033111
  70 H :    0.027746
  71 H :    0.034672
  72 H :    0.031463
  73 H :    0.029823
  74 H :    0.031679
  75 H :    0.028004
  76 H :    0.035770
  77 H :    0.027901
  78 H :    0.029058
  79 H :    0.077430
  80 H :    0.025791
  81 H :    0.017274
  82 H :    0.028839
  83 H :    0.029020
  84 H :    0.027504
  85 H :    0.028288
  86 H :    0.028656
  87 H :    0.030936
  88 H :    0.021303
  89 H :    0.032450
  90 H :    0.023276
  91 H :    0.021349
  92 H :    0.033643
  93 H :    0.014294
  94 H :    0.026050
  95 H :    0.017553
  96 H :    0.022261

  Mayer bond orders larger than 0.100000
B(  0-C ,  1-C ) :   1.6276 B(  0-C ,  6-C ) :   1.0024 B(  0-C , 18-C ) :   1.0728
B(  1-C ,  2-C ) :   1.1464 B(  1-C ,  4-C ) :   1.1409 B(  2-C ,  3-N ) :   2.9706
B(  4-C ,  5-N ) :   2.9905 B(  6-C ,  7-C ) :   1.2734 B(  6-C , 11-C ) :   1.4102
B(  7-C ,  8-C ) :   1.4233 B(  7-C , 16-C ) :   0.9522 B(  8-C ,  9-C ) :   1.2472
B(  8-C , 65-H ) :   1.0161 B(  9-C , 10-C ) :   1.3037 B(  9-C , 14-C ) :   1.1629
B( 10-C , 11-C ) :   1.3336 B( 10-C , 12-S ) :   1.0856 B( 11-C , 66-H ) :   0.9794
B( 12-S , 13-C ) :   1.0862 B( 13-C , 14-C ) :   1.6192 B( 13-C , 15-Br) :   1.0189
B( 14-C , 67-H ) :   1.0003 B( 16-C , 17-O ) :   2.1694 B( 16-C , 18-C ) :   0.9418
B( 18-C , 19-C ) :   1.6010 B( 19-C , 20-C ) :   1.1944 B( 19-C , 68-H ) :   0.9207
B( 20-C , 21-S ) :   1.0725 B( 20-C , 24-C ) :   1.4885 B( 21-S , 22-C ) :   1.0816
B( 22-C , 23-C ) :   1.3163 B( 22-C , 31-C ) :   1.2754 B( 23-C , 24-C ) :   1.2234
B( 23-C , 25-C ) :   1.1811 B( 24-C , 69-H ) :   0.9747 B( 25-C , 26-C ) :   1.3602
B( 25-C , 29-C ) :   1.2180 B( 26-C , 27-S ) :   1.0848 B( 26-C , 30-C ) :   1.3226
B( 27-S , 28-C ) :   1.1397 B( 28-C , 29-C ) :   1.6082 B( 28-C , 70-H ) :   0.9673
B( 29-C , 71-H ) :   0.9945 B( 30-C , 31-C ) :   1.4573 B( 30-C , 32-C ) :   0.9648
B( 31-C , 72-H ) :   1.0020 B( 32-C , 33-C ) :   1.8939 B( 32-C , 73-H ) :   0.9578
B( 33-C , 34-C ) :   1.0778 B( 33-C , 35-C ) :   1.0226 B( 34-C , 74-H ) :   0.9446
B( 34-C , 75-H ) :   0.9417 B( 34-C , 76-H ) :   0.9476 B( 35-C , 36-N ) :   1.0294
B( 35-C , 77-H ) :   0.9413 B( 35-C , 78-H ) :   0.9372 B( 36-N , 37-C ) :   1.2061
B( 36-N , 79-H ) :   0.9401 B( 37-C , 38-C ) :   1.6104 B( 37-C , 80-H ) :   0.9679
B( 38-C , 39-C ) :   1.1691 B( 38-C , 81-H ) :   0.9636 B( 39-C , 40-C ) :   1.5881
B( 39-C , 82-H ) :   0.9775 B( 40-C , 41-C ) :   1.1467 B( 40-C , 44-S ) :   1.0067
B( 41-C , 42-C ) :   1.5871 B( 41-C , 83-H ) :   0.9982 B( 42-C , 43-C ) :   1.1915
B( 42-C , 84-H ) :   0.9923 B( 43-C , 44-S ) :   1.0451 B( 43-C , 45-C ) :   1.5095
B( 45-C , 46-C ) :   1.1920 B( 45-C , 49-S ) :   1.0243 B( 46-C , 47-C ) :   1.5867
B( 46-C , 85-H ) :   0.9919 B( 47-C , 48-C ) :   1.1426 B( 47-C , 86-H ) :   0.9985
B( 48-C , 49-S ) :   1.0208 B( 48-C , 50-C ) :   1.5796 B( 50-C , 51-C ) :   1.1297
B( 50-C , 87-H ) :   0.9676 B( 51-C , 52-C ) :   1.4206 B( 51-C , 62-C ) :   1.1505
B( 52-C , 53-C ) :   1.1187 B( 52-C , 88-H ) :   1.0192 B( 53-C , 54-C ) :   1.4170
B( 53-C , 61-C ) :   1.1368 B( 54-C , 55-C ) :   1.1465 B( 54-C , 89-H ) :   1.0052
B( 55-C , 56-C ) :   1.3902 B( 55-C , 59-C ) :   1.1395 B( 56-C , 57-C ) :   1.1673
B( 56-C , 90-H ) :   1.0133 B( 57-C , 58-C ) :   1.4885 B( 57-C , 63-C ) :   1.0749
B( 58-C , 59-C ) :   1.1163 B( 58-C , 91-H ) :   1.0098 B( 59-C , 60-C ) :   1.4264
B( 60-C , 61-C ) :   1.1436 B( 60-C , 92-H ) :   1.0035 B( 61-C , 62-C ) :   1.4181
B( 62-C , 93-H ) :   0.9936 B( 63-C , 64-C ) :   1.9461 B( 63-C , 94-H ) :   0.9656
B( 64-C , 95-H ) :   0.9521 B( 64-C , 96-H ) :   0.9488

-----------------------------------------------------------------------------
         ABSORPTION SPECTRUM VIA TRANSITION ELECTRIC DIPOLE MOMENTS
-----------------------------------------------------------------------------
State   Energy  Wavelength   fosc         T2         TX        TY        TZ
        (cm-1)    (nm)                  (au**2)     (au)      (au)      (au)
-----------------------------------------------------------------------------
   0    4036.3   2477.5   0.006813259   0.55571  -0.73726   0.02678   0.10697
   1   10880.4    919.1   0.029291645   0.88629  -0.76739  -0.23449   0.49236
   2   13287.3    752.6   0.038674994   0.95823   0.94460  -0.06906  -0.24738
   3   15599.9    641.0   1.638058374  34.56880  -5.81011   0.03665   0.90002
   4   18580.2    538.2   0.004232890   0.07500   0.20416  -0.08646   0.16076
   5   21565.8    463.7   0.976381261  14.90490  -2.17919  -2.33198   2.17207
   6   21845.3    457.8   0.165721618   2.49744  -0.64211   0.00403  -1.44399
   7   23024.5    434.3   0.029334096   0.41943  -0.50058  -0.40102   0.08960
   8   24525.4    407.7   0.021309636   0.28605   0.45218  -0.09706  -0.26863
   9   25069.3    398.9   0.041351570   0.54303   0.45254  -0.26304  -0.51870
  10   25757.7    388.2   0.044348480   0.56682   0.19443  -0.03428   0.72653
  11   26006.6    384.5   0.086461568   1.09450   0.14493   0.97863  -0.34025
  12   26828.0    372.7   0.041189976   0.50545   0.49352  -0.43242   0.27368
  13   28108.6    355.8   1.049967181  12.29734   1.21999  -0.57121   3.23770
  14   28293.0    353.4   0.968404669  11.26817   0.82381   2.16831   2.42651
  15   29258.4    341.8   0.008968016   0.10091  -0.25864  -0.18352  -0.01824
  16   29513.9    338.8   0.002542033   0.02836  -0.02844  -0.03352  -0.16255
  17   29851.6    335.0   0.010768489   0.11876  -0.28494   0.18866   0.04439
  18   29889.9    334.6   0.015473610   0.17043  -0.21057  -0.09266  -0.34279
  19   30330.4    329.7   0.002271650   0.02466  -0.01931  -0.05678  -0.14512
  20   30429.2    328.6   0.003002658   0.03249  -0.06319   0.13720   0.09833
  21   30682.2    325.9   0.001100646   0.01181   0.04883   0.08975   0.03702
  22   30917.1    323.4   0.052852639   0.56279   0.51150   0.22010   0.50270
  23   31584.5    316.6   0.214805380   2.23896  -1.14279  -0.35932  -0.89660
  24   31857.5    313.9   0.003653983   0.03776   0.11768   0.03627   0.15032
  25   32063.7    311.9   0.003116498   0.03200  -0.07733  -0.15693  -0.03731
  26   32695.2    305.9   0.432737886   4.35729   0.44762  -1.68559   1.14704
  27   32758.9    305.3   0.002434889   0.02447   0.03331   0.03700   0.14830
  28   32994.0    303.1   0.329359469   3.28633  -1.40176   0.88323  -0.73573
  29   33224.9    301.0   0.002172863   0.02153  -0.00842  -0.04250  -0.14019
  30   33391.7    299.5   0.048572131   0.47888   0.67810   0.13118  -0.04302
  31   34268.0    291.8   0.031761800   0.30514   0.25271  -0.47615   0.12066
  32   34841.4    287.0   0.027666559   0.26142   0.46340  -0.01716   0.21536
  33   36048.8    277.4   0.017742599   0.16203  -0.39617   0.01580   0.06953
  34   36666.1    272.7   0.005769119   0.05180  -0.09778  -0.20093  -0.04319
  35   36793.5    271.8   0.004638172   0.04150  -0.11967   0.16450  -0.01092
  36   36826.2    271.5   0.004253232   0.03802  -0.18697   0.04128   0.03686
  37   37193.3    268.9   0.005596315   0.04954  -0.10064   0.16552  -0.10960
  38   37310.9    268.0   0.038786460   0.34223   0.31283   0.03892   0.49280
  39   37627.5    265.8   0.245772607   2.15033  -1.12372  -0.49671  -0.80054
  40   37734.8    265.0   0.063535073   0.55430   0.47780   0.13113   0.55571
  41   38038.7    262.9   0.000738813   0.00639   0.01767   0.01738   0.07603
  42   38143.3    262.2   0.036535607   0.31534   0.29245   0.08759  -0.47132
  43   38345.7    260.8   0.101168336   0.86857   0.45711   0.54905  -0.59847
  44   38368.7    260.6   0.052320307   0.44892   0.08193   0.04640   0.66337
  45   38906.3    257.0   0.075755164   0.64101  -0.76941   0.00815   0.22126
  46   39003.1    256.4   0.122589549   1.03474  -1.01644  -0.03247   0.02316
  47   39066.0    256.0   0.135279986   1.14001  -0.99160  -0.00005   0.39591
  48   39236.9    254.9   0.015739124   0.13206   0.31388   0.06713  -0.17039
  49   39301.6    254.4   0.016462784   0.13790   0.35111   0.00027   0.12092
  50   39370.4    254.0   0.016369558   0.13688   0.29704   0.20146  -0.08978
  51   39403.8    253.8   0.015945009   0.13322  -0.34965   0.03746  -0.09777
  52   39600.7    252.5   0.157630393   1.31043   0.80563   0.56396  -0.58594
  53   40209.5    248.7   0.046085023   0.37732   0.60355   0.05297   0.10116

FINAL SINGLE POINT ENERGY     -6915.724233891893

DIPOLE MOMENT
-------------
                                X             Y             Z
Electronic contribution:   -132.06026    -159.21999     155.21367
Nuclear contribution   :    133.27344     159.53983    -154.20247
                        -----------------------------------------
Total Dipole Moment    :      1.21318       0.31983       1.01120
                        -----------------------------------------
Magnitude (a.u.)       :      1.61141
Magnitude (Debye)      :      4.09588

Rotational constants in cm-1:     0.001073     0.000191     0.000174
Rotational constants in MHz :    32.165176     5.731787     5.208299

                             ****ORCA TERMINATED NORMALLY****
TOTAL RUN TIME: 0 days 0 hours 17 minutes 16 seconds 586 msec
