                         Program Version 4.2.0 -  RELEASE  -
|  1> # ORCA input file
|  2> # SCF done       -202.123782952161          0.000873337607
|  3> ! CAM-B3LYP def2-SVP def2/J RIJCOSX Grid4 TightSCF
|  4> %maxcore 5000
|  5> %tddft
|  6>     Mode sTDDFT
|  7>     Ethresh 5.0
|  8>     maxcore 5000
|  9> end
| 10>
| 11> %pal
| 12>   nprocs 6
| 13>   end
| 14> * xyz 0 1
| 15>    C       -0.61757         6.80588        -1.27752
| 16>    C       -1.03045         6.35603        -2.50566
| 17>    C       -0.24479         6.42201        -3.67390
| 18>    N        0.35233         6.45843        -4.65373
| 19>    C       -2.26300         5.71232        -2.74340
| 20>    N       -3.22771         5.14491        -3.00085
| 21>    C        0.70432         7.32893        -0.95736
| 22>    C        0.79064         7.49622         0.44607
| 23>    C        1.91781         7.97736         1.06490
| 24>    C        3.01296         8.30923         0.25932
| 25>    C        2.91582         8.14094        -1.14187
| 26>    C        1.77514         7.65304        -1.76820
| 27>    S        4.37906         8.62293        -1.94650
| 28>    C        5.09162         9.03648        -0.41005
| 29>    C        4.27835         8.82549         0.65179
| 30>   Br        6.84179         9.70918        -0.35234
| 31>    C       -0.49348         7.11037         1.06751
| 32>    O       -0.76578         7.18177         2.25113
| 33>    C       -1.37841         6.73414        -0.04665
| 34>    C       -2.74318         6.60635         0.01500
| 35>    C       -3.58571         6.37631         1.11878
| 36>    S       -5.20203         7.05029         0.99705
| 37>    C       -5.66400         6.34845         2.50830
| 38>    C       -4.63397         5.58414         3.03855
| 39>    C       -3.46174         5.59612         2.27025
| 40>    C       -2.28631         4.73438         2.58857
| 41>    C       -2.48209         3.85266         3.82691
| 42>    C       -3.94659         3.44414         4.02565
| 43>    N       -4.17911         2.52981         5.13329
| 44>    C       -4.76290         4.71921         4.24841
| 45>    C       -6.95860         6.53655         3.07257
| 46>    C       -8.01447         7.05517         2.41891
| 47>    C       -9.32376         7.16256         2.99852
| 48>    C       -9.70829         7.04657         4.31293
| 49>    O      -11.03730         7.15461         4.43632
| 50>    C      -11.54519         7.31107         3.20675
| 51>    C      -10.55091         7.33486         2.27042
| 52>    C      -10.69215         7.48820         0.80684
| 53>    O      -10.05114         8.29123         0.15831
| 54>    C      -11.63396         6.55454         0.20125
| 55>    C      -12.14777         5.38943         0.73773
| 56>    C      -12.90744         4.65282        -0.16120
| 57>    C      -12.99781         5.24981        -1.41238
| 58>    S      -12.12118         6.75563        -1.44607
| 59>    C      -13.67221         4.80135        -2.57224
| 60>    C      -14.03425         3.50772        -2.83029
| 61>    C      -14.79360         3.03567        -3.93645
| 62>    C      -14.99276         1.69017        -3.94874
| 63>    C      -14.37501         1.01552        -2.86875
| 64>    S      -13.55389         2.14862        -1.82822
| 65>    C      -14.37721        -0.32580        -2.53893
| 66>    C      -15.14353        -1.39988        -3.03781
| 67>    C      -14.98165        -2.55333        -2.32972
| 68>    C      -14.08133        -2.45564        -1.23666
| 69>    S      -13.39525        -0.85840        -1.19150
| 70>    C      -13.73671        -3.49084        -0.38561
| 71>    C      -12.85483        -3.50300         0.69325
| 72>    C      -12.26639        -2.50473         1.45120
| 73>    C      -10.98515        -2.82841         2.13324
| 74>    O      -10.48032        -3.92363         2.25107
| 75>    C      -10.44412        -1.53209         2.59279
| 76>    C       -9.24294        -1.25470         3.17562
| 77>    C       -8.93785         0.08169         3.52675
| 78>    C       -9.89942         1.10160         3.27399
| 79>    C       -9.60274         2.42376         3.65533
| 80>    C       -8.40290         2.69725         4.24906
| 81>    C       -7.42762         1.71961         4.47948
| 82>    C       -7.70757         0.42841         4.12061
| 83>    F       -8.14248         3.96633         4.63837
| 84>    C      -11.13528         0.78370         2.66163
| 85>    C      -11.40227        -0.51389         2.32453
| 86>    C      -12.57703        -1.13569         1.71412
| 87>    C      -13.81006        -0.52682         1.57372
| 88>    C      -14.98460        -1.24483         1.28539
| 89>    N      -15.95978        -1.81135         1.06737
| 90>    C      -14.03017         0.85032         1.74135
| 91>    N      -14.25036         1.97719         1.80520
| 92>    H        1.95516         8.09689         2.13638
| 93>    H        1.74446         7.54954        -2.84009
| 94>    H        4.55656         9.02719         1.67011
| 95>    H       -3.28054         6.77015        -0.91392
| 96>    H       -1.41866         5.37799         2.75434
| 97>    H       -2.06668         4.11970         1.70994
| 98>    H       -2.15593         4.39723         4.71722
| 99>    H       -1.85304         2.96375         3.73436
|100>    H       -4.31024         2.94259         3.11946
|101>    H       -3.86072         2.94870         6.00228
|102>    H       -3.65405         1.67189         4.99825
|103>    H       -4.38121         5.24125         5.13133
|104>    H       -5.80271         4.46246         4.43333
|105>    H       -7.08449         6.19439         4.08853
|106>    H       -7.91981         7.37680         1.39016
|107>    H       -9.14104         6.90515         5.21055
|108>    H      -12.60714         7.43029         3.11761
|109>    H      -11.96276         5.07852         1.74945
|110>    H      -13.41364         3.74452         0.11194
|111>    H      -13.89175         5.54202        -3.32967
|112>    H      -15.17846         3.71495        -4.67648
|113>    H      -15.54619         1.16178        -4.70413
|114>    H      -15.81512        -1.28392        -3.86929
|115>    H      -15.50469        -3.46993        -2.53622
|116>    H      -14.15200        -4.45273        -0.66103
|117>    H      -12.48119        -4.48968         0.95769
|118>    H       -8.53185        -2.04335         3.37117
|119>    H      -10.32167         3.21101         3.48913
|120>    H       -6.48123         1.99519         4.92374
|121>    H       -6.97922        -0.34946         4.29356
|122>    H      -11.83684         1.57972         2.46999
|123> *
|124>
|125>                          ****END OF INPUT****

CARTESIAN COORDINATES (ANGSTROEM)
---------------------------------
  C     -0.617570    6.805880   -1.277520
  C     -1.030450    6.356030   -2.505660
  C     -0.244790    6.422010   -3.673900
  N      0.352330    6.458430   -4.653730
  C     -2.263000    5.712320   -2.743400
  N     -3.227710    5.144910   -3.000850
  C      0.704320    7.328930   -0.957360
  C      0.790640    7.496220    0.446070
  C      1.917810    7.977360    1.064900
  C      3.012960    8.309230    0.259320
  C      2.915820    8.140940   -1.141870
  C      1.775140    7.653040   -1.768200
  S      4.379060    8.622930   -1.946500
  C      5.091620    9.036480   -0.410050
  C      4.278350    8.825490    0.651790
  Br     6.841790    9.709180   -0.352340
  C     -0.493480    7.110370    1.067510
  O     -0.765780    7.181770    2.251130
  C     -1.378410    6.734140   -0.046650
  C     -2.743180    6.606350    0.015000
  C     -3.585710    6.376310    1.118780
  S     -5.202030    7.050290    0.997050
  C     -5.664000    6.348450    2.508300
  C     -4.633970    5.584140    3.038550
  C     -3.461740    5.596120    2.270250
  C     -2.286310    4.734380    2.588570
  C     -2.482090    3.852660    3.826910
  C     -3.946590    3.444140    4.025650
  N     -4.179110    2.529810    5.133290
  C     -4.762900    4.719210    4.248410
  C     -6.958600    6.536550    3.072570
  C     -8.014470    7.055170    2.418910
  C     -9.323760    7.162560    2.998520
  C     -9.708290    7.046570    4.312930
  O    -11.037300    7.154610    4.436320
  C    -11.545190    7.311070    3.206750
  C    -10.550910    7.334860    2.270420
  C    -10.692150    7.488200    0.806840
  O    -10.051140    8.291230    0.158310
  C    -11.633960    6.554540    0.201250
  C    -12.147770    5.389430    0.737730
  C    -12.907440    4.652820   -0.161200
  C    -12.997810    5.249810   -1.412380
  S    -12.121180    6.755630   -1.446070
  C    -13.672210    4.801350   -2.572240
  C    -14.034250    3.507720   -2.830290
  C    -14.793600    3.035670   -3.936450
  C    -14.992760    1.690170   -3.948740
  C    -14.375010    1.015520   -2.868750
  S    -13.553890    2.148620   -1.828220
  C    -14.377210   -0.325800   -2.538930
  C    -15.143530   -1.399880   -3.037810
  C    -14.981650   -2.553330   -2.329720
  C    -14.081330   -2.455640   -1.236660
  S    -13.395250   -0.858400   -1.191500
  C    -13.736710   -3.490840   -0.385610
  C    -12.854830   -3.503000    0.693250
  C    -12.266390   -2.504730    1.451200
  C    -10.985150   -2.828410    2.133240
  O    -10.480320   -3.923630    2.251070
  C    -10.444120   -1.532090    2.592790
  C     -9.242940   -1.254700    3.175620
  C     -8.937850    0.081690    3.526750
  C     -9.899420    1.101600    3.273990
  C     -9.602740    2.423760    3.655330
  C     -8.402900    2.697250    4.249060
  C     -7.427620    1.719610    4.479480
  C     -7.707570    0.428410    4.120610
  F     -8.142480    3.966330    4.638370
  C    -11.135280    0.783700    2.661630
  C    -11.402270   -0.513890    2.324530
  C    -12.577030   -1.135690    1.714120
  C    -13.810060   -0.526820    1.573720
  C    -14.984600   -1.244830    1.285390
  N    -15.959780   -1.811350    1.067370
  C    -14.030170    0.850320    1.741350
  N    -14.250360    1.977190    1.805200
  H      1.955160    8.096890    2.136380
  H      1.744460    7.549540   -2.840090
  H      4.556560    9.027190    1.670110
  H     -3.280540    6.770150   -0.913920
  H     -1.418660    5.377990    2.754340
  H     -2.066680    4.119700    1.709940
  H     -2.155930    4.397230    4.717220
  H     -1.853040    2.963750    3.734360
  H     -4.310240    2.942590    3.119460
  H     -3.860720    2.948700    6.002280
  H     -3.654050    1.671890    4.998250
  H     -4.381210    5.241250    5.131330
  H     -5.802710    4.462460    4.433330
  H     -7.084490    6.194390    4.088530
  H     -7.919810    7.376800    1.390160
  H     -9.141040    6.905150    5.210550
  H    -12.607140    7.430290    3.117610
  H    -11.962760    5.078520    1.749450
  H    -13.413640    3.744520    0.111940
  H    -13.891750    5.542020   -3.329670
  H    -15.178460    3.714950   -4.676480
  H    -15.546190    1.161780   -4.704130
  H    -15.815120   -1.283920   -3.869290
  H    -15.504690   -3.469930   -2.536220
  H    -14.152000   -4.452730   -0.661030
  H    -12.481190   -4.489680    0.957690
  H     -8.531850   -2.043350    3.371170
  H    -10.321670    3.211010    3.489130
  H     -6.481230    1.995190    4.923740
  H     -6.979220   -0.349460    4.293560
  H    -11.836840    1.579720    2.469990

 Total Charge           Charge          ....    0
 Multiplicity           Mult            ....    1
 Number of Electrons    NEL             ....  588
 Basis Dimension        Dim             .... 1271

ORBITAL ENERGIES
----------------

  NO   OCC          E(Eh)            E(eV)
   0   2.0000    -482.883251    -13139.9213
   1   2.0000     -88.972448     -2421.0634
   2   2.0000     -88.969060     -2420.9712
   3   2.0000     -88.967354     -2420.9248
   4   2.0000     -88.966299     -2420.8961
   5   2.0000     -88.954962     -2420.5876
   6   2.0000     -62.560963     -1702.3703
   7   2.0000     -56.394913     -1534.5836
   8   2.0000     -56.392199     -1534.5098
   9   2.0000     -56.392167     -1534.5089
  10   2.0000     -24.788004      -674.5159
  11   2.0000     -19.303674      -525.2797
  12   2.0000     -19.211179      -522.7628
  13   2.0000     -19.209708      -522.7227
  14   2.0000     -19.200176      -522.4633
  15   2.0000     -14.409791      -392.1103
  16   2.0000     -14.409274      -392.0963
  17   2.0000     -14.407905      -392.0590
  18   2.0000     -14.399564      -391.8320
  19   2.0000     -14.397451      -391.7746
  20   2.0000     -10.371362      -282.2191
  21   2.0000     -10.361681      -281.9557
  22   2.0000     -10.360535      -281.9245
  23   2.0000     -10.355836      -281.7966
  24   2.0000     -10.350349      -281.6473
  25   2.0000     -10.341099      -281.3956
  26   2.0000     -10.335801      -281.2514
  27   2.0000     -10.335506      -281.2434
  28   2.0000     -10.334172      -281.2071
  29   2.0000     -10.330552      -281.1086
  30   2.0000     -10.329922      -281.0915
  31   2.0000     -10.329067      -281.0682
  32   2.0000     -10.326975      -281.0113
  33   2.0000     -10.322887      -280.9000
  34   2.0000     -10.321834      -280.8714
  35   2.0000     -10.321706      -280.8679
  36   2.0000     -10.321007      -280.8489
  37   2.0000     -10.317061      -280.7415
  38   2.0000     -10.315046      -280.6867
  39   2.0000     -10.314827      -280.6807
  40   2.0000     -10.313408      -280.6421
  41   2.0000     -10.312826      -280.6263
  42   2.0000     -10.311157      -280.5809
  43   2.0000     -10.310660      -280.5673
  44   2.0000     -10.308831      -280.5176
  45   2.0000     -10.307833      -280.4904
  46   2.0000     -10.304122      -280.3894
  47   2.0000     -10.303842      -280.3818
  48   2.0000     -10.303019      -280.3594
  49   2.0000     -10.302769      -280.3526
  50   2.0000     -10.302421      -280.3431
  51   2.0000     -10.301619      -280.3213
  52   2.0000     -10.298374      -280.2330
  53   2.0000     -10.297646      -280.2132
  54   2.0000     -10.297029      -280.1964
  55   2.0000     -10.294556      -280.1291
  56   2.0000     -10.293897      -280.1112
  57   2.0000     -10.293766      -280.1076
  58   2.0000     -10.292619      -280.0764
  59   2.0000     -10.292252      -280.0664
  60   2.0000     -10.292039      -280.0606
  61   2.0000     -10.290415      -280.0164
  62   2.0000     -10.288612      -279.9674
  63   2.0000     -10.287961      -279.9497
  64   2.0000     -10.287438      -279.9354
  65   2.0000     -10.287012      -279.9238
  66   2.0000     -10.286979      -279.9229
  67   2.0000     -10.286185      -279.9013
  68   2.0000     -10.285092      -279.8716
  69   2.0000     -10.285058      -279.8707
  70   2.0000     -10.284581      -279.8577
  71   2.0000     -10.283256      -279.8216
  72   2.0000     -10.281884      -279.7843
  73   2.0000     -10.281265      -279.7674
  74   2.0000     -10.281052      -279.7616
  75   2.0000     -10.279382      -279.7162
  76   2.0000     -10.276485      -279.6374
  77   2.0000     -10.276056      -279.6257
  78   2.0000     -10.269825      -279.4561
  79   2.0000     -10.265044      -279.3261
  80   2.0000     -10.264846      -279.3207
  81   2.0000      -8.790383      -239.1985
  82   2.0000      -8.068396      -219.5522
  83   2.0000      -8.064529      -219.4470
  84   2.0000      -8.062469      -219.3909
  85   2.0000      -8.062372      -219.3883
  86   2.0000      -8.050761      -219.0723
  87   2.0000      -6.626690      -180.3214
  88   2.0000      -6.612120      -179.9249
  89   2.0000      -6.611915      -179.9193
  90   2.0000      -6.038097      -164.3050
  91   2.0000      -6.033810      -164.1883
  92   2.0000      -6.033676      -164.1847
  93   2.0000      -6.032127      -164.1425
  94   2.0000      -6.031916      -164.1368
  95   2.0000      -6.029633      -164.0746
  96   2.0000      -6.029524      -164.0717
  97   2.0000      -6.027912      -164.0278
  98   2.0000      -6.027675      -164.0214
  99   2.0000      -6.026898      -164.0002
 100   2.0000      -6.024181      -163.9263
 101   2.0000      -6.023302      -163.9024
 102   2.0000      -6.019983      -163.8121
 103   2.0000      -6.016052      -163.7051
 104   2.0000      -6.012712      -163.6142
 105   2.0000      -2.742513       -74.6276
 106   2.0000      -2.738466       -74.5174
 107   2.0000      -2.738370       -74.5148
 108   2.0000      -2.726759       -74.1989
 109   2.0000      -2.726731       -74.1981
 110   2.0000      -1.299150       -35.3517
 111   2.0000      -1.223080       -33.2817
 112   2.0000      -1.127339       -30.6764
 113   2.0000      -1.125005       -30.6129
 114   2.0000      -1.114475       -30.3264
 115   2.0000      -1.018582       -27.7170
 116   2.0000      -1.018486       -27.7144
 117   2.0000      -1.008144       -27.4330
 118   2.0000      -1.007457       -27.4143
 119   2.0000      -0.998333       -27.1660
 120   2.0000      -0.998226       -27.1631
 121   2.0000      -0.989857       -26.9354
 122   2.0000      -0.988654       -26.9027
 123   2.0000      -0.987740       -26.8778
 124   2.0000      -0.984710       -26.7953
 125   2.0000      -0.981574       -26.7100
 126   2.0000      -0.979958       -26.6660
 127   2.0000      -0.962972       -26.2038
 128   2.0000      -0.939311       -25.5599
 129   2.0000      -0.931878       -25.3577
 130   2.0000      -0.920298       -25.0426
 131   2.0000      -0.912876       -24.8406
 132   2.0000      -0.905251       -24.6331
 133   2.0000      -0.903721       -24.5915
 134   2.0000      -0.901166       -24.5220
 135   2.0000      -0.897692       -24.4275
 136   2.0000      -0.882715       -24.0199
 137   2.0000      -0.881833       -23.9959
 138   2.0000      -0.879356       -23.9285
 139   2.0000      -0.874263       -23.7899
 140   2.0000      -0.870438       -23.6858
 141   2.0000      -0.866655       -23.5829
 142   2.0000      -0.850158       -23.1340
 143   2.0000      -0.844247       -22.9731
 144   2.0000      -0.842596       -22.9282
 145   2.0000      -0.838621       -22.8200
 146   2.0000      -0.836334       -22.7578
 147   2.0000      -0.829771       -22.5792
 148   2.0000      -0.825239       -22.4559
 149   2.0000      -0.822278       -22.3753
 150   2.0000      -0.811297       -22.0765
 151   2.0000      -0.805515       -21.9192
 152   2.0000      -0.792882       -21.5754
 153   2.0000      -0.780287       -21.2327
 154   2.0000      -0.763231       -20.7686
 155   2.0000      -0.754421       -20.5288
 156   2.0000      -0.752872       -20.4867
 157   2.0000      -0.745471       -20.2853
 158   2.0000      -0.730399       -19.8752
 159   2.0000      -0.723113       -19.6769
 160   2.0000      -0.714407       -19.4400
 161   2.0000      -0.711099       -19.3500
 162   2.0000      -0.701752       -19.0956
 163   2.0000      -0.699053       -19.0222
 164   2.0000      -0.697664       -18.9844
 165   2.0000      -0.686379       -18.6773
 166   2.0000      -0.684396       -18.6234
 167   2.0000      -0.682062       -18.5599
 168   2.0000      -0.679648       -18.4942
 169   2.0000      -0.669817       -18.2267
 170   2.0000      -0.668123       -18.1805
 171   2.0000      -0.665464       -18.1082
 172   2.0000      -0.657244       -17.8845
 173   2.0000      -0.651961       -17.7408
 174   2.0000      -0.648143       -17.6369
 175   2.0000      -0.642809       -17.4917
 176   2.0000      -0.639488       -17.4014
 177   2.0000      -0.633779       -17.2460
 178   2.0000      -0.627185       -17.0666
 179   2.0000      -0.624057       -16.9815
 180   2.0000      -0.621756       -16.9188
 181   2.0000      -0.620762       -16.8918
 182   2.0000      -0.617641       -16.8069
 183   2.0000      -0.613240       -16.6871
 184   2.0000      -0.602778       -16.4024
 185   2.0000      -0.595380       -16.2011
 186   2.0000      -0.593970       -16.1628
 187   2.0000      -0.593184       -16.1414
 188   2.0000      -0.584119       -15.8947
 189   2.0000      -0.581966       -15.8361
 190   2.0000      -0.571036       -15.5387
 191   2.0000      -0.569698       -15.5023
 192   2.0000      -0.568403       -15.4670
 193   2.0000      -0.560736       -15.2584
 194   2.0000      -0.557677       -15.1752
 195   2.0000      -0.556045       -15.1308
 196   2.0000      -0.551421       -15.0049
 197   2.0000      -0.549423       -14.9506
 198   2.0000      -0.544163       -14.8074
 199   2.0000      -0.542890       -14.7728
 200   2.0000      -0.539774       -14.6880
 201   2.0000      -0.538607       -14.6563
 202   2.0000      -0.536757       -14.6059
 203   2.0000      -0.535850       -14.5812
 204   2.0000      -0.534101       -14.5336
 205   2.0000      -0.531640       -14.4667
 206   2.0000      -0.528022       -14.3682
 207   2.0000      -0.523981       -14.2582
 208   2.0000      -0.523563       -14.2469
 209   2.0000      -0.520335       -14.1590
 210   2.0000      -0.518479       -14.1085
 211   2.0000      -0.517567       -14.0837
 212   2.0000      -0.516548       -14.0560
 213   2.0000      -0.513524       -13.9737
 214   2.0000      -0.511998       -13.9322
 215   2.0000      -0.510189       -13.8829
 216   2.0000      -0.509875       -13.8744
 217   2.0000      -0.506903       -13.7935
 218   2.0000      -0.505984       -13.7685
 219   2.0000      -0.504901       -13.7391
 220   2.0000      -0.503518       -13.7014
 221   2.0000      -0.502052       -13.6615
 222   2.0000      -0.497591       -13.5402
 223   2.0000      -0.496069       -13.4987
 224   2.0000      -0.494186       -13.4475
 225   2.0000      -0.491499       -13.3744
 226   2.0000      -0.489527       -13.3207
 227   2.0000      -0.485036       -13.1985
 228   2.0000      -0.484573       -13.1859
 229   2.0000      -0.480504       -13.0752
 230   2.0000      -0.478151       -13.0111
 231   2.0000      -0.475198       -12.9308
 232   2.0000      -0.472874       -12.8676
 233   2.0000      -0.470390       -12.8000
 234   2.0000      -0.468569       -12.7504
 235   2.0000      -0.467955       -12.7337
 236   2.0000      -0.464395       -12.6368
 237   2.0000      -0.461751       -12.5649
 238   2.0000      -0.455725       -12.4009
 239   2.0000      -0.452156       -12.3038
 240   2.0000      -0.451450       -12.2846
 241   2.0000      -0.447840       -12.1864
 242   2.0000      -0.446655       -12.1541
 243   2.0000      -0.446094       -12.1388
 244   2.0000      -0.444401       -12.0928
 245   2.0000      -0.443130       -12.0582
 246   2.0000      -0.442874       -12.0512
 247   2.0000      -0.439939       -11.9714
 248   2.0000      -0.438140       -11.9224
 249   2.0000      -0.437310       -11.8998
 250   2.0000      -0.434723       -11.8294
 251   2.0000      -0.433494       -11.7960
 252   2.0000      -0.431670       -11.7463
 253   2.0000      -0.429518       -11.6878
 254   2.0000      -0.428256       -11.6534
 255   2.0000      -0.425210       -11.5706
 256   2.0000      -0.421150       -11.4601
 257   2.0000      -0.420432       -11.4405
 258   2.0000      -0.417820       -11.3695
 259   2.0000      -0.415484       -11.3059
 260   2.0000      -0.414950       -11.2914
 261   2.0000      -0.411275       -11.1914
 262   2.0000      -0.410597       -11.1729
 263   2.0000      -0.407566       -11.0904
 264   2.0000      -0.405752       -11.0411
 265   2.0000      -0.403837       -10.9890
 266   2.0000      -0.402387       -10.9495
 267   2.0000      -0.399554       -10.8724
 268   2.0000      -0.396733       -10.7957
 269   2.0000      -0.385243       -10.4830
 270   2.0000      -0.384497       -10.4627
 271   2.0000      -0.373410       -10.1610
 272   2.0000      -0.372748       -10.1430
 273   2.0000      -0.370861       -10.0917
 274   2.0000      -0.360158        -9.8004
 275   2.0000      -0.355032        -9.6609
 276   2.0000      -0.353812        -9.6277
 277   2.0000      -0.342179        -9.3112
 278   2.0000      -0.338796        -9.2191
 279   2.0000      -0.336221        -9.1490
 280   2.0000      -0.334158        -9.0929
 281   2.0000      -0.329627        -8.9696
 282   2.0000      -0.327778        -8.9193
 283   2.0000      -0.322129        -8.7656
 284   2.0000      -0.320717        -8.7272
 285   2.0000      -0.313192        -8.5224
 286   2.0000      -0.306453        -8.3390
 287   2.0000      -0.305900        -8.3240
 288   2.0000      -0.299240        -8.1427
 289   2.0000      -0.293745        -7.9932
 290   2.0000      -0.289940        -7.8897
 291   2.0000      -0.283711        -7.7202
 292   2.0000      -0.256084        -6.9684
 293   2.0000      -0.238842        -6.4992
 294   0.0000      -0.111103        -3.0233
 295   0.0000      -0.087390        -2.3780
 296   0.0000      -0.059566        -1.6209
 297   0.0000      -0.057778        -1.5722
 298   0.0000      -0.046682        -1.2703

MULLIKEN ATOMIC CHARGES
-----------------------
   0 C :    0.287413
   1 C :   -0.342092
   2 C :   -0.182103
   3 N :    0.143899
   4 C :   -0.214219
   5 N :    0.163483
   6 C :    0.019541
   7 C :   -0.013081
   8 C :   -0.079477
   9 C :    0.121479
  10 C :   -0.089260
  11 C :   -0.026962
  12 S :    0.183913
  13 C :   -0.121908
  14 C :    0.034449
  15 Br:    0.019934
  16 C :    0.147896
  17 O :   -0.169533
  18 C :   -0.093026
  19 C :   -0.000116
  20 C :   -0.137089
  21 S :    0.137599
  22 C :   -0.080760
  23 C :   -0.094067
  24 C :   -0.025129
  25 C :    0.123447
  26 C :    0.069580
  27 C :   -0.096021
  28 N :   -0.153183
  29 C :    0.192437
  30 C :   -0.008055
  31 C :    0.013657
  32 C :    0.051650
  33 C :    0.066307
  34 O :   -0.165508
  35 C :    0.080985
  36 C :   -0.057428
  37 C :    0.170284
  38 O :   -0.172498
  39 C :   -0.177776
  40 C :    0.046285
  41 C :    0.011251
  42 C :   -0.109800
  43 S :    0.188473
  44 C :    0.062343
  45 C :   -0.041958
  46 C :    0.056568
  47 C :    0.036590
  48 C :   -0.024115
  49 S :    0.107027
  50 C :   -0.060836
  51 C :    0.046143
  52 C :    0.053320
  53 C :   -0.032834
  54 S :    0.118683
  55 C :    0.005181
  56 C :    0.024447
  57 C :   -0.145851
  58 C :    0.136226
  59 O :   -0.152903
  60 C :    0.014330
  61 C :   -0.085694
  62 C :    0.099004
  63 C :    0.114690
  64 C :   -0.094706
  65 C :    0.305558
  66 C :   -0.031717
  67 C :   -0.016476
  68 F :   -0.198439
  69 C :   -0.105399
  70 C :    0.054427
  71 C :    0.292436
  72 C :   -0.383238
  73 C :   -0.208890
  74 N :    0.158128
  75 C :   -0.136807
  76 N :    0.113922
  77 H :   -0.012718
  78 H :   -0.006072
  79 H :   -0.004326
  80 H :    0.038421
  81 H :    0.045948
  82 H :    0.016794
  83 H :   -0.009680
  84 H :   -0.009325
  85 H :    0.008285
  86 H :    0.094046
  87 H :    0.095171
  88 H :   -0.000593
  89 H :    0.006321
  90 H :   -0.005239
  91 H :    0.012744
  92 H :    0.015956
  93 H :    0.020098
  94 H :    0.005427
  95 H :    0.019156
  96 H :    0.005113
  97 H :    0.003225
  98 H :   -0.000769
  99 H :   -0.006380
 100 H :   -0.003418
 101 H :   -0.001755
 102 H :    0.026210
 103 H :   -0.016875
 104 H :   -0.021804
 105 H :   -0.015510
 106 H :   -0.017717
 107 H :   -0.024765
Sum of atomic charges:   -0.0000000

LOEWDIN ATOMIC CHARGES
----------------------
   0 C :    0.075407
   1 C :   -0.144687
   2 C :   -0.018293
   3 N :   -0.057551
   4 C :   -0.028157
   5 N :   -0.053233
   6 C :   -0.021241
   7 C :   -0.048490
   8 C :    0.018355
   9 C :   -0.033833
  10 C :   -0.145272
  11 C :   -0.010642
  12 S :    0.430808
  13 C :   -0.272752
  14 C :   -0.070994
  15 Br:    0.134136
  16 C :    0.083357
  17 O :   -0.150965
  18 C :   -0.108512
  19 C :    0.051546
  20 C :   -0.181392
  21 S :    0.448790
  22 C :   -0.143010
  23 C :   -0.061236
  24 C :    0.000900
  25 C :   -0.033990
  26 C :   -0.040456
  27 C :    0.012032
  28 N :   -0.086799
  29 C :   -0.026052
  30 C :   -0.039985
  31 C :    0.000974
  32 C :   -0.061732
  33 C :    0.045782
  34 O :    0.039673
  35 C :    0.046211
  36 C :   -0.095229
  37 C :    0.058744
  38 O :   -0.151987
  39 C :   -0.214861
  40 C :   -0.023235
  41 C :   -0.053383
  42 C :   -0.168005
  43 S :    0.480779
  44 C :   -0.038253
  45 C :   -0.146059
  46 C :   -0.001995
  47 C :   -0.035107
  48 C :   -0.138934
  49 S :    0.421919
  50 C :   -0.194149
  51 C :   -0.017972
  52 C :   -0.029348
  53 C :   -0.113077
  54 S :    0.475505
  55 C :   -0.066446
  56 C :    0.038854
  57 C :   -0.108519
  58 C :    0.082986
  59 O :   -0.151257
  60 C :   -0.058235
  61 C :    0.030619
  62 C :   -0.021347
  63 C :    0.001939
  64 C :   -0.047280
  65 C :    0.089304
  66 C :   -0.041876
  67 C :    0.001944
  68 F :   -0.068397
  69 C :   -0.003486
  70 C :   -0.012162
  71 C :    0.037015
  72 C :   -0.174799
  73 C :   -0.031669
  74 N :   -0.063569
  75 C :   -0.008200
  76 N :   -0.084614
  77 H :    0.039669
  78 H :    0.040846
  79 H :    0.038222
  80 H :    0.045320
  81 H :    0.041116
  82 H :    0.036726
  83 H :    0.019266
  84 H :    0.020642
  85 H :    0.021633
  86 H :    0.054856
  87 H :    0.056519
  88 H :    0.029205
  89 H :    0.026125
  90 H :    0.030171
  91 H :    0.030980
  92 H :    0.024669
  93 H :    0.028102
  94 H :    0.035758
  95 H :    0.024966
  96 H :    0.040387
  97 H :    0.039837
  98 H :    0.037282
  99 H :    0.035666
 100 H :    0.037852
 101 H :    0.041058
 102 H :    0.046773
 103 H :    0.037585
 104 H :    0.036807
 105 H :    0.031256
 106 H :    0.032702
 107 H :    0.033147

  Mayer bond orders larger than 0.100000
B(  0-C ,  1-C ) :   1.6367 B(  0-C ,  6-C ) :   1.0044 B(  0-C , 18-C ) :   1.0696
B(  1-C ,  2-C ) :   1.1392 B(  1-C ,  4-C ) :   1.1411 B(  2-C ,  3-N ) :   2.9735
B(  4-C ,  5-N ) :   3.0077 B(  6-C ,  7-C ) :   1.2711 B(  6-C , 11-C ) :   1.4122
B(  7-C ,  8-C ) :   1.4269 B(  7-C , 16-C ) :   0.9365 B(  8-C ,  9-C ) :   1.2408
B(  8-C , 77-H ) :   1.0173 B(  9-C , 10-C ) :   1.3104 B(  9-C , 14-C ) :   1.1620
B( 10-C , 11-C ) :   1.3239 B( 10-C , 12-S ) :   1.0839 B( 11-C , 78-H ) :   0.9832
B( 12-S , 13-C ) :   1.0870 B( 13-C , 14-C ) :   1.6183 B( 13-C , 15-Br) :   1.0161
B( 14-C , 79-H ) :   1.0009 B( 16-C , 17-O ) :   2.1475 B( 16-C , 18-C ) :   0.9792
B( 18-C , 19-C ) :   1.5538 B( 19-C , 20-C ) :   1.2137 B( 19-C , 80-H ) :   0.9318
B( 20-C , 21-S ) :   1.0832 B( 20-C , 24-C ) :   1.4395 B( 21-S , 22-C ) :   1.1475
B( 22-C , 23-C ) :   1.4614 B( 22-C , 30-C ) :   1.1410 B( 23-C , 24-C ) :   1.3375
B( 23-C , 29-C ) :   1.0471 B( 24-C , 25-C ) :   1.0725 B( 25-C , 26-C ) :   1.0770
B( 25-C , 81-H ) :   0.8723 B( 25-C , 82-H ) :   0.9064 B( 26-C , 27-C ) :   1.0387
B( 26-C , 83-H ) :   0.9223 B( 26-C , 84-H ) :   0.9280 B( 27-C , 28-N ) :   1.0772
B( 27-C , 29-C ) :   1.0457 B( 27-C , 85-H ) :   0.9340 B( 28-N , 86-H ) :   0.9648
B( 28-N , 87-H ) :   0.9662 B( 28-N ,105-H ) :   0.1305 B( 29-C , 88-H ) :   0.8817
B( 29-C , 89-H ) :   0.9094 B( 30-C , 31-C ) :   1.6956 B( 30-C , 90-H ) :   0.9716
B( 31-C , 32-C ) :   1.0964 B( 31-C , 91-H ) :   0.9635 B( 32-C , 33-C ) :   1.4950
B( 32-C , 36-C ) :   1.2473 B( 33-C , 34-O ) :   1.1626 B( 33-C , 92-H ) :   0.9999
B( 34-O , 35-C ) :   1.1704 B( 35-C , 36-C ) :   1.5372 B( 35-C , 93-H ) :   1.0108
B( 36-C , 37-C ) :   0.9085 B( 37-C , 38-O ) :   2.2148 B( 37-C , 39-C ) :   0.9836
B( 39-C , 40-C ) :   1.4837 B( 39-C , 43-S ) :   1.1348 B( 40-C , 41-C ) :   1.3151
B( 40-C , 94-H ) :   0.9889 B( 41-C , 42-C ) :   1.4379 B( 41-C , 95-H ) :   0.9725
B( 42-C , 43-S ) :   1.1336 B( 42-C , 44-C ) :   1.1322 B( 44-C , 45-C ) :   1.6266
B( 44-C , 96-H ) :   0.9584 B( 45-C , 46-C ) :   1.1367 B( 45-C , 49-S ) :   1.0349
B( 46-C , 47-C ) :   1.5970 B( 46-C , 97-H ) :   0.9968 B( 47-C , 48-C ) :   1.1812
B( 47-C , 98-H ) :   0.9956 B( 48-C , 49-S ) :   1.0885 B( 48-C , 50-C ) :   1.4737
B( 50-C , 51-C ) :   1.1987 B( 50-C , 54-S ) :   1.0397 B( 51-C , 52-C ) :   1.5709
B( 51-C , 99-H ) :   0.9933 B( 52-C , 53-C ) :   1.1707 B( 52-C ,100-H ) :   0.9969
B( 53-C , 54-S ) :   1.1183 B( 53-C , 55-C ) :   1.4389 B( 55-C , 56-C ) :   1.3450
B( 55-C ,101-H ) :   0.9551 B( 56-C , 57-C ) :   1.4544 B( 56-C ,102-H ) :   0.9281
B( 57-C , 58-C ) :   0.9570 B( 57-C , 71-C ) :   1.1511 B( 58-C , 59-O ) :   2.2531
B( 58-C , 60-C ) :   0.9150 B( 60-C , 61-C ) :   1.4837 B( 60-C , 70-C ) :   1.2158
B( 61-C , 62-C ) :   1.1765 B( 61-C ,103-H ) :   1.0147 B( 62-C , 63-C ) :   1.2643
B( 62-C , 67-C ) :   1.2344 B( 63-C , 64-C ) :   1.2095 B( 63-C , 69-C ) :   1.1930
B( 64-C , 65-C ) :   1.4460 B( 64-C ,104-H ) :   1.0053 B( 65-C , 66-C ) :   1.2565
B( 65-C , 68-F ) :   1.0218 B( 66-C , 67-C ) :   1.4575 B( 66-C ,105-H ) :   0.9608
B( 67-C ,106-H ) :   0.9985 B( 69-C , 70-C ) :   1.4755 B( 69-C ,107-H ) :   0.9918
B( 70-C , 71-C ) :   0.9973 B( 71-C , 72-C ) :   1.5212 B( 72-C , 73-C ) :   1.1671
B( 72-C , 75-C ) :   1.1590 B( 73-C , 74-N ) :   3.0077 B( 75-C , 76-N ) :   2.8955

-----------------------------------------------------------------------------
         ABSORPTION SPECTRUM VIA TRANSITION ELECTRIC DIPOLE MOMENTS
-----------------------------------------------------------------------------
State   Energy  Wavelength   fosc         T2         TX        TY        TZ
        (cm-1)    (nm)                  (au**2)     (au)      (au)      (au)
-----------------------------------------------------------------------------
   0   12532.8    797.9   0.522491272  13.72481   0.04134  -3.23479   1.80533
   1   20417.3    489.8   1.119102416  18.04457  -3.82294  -0.48664   1.78686
   2   21082.9    474.3   0.007393596   0.11545  -0.29200  -0.16665   0.04917
   3   21168.0    472.4   0.033667607   0.52361  -0.50060  -0.03685   0.52120
   4   22900.7    436.7   0.052928927   0.76089  -0.20218   0.79678   0.29181
   5   24297.2    411.6   0.388983425   5.27048   0.23534   1.94148   1.20239
   6   24402.2    409.8   0.032858878   0.44330  -0.00621   0.64196   0.17651
   7   25333.2    394.7   0.005277954   0.06859   0.13878  -0.21012  -0.07196
   8   25939.2    385.5   0.278572002   3.53555   1.64353   0.60946   0.68037
   9   26293.1    380.3   0.782503658   9.79759   1.12461   1.79080   2.30779
  10   28136.0    355.4   0.004650345   0.05441  -0.05319  -0.10988  -0.19877
  11   28504.9    350.8   0.522152563   6.03050   2.29435   0.76848   0.41944
  12   29193.9    342.5   0.020704775   0.23348  -0.30079  -0.32407   0.19489
  13   29510.1    338.9   0.012965563   0.14464   0.07051  -0.20993   0.30919
  14   30143.7    331.7   0.005041756   0.05506   0.00030  -0.13913   0.18896
  15   30204.9    331.1   0.062745553   0.68388   0.67676  -0.33765  -0.33446
  16   30278.0    330.3   0.003717075   0.04042  -0.12194   0.02796  -0.15737
  17   30701.2    325.7   0.028236025   0.30278   0.17073  -0.43326   0.29312
  18   30764.6    325.0   0.006272082   0.06712  -0.24963  -0.06656  -0.01931
  19   30858.4    324.1   0.082324564   0.87828   0.45626   0.05988   0.81640
  20   31296.4    319.5   0.012654076   0.13311  -0.08965  -0.35283  -0.02416
  21   31740.1    315.1   0.031171588   0.32332  -0.39170  -0.30113  -0.28144
  22   31999.4    312.5   0.374768944   3.85565  -1.55800  -0.94978  -0.72541
  23   32456.4    308.1   0.002384503   0.02419   0.08169   0.10940   0.07446
  24   32576.9    307.0   0.026710171   0.26992   0.43875   0.17262  -0.21822
  25   32650.8    306.3   0.053134171   0.53574   0.53410  -0.11071   0.48808
  26   32852.7    304.4   0.117650174   1.17896   1.00020   0.07548   0.41577
  27   33068.8    302.4   0.039675241   0.39498  -0.54958  -0.24343  -0.18354
  28   33084.9    302.3   0.222777660   2.21675   1.30213   0.59291   0.41191
  29   33428.1    299.1   0.021766226   0.21436   0.45121  -0.02901   0.09963
  30   33494.5    298.6   0.049653934   0.48804  -0.30957  -0.62547  -0.03159
  31   33712.7    296.6   0.307179155   2.99967  -1.19070  -0.46996  -1.16663
  32   33988.0    294.2   0.031247025   0.30266   0.25042  -0.33985   0.35278
  33   34261.8    291.9   0.002685842   0.02581  -0.00709   0.07419   0.14231
  34   34587.3    289.1   0.087567370   0.83349  -0.45204   0.35375  -0.70994
  35   35180.6    284.2   0.011806790   0.11049   0.31449  -0.08752  -0.06262
  36   35415.4    282.4   0.141551535   1.31583   0.10274   1.12844   0.17856
  37   35674.1    280.3   0.034272330   0.31628   0.25516   0.33916  -0.36897
  38   35773.0    279.5   0.085042051   0.78262   0.45632  -0.42390  -0.62826
  39   35855.8    278.9   0.108536003   0.99653   0.86152  -0.13417   0.48612
  40   35935.7    278.3   0.248259487   2.27434  -1.17400   0.55404  -0.76752
  41   36119.9    276.9   0.006996588   0.06377  -0.06083  -0.18121  -0.16503
  42   36367.1    275.0   0.138912221   1.25750  -1.06296   0.28123  -0.22027
  43   36641.1    272.9   0.004869359   0.04375  -0.02902   0.04352   0.20252
  44   36910.0    270.9   0.004026476   0.03591   0.09169   0.04647  -0.15921
  45   37032.8    270.0   0.067565552   0.60064   0.33213   0.37071  -0.59406
  46   37614.6    265.9   0.024520210   0.21461  -0.33421  -0.21252  -0.24030
  47   37633.1    265.7   0.044471872   0.38904   0.52448   0.28428   0.18205
  48   37918.2    263.7   0.042254724   0.36686   0.06041  -0.59455  -0.09860
  49   38059.3    262.7   0.079781985   0.69011   0.66870   0.47990  -0.11246
  50   38462.0    260.0   0.002891356   0.02475  -0.00369  -0.14276   0.06598
  51   39069.9    256.0   0.083571074   0.70419   0.82151  -0.06416  -0.15874
  52   39155.2    255.4   0.098002216   0.82399  -0.03656   0.16136  -0.89253
  53   39392.1    253.9   0.084988822   0.71028  -0.22466  -0.33545  -0.73978
  54   39866.5    250.8   0.017757495   0.14664   0.05552  -0.35840  -0.12291
  55   40309.4    248.1   0.031930030   0.26078  -0.00149   0.50760   0.05583

FINAL SINGLE POINT ENERGY     -7578.043767173902

DIPOLE MOMENT
-------------
                                X             Y             Z
Electronic contribution:    148.31251      76.75711     -36.27188
Nuclear contribution   :   -148.41211     -76.47129      36.87824
                        -----------------------------------------
Total Dipole Moment    :     -0.09960       0.28583       0.60636
                        -----------------------------------------
Magnitude (a.u.)       :      0.67771
Magnitude (Debye)      :      1.72260

Rotational constants in cm-1:     0.001226     0.000238     0.000234
Rotational constants in MHz :    36.745615     7.137011     7.004536

                             ****ORCA TERMINATED NORMALLY****
TOTAL RUN TIME: 0 days 0 hours 12 minutes 42 seconds 937 msec
