                         Program Version 4.2.0 -  RELEASE  -
|  1> # ORCA input file
|  2> # SCF done       -182.382976933983          0.004034731468
|  3> ! CAM-B3LYP def2-SVP def2/J RIJCOSX Grid4 TightSCF
|  4> %maxcore 5000
|  5> %tddft
|  6>     Mode sTDDFT
|  7>     Ethresh 5.0
|  8>     maxcore 5000
|  9> end
| 10>
| 11> %pal
| 12>   nprocs 6
| 13>   end
| 14> * xyz 0 1
| 15>    C      -15.91966         7.41805         0.16490
| 16>    C      -16.25632         7.04924         1.44096
| 17>    C      -17.53149         7.24661         2.01276
| 18>    N      -18.54928         7.37550         2.52782
| 19>    C      -15.37276         6.44340         2.35756
| 20>    N      -14.68666         5.95970         3.14154
| 21>    C      -16.77892         8.13236        -0.77170
| 22>    C      -16.04845         8.38094        -1.96207
| 23>    C      -16.57010         9.07504        -3.02670
| 24>    C      -17.87205         9.57064        -2.90105
| 25>    C      -18.59613         9.32123        -1.70923
| 26>    C      -18.07326         8.60098        -0.64157
| 27>    S      -20.17045        10.05122        -1.75798
| 28>    C      -19.83592        10.68075        -3.34969
| 29>    C      -18.61028        10.35388        -3.82712
| 30>   Br      -21.13245        11.71009        -4.22431
| 31>    C      -14.69122         7.84864        -1.81078
| 32>    O      -13.81142         7.82628        -2.65807
| 33>    C      -14.61692         7.27582        -0.46206
| 34>    C      -13.54135         6.58600         0.03163
| 35>    N      -12.25235         6.67438        -0.36549
| 36>    C      -11.56015         7.72752        -0.89141
| 37>    S      -12.25713         9.29330        -1.08878
| 38>    C      -10.71674         9.91709        -1.55409
| 39>    N      -10.65222        11.28809        -1.86279
| 40>    O      -11.70303        11.89751        -1.79089
| 41>    O       -9.57233        11.75724        -2.14427
| 42>    C       -9.72977         8.97625        -1.58487
| 43>    C      -10.18653         7.69800        -1.19789
| 44>    C       -9.35037         6.53682        -1.12520
| 45>    C       -8.11857         6.47915        -1.68367
| 46>    C       -7.25723         5.34486        -1.66748
| 47>    C       -7.31224         4.25703        -0.67136
| 48>    C       -6.31480         3.38055        -0.84602
| 49>    C       -5.51577         3.82406        -1.99939
| 50>    O       -4.51905         3.35805        -2.49722
| 51>    C       -6.19718         5.07565        -2.49243
| 52>    N       -5.63272         5.64336        -3.59588
| 53>    C       -6.03183         6.59823        -4.47300
| 54>    S       -4.78289         7.49541        -5.28808
| 55>    C       -5.99694         8.41880        -6.11633
| 56>    N       -5.55223         9.38474        -7.03430
| 57>    O       -6.39053        10.01154        -7.64799
| 58>    O       -4.34506         9.50563        -7.14435
| 59>    C       -7.27209         8.06076        -5.78944
| 60>    C       -7.32421         6.99142        -4.86772
| 61>    C       -8.51557         6.31870        -4.45533
| 62>    C       -9.78925         6.72328        -4.68866
| 63>    C      -10.86344         5.98105        -4.14383
| 64>    C      -12.20488         6.08156        -4.33598
| 65>    C      -13.06377         6.95151        -5.11180
| 66>    C      -12.93106         8.30029        -5.29977
| 67>    C      -13.95232         9.09153        -5.86293
| 68>    N      -14.79069         9.75156        -6.28466
| 69>    C      -11.87714         9.05781        -4.75970
| 70>    N      -11.04263         9.69783        -4.29908
| 71>    C      -14.25377         6.17406        -5.44697
| 72>    C      -14.26708         4.99414        -4.66018
| 73>    C      -13.05871         4.97502        -3.82018
| 74>    O      -12.78022         4.22195        -2.91134
| 75>    C      -15.25154         4.04155        -4.77524
| 76>    C      -16.25981         4.25668        -5.72011
| 77>    C      -16.24426         5.44444        -6.49053
| 78>    C      -15.25423         6.41263        -6.36730
| 79>    S      -17.57378         5.49967        -7.60587
| 80>    C      -18.11815         3.94010        -7.04326
| 81>    C      -17.34987         3.40983        -6.06249
| 82>   Br      -19.64203         3.16058        -7.80836
| 83>    H      -15.99071         9.25896        -3.91830
| 84>    H      -18.66378         8.44127         0.24516
| 85>    H      -18.23338        10.65891        -4.78629
| 86>    H      -13.69843         5.86688         0.82670
| 87>    H      -11.66870         5.88448        -0.11129
| 88>    H       -8.72272         9.22028        -1.86461
| 89>    H       -9.75195         5.65281        -0.64905
| 90>    H       -7.74475         7.34228        -2.21167
| 91>    H       -8.05062         4.22968         0.10915
| 92>    H       -6.08139         2.51474        -0.25912
| 93>    H       -4.70206         5.25763        -3.76109
| 94>    H       -8.13121         8.53731        -6.22394
| 95>    H       -8.37046         5.38700        -3.92838
| 96>    H       -9.99018         7.61341        -5.26045
| 97>    H      -10.57518         5.14511        -3.51138
| 98>    H      -15.23362         3.14620        -4.17453
| 99>    H      -15.26942         7.28895        -6.99282
|100>    H      -17.53702         2.45557        -5.60551
|101> *
|102>
|103>                          ****END OF INPUT****

CARTESIAN COORDINATES (ANGSTROEM)
---------------------------------
  C    -15.919660    7.418050    0.164900
  C    -16.256320    7.049240    1.440960
  C    -17.531490    7.246610    2.012760
  N    -18.549280    7.375500    2.527820
  C    -15.372760    6.443400    2.357560
  N    -14.686660    5.959700    3.141540
  C    -16.778920    8.132360   -0.771700
  C    -16.048450    8.380940   -1.962070
  C    -16.570100    9.075040   -3.026700
  C    -17.872050    9.570640   -2.901050
  C    -18.596130    9.321230   -1.709230
  C    -18.073260    8.600980   -0.641570
  S    -20.170450   10.051220   -1.757980
  C    -19.835920   10.680750   -3.349690
  C    -18.610280   10.353880   -3.827120
  Br   -21.132450   11.710090   -4.224310
  C    -14.691220    7.848640   -1.810780
  O    -13.811420    7.826280   -2.658070
  C    -14.616920    7.275820   -0.462060
  C    -13.541350    6.586000    0.031630
  N    -12.252350    6.674380   -0.365490
  C    -11.560150    7.727520   -0.891410
  S    -12.257130    9.293300   -1.088780
  C    -10.716740    9.917090   -1.554090
  N    -10.652220   11.288090   -1.862790
  O    -11.703030   11.897510   -1.790890
  O     -9.572330   11.757240   -2.144270
  C     -9.729770    8.976250   -1.584870
  C    -10.186530    7.698000   -1.197890
  C     -9.350370    6.536820   -1.125200
  C     -8.118570    6.479150   -1.683670
  C     -7.257230    5.344860   -1.667480
  C     -7.312240    4.257030   -0.671360
  C     -6.314800    3.380550   -0.846020
  C     -5.515770    3.824060   -1.999390
  O     -4.519050    3.358050   -2.497220
  C     -6.197180    5.075650   -2.492430
  N     -5.632720    5.643360   -3.595880
  C     -6.031830    6.598230   -4.473000
  S     -4.782890    7.495410   -5.288080
  C     -5.996940    8.418800   -6.116330
  N     -5.552230    9.384740   -7.034300
  O     -6.390530   10.011540   -7.647990
  O     -4.345060    9.505630   -7.144350
  C     -7.272090    8.060760   -5.789440
  C     -7.324210    6.991420   -4.867720
  C     -8.515570    6.318700   -4.455330
  C     -9.789250    6.723280   -4.688660
  C    -10.863440    5.981050   -4.143830
  C    -12.204880    6.081560   -4.335980
  C    -13.063770    6.951510   -5.111800
  C    -12.931060    8.300290   -5.299770
  C    -13.952320    9.091530   -5.862930
  N    -14.790690    9.751560   -6.284660
  C    -11.877140    9.057810   -4.759700
  N    -11.042630    9.697830   -4.299080
  C    -14.253770    6.174060   -5.446970
  C    -14.267080    4.994140   -4.660180
  C    -13.058710    4.975020   -3.820180
  O    -12.780220    4.221950   -2.911340
  C    -15.251540    4.041550   -4.775240
  C    -16.259810    4.256680   -5.720110
  C    -16.244260    5.444440   -6.490530
  C    -15.254230    6.412630   -6.367300
  S    -17.573780    5.499670   -7.605870
  C    -18.118150    3.940100   -7.043260
  C    -17.349870    3.409830   -6.062490
  Br   -19.642030    3.160580   -7.808360
  H    -15.990710    9.258960   -3.918300
  H    -18.663780    8.441270    0.245160
  H    -18.233380   10.658910   -4.786290
  H    -13.698430    5.866880    0.826700
  H    -11.668700    5.884480   -0.111290
  H     -8.722720    9.220280   -1.864610
  H     -9.751950    5.652810   -0.649050
  H     -7.744750    7.342280   -2.211670
  H     -8.050620    4.229680    0.109150
  H     -6.081390    2.514740   -0.259120
  H     -4.702060    5.257630   -3.761090
  H     -8.131210    8.537310   -6.223940
  H     -8.370460    5.387000   -3.928380
  H     -9.990180    7.613410   -5.260450
  H    -10.575180    5.145110   -3.511380
  H    -15.233620    3.146200   -4.174530
  H    -15.269420    7.288950   -6.992820
  H    -17.537020    2.455570   -5.605510

 Total Charge           Charge          ....    0
 Multiplicity           Mult            ....    1
 Number of Electrons    NEL             ....  546
 Basis Dimension        Dim             .... 1094

ORBITAL ENERGIES
----------------

  NO   OCC          E(Eh)            E(eV)
   0   2.0000    -482.891030    -13140.1330
   1   2.0000    -482.885819    -13139.9912
   2   2.0000     -88.995165     -2421.6816
   3   2.0000     -88.989161     -2421.5182
   4   2.0000     -88.982320     -2421.3320
   5   2.0000     -88.977659     -2421.2052
   6   2.0000     -62.568754     -1702.5824
   7   2.0000     -62.563538     -1702.4404
   8   2.0000     -56.402710     -1534.7958
   9   2.0000     -56.399983     -1534.7216
  10   2.0000     -56.399951     -1534.7207
  11   2.0000     -56.397490     -1534.6537
  12   2.0000     -56.394764     -1534.5795
  13   2.0000     -56.394745     -1534.5790
  14   2.0000     -19.254165      -523.9325
  15   2.0000     -19.244958      -523.6819
  16   2.0000     -19.244866      -523.6794
  17   2.0000     -19.235809      -523.4330
  18   2.0000     -19.234525      -523.3980
  19   2.0000     -19.229445      -523.2598
  20   2.0000     -19.224831      -523.1342
  21   2.0000     -14.656474      -398.8229
  22   2.0000     -14.645780      -398.5319
  23   2.0000     -14.518554      -395.0699
  24   2.0000     -14.501749      -394.6126
  25   2.0000     -14.426524      -392.5657
  26   2.0000     -14.424124      -392.5004
  27   2.0000     -14.422056      -392.4441
  28   2.0000     -14.421558      -392.4305
  29   2.0000     -10.391041      -282.7546
  30   2.0000     -10.386988      -282.6443
  31   2.0000     -10.378886      -282.4239
  32   2.0000     -10.377446      -282.3847
  33   2.0000     -10.376209      -282.3510
  34   2.0000     -10.374645      -282.3084
  35   2.0000     -10.364907      -282.0435
  36   2.0000     -10.359969      -281.9091
  37   2.0000     -10.353742      -281.7396
  38   2.0000     -10.352672      -281.7105
  39   2.0000     -10.350011      -281.6381
  40   2.0000     -10.346765      -281.5498
  41   2.0000     -10.346530      -281.5434
  42   2.0000     -10.345234      -281.5081
  43   2.0000     -10.342410      -281.4313
  44   2.0000     -10.332924      -281.1732
  45   2.0000     -10.329419      -281.0778
  46   2.0000     -10.328596      -281.0554
  47   2.0000     -10.327369      -281.0220
  48   2.0000     -10.325398      -280.9684
  49   2.0000     -10.324336      -280.9395
  50   2.0000     -10.322282      -280.8836
  51   2.0000     -10.320327      -280.8304
  52   2.0000     -10.316873      -280.7364
  53   2.0000     -10.315925      -280.7106
  54   2.0000     -10.315145      -280.6894
  55   2.0000     -10.315043      -280.6866
  56   2.0000     -10.314190      -280.6634
  57   2.0000     -10.313534      -280.6455
  58   2.0000     -10.313469      -280.6438
  59   2.0000     -10.312756      -280.6244
  60   2.0000     -10.311158      -280.5809
  61   2.0000     -10.311085      -280.5789
  62   2.0000     -10.310897      -280.5738
  63   2.0000     -10.309746      -280.5424
  64   2.0000     -10.309596      -280.5384
  65   2.0000     -10.309396      -280.5329
  66   2.0000     -10.305663      -280.4313
  67   2.0000     -10.305176      -280.4181
  68   2.0000     -10.303851      -280.3820
  69   2.0000     -10.302986      -280.3585
  70   2.0000     -10.301235      -280.3109
  71   2.0000     -10.300496      -280.2908
  72   2.0000     -10.298054      -280.2243
  73   2.0000     -10.296474      -280.1813
  74   2.0000     -10.295840      -280.1640
  75   2.0000     -10.292096      -280.0622
  76   2.0000      -8.798194      -239.4110
  77   2.0000      -8.792983      -239.2692
  78   2.0000      -8.091032      -220.1682
  79   2.0000      -8.083555      -219.9647
  80   2.0000      -8.078209      -219.8193
  81   2.0000      -8.073712      -219.6969
  82   2.0000      -6.634527      -180.5347
  83   2.0000      -6.629298      -180.3924
  84   2.0000      -6.619898      -180.1366
  85   2.0000      -6.619719      -180.1317
  86   2.0000      -6.614736      -179.9961
  87   2.0000      -6.614480      -179.9891
  88   2.0000      -6.060750      -164.9214
  89   2.0000      -6.056241      -164.7987
  90   2.0000      -6.053147      -164.7145
  91   2.0000      -6.052392      -164.6939
  92   2.0000      -6.048569      -164.5899
  93   2.0000      -6.047902      -164.5718
  94   2.0000      -6.045376      -164.5030
  95   2.0000      -6.043621      -164.4553
  96   2.0000      -6.043354      -164.4480
  97   2.0000      -6.039481      -164.3426
  98   2.0000      -6.039120      -164.3328
  99   2.0000      -6.034970      -164.2199
 100   2.0000      -2.750401       -74.8422
 101   2.0000      -2.746319       -74.7311
 102   2.0000      -2.746106       -74.7254
 103   2.0000      -2.745184       -74.7002
 104   2.0000      -2.741073       -74.5884
 105   2.0000      -2.740917       -74.5841
 106   2.0000      -2.734527       -74.4103
 107   2.0000      -2.734504       -74.4096
 108   2.0000      -2.729322       -74.2686
 109   2.0000      -2.729307       -74.2682
 110   2.0000      -1.327069       -36.1114
 111   2.0000      -1.317565       -35.8528
 112   2.0000      -1.167120       -31.7590
 113   2.0000      -1.146960       -31.2104
 114   2.0000      -1.146872       -31.2080
 115   2.0000      -1.138275       -30.9740
 116   2.0000      -1.137845       -30.9623
 117   2.0000      -1.112403       -30.2700
 118   2.0000      -1.101243       -29.9663
 119   2.0000      -1.029993       -28.0275
 120   2.0000      -1.029118       -28.0037
 121   2.0000      -1.020418       -27.7670
 122   2.0000      -1.018965       -27.7274
 123   2.0000      -1.017967       -27.7003
 124   2.0000      -1.011390       -27.5213
 125   2.0000      -1.002758       -27.2864
 126   2.0000      -1.002709       -27.2851
 127   2.0000      -0.996608       -27.1191
 128   2.0000      -0.995233       -27.0817
 129   2.0000      -0.986878       -26.8543
 130   2.0000      -0.951101       -25.8808
 131   2.0000      -0.947096       -25.7718
 132   2.0000      -0.938958       -25.5503
 133   2.0000      -0.929176       -25.2842
 134   2.0000      -0.914931       -24.8965
 135   2.0000      -0.914266       -24.8784
 136   2.0000      -0.907824       -24.7031
 137   2.0000      -0.904672       -24.6174
 138   2.0000      -0.893330       -24.3088
 139   2.0000      -0.892872       -24.2963
 140   2.0000      -0.889574       -24.2065
 141   2.0000      -0.886889       -24.1335
 142   2.0000      -0.873783       -23.7768
 143   2.0000      -0.863413       -23.4947
 144   2.0000      -0.855988       -23.2926
 145   2.0000      -0.839662       -22.8484
 146   2.0000      -0.835368       -22.7315
 147   2.0000      -0.832761       -22.6606
 148   2.0000      -0.829256       -22.5652
 149   2.0000      -0.809650       -22.0317
 150   2.0000      -0.799767       -21.7628
 151   2.0000      -0.785078       -21.3630
 152   2.0000      -0.772439       -21.0191
 153   2.0000      -0.769687       -20.9443
 154   2.0000      -0.760716       -20.7001
 155   2.0000      -0.755354       -20.5542
 156   2.0000      -0.737562       -20.0701
 157   2.0000      -0.732416       -19.9301
 158   2.0000      -0.714180       -19.4338
 159   2.0000      -0.713054       -19.4032
 160   2.0000      -0.703714       -19.1490
 161   2.0000      -0.702162       -19.1068
 162   2.0000      -0.696705       -18.9583
 163   2.0000      -0.691425       -18.8146
 164   2.0000      -0.686133       -18.6706
 165   2.0000      -0.679200       -18.4820
 166   2.0000      -0.670742       -18.2518
 167   2.0000      -0.666124       -18.1262
 168   2.0000      -0.661262       -17.9938
 169   2.0000      -0.654884       -17.8203
 170   2.0000      -0.645917       -17.5763
 171   2.0000      -0.642866       -17.4933
 172   2.0000      -0.640772       -17.4363
 173   2.0000      -0.638022       -17.3615
 174   2.0000      -0.632440       -17.2096
 175   2.0000      -0.630690       -17.1620
 176   2.0000      -0.628496       -17.1022
 177   2.0000      -0.627393       -17.0722
 178   2.0000      -0.620788       -16.8925
 179   2.0000      -0.611403       -16.6371
 180   2.0000      -0.609629       -16.5889
 181   2.0000      -0.605489       -16.4762
 182   2.0000      -0.603413       -16.4197
 183   2.0000      -0.600467       -16.3395
 184   2.0000      -0.598006       -16.2726
 185   2.0000      -0.588718       -16.0198
 186   2.0000      -0.587653       -15.9908
 187   2.0000      -0.580836       -15.8054
 188   2.0000      -0.574435       -15.6312
 189   2.0000      -0.571676       -15.5561
 190   2.0000      -0.567092       -15.4314
 191   2.0000      -0.566239       -15.4081
 192   2.0000      -0.560103       -15.2412
 193   2.0000      -0.557787       -15.1782
 194   2.0000      -0.552904       -15.0453
 195   2.0000      -0.551585       -15.0094
 196   2.0000      -0.550546       -14.9811
 197   2.0000      -0.545499       -14.8438
 198   2.0000      -0.543936       -14.8012
 199   2.0000      -0.541710       -14.7407
 200   2.0000      -0.536927       -14.6105
 201   2.0000      -0.532799       -14.4982
 202   2.0000      -0.531830       -14.4718
 203   2.0000      -0.526034       -14.3141
 204   2.0000      -0.525918       -14.3110
 205   2.0000      -0.523312       -14.2400
 206   2.0000      -0.522996       -14.2314
 207   2.0000      -0.519278       -14.1303
 208   2.0000      -0.514521       -14.0008
 209   2.0000      -0.511272       -13.9124
 210   2.0000      -0.510167       -13.8824
 211   2.0000      -0.506314       -13.7775
 212   2.0000      -0.504749       -13.7349
 213   2.0000      -0.501392       -13.6436
 214   2.0000      -0.500662       -13.6237
 215   2.0000      -0.496549       -13.5118
 216   2.0000      -0.495251       -13.4765
 217   2.0000      -0.492308       -13.3964
 218   2.0000      -0.484342       -13.1796
 219   2.0000      -0.482327       -13.1248
 220   2.0000      -0.479270       -13.0416
 221   2.0000      -0.471452       -12.8289
 222   2.0000      -0.469002       -12.7622
 223   2.0000      -0.465626       -12.6703
 224   2.0000      -0.463992       -12.6259
 225   2.0000      -0.463077       -12.6010
 226   2.0000      -0.459137       -12.4937
 227   2.0000      -0.458399       -12.4737
 228   2.0000      -0.457777       -12.4567
 229   2.0000      -0.454941       -12.3796
 230   2.0000      -0.453631       -12.3439
 231   2.0000      -0.451555       -12.2874
 232   2.0000      -0.450669       -12.2633
 233   2.0000      -0.446033       -12.1372
 234   2.0000      -0.444120       -12.0851
 235   2.0000      -0.443820       -12.0770
 236   2.0000      -0.436658       -11.8821
 237   2.0000      -0.436028       -11.8649
 238   2.0000      -0.435445       -11.8491
 239   2.0000      -0.434732       -11.8297
 240   2.0000      -0.431237       -11.7346
 241   2.0000      -0.429100       -11.6764
 242   2.0000      -0.419610       -11.4182
 243   2.0000      -0.418203       -11.3799
 244   2.0000      -0.415480       -11.3058
 245   2.0000      -0.407539       -11.0897
 246   2.0000      -0.395122       -10.7518
 247   2.0000      -0.394313       -10.7298
 248   2.0000      -0.391611       -10.6563
 249   2.0000      -0.389298       -10.5933
 250   2.0000      -0.385555       -10.4915
 251   2.0000      -0.381148       -10.3716
 252   2.0000      -0.380345       -10.3497
 253   2.0000      -0.378895       -10.3103
 254   2.0000      -0.375082       -10.2065
 255   2.0000      -0.374316       -10.1857
 256   2.0000      -0.373595       -10.1660
 257   2.0000      -0.372965       -10.1489
 258   2.0000      -0.369072       -10.0430
 259   2.0000      -0.364193        -9.9102
 260   2.0000      -0.361682        -9.8419
 261   2.0000      -0.355615        -9.6768
 262   2.0000      -0.351955        -9.5772
 263   2.0000      -0.343975        -9.3600
 264   2.0000      -0.333841        -9.0843
 265   2.0000      -0.329052        -8.9540
 266   2.0000      -0.322252        -8.7689
 267   2.0000      -0.317324        -8.6348
 268   2.0000      -0.304598        -8.2885
 269   2.0000      -0.300739        -8.1835
 270   2.0000      -0.296984        -8.0813
 271   2.0000      -0.288952        -7.8628
 272   2.0000      -0.258105        -7.0234
 273   0.0000      -0.108016        -2.9393
 274   0.0000      -0.089865        -2.4453
 275   0.0000      -0.089027        -2.4225
 276   0.0000      -0.067498        -1.8367
 277   0.0000      -0.064170        -1.7461

MULLIKEN ATOMIC CHARGES
-----------------------
   0 C :    0.306789
   1 C :   -0.342951
   2 C :   -0.179821
   3 N :    0.152200
   4 C :   -0.210013
   5 N :    0.150890
   6 C :    0.010663
   7 C :    0.010493
   8 C :   -0.057660
   9 C :    0.109280
  10 C :   -0.090688
  11 C :   -0.024330
  12 S :    0.189166
  13 C :   -0.125255
  14 C :    0.043069
  15 Br:    0.029445
  16 C :    0.144618
  17 O :   -0.178764
  18 C :   -0.134766
  19 C :    0.030569
  20 N :    0.032341
  21 C :   -0.086116
  22 S :    0.194683
  23 C :    0.020004
  24 N :    0.284123
  25 O :   -0.261399
  26 O :   -0.235211
  27 C :    0.011066
  28 C :    0.134628
  29 C :   -0.056001
  30 C :   -0.025889
  31 C :   -0.024808
  32 C :    0.055318
  33 C :   -0.040787
  34 C :    0.144595
  35 O :   -0.130678
  36 C :   -0.060256
  37 N :    0.038777
  38 C :   -0.105930
  39 S :    0.185761
  40 C :    0.002280
  41 N :    0.276929
  42 O :   -0.235650
  43 O :   -0.259672
  44 C :    0.008336
  45 C :    0.089212
  46 C :   -0.004219
  47 C :    0.003262
  48 C :    0.007554
  49 C :   -0.069523
  50 C :    0.293203
  51 C :   -0.300242
  52 C :   -0.162314
  53 N :    0.115251
  54 C :   -0.159579
  55 N :    0.136979
  56 C :    0.001335
  57 C :    0.007304
  58 C :    0.131294
  59 O :   -0.173962
  60 C :   -0.073418
  61 C :    0.108997
  62 C :   -0.089317
  63 C :   -0.026741
  64 S :    0.185079
  65 C :   -0.126069
  66 C :    0.043627
  67 Br:    0.027592
  68 H :   -0.030629
  69 H :   -0.005556
  70 H :    0.010149
  71 H :    0.053275
  72 H :    0.156239
  73 H :    0.004650
  74 H :   -0.033573
  75 H :    0.008831
  76 H :    0.003214
  77 H :    0.000062
  78 H :    0.145003
  79 H :    0.022881
  80 H :    0.011033
  81 H :    0.007954
  82 H :   -0.002703
  83 H :   -0.010879
  84 H :   -0.001530
  85 H :   -0.003101
Sum of atomic charges:   -0.0000000

LOEWDIN ATOMIC CHARGES
----------------------
   0 C :    0.082700
   1 C :   -0.144605
   2 C :   -0.019143
   3 N :   -0.049602
   4 C :   -0.022625
   5 N :   -0.056321
   6 C :   -0.023786
   7 C :   -0.052399
   8 C :    0.027161
   9 C :   -0.029654
  10 C :   -0.144457
  11 C :   -0.007240
  12 S :    0.435194
  13 C :   -0.271197
  14 C :   -0.064577
  15 Br:    0.141766
  16 C :    0.067938
  17 O :   -0.170597
  18 C :   -0.146875
  19 C :    0.104214
  20 N :    0.088624
  21 C :   -0.106865
  22 S :    0.530075
  23 C :   -0.191457
  24 N :    0.280144
  25 O :   -0.224594
  26 O :   -0.198298
  27 C :   -0.005791
  28 C :   -0.090260
  29 C :   -0.022297
  30 C :   -0.022377
  31 C :   -0.081199
  32 C :    0.055101
  33 C :   -0.074048
  34 C :    0.088611
  35 O :   -0.108641
  36 C :   -0.023787
  37 N :    0.048973
  38 C :   -0.096621
  39 S :    0.463174
  40 C :   -0.200664
  41 N :    0.272753
  42 O :   -0.202592
  43 O :   -0.225142
  44 C :    0.013118
  45 C :   -0.110683
  46 C :    0.027882
  47 C :   -0.039883
  48 C :    0.051975
  49 C :   -0.081019
  50 C :    0.081419
  51 C :   -0.138853
  52 C :   -0.009122
  53 N :   -0.065768
  54 C :   -0.005986
  55 N :   -0.060276
  56 C :   -0.012562
  57 C :   -0.051956
  58 C :    0.088711
  59 O :   -0.165489
  60 C :    0.020484
  61 C :   -0.034705
  62 C :   -0.143404
  63 C :   -0.013491
  64 S :    0.432279
  65 C :   -0.271609
  66 C :   -0.069962
  67 Br:    0.139668
  68 H :    0.041000
  69 H :    0.041400
  70 H :    0.044484
  71 H :    0.046137
  72 H :    0.106753
  73 H :    0.042451
  74 H :    0.018541
  75 H :    0.034201
  76 H :    0.032122
  77 H :    0.034923
  78 H :    0.095140
  79 H :    0.050495
  80 H :    0.037458
  81 H :    0.029305
  82 H :    0.036481
  83 H :    0.040463
  84 H :    0.040214
  85 H :    0.038948

  Mayer bond orders larger than 0.100000
B(  0-C ,  1-C ) :   1.6391 B(  0-C ,  6-C ) :   1.0146 B(  0-C , 18-C ) :   1.0928
B(  1-C ,  2-C ) :   1.1400 B(  1-C ,  4-C ) :   1.1401 B(  2-C ,  3-N ) :   2.9720
B(  4-C ,  5-N ) :   2.9833 B(  6-C ,  7-C ) :   1.2639 B(  6-C , 11-C ) :   1.4127
B(  7-C ,  8-C ) :   1.4050 B(  7-C , 16-C ) :   0.9581 B(  8-C ,  9-C ) :   1.2587
B(  8-C , 68-H ) :   1.0172 B(  9-C , 10-C ) :   1.2976 B(  9-C , 14-C ) :   1.1707
B( 10-C , 11-C ) :   1.3267 B( 10-C , 12-S ) :   1.0904 B( 11-C , 69-H ) :   0.9810
B( 12-S , 13-C ) :   1.0872 B( 13-C , 14-C ) :   1.6087 B( 13-C , 15-Br) :   1.0233
B( 14-C , 70-H ) :   1.0013 B( 16-C , 17-O ) :   2.0987 B( 16-C , 18-C ) :   0.9857
B( 18-C , 19-C ) :   1.5099 B( 19-C , 20-N ) :   1.2949 B( 19-C , 71-H ) :   0.9326
B( 20-N , 21-C ) :   1.1739 B( 20-N , 72-H ) :   0.8984 B( 21-C , 22-S ) :   1.1557
B( 21-C , 28-C ) :   1.3678 B( 22-S , 23-C ) :   1.1254 B( 23-C , 24-N ) :   0.9479
B( 23-C , 27-C ) :   1.4987 B( 24-N , 25-O ) :   1.5224 B( 24-N , 26-O ) :   1.5558
B( 25-O , 26-O ) :   0.2650 B( 27-C , 28-C ) :   1.2321 B( 27-C , 73-H ) :   0.9989
B( 28-C , 29-C ) :   1.0691 B( 29-C , 30-C ) :   1.6963 B( 29-C , 74-H ) :   0.9700
B( 30-C , 31-C ) :   1.1276 B( 30-C , 75-H ) :   0.9579 B( 31-C , 32-C ) :   1.0115
B( 31-C , 36-C ) :   1.5644 B( 32-C , 33-C ) :   1.7150 B( 32-C , 76-H ) :   1.0006
B( 33-C , 34-C ) :   1.0203 B( 33-C , 77-H ) :   1.0168 B( 34-C , 35-O ) :   2.1820
B( 34-C , 36-C ) :   0.9240 B( 36-C , 37-N ) :   1.2047 B( 37-N , 38-C ) :   1.1964
B( 37-N , 78-H ) :   0.8615 B( 38-C , 39-S ) :   1.1508 B( 38-C , 45-C ) :   1.3447
B( 39-S , 40-C ) :   1.0770 B( 40-C , 41-N ) :   0.9562 B( 40-C , 44-C ) :   1.5151
B( 41-N , 42-O ) :   1.5457 B( 41-N , 43-O ) :   1.5129 B( 42-O , 43-O ) :   0.2648
B( 44-C , 45-C ) :   1.2118 B( 44-C , 79-H ) :   1.0035 B( 45-C , 46-C ) :   1.0953
B( 46-C , 47-C ) :   1.6591 B( 46-C , 80-H ) :   0.9618 B( 47-C , 48-C ) :   1.1372
B( 47-C , 81-H ) :   0.9633 B( 48-C , 49-C ) :   1.6180 B( 48-C , 82-H ) :   0.9423
B( 49-C , 50-C ) :   1.0226 B( 49-C , 58-C ) :   0.9515 B( 50-C , 51-C ) :   1.6568
B( 50-C , 56-C ) :   1.0069 B( 51-C , 52-C ) :   1.1386 B( 51-C , 54-C ) :   1.1713
B( 52-C , 53-N ) :   2.9103 B( 54-C , 55-N ) :   2.9369 B( 56-C , 57-C ) :   1.2768
B( 56-C , 63-C ) :   1.4165 B( 57-C , 58-C ) :   0.9246 B( 57-C , 60-C ) :   1.4219
B( 58-C , 59-O ) :   2.2168 B( 60-C , 61-C ) :   1.2542 B( 60-C , 83-H ) :   1.0159
B( 61-C , 62-C ) :   1.3078 B( 61-C , 66-C ) :   1.1650 B( 62-C , 63-C ) :   1.3214
B( 62-C , 64-S ) :   1.0848 B( 63-C , 84-H ) :   0.9875 B( 64-S , 65-C ) :   1.0860
B( 65-C , 66-C ) :   1.6204 B( 65-C , 67-Br) :   1.0208 B( 66-C , 85-H ) :   0.9991

-----------------------------------------------------------------------------
         ABSORPTION SPECTRUM VIA TRANSITION ELECTRIC DIPOLE MOMENTS
-----------------------------------------------------------------------------
State   Energy  Wavelength   fosc         T2         TX        TY        TZ
        (cm-1)    (nm)                  (au**2)     (au)      (au)      (au)
-----------------------------------------------------------------------------
   0   14293.2    699.6   0.150106879   3.45738  -0.44068   0.13172   1.80162
   1   18957.0    527.5   0.121157141   2.10404  -1.36318  -0.45166  -0.20439
   2   21629.0    462.3   0.367210361   5.58925   2.34103   0.10572  -0.31250
   3   22896.9    436.7   0.688042378   9.89267  -3.04954   0.65430   0.40607
   4   24938.8    401.0   0.066657354   0.87993  -0.83827   0.41008  -0.09522
   5   25227.7    396.4   0.033915173   0.44258   0.51277   0.04984   0.42090
   6   25706.1    389.0   0.035206998   0.45089  -0.65912  -0.11432  -0.05812
   7   26525.2    377.0   0.025047179   0.31087   0.22734  -0.11899  -0.49500
   8   26747.9    373.9   0.128337478   1.57957   0.57421   0.68942  -0.88009
   9   27372.9    365.3   0.099844196   1.20082   0.81963   0.14257   0.71323
  10   27659.2    361.5   0.330892634   3.93843  -0.97275   1.12776  -1.31162
  11   27926.2    358.1   0.294975454   3.47736   1.42609   1.17881  -0.23244
  12   28953.6    345.4   0.062063453   0.70568   0.72956  -0.04399  -0.41411
  13   29417.9    339.9   0.079882257   0.89395  -0.86733  -0.31025  -0.21316
  14   29437.7    339.7   0.014743458   0.16488   0.35874  -0.06765   0.17779
  15   29913.1    334.3   0.060750218   0.66859  -0.76379  -0.14489  -0.25342
  16   29991.8    333.4   0.012944110   0.14208   0.28430   0.03350   0.24523
  17   30062.1    332.6   0.158968926   1.74088   0.97423  -0.88780   0.05963
  18   30299.7    330.0   0.195594429   2.12517   1.19269  -0.81302   0.20411
  19   30556.2    327.3   0.022492798   0.24234  -0.00783   0.22754   0.43646
  20   30741.2    325.3   0.017054146   0.18264   0.37500   0.18030  -0.09748
  21   31147.4    321.1   0.044312428   0.46836  -0.41022   0.32901  -0.43798
  22   31684.9    315.6   0.057662930   0.59913  -0.70693  -0.19933  -0.24423
  23   31734.6    315.1   0.050948447   0.52853   0.27347   0.19360   0.64519
  24   32232.7    310.2   0.490061521   5.00529  -1.81037  -1.03600  -0.80904
  25   32374.1    308.9   0.221628331   2.25374  -0.95119  -0.53341   1.03172
  26   32848.1    304.4   0.022070996   0.22120  -0.12597  -0.01343   0.45294
  27   32975.2    303.3   0.369149977   3.68545  -0.10853  -1.53938   1.14192
  28   33261.8    300.6   0.086077627   0.85196  -0.65410  -0.63140  -0.15954
  29   33559.6    298.0   0.173555100   1.70253   0.71620   1.08493   0.11187
  30   33962.5    294.4   0.074314938   0.72037  -0.80011   0.02384   0.28218
  31   34329.5    291.3   0.159823629   1.53267  -1.23766   0.00836   0.02829
  32   34420.8    290.5   0.037152793   0.35534  -0.59154  -0.02094   0.07063
  33   34551.4    289.4   0.090950283   0.86659  -0.92729   0.08198  -0.00203
  34   34867.0    286.8   0.117497705   1.10940  -0.68526   0.68629  -0.41089
  35   34888.7    286.6   0.073301830   0.69168   0.78049   0.20268  -0.20355
  36   35366.7    282.8   0.024445960   0.22756  -0.36546  -0.19553   0.23614
  37   35650.0    280.5   0.012005187   0.11086   0.18564   0.24432   0.12925
  38   35730.0    279.9   0.049152247   0.45288   0.49536   0.11192   0.44156
  39   35908.8    278.5   0.120680900   1.10640   0.23760   0.99872   0.22916
  40   36045.0    277.4   0.119215208   1.08884  -0.81392  -0.52699   0.38554
  41   36206.1    276.2   0.067891304   0.61732  -0.06743   0.68999  -0.36970
  42   36742.2    272.2   0.012376115   0.11089   0.23318   0.20379  -0.12242
  43   37035.8    270.0   0.002912262   0.02589   0.05733  -0.12066  -0.08968
  44   37138.9    269.3   0.016198312   0.14359  -0.14818   0.32409   0.12883
  45   37198.0    268.8   0.114565780   1.01394  -0.89824   0.44798  -0.08010
  46   37365.4    267.6   0.020014941   0.17634  -0.17830  -0.22055   0.30969
  47   37696.3    265.3   0.023809215   0.20793   0.35419  -0.12673  -0.25773
  48   37776.5    264.7   0.162152799   1.41312   1.02780  -0.39631  -0.44685
  49   38016.9    263.0   0.012137966   0.10511   0.00372   0.00062  -0.32419
  50   38292.3    261.1   0.045339692   0.38980  -0.59964   0.17389  -0.00092
  51   38478.5    259.9   0.204917329   1.75322  -0.50757   1.11829  -0.49500
  52   38646.8    258.8   0.072262498   0.61557  -0.76050  -0.03169   0.19027
  53   39247.9    254.8   0.089324852   0.74926   0.49335   0.16128  -0.69271
  54   39395.9    253.8   0.043532443   0.36378   0.18073  -0.42228   0.39088
  55   39696.8    251.9   0.027188890   0.22548  -0.23395   0.22577   0.34609
  56   39752.7    251.6   0.061945291   0.51300   0.59499  -0.30830   0.25285
  57   40014.7    249.9   0.050803368   0.41797   0.02442  -0.64604  -0.00221

FINAL SINGLE POINT ENERGY     -9502.857635069224

DIPOLE MOMENT
-------------
                                X             Y             Z
Electronic contribution:   -161.32614      15.00290     -57.25747
Nuclear contribution   :    160.91684     -18.69569      56.97063
                        -----------------------------------------
Total Dipole Moment    :     -0.40930      -3.69279      -0.28684
                        -----------------------------------------
Magnitude (a.u.)       :      3.72646
Magnitude (Debye)      :      9.47191

Rotational constants in cm-1:     0.001103     0.000486     0.000445
Rotational constants in MHz :    33.075362    14.565850    13.335401

                             ****ORCA TERMINATED NORMALLY****
TOTAL RUN TIME: 0 days 0 hours 10 minutes 2 seconds 662 msec
