                         Program Version 4.2.0 -  RELEASE  -
|  1> # ORCA input file
|  2> # SCF done       -173.093174111965          0.000642015154
|  3> ! CAM-B3LYP def2-SVP def2/J RIJCOSX Grid4 TightSCF
|  4> %maxcore 5000
|  5> %tddft
|  6>     Mode sTDDFT
|  7>     Ethresh 5.0
|  8>     maxcore 5000
|  9> end
| 10>
| 11> %pal
| 12>   nprocs 6
| 13>   end
| 14> * xyz 0 1
| 15>    C       -2.15260        -0.76935        -2.47718
| 16>    C       -1.99248        -0.97701        -3.81887
| 17>    C       -0.84956        -0.58093        -4.54722
| 18>    N        0.05382        -0.27797        -5.18633
| 19>    C       -2.91926        -1.64655        -4.64843
| 20>    N       -3.61388        -2.19513        -5.37867
| 21>    C       -1.17476        -0.17321        -1.58046
| 22>    C       -1.63625        -0.30739        -0.24780
| 23>    C       -0.92221         0.15120         0.83345
| 24>    C        0.30500         0.77412         0.58808
| 25>    C        0.75571         0.91086        -0.74828
| 26>    C        0.03500         0.44653        -1.84045
| 27>    S        2.29328         1.71552        -0.82427
| 28>    C        2.31281         1.85185         0.91421
| 29>    C        1.22352         1.32438         1.52273
| 30>   Br        3.76639         2.67938         1.76078
| 31>    C       -2.93996        -0.99798        -0.23517
| 32>    O       -3.57894        -1.30009         0.74590
| 33>    C       -3.29841        -1.18629        -1.67241
| 34>    C       -4.53011        -1.46921        -2.15251
| 35>    C       -5.69150        -1.88228        -1.38354
| 36>    C       -5.66136        -2.75741        -0.36583
| 37>    C       -6.92020        -1.34293        -1.83684
| 38>    C       -7.95953        -0.86032        -2.22529
| 39>    C       -9.16956        -0.31366        -2.65877
| 40>    C      -10.08153         0.16081        -1.78651
| 41>    C      -11.34352         0.75545        -2.08529
| 42>    S      -12.18314         1.51636        -0.76861
| 43>    C      -13.49943         1.99076        -1.78392
| 44>    C      -13.29835         1.55568        -3.07825
| 45>    C      -12.08081         0.86473        -3.25605
| 46>    S      -11.55921         0.09200        -4.74897
| 47>    C      -12.74512         0.40805        -6.02133
| 48>    O      -12.61810        -0.20493        -7.04401
| 49>    C      -13.83199         1.45167        -5.89833
| 50>    O      -14.37298         1.86878        -6.88377
| 51>    S      -14.43764         2.02555        -4.34078
| 52>    C      -14.63138         2.71144        -1.23126
| 53>    C      -14.39909         3.73468        -0.26251
| 54>    C      -15.46297         4.37340         0.33173
| 55>    C      -16.78287         4.03063        -0.00328
| 56>    C      -17.01330         3.01169        -0.96906
| 57>    C      -15.91915         2.36427        -1.56697
| 58>    N      -18.27101         2.65117        -1.30073
| 59>    C      -19.24671         3.27556        -0.70179
| 60>    C      -19.01689         4.29314         0.25204
| 61>    N      -17.81403         4.66501         0.59431
| 62>    C      -13.04363         4.16738         0.03056
| 63>    C      -12.52745         4.46909         1.23755
| 64>    C      -13.04660         4.28156         2.58471
| 65>    C      -13.88706         3.28501         2.99525
| 66>    C      -14.30004         3.11080         4.33366
| 67>    N      -14.66561         2.94042         5.40758
| 68>    C      -14.35655         2.25799         2.14953
| 69>    N      -14.70697         1.36337         1.52219
| 70>    C      -12.32756         5.20752         3.44866
| 71>    C      -11.23860         5.76131         2.72520
| 72>    C      -11.26026         5.25384         1.34144
| 73>    O      -10.46278         5.45050         0.45660
| 74>    C      -10.35020         6.64319         3.29318
| 75>    C      -10.55105         7.00379         4.62917
| 76>    C      -11.64990         6.45681         5.33782
| 77>    C      -12.54359         5.55914         4.76834
| 78>    S      -11.71576         7.04739         6.96906
| 79>    C      -10.28481         8.00344         6.68601
| 80>    C       -9.78297         7.88928         5.43276
| 81>   Br       -9.59116         9.06149         8.06871
| 82>    H       -1.29927         0.03030         1.83691
| 83>    H        0.41650         0.57867        -2.83913
| 84>    H        1.07270         1.32271         2.58676
| 85>    H       -4.72410        -1.32184        -3.20892
| 86>    H       -4.74897        -3.22550        -0.04698
| 87>    H       -6.56819        -3.04318         0.13916
| 88>    H       -9.32086        -0.27886        -3.72770
| 89>    H       -9.84625         0.12857        -0.72996
| 90>    H      -15.30830         5.16900         1.04539
| 91>    H      -16.12430         1.56729        -2.26325
| 92>    H      -20.25128         2.97878        -0.97099
| 93>    H      -19.83845         4.80386         0.73572
| 94>    H      -12.40152         4.36724        -0.82185
| 95>    H       -9.52616         7.04336         2.72367
| 96>    H      -13.36987         5.17249         5.34180
| 97>    H       -8.90750         8.40836         5.08780
| 98> *
| 99>
|100>                          ****END OF INPUT****

CARTESIAN COORDINATES (ANGSTROEM)
---------------------------------
  C     -2.152600   -0.769350   -2.477180
  C     -1.992480   -0.977010   -3.818870
  C     -0.849560   -0.580930   -4.547220
  N      0.053820   -0.277970   -5.186330
  C     -2.919260   -1.646550   -4.648430
  N     -3.613880   -2.195130   -5.378670
  C     -1.174760   -0.173210   -1.580460
  C     -1.636250   -0.307390   -0.247800
  C     -0.922210    0.151200    0.833450
  C      0.305000    0.774120    0.588080
  C      0.755710    0.910860   -0.748280
  C      0.035000    0.446530   -1.840450
  S      2.293280    1.715520   -0.824270
  C      2.312810    1.851850    0.914210
  C      1.223520    1.324380    1.522730
  Br     3.766390    2.679380    1.760780
  C     -2.939960   -0.997980   -0.235170
  O     -3.578940   -1.300090    0.745900
  C     -3.298410   -1.186290   -1.672410
  C     -4.530110   -1.469210   -2.152510
  C     -5.691500   -1.882280   -1.383540
  C     -5.661360   -2.757410   -0.365830
  C     -6.920200   -1.342930   -1.836840
  C     -7.959530   -0.860320   -2.225290
  C     -9.169560   -0.313660   -2.658770
  C    -10.081530    0.160810   -1.786510
  C    -11.343520    0.755450   -2.085290
  S    -12.183140    1.516360   -0.768610
  C    -13.499430    1.990760   -1.783920
  C    -13.298350    1.555680   -3.078250
  C    -12.080810    0.864730   -3.256050
  S    -11.559210    0.092000   -4.748970
  C    -12.745120    0.408050   -6.021330
  O    -12.618100   -0.204930   -7.044010
  C    -13.831990    1.451670   -5.898330
  O    -14.372980    1.868780   -6.883770
  S    -14.437640    2.025550   -4.340780
  C    -14.631380    2.711440   -1.231260
  C    -14.399090    3.734680   -0.262510
  C    -15.462970    4.373400    0.331730
  C    -16.782870    4.030630   -0.003280
  C    -17.013300    3.011690   -0.969060
  C    -15.919150    2.364270   -1.566970
  N    -18.271010    2.651170   -1.300730
  C    -19.246710    3.275560   -0.701790
  C    -19.016890    4.293140    0.252040
  N    -17.814030    4.665010    0.594310
  C    -13.043630    4.167380    0.030560
  C    -12.527450    4.469090    1.237550
  C    -13.046600    4.281560    2.584710
  C    -13.887060    3.285010    2.995250
  C    -14.300040    3.110800    4.333660
  N    -14.665610    2.940420    5.407580
  C    -14.356550    2.257990    2.149530
  N    -14.706970    1.363370    1.522190
  C    -12.327560    5.207520    3.448660
  C    -11.238600    5.761310    2.725200
  C    -11.260260    5.253840    1.341440
  O    -10.462780    5.450500    0.456600
  C    -10.350200    6.643190    3.293180
  C    -10.551050    7.003790    4.629170
  C    -11.649900    6.456810    5.337820
  C    -12.543590    5.559140    4.768340
  S    -11.715760    7.047390    6.969060
  C    -10.284810    8.003440    6.686010
  C     -9.782970    7.889280    5.432760
  Br    -9.591160    9.061490    8.068710
  H     -1.299270    0.030300    1.836910
  H      0.416500    0.578670   -2.839130
  H      1.072700    1.322710    2.586760
  H     -4.724100   -1.321840   -3.208920
  H     -4.748970   -3.225500   -0.046980
  H     -6.568190   -3.043180    0.139160
  H     -9.320860   -0.278860   -3.727700
  H     -9.846250    0.128570   -0.729960
  H    -15.308300    5.169000    1.045390
  H    -16.124300    1.567290   -2.263250
  H    -20.251280    2.978780   -0.970990
  H    -19.838450    4.803860    0.735720
  H    -12.401520    4.367240   -0.821850
  H     -9.526160    7.043360    2.723670
  H    -13.369870    5.172490    5.341800
  H     -8.907500    8.408360    5.087800

 Total Charge           Charge          ....    0
 Multiplicity           Mult            ....    1
 Number of Electrons    NEL             ....  540
 Basis Dimension        Dim             .... 1074

ORBITAL ENERGIES
----------------

  NO   OCC          E(Eh)            E(eV)
   0   2.0000    -482.893389    -13140.1972
   1   2.0000    -482.890778    -13140.1261
   2   2.0000     -88.984853     -2421.4010
   3   2.0000     -88.982966     -2421.3496
   4   2.0000     -88.981460     -2421.3086
   5   2.0000     -88.973274     -2421.0859
   6   2.0000     -88.971717     -2421.0435
   7   2.0000     -62.571113     -1702.6466
   8   2.0000     -62.568519     -1702.5760
   9   2.0000     -56.405076     -1534.8601
  10   2.0000     -56.402473     -1534.7893
  11   2.0000     -56.402336     -1534.7856
  12   2.0000     -56.402311     -1534.7849
  13   2.0000     -56.399745     -1534.7151
  14   2.0000     -56.399717     -1534.7143
  15   2.0000     -19.243576      -523.6443
  16   2.0000     -19.242302      -523.6097
  17   2.0000     -19.227857      -523.2166
  18   2.0000     -19.225061      -523.1405
  19   2.0000     -14.432130      -392.7182
  20   2.0000     -14.430566      -392.6757
  21   2.0000     -14.426658      -392.5693
  22   2.0000     -14.425911      -392.5490
  23   2.0000     -14.421743      -392.4356
  24   2.0000     -14.419857      -392.3843
  25   2.0000     -10.407388      -283.1994
  26   2.0000     -10.406550      -283.1766
  27   2.0000     -10.378284      -282.4075
  28   2.0000     -10.377021      -282.3731
  29   2.0000     -10.368113      -282.1307
  30   2.0000     -10.365096      -282.0486
  31   2.0000     -10.356307      -281.8094
  32   2.0000     -10.354053      -281.7481
  33   2.0000     -10.350543      -281.6526
  34   2.0000     -10.347861      -281.5796
  35   2.0000     -10.336475      -281.2698
  36   2.0000     -10.336235      -281.2632
  37   2.0000     -10.335768      -281.2506
  38   2.0000     -10.332473      -281.1609
  39   2.0000     -10.330244      -281.1002
  40   2.0000     -10.329655      -281.0842
  41   2.0000     -10.328641      -281.0566
  42   2.0000     -10.328226      -281.0453
  43   2.0000     -10.328173      -281.0439
  44   2.0000     -10.326300      -280.9929
  45   2.0000     -10.325994      -280.9846
  46   2.0000     -10.325911      -280.9823
  47   2.0000     -10.325631      -280.9747
  48   2.0000     -10.324114      -280.9334
  49   2.0000     -10.323917      -280.9281
  50   2.0000     -10.321943      -280.8744
  51   2.0000     -10.320701      -280.8405
  52   2.0000     -10.318137      -280.7708
  53   2.0000     -10.316887      -280.7368
  54   2.0000     -10.316648      -280.7303
  55   2.0000     -10.315442      -280.6974
  56   2.0000     -10.314763      -280.6790
  57   2.0000     -10.314614      -280.6749
  58   2.0000     -10.312740      -280.6239
  59   2.0000     -10.312585      -280.6197
  60   2.0000     -10.312249      -280.6106
  61   2.0000     -10.310816      -280.5716
  62   2.0000     -10.308402      -280.5059
  63   2.0000     -10.307956      -280.4937
  64   2.0000     -10.305505      -280.4270
  65   2.0000     -10.305411      -280.4245
  66   2.0000     -10.304778      -280.4073
  67   2.0000     -10.304517      -280.4002
  68   2.0000     -10.302516      -280.3457
  69   2.0000     -10.299816      -280.2722
  70   2.0000     -10.299262      -280.2572
  71   2.0000     -10.295941      -280.1668
  72   2.0000     -10.295336      -280.1503
  73   2.0000     -10.281153      -279.7644
  74   2.0000     -10.278786      -279.7000
  75   2.0000      -8.800555      -239.4753
  76   2.0000      -8.797973      -239.4050
  77   2.0000      -8.080928      -219.8932
  78   2.0000      -8.077895      -219.8107
  79   2.0000      -8.077494      -219.7998
  80   2.0000      -8.069568      -219.5841
  81   2.0000      -8.068165      -219.5459
  82   2.0000      -6.636916      -180.5997
  83   2.0000      -6.634309      -180.5287
  84   2.0000      -6.622277      -180.2013
  85   2.0000      -6.622030      -180.1946
  86   2.0000      -6.619696      -180.1311
  87   2.0000      -6.619471      -180.1250
  88   2.0000      -6.050607      -164.6454
  89   2.0000      -6.047178      -164.5521
  90   2.0000      -6.047083      -164.5495
  91   2.0000      -6.046323      -164.5288
  92   2.0000      -6.042969      -164.4375
  93   2.0000      -6.042910      -164.4360
  94   2.0000      -6.042141      -164.4150
  95   2.0000      -6.040124      -164.3601
  96   2.0000      -6.039481      -164.3426
  97   2.0000      -6.038702      -164.3214
  98   2.0000      -6.038108      -164.3053
  99   2.0000      -6.034753      -164.2140
 100   2.0000      -6.033404      -164.1773
 101   2.0000      -6.030489      -164.0979
 102   2.0000      -6.028942      -164.0558
 103   2.0000      -2.752741       -74.9059
 104   2.0000      -2.750182       -74.8363
 105   2.0000      -2.748671       -74.7951
 106   2.0000      -2.748534       -74.7914
 107   2.0000      -2.746085       -74.7248
 108   2.0000      -2.745898       -74.7197
 109   2.0000      -2.736868       -74.4740
 110   2.0000      -2.736850       -74.4735
 111   2.0000      -2.734301       -74.4041
 112   2.0000      -2.734287       -74.4037
 113   2.0000      -1.180680       -32.1279
 114   2.0000      -1.149137       -31.2696
 115   2.0000      -1.143376       -31.1129
 116   2.0000      -1.141154       -31.0524
 117   2.0000      -1.087353       -29.5884
 118   2.0000      -1.034603       -28.1530
 119   2.0000      -1.029436       -28.0124
 120   2.0000      -1.028047       -27.9746
 121   2.0000      -1.023595       -27.8534
 122   2.0000      -1.019102       -27.7312
 123   2.0000      -1.010219       -27.4895
 124   2.0000      -1.005527       -27.3618
 125   2.0000      -1.001245       -27.2453
 126   2.0000      -0.999385       -27.1947
 127   2.0000      -0.996163       -27.1070
 128   2.0000      -0.980191       -26.6723
 129   2.0000      -0.953540       -25.9472
 130   2.0000      -0.952394       -25.9160
 131   2.0000      -0.939905       -25.5761
 132   2.0000      -0.935897       -25.4671
 133   2.0000      -0.927969       -25.2513
 134   2.0000      -0.919257       -25.0143
 135   2.0000      -0.914796       -24.8929
 136   2.0000      -0.913176       -24.8488
 137   2.0000      -0.900214       -24.4961
 138   2.0000      -0.896628       -24.3985
 139   2.0000      -0.892613       -24.2892
 140   2.0000      -0.888166       -24.1682
 141   2.0000      -0.883456       -24.0401
 142   2.0000      -0.874886       -23.8069
 143   2.0000      -0.849484       -23.1156
 144   2.0000      -0.843858       -22.9625
 145   2.0000      -0.840059       -22.8592
 146   2.0000      -0.838255       -22.8101
 147   2.0000      -0.835657       -22.7394
 148   2.0000      -0.832869       -22.6635
 149   2.0000      -0.805024       -21.9058
 150   2.0000      -0.790703       -21.5161
 151   2.0000      -0.778750       -21.1909
 152   2.0000      -0.772795       -21.0288
 153   2.0000      -0.767071       -20.8731
 154   2.0000      -0.764551       -20.8045
 155   2.0000      -0.753295       -20.4982
 156   2.0000      -0.747704       -20.3461
 157   2.0000      -0.734249       -19.9799
 158   2.0000      -0.723238       -19.6803
 159   2.0000      -0.719014       -19.5654
 160   2.0000      -0.712170       -19.3791
 161   2.0000      -0.699436       -19.0326
 162   2.0000      -0.699258       -19.0278
 163   2.0000      -0.697323       -18.9751
 164   2.0000      -0.685253       -18.6467
 165   2.0000      -0.679485       -18.4897
 166   2.0000      -0.670953       -18.2576
 167   2.0000      -0.666552       -18.1378
 168   2.0000      -0.659234       -17.9387
 169   2.0000      -0.651197       -17.7200
 170   2.0000      -0.635832       -17.3019
 171   2.0000      -0.635178       -17.2841
 172   2.0000      -0.633624       -17.2418
 173   2.0000      -0.630448       -17.1554
 174   2.0000      -0.623998       -16.9798
 175   2.0000      -0.621275       -16.9057
 176   2.0000      -0.611986       -16.6530
 177   2.0000      -0.607396       -16.5281
 178   2.0000      -0.605840       -16.4857
 179   2.0000      -0.598524       -16.2867
 180   2.0000      -0.596133       -16.2216
 181   2.0000      -0.589916       -16.0524
 182   2.0000      -0.585590       -15.9347
 183   2.0000      -0.579973       -15.7819
 184   2.0000      -0.565905       -15.3991
 185   2.0000      -0.565250       -15.3812
 186   2.0000      -0.559282       -15.2188
 187   2.0000      -0.556618       -15.1464
 188   2.0000      -0.554974       -15.1016
 189   2.0000      -0.552367       -15.0307
 190   2.0000      -0.549069       -14.9409
 191   2.0000      -0.548333       -14.9209
 192   2.0000      -0.548036       -14.9128
 193   2.0000      -0.544218       -14.8089
 194   2.0000      -0.543626       -14.7928
 195   2.0000      -0.542082       -14.7508
 196   2.0000      -0.539265       -14.6741
 197   2.0000      -0.533254       -14.5106
 198   2.0000      -0.532372       -14.4866
 199   2.0000      -0.526520       -14.3273
 200   2.0000      -0.526226       -14.3193
 201   2.0000      -0.525761       -14.3067
 202   2.0000      -0.517425       -14.0799
 203   2.0000      -0.516954       -14.0670
 204   2.0000      -0.514273       -13.9941
 205   2.0000      -0.514166       -13.9912
 206   2.0000      -0.512184       -13.9372
 207   2.0000      -0.505949       -13.7676
 208   2.0000      -0.504325       -13.7234
 209   2.0000      -0.502280       -13.6677
 210   2.0000      -0.500900       -13.6302
 211   2.0000      -0.497614       -13.5408
 212   2.0000      -0.493900       -13.4397
 213   2.0000      -0.485921       -13.2226
 214   2.0000      -0.484312       -13.1788
 215   2.0000      -0.481964       -13.1149
 216   2.0000      -0.476082       -12.9549
 217   2.0000      -0.472463       -12.8564
 218   2.0000      -0.470979       -12.8160
 219   2.0000      -0.466777       -12.7017
 220   2.0000      -0.463919       -12.6239
 221   2.0000      -0.463547       -12.6138
 222   2.0000      -0.460925       -12.5424
 223   2.0000      -0.460326       -12.5261
 224   2.0000      -0.456224       -12.4145
 225   2.0000      -0.454937       -12.3795
 226   2.0000      -0.453230       -12.3330
 227   2.0000      -0.452385       -12.3100
 228   2.0000      -0.448894       -12.2150
 229   2.0000      -0.448192       -12.1959
 230   2.0000      -0.448158       -12.1950
 231   2.0000      -0.444921       -12.1069
 232   2.0000      -0.444668       -12.1000
 233   2.0000      -0.438107       -11.9215
 234   2.0000      -0.435649       -11.8546
 235   2.0000      -0.432272       -11.7627
 236   2.0000      -0.431391       -11.7387
 237   2.0000      -0.429185       -11.6787
 238   2.0000      -0.427446       -11.6314
 239   2.0000      -0.425388       -11.5754
 240   2.0000      -0.421631       -11.4732
 241   2.0000      -0.417178       -11.3520
 242   2.0000      -0.414865       -11.2891
 243   2.0000      -0.412198       -11.2165
 244   2.0000      -0.402451       -10.9512
 245   2.0000      -0.397429       -10.8146
 246   2.0000      -0.394145       -10.7252
 247   2.0000      -0.393983       -10.7208
 248   2.0000      -0.393282       -10.7018
 249   2.0000      -0.389504       -10.5989
 250   2.0000      -0.382659       -10.4127
 251   2.0000      -0.380976       -10.3669
 252   2.0000      -0.380057       -10.3419
 253   2.0000      -0.376192       -10.2367
 254   2.0000      -0.359989        -9.7958
 255   2.0000      -0.352006        -9.5786
 256   2.0000      -0.349828        -9.5193
 257   2.0000      -0.346735        -9.4351
 258   2.0000      -0.343864        -9.3570
 259   2.0000      -0.340105        -9.2547
 260   2.0000      -0.329892        -8.9768
 261   2.0000      -0.327793        -8.9197
 262   2.0000      -0.325150        -8.8478
 263   2.0000      -0.321969        -8.7612
 264   2.0000      -0.316076        -8.6009
 265   2.0000      -0.307602        -8.3703
 266   2.0000      -0.304046        -8.2735
 267   2.0000      -0.302618        -8.2347
 268   2.0000      -0.298707        -8.1282
 269   2.0000      -0.268725        -7.3124
 270   0.0000      -0.098108        -2.6697
 271   0.0000      -0.091964        -2.5025
 272   0.0000      -0.068836        -1.8731
 273   0.0000      -0.067039        -1.8242
 274   0.0000      -0.061671        -1.6782

MULLIKEN ATOMIC CHARGES
-----------------------
   0 C :    0.289996
   1 C :   -0.331169
   2 C :   -0.182745
   3 N :    0.154392
   4 C :   -0.204886
   5 N :    0.172847
   6 C :    0.020929
   7 C :   -0.017739
   8 C :   -0.073557
   9 C :    0.121248
  10 C :   -0.086132
  11 C :   -0.023441
  12 S :    0.190451
  13 C :   -0.122942
  14 C :    0.037209
  15 Br:    0.028977
  16 C :    0.151456
  17 O :   -0.139618
  18 C :   -0.084107
  19 C :   -0.005490
  20 C :   -0.086787
  21 C :    0.089983
  22 C :    0.008966
  23 C :   -0.000481
  24 C :   -0.088708
  25 C :    0.050845
  26 C :   -0.124846
  27 S :    0.191543
  28 C :   -0.189262
  29 C :   -0.000383
  30 C :   -0.035121
  31 S :    0.074867
  32 C :    0.089619
  33 O :   -0.126808
  34 C :    0.075549
  35 O :   -0.129946
  36 S :    0.091376
  37 C :    0.160743
  38 C :    0.002680
  39 C :   -0.035076
  40 C :   -0.012301
  41 C :    0.004720
  42 C :   -0.046313
  43 N :   -0.008509
  44 C :    0.029615
  45 C :    0.025927
  46 N :   -0.010922
  47 C :   -0.019177
  48 C :   -0.088624
  49 C :    0.267274
  50 C :   -0.329320
  51 C :   -0.185898
  52 N :    0.162943
  53 C :   -0.177528
  54 N :    0.168129
  55 C :    0.003592
  56 C :   -0.000963
  57 C :    0.137566
  58 O :   -0.132149
  59 C :   -0.069697
  60 C :    0.112376
  61 C :   -0.085418
  62 C :   -0.019061
  63 S :    0.191538
  64 C :   -0.125572
  65 C :    0.043027
  66 Br:    0.030795
  67 H :   -0.008669
  68 H :   -0.003628
  69 H :   -0.001121
  70 H :    0.048399
  71 H :    0.037625
  72 H :    0.036738
  73 H :    0.051590
  74 H :    0.007365
  75 H :   -0.017884
  76 H :   -0.010157
  77 H :    0.018285
  78 H :    0.017100
  79 H :    0.051176
  80 H :   -0.005400
  81 H :   -0.000778
  82 H :   -0.001125
Sum of atomic charges:   -0.0000000

LOEWDIN ATOMIC CHARGES
----------------------
   0 C :    0.074898
   1 C :   -0.130853
   2 C :   -0.017669
   3 N :   -0.046564
   4 C :   -0.025758
   5 N :   -0.039938
   6 C :   -0.021647
   7 C :   -0.051382
   8 C :    0.023553
   9 C :   -0.030744
  10 C :   -0.142353
  11 C :   -0.008174
  12 S :    0.435687
  13 C :   -0.269850
  14 C :   -0.070463
  15 Br:    0.140819
  16 C :    0.084816
  17 O :   -0.128221
  18 C :   -0.082151
  19 C :    0.089031
  20 C :   -0.064734
  21 C :    0.062663
  22 C :   -0.026337
  23 C :   -0.029315
  24 C :   -0.038530
  25 C :   -0.025880
  26 C :   -0.186430
  27 S :    0.515167
  28 C :   -0.185351
  29 C :   -0.209940
  30 C :   -0.214818
  31 S :    0.399334
  32 C :   -0.110363
  33 O :   -0.098014
  34 C :   -0.113295
  35 O :   -0.100733
  36 S :    0.394373
  37 C :   -0.030895
  38 C :   -0.032191
  39 C :    0.009627
  40 C :   -0.011479
  41 C :   -0.004230
  42 C :    0.008680
  43 N :   -0.034005
  44 C :    0.011330
  45 C :    0.008429
  46 N :   -0.037637
  47 C :    0.054025
  48 C :   -0.080957
  49 C :    0.067621
  50 C :   -0.129521
  51 C :   -0.019380
  52 N :   -0.043641
  53 C :   -0.017916
  54 N :   -0.046213
  55 C :   -0.019631
  56 C :   -0.053861
  57 C :    0.084741
  58 O :   -0.133041
  59 C :    0.025090
  60 C :   -0.031030
  61 C :   -0.141873
  62 C :   -0.009202
  63 S :    0.437103
  64 C :   -0.269634
  65 C :   -0.069596
  66 Br:    0.142591
  67 H :    0.041626
  68 H :    0.041734
  69 H :    0.039585
  70 H :    0.050630
  71 H :    0.031780
  72 H :    0.036980
  73 H :    0.032310
  74 H :    0.037743
  75 H :    0.037611
  76 H :    0.035293
  77 H :    0.028982
  78 H :    0.028404
  79 H :    0.048293
  80 H :    0.042933
  81 H :    0.042081
  82 H :    0.039879

  Mayer bond orders larger than 0.100000
B(  0-C ,  1-C ) :   1.6693 B(  0-C ,  6-C ) :   1.0173 B(  0-C , 18-C ) :   1.0255
B(  1-C ,  2-C ) :   1.1330 B(  1-C ,  4-C ) :   1.1372 B(  2-C ,  3-N ) :   2.9773
B(  4-C ,  5-N ) :   3.0010 B(  6-C ,  7-C ) :   1.2701 B(  6-C , 11-C ) :   1.4008
B(  7-C ,  8-C ) :   1.4173 B(  7-C , 16-C ) :   0.9473 B(  8-C ,  9-C ) :   1.2500
B(  8-C , 67-H ) :   1.0179 B(  9-C , 10-C ) :   1.2992 B(  9-C , 14-C ) :   1.1628
B( 10-C , 11-C ) :   1.3359 B( 10-C , 12-S ) :   1.0868 B( 11-C , 68-H ) :   0.9819
B( 12-S , 13-C ) :   1.0866 B( 13-C , 14-C ) :   1.6168 B( 13-C , 15-Br) :   1.0228
B( 14-C , 69-H ) :   1.0013 B( 16-C , 17-O ) :   2.2272 B( 16-C , 18-C ) :   0.9218
B( 18-C , 19-C ) :   1.7268 B( 19-C , 20-C ) :   1.0502 B( 19-C , 70-H ) :   0.9396
B( 20-C , 21-C ) :   1.9002 B( 20-C , 22-C ) :   0.9079 B( 21-C , 71-H ) :   0.9372
B( 21-C , 72-H ) :   0.9442 B( 22-C , 23-C ) :   2.3693 B( 23-C , 24-C ) :   1.0171
B( 24-C , 25-C ) :   1.7396 B( 24-C , 73-H ) :   0.9364 B( 25-C , 26-C ) :   1.1243
B( 25-C , 74-H ) :   0.9533 B( 26-C , 27-S ) :   1.1375 B( 26-C , 28-C ) :   0.1196
B( 26-C , 30-C ) :   1.5474 B( 27-S , 28-C ) :   1.1640 B( 28-C , 29-C ) :   1.5990
B( 28-C , 37-C ) :   0.9812 B( 29-C , 30-C ) :   1.2768 B( 29-C , 36-S ) :   0.9758
B( 30-C , 31-S ) :   0.9692 B( 31-S , 32-C ) :   1.0452 B( 31-S , 33-O ) :   0.1346
B( 32-C , 33-O ) :   2.1631 B( 32-C , 34-C ) :   0.7686 B( 34-C , 35-O ) :   2.1581
B( 34-C , 36-S ) :   1.0499 B( 35-O , 36-S ) :   0.1375 B( 37-C , 38-C ) :   1.2344
B( 37-C , 42-C ) :   1.4161 B( 38-C , 39-C ) :   1.4224 B( 38-C , 47-C ) :   0.9894
B( 39-C , 40-C ) :   1.2234 B( 39-C , 42-C ) :   0.1001 B( 39-C , 75-H ) :   1.0189
B( 40-C , 41-C ) :   1.2482 B( 40-C , 46-N ) :   1.4337 B( 41-C , 42-C ) :   1.2365
B( 41-C , 43-N ) :   1.4292 B( 42-C , 76-H ) :   1.0015 B( 43-N , 44-C ) :   1.6762
B( 44-C , 45-C ) :   1.2184 B( 44-C , 77-H ) :   0.9742 B( 45-C , 46-N ) :   1.6737
B( 45-C , 78-H ) :   0.9740 B( 47-C , 48-C ) :   1.7620 B( 47-C , 79-H ) :   0.9262
B( 48-C , 49-C ) :   1.0117 B( 48-C , 57-C ) :   0.9241 B( 49-C , 50-C ) :   1.6763
B( 49-C , 55-C ) :   1.0204 B( 50-C , 51-C ) :   1.1262 B( 50-C , 53-C ) :   1.1671
B( 51-C , 52-N ) :   2.9932 B( 53-C , 54-N ) :   2.9696 B( 55-C , 56-C ) :   1.2711
B( 55-C , 62-C ) :   1.4062 B( 56-C , 57-C ) :   0.9181 B( 56-C , 59-C ) :   1.4188
B( 57-C , 58-O ) :   2.2850 B( 59-C , 60-C ) :   1.2550 B( 59-C , 80-H ) :   1.0171
B( 60-C , 61-C ) :   1.2995 B( 60-C , 65-C ) :   1.1646 B( 61-C , 62-C ) :   1.3327
B( 61-C , 63-S ) :   1.0865 B( 62-C , 81-H ) :   0.9842 B( 63-S , 64-C ) :   1.0882
B( 64-C , 65-C ) :   1.6159 B( 64-C , 66-Br) :   1.0230 B( 65-C , 82-H ) :   1.0011

-----------------------------------------------------------------------------
         ABSORPTION SPECTRUM VIA TRANSITION ELECTRIC DIPOLE MOMENTS
-----------------------------------------------------------------------------
State   Energy  Wavelength   fosc         T2         TX        TY        TZ
        (cm-1)    (nm)                  (au**2)     (au)      (au)      (au)
-----------------------------------------------------------------------------
   0   21685.7    461.1   0.057414614   0.87161   0.12826   0.49347   0.78208
   1   24155.3    414.0   0.041266045   0.56241  -0.04569  -0.60923   0.43494
   2   27191.9    367.8   0.586367913   7.09916   2.29816  -0.99414  -0.91065
   3   27599.5    362.3   0.166381243   1.98463  -0.98171   0.80185  -0.61474
   4   27691.9    361.1   0.037036038   0.44030   0.24276  -0.03299   0.61666
   5   28131.1    355.5   0.449236301   5.25730  -1.17099  -1.24327  -1.52982
   6   28628.7    349.3   0.447259537   5.14320  -2.14627  -0.44195  -0.58429
   7   28756.3    347.8   0.131756159   1.50839  -0.02560  -0.69823  -1.01005
   8   28824.8    346.9   0.107993890   1.23341   0.59962   0.59930   0.71743
   9   29224.1    342.2   0.056952324   0.64157  -0.29588   0.49291   0.55774
  10   29539.9    338.5   0.004139323   0.04613  -0.00543  -0.14170   0.16132
  11   30049.3    332.8   0.009039528   0.09903   0.04981  -0.22371   0.21566
  12   30151.5    331.7   0.542153560   5.91956  -2.16069   1.10808   0.15214
  13   30574.8    327.1   0.026887652   0.28951  -0.29877  -0.01663  -0.44718
  14   30885.3    323.8   0.020476439   0.21826   0.22803   0.27670   0.29950
  15   31320.2    319.3   0.012733688   0.13385   0.17048  -0.16798  -0.27670
  16   31658.7    315.9   0.028761679   0.29909   0.21163  -0.34947  -0.36355
  17   32801.7    304.9   0.052835501   0.53028   0.29237   0.17983  -0.64223
  18   33152.0    301.6   0.362041900   3.59522  -1.31056   0.35730  -1.32287
  19   33255.5    300.7   0.283828387   2.80975   1.18841   0.62301   1.00463
  20   33526.4    298.3   0.183966341   1.80646  -0.61472   0.47909   1.09501
  21   33969.8    294.4   0.529081118   5.12750  -1.79318  -1.35510  -0.27517
  22   34075.2    293.5   0.698473217   6.74819  -1.19366  -1.23825  -1.94682
  23   34441.7    290.3   0.081422839   0.77828  -0.08992  -0.43069   0.76466
  24   34635.7    288.7   0.017056972   0.16213   0.22092   0.21679   0.25753
  25   35152.0    284.5   0.291643163   2.73135   1.54039   0.45897   0.38458
  26   35388.0    282.6   0.074893865   0.69673  -0.08292  -0.53620  -0.63430
  27   36150.9    276.6   0.022581659   0.20564   0.20974  -0.09718  -0.39014
  28   36268.7    275.7   0.014518154   0.13178   0.09846  -0.02869   0.34823
  29   36330.6    275.3   0.116962613   1.05986  -0.65005  -0.48425  -0.63467
  30   36801.9    271.7   0.099757131   0.89238  -0.66132  -0.17164  -0.65236
  31   37022.8    270.1   0.014087878   0.12527   0.26095   0.16931   0.16886
  32   37155.6    269.1   0.019894157   0.17627  -0.34208  -0.13065   0.20538
  33   37499.0    266.7   0.044226212   0.38827   0.27763  -0.47123  -0.29856
  34   37962.0    263.4   0.004223086   0.03662  -0.12091   0.03308  -0.14460
  35   38255.3    261.4   0.011863232   0.10209  -0.13398  -0.26897  -0.10860
  36   38444.6    260.1   0.033816082   0.28958   0.38251  -0.19790  -0.32264
  37   38881.1    257.2   0.137657274   1.16557  -0.69376  -0.22270  -0.79666
  38   39180.5    255.2   0.014614230   0.12280  -0.18235  -0.29881   0.01612
  39   39572.8    252.7   0.084859242   0.70596   0.05217  -0.52895  -0.65073
  40   39753.0    251.6   0.055112525   0.45641  -0.14254  -0.24405  -0.61362
  41   40028.9    249.8   0.029504855   0.24266  -0.32031   0.20786   0.31122
  42   40125.2    249.2   0.036452503   0.29908  -0.25080  -0.47676  -0.09420
  43   40209.5    248.7   0.502375977   4.11316   1.61220   0.56748  -1.09176

FINAL SINGLE POINT ENERGY     -9679.250236063352

DIPOLE MOMENT
-------------
                                X             Y             Z
Electronic contribution:    118.40835      70.58760      89.52733
Nuclear contribution   :   -117.63519     -68.14310     -85.65657
                        -----------------------------------------
Total Dipole Moment    :      0.77317       2.44450       3.87076
                        -----------------------------------------
Magnitude (a.u.)       :      4.64286
Magnitude (Debye)      :     11.80121

Rotational constants in cm-1:     0.000679     0.000341     0.000238
Rotational constants in MHz :    20.345809    10.212834     7.133705

                             ****ORCA TERMINATED NORMALLY****
TOTAL RUN TIME: 0 days 0 hours 7 minutes 16 seconds 331 msec
