                         Program Version 4.2.0 -  RELEASE  -
|  1> # ORCA input file
|  2> # SCF done       -196.289221305101          0.000881449598
|  3> ! CAM-B3LYP def2-SVP def2/J RIJCOSX Grid4 TightSCF
|  4> %maxcore 5000
|  5> %tddft
|  6>     Mode sTDDFT
|  7>     Ethresh 5.0
|  8>     maxcore 5000
|  9> end
| 10>
| 11> %pal
| 12>   nprocs 6
| 13>   end
| 14> * xyz 0 1
| 15>    C       -5.65309         5.40820         1.73390
| 16>    C       -5.84790         5.55162         3.08213
| 17>    C       -4.81023         5.56469         4.03653
| 18>    N       -4.00608         5.58815         4.85505
| 19>    C       -7.11563         5.73527         3.67114
| 20>    N       -8.13117         5.89066         4.18311
| 21>    C       -4.37129         5.23619         1.05877
| 22>    C       -4.58500         5.23168        -0.34594
| 23>    C       -3.57255         5.01358        -1.24892
| 24>    C       -2.28948         4.79258        -0.74261
| 25>    C       -2.07752         4.82982         0.65669
| 26>    C       -3.10183         5.04805         1.57103
| 27>    S       -0.41381         4.53312         1.05465
| 28>    C       -0.03828         4.34556        -0.64003
| 29>    C       -1.09902         4.50849        -1.46385
| 30>   Br        1.72054         3.96051        -1.15779
| 31>    C       -6.01096         5.41540        -0.60833
| 32>    O       -6.57049         5.52953        -1.69502
| 33>    C       -6.67262         5.42093         0.70669
| 34>    C       -8.03420         5.33276         0.82374
| 35>    N       -8.79093         5.28730        -0.28386
| 36>    C      -10.12722         5.08402        -0.38025
| 37>    S      -11.18938         5.25031         0.98001
| 38>    C      -12.54348         4.97733        -0.07026
| 39>    N      -13.82382         4.97566         0.50119
| 40>    O      -14.77101         4.79217        -0.23880
| 41>    O      -13.88549         5.16059         1.70317
| 42>    C      -12.19373         4.78020        -1.37961
| 43>    C      -10.80211         4.81341        -1.57803
| 44>    C      -10.16533         4.60488        -2.85749
| 45>    C       -8.94674         4.05772        -3.02579
| 46>    C       -8.23875         3.98446        -4.25974
| 47>    C       -6.90313         3.62846        -4.38680
| 48>    C       -6.15537         3.15377        -3.29771
| 49>    N       -5.58615         2.72339        -2.39951
| 50>    C       -6.43020         3.75561        -5.71980
| 51>    C       -7.44809         4.15995        -6.57674
| 52>    S       -8.95005         4.44573        -5.78741
| 53>    S       -6.99547         4.29129        -8.24588
| 54>    C       -5.38898         3.82291        -7.79016
| 55>    C       -5.20687         3.58481        -6.43130
| 56>    C       -3.85465         3.28023        -6.13983
| 57>    C       -3.29847         3.15053        -4.86454
| 58>    N       -2.78160         3.10877        -3.83911
| 59>    C       -3.04653         3.25669        -7.28549
| 60>    S       -3.95778         3.64348        -8.73354
| 61>    C       -1.67601         2.95788        -7.29539
| 62>    C       -0.82215         2.98404        -8.36908
| 63>    C        0.55797         2.65673        -8.33297
| 64>    C        1.19543         2.78829        -9.52826
| 65>    C        0.35858         3.23322       -10.57531
| 66>    S       -1.27803         3.45657        -9.99281
| 67>    C        0.69684         3.50539       -11.88707
| 68>    C        1.95797         3.38008       -12.50992
| 69>    C        1.96164         3.76008       -13.81791
| 70>    C        0.70789         4.20983       -14.29972
| 71>    S       -0.48698         4.11424       -13.02422
| 72>    C        0.46648         4.67136       -15.57407
| 73>    C       -0.74145         5.14882       -16.08652
| 74>    S       -2.19972         5.20761       -15.14371
| 75>    C       -3.13827         5.89182       -16.42581
| 76>    C       -2.34653         6.07614       -17.56711
| 77>    C       -0.98900         5.65418       -17.38412
| 78>    C       -0.08374         5.78017       -18.45269
| 79>    F        1.19505         5.39269       -18.31728
| 80>    C       -0.48785         6.30193       -19.65819
| 81>    F        0.37483         6.42091       -20.67387
| 82>    C       -1.82259         6.72079       -19.84052
| 83>    F       -2.18534         7.22656       -21.02438
| 84>    C       -2.73038         6.60968       -18.81829
| 85>    F       -3.99103         7.01819       -19.02613
| 86>    C       -4.52481         6.18843       -16.23968
| 87>    C       -5.19574         5.95000       -15.11010
| 88>    H       -3.76095         4.97714        -2.30917
| 89>    H       -2.89742         5.04611         2.62902
| 90>    H       -1.06699         4.40345        -2.53258
| 91>    H       -8.53918         5.24787         1.77759
| 92>    H       -8.24498         5.38552        -1.16029
| 93>    H      -12.91684         4.59311        -2.15278
| 94>    H      -10.73564         4.91526        -3.72380
| 95>    H       -8.40202         3.64388        -2.18800
| 96>    H       -1.25214         2.67841        -6.33874
| 97>    H        1.02952         2.33717        -7.42082
| 98>    H        2.23999         2.58678        -9.68192
| 99>    H        2.82125         3.01828       -11.98160
|100>    H        2.82757         3.73838       -14.45542
|101>    H        1.31630         4.66917       -16.24034
|102>    H       -5.03562         6.63004       -17.08180
|103>    H       -4.71884         5.50828       -14.25027
|104>    H       -6.23915         6.19118       -15.01938
|105> *
|106>
|107>                          ****END OF INPUT****

CARTESIAN COORDINATES (ANGSTROEM)
---------------------------------
  C     -5.653090    5.408200    1.733900
  C     -5.847900    5.551620    3.082130
  C     -4.810230    5.564690    4.036530
  N     -4.006080    5.588150    4.855050
  C     -7.115630    5.735270    3.671140
  N     -8.131170    5.890660    4.183110
  C     -4.371290    5.236190    1.058770
  C     -4.585000    5.231680   -0.345940
  C     -3.572550    5.013580   -1.248920
  C     -2.289480    4.792580   -0.742610
  C     -2.077520    4.829820    0.656690
  C     -3.101830    5.048050    1.571030
  S     -0.413810    4.533120    1.054650
  C     -0.038280    4.345560   -0.640030
  C     -1.099020    4.508490   -1.463850
  Br     1.720540    3.960510   -1.157790
  C     -6.010960    5.415400   -0.608330
  O     -6.570490    5.529530   -1.695020
  C     -6.672620    5.420930    0.706690
  C     -8.034200    5.332760    0.823740
  N     -8.790930    5.287300   -0.283860
  C    -10.127220    5.084020   -0.380250
  S    -11.189380    5.250310    0.980010
  C    -12.543480    4.977330   -0.070260
  N    -13.823820    4.975660    0.501190
  O    -14.771010    4.792170   -0.238800
  O    -13.885490    5.160590    1.703170
  C    -12.193730    4.780200   -1.379610
  C    -10.802110    4.813410   -1.578030
  C    -10.165330    4.604880   -2.857490
  C     -8.946740    4.057720   -3.025790
  C     -8.238750    3.984460   -4.259740
  C     -6.903130    3.628460   -4.386800
  C     -6.155370    3.153770   -3.297710
  N     -5.586150    2.723390   -2.399510
  C     -6.430200    3.755610   -5.719800
  C     -7.448090    4.159950   -6.576740
  S     -8.950050    4.445730   -5.787410
  S     -6.995470    4.291290   -8.245880
  C     -5.388980    3.822910   -7.790160
  C     -5.206870    3.584810   -6.431300
  C     -3.854650    3.280230   -6.139830
  C     -3.298470    3.150530   -4.864540
  N     -2.781600    3.108770   -3.839110
  C     -3.046530    3.256690   -7.285490
  S     -3.957780    3.643480   -8.733540
  C     -1.676010    2.957880   -7.295390
  C     -0.822150    2.984040   -8.369080
  C      0.557970    2.656730   -8.332970
  C      1.195430    2.788290   -9.528260
  C      0.358580    3.233220  -10.575310
  S     -1.278030    3.456570   -9.992810
  C      0.696840    3.505390  -11.887070
  C      1.957970    3.380080  -12.509920
  C      1.961640    3.760080  -13.817910
  C      0.707890    4.209830  -14.299720
  S     -0.486980    4.114240  -13.024220
  C      0.466480    4.671360  -15.574070
  C     -0.741450    5.148820  -16.086520
  S     -2.199720    5.207610  -15.143710
  C     -3.138270    5.891820  -16.425810
  C     -2.346530    6.076140  -17.567110
  C     -0.989000    5.654180  -17.384120
  C     -0.083740    5.780170  -18.452690
  F      1.195050    5.392690  -18.317280
  C     -0.487850    6.301930  -19.658190
  F      0.374830    6.420910  -20.673870
  C     -1.822590    6.720790  -19.840520
  F     -2.185340    7.226560  -21.024380
  C     -2.730380    6.609680  -18.818290
  F     -3.991030    7.018190  -19.026130
  C     -4.524810    6.188430  -16.239680
  C     -5.195740    5.950000  -15.110100
  H     -3.760950    4.977140   -2.309170
  H     -2.897420    5.046110    2.629020
  H     -1.066990    4.403450   -2.532580
  H     -8.539180    5.247870    1.777590
  H     -8.244980    5.385520   -1.160290
  H    -12.916840    4.593110   -2.152780
  H    -10.735640    4.915260   -3.723800
  H     -8.402020    3.643880   -2.188000
  H     -1.252140    2.678410   -6.338740
  H      1.029520    2.337170   -7.420820
  H      2.239990    2.586780   -9.681920
  H      2.821250    3.018280  -11.981600
  H      2.827570    3.738380  -14.455420
  H      1.316300    4.669170  -16.240340
  H     -5.035620    6.630040  -17.081800
  H     -4.718840    5.508280  -14.250270
  H     -6.239150    6.191180  -15.019380

 Total Charge           Charge          ....    0
 Multiplicity           Mult            ....    1
 Number of Electrons    NEL             ....  588
 Basis Dimension        Dim             .... 1157

ORBITAL ENERGIES
----------------

  NO   OCC          E(Eh)            E(eV)
   0   2.0000    -482.877438    -13139.7631
   1   2.0000     -88.994100     -2421.6526
   2   2.0000     -88.992998     -2421.6226
   3   2.0000     -88.992817     -2421.6177
   4   2.0000     -88.991952     -2421.5941
   5   2.0000     -88.986800     -2421.4539
   6   2.0000     -88.968570     -2420.9579
   7   2.0000     -88.968279     -2420.9499
   8   2.0000     -88.966516     -2420.9020
   9   2.0000     -62.555156     -1702.2123
  10   2.0000     -56.389078     -1534.4248
  11   2.0000     -56.386415     -1534.3524
  12   2.0000     -56.386369     -1534.3511
  13   2.0000     -24.812177      -675.1737
  14   2.0000     -24.809711      -675.1066
  15   2.0000     -24.806695      -675.0245
  16   2.0000     -24.805943      -675.0040
  17   2.0000     -19.239825      -523.5423
  18   2.0000     -19.239085      -523.5221
  19   2.0000     -19.227932      -523.2186
  20   2.0000     -14.651539      -398.6886
  21   2.0000     -14.490997      -394.3201
  22   2.0000     -14.416075      -392.2814
  23   2.0000     -14.415296      -392.2602
  24   2.0000     -14.411611      -392.1599
  25   2.0000     -14.410348      -392.1255
  26   2.0000     -10.387535      -282.6592
  27   2.0000     -10.387093      -282.6472
  28   2.0000     -10.386719      -282.6370
  29   2.0000     -10.385893      -282.6145
  30   2.0000     -10.376848      -282.3684
  31   2.0000     -10.374620      -282.3078
  32   2.0000     -10.366820      -282.0955
  33   2.0000     -10.348606      -281.5999
  34   2.0000     -10.347481      -281.5693
  35   2.0000     -10.345689      -281.5205
  36   2.0000     -10.342386      -281.4306
  37   2.0000     -10.341915      -281.4178
  38   2.0000     -10.341508      -281.4067
  39   2.0000     -10.340375      -281.3759
  40   2.0000     -10.337539      -281.2987
  41   2.0000     -10.333381      -281.1856
  42   2.0000     -10.332979      -281.1747
  43   2.0000     -10.332287      -281.1558
  44   2.0000     -10.329394      -281.0771
  45   2.0000     -10.329351      -281.0759
  46   2.0000     -10.328170      -281.0438
  47   2.0000     -10.326600      -281.0011
  48   2.0000     -10.323809      -280.9251
  49   2.0000     -10.319485      -280.8075
  50   2.0000     -10.318977      -280.7936
  51   2.0000     -10.318880      -280.7910
  52   2.0000     -10.317939      -280.7654
  53   2.0000     -10.317574      -280.7555
  54   2.0000     -10.316593      -280.7288
  55   2.0000     -10.316174      -280.7174
  56   2.0000     -10.315360      -280.6952
  57   2.0000     -10.313531      -280.6454
  58   2.0000     -10.312935      -280.6292
  59   2.0000     -10.310865      -280.5729
  60   2.0000     -10.310677      -280.5678
  61   2.0000     -10.307641      -280.4852
  62   2.0000     -10.307024      -280.4684
  63   2.0000     -10.306922      -280.4656
  64   2.0000     -10.305170      -280.4179
  65   2.0000     -10.303530      -280.3733
  66   2.0000     -10.302736      -280.3517
  67   2.0000     -10.302504      -280.3454
  68   2.0000     -10.301933      -280.3299
  69   2.0000     -10.298946      -280.2486
  70   2.0000     -10.296421      -280.1799
  71   2.0000     -10.296089      -280.1708
  72   2.0000     -10.294635      -280.1313
  73   2.0000     -10.291559      -280.0476
  74   2.0000     -10.286340      -279.9055
  75   2.0000     -10.282306      -279.7958
  76   2.0000     -10.282038      -279.7885
  77   2.0000      -8.784592      -239.0409
  78   2.0000      -8.089104      -220.1157
  79   2.0000      -8.088253      -220.0925
  80   2.0000      -8.088021      -220.0862
  81   2.0000      -8.086790      -220.0527
  82   2.0000      -8.081713      -219.9146
  83   2.0000      -8.064648      -219.4502
  84   2.0000      -8.064444      -219.4447
  85   2.0000      -8.062486      -219.3914
  86   2.0000      -6.620767      -180.1602
  87   2.0000      -6.606375      -179.7686
  88   2.0000      -6.606220      -179.7644
  89   2.0000      -6.059087      -164.8761
  90   2.0000      -6.057848      -164.8424
  91   2.0000      -6.057550      -164.8343
  92   2.0000      -6.056406      -164.8032
  93   2.0000      -6.054863      -164.7612
  94   2.0000      -6.053448      -164.7227
  95   2.0000      -6.053408      -164.7216
  96   2.0000      -6.052130      -164.6868
  97   2.0000      -6.050700      -164.6479
  98   2.0000      -6.049927      -164.6269
  99   2.0000      -6.049840      -164.6245
 100   2.0000      -6.049661      -164.6196
 101   2.0000      -6.048359      -164.5842
 102   2.0000      -6.046565      -164.5354
 103   2.0000      -6.044443      -164.4777
 104   2.0000      -6.034368      -164.2035
 105   2.0000      -6.034179      -164.1983
 106   2.0000      -6.032164      -164.1435
 107   2.0000      -6.030205      -164.0902
 108   2.0000      -6.030096      -164.0873
 109   2.0000      -6.027924      -164.0281
 110   2.0000      -6.025687      -163.9673
 111   2.0000      -6.025398      -163.9594
 112   2.0000      -6.023716      -163.9136
 113   2.0000      -2.736704       -74.4695
 114   2.0000      -2.732600       -74.3578
 115   2.0000      -2.732491       -74.3549
 116   2.0000      -2.721043       -74.0433
 117   2.0000      -2.721036       -74.0432
 118   2.0000      -1.335011       -36.3275
 119   2.0000      -1.328743       -36.1569
 120   2.0000      -1.321522       -35.9604
 121   2.0000      -1.318910       -35.8894
 122   2.0000      -1.309732       -35.6396
 123   2.0000      -1.143568       -31.1181
 124   2.0000      -1.140787       -31.0424
 125   2.0000      -1.101258       -29.9668
 126   2.0000      -1.047749       -28.5107
 127   2.0000      -1.026062       -27.9206
 128   2.0000      -1.019371       -27.7385
 129   2.0000      -1.018431       -27.7129
 130   2.0000      -1.013543       -27.5799
 131   2.0000      -1.012091       -27.5404
 132   2.0000      -1.007286       -27.4096
 133   2.0000      -1.000987       -27.2382
 134   2.0000      -0.994732       -27.0680
 135   2.0000      -0.991986       -26.9933
 136   2.0000      -0.989404       -26.9230
 137   2.0000      -0.985142       -26.8071
 138   2.0000      -0.966080       -26.2884
 139   2.0000      -0.959576       -26.1114
 140   2.0000      -0.936825       -25.4923
 141   2.0000      -0.928812       -25.2743
 142   2.0000      -0.924599       -25.1596
 143   2.0000      -0.907550       -24.6957
 144   2.0000      -0.905529       -24.6407
 145   2.0000      -0.902706       -24.5639
 146   2.0000      -0.895807       -24.3761
 147   2.0000      -0.884957       -24.0809
 148   2.0000      -0.879026       -23.9195
 149   2.0000      -0.877247       -23.8711
 150   2.0000      -0.875955       -23.8360
 151   2.0000      -0.870413       -23.6852
 152   2.0000      -0.867770       -23.6132
 153   2.0000      -0.863915       -23.5083
 154   2.0000      -0.855860       -23.2891
 155   2.0000      -0.847173       -23.0528
 156   2.0000      -0.843402       -22.9501
 157   2.0000      -0.840215       -22.8634
 158   2.0000      -0.823217       -22.4009
 159   2.0000      -0.821001       -22.3406
 160   2.0000      -0.809866       -22.0376
 161   2.0000      -0.792218       -21.5574
 162   2.0000      -0.784863       -21.3572
 163   2.0000      -0.765527       -20.8311
 164   2.0000      -0.757805       -20.6209
 165   2.0000      -0.754996       -20.5445
 166   2.0000      -0.750179       -20.4134
 167   2.0000      -0.735368       -20.0104
 168   2.0000      -0.726575       -19.7711
 169   2.0000      -0.725187       -19.7333
 170   2.0000      -0.720303       -19.6005
 171   2.0000      -0.708813       -19.2878
 172   2.0000      -0.702545       -19.1172
 173   2.0000      -0.696041       -18.9402
 174   2.0000      -0.693805       -18.8794
 175   2.0000      -0.685213       -18.6456
 176   2.0000      -0.681534       -18.5455
 177   2.0000      -0.676008       -18.3951
 178   2.0000      -0.671337       -18.2680
 179   2.0000      -0.668392       -18.1879
 180   2.0000      -0.665739       -18.1157
 181   2.0000      -0.656010       -17.8509
 182   2.0000      -0.655262       -17.8306
 183   2.0000      -0.650703       -17.7065
 184   2.0000      -0.647085       -17.6081
 185   2.0000      -0.642045       -17.4709
 186   2.0000      -0.636658       -17.3243
 187   2.0000      -0.634935       -17.2775
 188   2.0000      -0.632992       -17.2246
 189   2.0000      -0.629173       -17.1207
 190   2.0000      -0.627731       -17.0814
 191   2.0000      -0.621413       -16.9095
 192   2.0000      -0.618518       -16.8307
 193   2.0000      -0.614823       -16.7302
 194   2.0000      -0.610650       -16.6166
 195   2.0000      -0.609185       -16.5768
 196   2.0000      -0.604252       -16.4425
 197   2.0000      -0.594955       -16.1896
 198   2.0000      -0.592403       -16.1201
 199   2.0000      -0.589185       -16.0325
 200   2.0000      -0.581879       -15.8337
 201   2.0000      -0.580557       -15.7978
 202   2.0000      -0.579068       -15.7572
 203   2.0000      -0.568765       -15.4769
 204   2.0000      -0.564781       -15.3685
 205   2.0000      -0.563081       -15.3222
 206   2.0000      -0.561575       -15.2812
 207   2.0000      -0.555029       -15.1031
 208   2.0000      -0.553703       -15.0670
 209   2.0000      -0.552381       -15.0311
 210   2.0000      -0.548284       -14.9196
 211   2.0000      -0.545943       -14.8559
 212   2.0000      -0.543750       -14.7962
 213   2.0000      -0.541212       -14.7271
 214   2.0000      -0.533245       -14.5103
 215   2.0000      -0.531288       -14.4571
 216   2.0000      -0.528414       -14.3789
 217   2.0000      -0.526598       -14.3295
 218   2.0000      -0.524619       -14.2756
 219   2.0000      -0.522989       -14.2313
 220   2.0000      -0.521425       -14.1887
 221   2.0000      -0.520735       -14.1699
 222   2.0000      -0.517417       -14.0796
 223   2.0000      -0.516646       -14.0586
 224   2.0000      -0.514495       -14.0001
 225   2.0000      -0.511834       -13.9277
 226   2.0000      -0.510184       -13.8828
 227   2.0000      -0.509677       -13.8690
 228   2.0000      -0.505904       -13.7663
 229   2.0000      -0.501248       -13.6397
 230   2.0000      -0.500819       -13.6280
 231   2.0000      -0.498862       -13.5747
 232   2.0000      -0.496971       -13.5233
 233   2.0000      -0.495005       -13.4698
 234   2.0000      -0.488985       -13.3060
 235   2.0000      -0.488421       -13.2906
 236   2.0000      -0.483432       -13.1549
 237   2.0000      -0.481784       -13.1100
 238   2.0000      -0.480710       -13.0808
 239   2.0000      -0.475600       -12.9417
 240   2.0000      -0.474366       -12.9082
 241   2.0000      -0.470780       -12.8106
 242   2.0000      -0.469652       -12.7799
 243   2.0000      -0.467995       -12.7348
 244   2.0000      -0.466479       -12.6935
 245   2.0000      -0.461133       -12.5481
 246   2.0000      -0.457227       -12.4418
 247   2.0000      -0.453731       -12.3467
 248   2.0000      -0.450425       -12.2567
 249   2.0000      -0.447559       -12.1787
 250   2.0000      -0.446220       -12.1423
 251   2.0000      -0.444355       -12.0915
 252   2.0000      -0.443004       -12.0548
 253   2.0000      -0.441332       -12.0092
 254   2.0000      -0.440651       -11.9907
 255   2.0000      -0.439409       -11.9569
 256   2.0000      -0.438166       -11.9231
 257   2.0000      -0.435786       -11.8583
 258   2.0000      -0.431452       -11.7404
 259   2.0000      -0.430288       -11.7087
 260   2.0000      -0.425938       -11.5904
 261   2.0000      -0.425239       -11.5713
 262   2.0000      -0.424971       -11.5641
 263   2.0000      -0.424412       -11.5488
 264   2.0000      -0.421173       -11.4607
 265   2.0000      -0.408241       -11.1088
 266   2.0000      -0.406871       -11.0715
 267   2.0000      -0.405702       -11.0397
 268   2.0000      -0.404848       -11.0165
 269   2.0000      -0.400024       -10.8852
 270   2.0000      -0.388356       -10.5677
 271   2.0000      -0.386869       -10.5272
 272   2.0000      -0.381418       -10.3789
 273   2.0000      -0.379268       -10.3204
 274   2.0000      -0.377655       -10.2765
 275   2.0000      -0.368533       -10.0283
 276   2.0000      -0.367166        -9.9911
 277   2.0000      -0.365565        -9.9475
 278   2.0000      -0.361471        -9.8361
 279   2.0000      -0.357433        -9.7263
 280   2.0000      -0.351430        -9.5629
 281   2.0000      -0.348740        -9.4897
 282   2.0000      -0.347662        -9.4604
 283   2.0000      -0.344078        -9.3628
 284   2.0000      -0.336738        -9.1631
 285   2.0000      -0.334158        -9.0929
 286   2.0000      -0.326406        -8.8820
 287   2.0000      -0.309609        -8.4249
 288   2.0000      -0.308268        -8.3884
 289   2.0000      -0.296616        -8.0713
 290   2.0000      -0.285347        -7.7647
 291   2.0000      -0.272016        -7.4019
 292   2.0000      -0.267450        -7.2777
 293   2.0000      -0.224099        -6.0980
 294   0.0000      -0.110085        -2.9956
 295   0.0000      -0.085991        -2.3399
 296   0.0000      -0.065101        -1.7715
 297   0.0000      -0.058596        -1.5945
 298   0.0000      -0.056659        -1.5418

MULLIKEN ATOMIC CHARGES
-----------------------
   0 C :    0.313195
   1 C :   -0.338146
   2 C :   -0.187162
   3 N :    0.154634
   4 C :   -0.202495
   5 N :    0.142984
   6 C :    0.011347
   7 C :    0.015734
   8 C :   -0.024029
   9 C :    0.099673
  10 C :   -0.088157
  11 C :   -0.027262
  12 S :    0.178293
  13 C :   -0.126212
  14 C :    0.068273
  15 Br:    0.010004
  16 C :    0.179169
  17 O :   -0.232367
  18 C :   -0.123326
  19 C :    0.031482
  20 N :   -0.024284
  21 C :   -0.114643
  22 S :    0.193109
  23 C :   -0.003359
  24 N :    0.275613
  25 O :   -0.248575
  26 O :   -0.256632
  27 C :    0.013320
  28 C :    0.108620
  29 C :   -0.029825
  30 C :   -0.010688
  31 C :   -0.086134
  32 C :   -0.012249
  33 C :   -0.289446
  34 N :    0.182551
  35 C :    0.146992
  36 C :   -0.231273
  37 S :    0.162538
  38 S :    0.188768
  39 C :   -0.230748
  40 C :    0.166638
  41 C :   -0.038488
  42 C :   -0.286158
  43 N :    0.160516
  44 C :   -0.063309
  45 S :    0.145913
  46 C :   -0.051615
  47 C :   -0.023064
  48 C :    0.030829
  49 C :    0.038618
  50 C :   -0.041510
  51 S :    0.065259
  52 C :   -0.024487
  53 C :    0.028120
  54 C :    0.037907
  55 C :   -0.040924
  56 S :    0.068588
  57 C :   -0.021953
  58 C :   -0.118402
  59 S :    0.131252
  60 C :   -0.131397
  61 C :    0.085779
  62 C :    0.096313
  63 C :    0.147044
  64 F :   -0.174688
  65 C :    0.144544
  66 F :   -0.160829
  67 C :    0.147443
  68 F :   -0.160868
  69 C :    0.148407
  70 F :   -0.171042
  71 C :   -0.002008
  72 C :   -0.021818
  73 H :   -0.021113
  74 H :   -0.006194
  75 H :   -0.005624
  76 H :    0.044968
  77 H :    0.181130
  78 H :    0.011328
  79 H :    0.007601
  80 H :    0.019417
  81 H :    0.012119
  82 H :   -0.001618
  83 H :   -0.005567
  84 H :   -0.008842
  85 H :   -0.001532
  86 H :    0.007174
  87 H :    0.010779
  88 H :    0.023995
  89 H :    0.032086
Sum of atomic charges:   -0.0000000

LOEWDIN ATOMIC CHARGES
----------------------
   0 C :    0.081432
   1 C :   -0.149254
   2 C :   -0.020035
   3 N :   -0.054086
   4 C :   -0.020365
   5 N :   -0.057452
   6 C :   -0.018902
   7 C :   -0.051666
   8 C :    0.046558
   9 C :   -0.026197
  10 C :   -0.141718
  11 C :   -0.010786
  12 S :    0.426783
  13 C :   -0.276100
  14 C :   -0.054949
  15 Br:    0.127602
  16 C :    0.105798
  17 O :   -0.172558
  18 C :   -0.135114
  19 C :    0.108635
  20 N :    0.069633
  21 C :   -0.104294
  22 S :    0.480622
  23 C :   -0.205635
  24 N :    0.272947
  25 O :   -0.214298
  26 O :   -0.223170
  27 C :    0.001656
  28 C :   -0.095101
  29 C :   -0.017237
  30 C :   -0.037259
  31 C :   -0.127031
  32 C :   -0.090443
  33 C :   -0.031301
  34 N :   -0.048584
  35 C :   -0.063718
  36 C :   -0.329286
  37 S :    0.449701
  38 S :    0.424234
  39 C :   -0.340098
  40 C :   -0.058103
  41 C :   -0.117255
  42 C :   -0.020394
  43 N :   -0.059254
  44 C :   -0.124589
  45 S :    0.441625
  46 C :   -0.084669
  47 C :   -0.136088
  48 C :   -0.031674
  49 C :   -0.023286
  50 C :   -0.181327
  51 S :    0.371098
  52 C :   -0.163876
  53 C :   -0.039948
  54 C :   -0.018224
  55 C :   -0.158920
  56 S :    0.375398
  57 C :   -0.060950
  58 C :   -0.173262
  59 S :    0.492910
  60 C :   -0.170159
  61 C :   -0.065755
  62 C :   -0.064605
  63 C :    0.056000
  64 F :   -0.046394
  65 C :    0.031336
  66 F :   -0.039890
  67 C :    0.031427
  68 F :   -0.039851
  69 C :    0.056319
  70 F :   -0.043687
  71 C :   -0.043838
  72 C :   -0.040766
  73 H :    0.039043
  74 H :    0.040800
  75 H :    0.036390
  76 H :    0.037114
  77 H :    0.084144
  78 H :    0.047273
  79 H :    0.028930
  80 H :    0.039448
  81 H :    0.048288
  82 H :    0.038084
  83 H :    0.035717
  84 H :    0.034141
  85 H :    0.038038
  86 H :    0.041615
  87 H :    0.036553
  88 H :    0.016204
  89 H :    0.029904

  Mayer bond orders larger than 0.100000
B(  0-C ,  1-C ) :   1.6345 B(  0-C ,  6-C ) :   1.0138 B(  0-C , 18-C ) :   1.0837
B(  1-C ,  2-C ) :   1.1403 B(  1-C ,  4-C ) :   1.1456 B(  2-C ,  3-N ) :   2.9776
B(  4-C ,  5-N ) :   2.9691 B(  6-C ,  7-C ) :   1.2610 B(  6-C , 11-C ) :   1.4214
B(  7-C ,  8-C ) :   1.4078 B(  7-C , 16-C ) :   0.9916 B(  8-C ,  9-C ) :   1.2651
B(  8-C , 73-H ) :   1.0120 B(  9-C , 10-C ) :   1.2998 B(  9-C , 14-C ) :   1.1769
B( 10-C , 11-C ) :   1.3197 B( 10-C , 12-S ) :   1.0891 B( 11-C , 74-H ) :   0.9820
B( 12-S , 13-C ) :   1.0755 B( 13-C , 14-C ) :   1.6117 B( 13-C , 15-Br) :   1.0121
B( 14-C , 75-H ) :   0.9898 B( 16-C , 17-O ) :   1.9886 B( 16-C , 18-C ) :   0.9961
B( 17-O , 77-H ) :   0.1467 B( 18-C , 19-C ) :   1.4952 B( 19-C , 20-N ) :   1.2999
B( 19-C , 76-H ) :   0.9364 B( 20-N , 21-C ) :   1.1907 B( 20-N , 77-H ) :   0.8236
B( 21-C , 22-S ) :   1.1498 B( 21-C , 28-C ) :   1.3893 B( 22-S , 23-C ) :   1.0840
B( 23-C , 24-N ) :   0.9648 B( 23-C , 27-C ) :   1.4918 B( 24-N , 25-O ) :   1.5379
B( 24-N , 26-O ) :   1.5178 B( 25-O , 26-O ) :   0.2611 B( 27-C , 28-C ) :   1.2270
B( 27-C , 78-H ) :   1.0069 B( 28-C , 29-C ) :   1.0640 B( 29-C , 30-C ) :   1.7029
B( 29-C , 79-H ) :   0.9646 B( 30-C , 31-C ) :   1.1901 B( 30-C , 80-H ) :   0.9521
B( 31-C , 32-C ) :   1.4938 B( 31-C , 37-S ) :   1.1159 B( 32-C , 33-C ) :   1.1851
B( 32-C , 35-C ) :   1.2521 B( 33-C , 34-N ) :   2.9208 B( 35-C , 36-C ) :   1.4124
B( 35-C , 40-C ) :   1.0596 B( 36-C , 37-S ) :   1.0933 B( 36-C , 38-S ) :   1.0869
B( 38-S , 39-C ) :   1.0807 B( 39-C , 40-C ) :   1.4062 B( 39-C , 45-S ) :   1.0845
B( 40-C , 41-C ) :   1.2617 B( 41-C , 42-C ) :   1.1930 B( 41-C , 44-C ) :   1.4280
B( 42-C , 43-N ) :   2.9129 B( 44-C , 45-S ) :   1.1062 B( 44-C , 46-C ) :   1.2319
B( 46-C , 47-C ) :   1.5402 B( 46-C , 81-H ) :   0.9622 B( 47-C , 48-C ) :   1.1492
B( 47-C , 51-S ) :   1.0490 B( 48-C , 49-C ) :   1.5815 B( 48-C , 82-H ) :   1.0010
B( 49-C , 50-C ) :   1.1939 B( 49-C , 83-H ) :   0.9928 B( 50-C , 51-S ) :   1.0364
B( 50-C , 52-C ) :   1.5012 B( 52-C , 53-C ) :   1.1938 B( 52-C , 56-S ) :   1.0496
B( 53-C , 54-C ) :   1.5733 B( 53-C , 84-H ) :   0.9933 B( 54-C , 55-C ) :   1.1612
B( 54-C , 85-H ) :   1.0006 B( 55-C , 56-S ) :   1.0378 B( 55-C , 57-C ) :   1.5175
B( 57-C , 58-C ) :   1.2482 B( 57-C , 86-H ) :   0.9624 B( 58-C , 59-S ) :   1.1283
B( 58-C , 62-C ) :   1.3167 B( 59-S , 60-C ) :   1.1495 B( 60-C , 61-C ) :   1.3621
B( 60-C , 71-C ) :   1.1581 B( 61-C , 62-C ) :   1.2161 B( 61-C , 69-C ) :   1.1279
B( 62-C , 63-C ) :   1.1518 B( 63-C , 64-F ) :   1.1286 B( 63-C , 65-C ) :   1.4253
B( 65-C , 66-F ) :   1.1657 B( 65-C , 67-C ) :   1.1573 B( 67-C , 68-F ) :   1.1658
B( 67-C , 69-C ) :   1.4382 B( 69-C , 70-F ) :   1.1386 B( 71-C , 72-C ) :   1.8854
B( 71-C , 87-H ) :   0.9557 B( 72-C , 88-H ) :   0.9554 B( 72-C , 89-H ) :   0.9489

-----------------------------------------------------------------------------
         ABSORPTION SPECTRUM VIA TRANSITION ELECTRIC DIPOLE MOMENTS
-----------------------------------------------------------------------------
State   Energy  Wavelength   fosc         T2         TX        TY        TZ
        (cm-1)    (nm)                  (au**2)     (au)      (au)      (au)
-----------------------------------------------------------------------------
   0   11803.7    847.2   1.087456490  30.32971  -0.46944  -1.31758   5.32666
   1   19514.4    512.4   0.009831609   0.16586   0.38528  -0.09983  -0.08635
   2   21414.0    467.0   0.079761533   1.22623   0.42999   0.39372   0.94145
   3   22111.8    452.2   0.362390552   5.39546  -1.63213  -0.47078  -1.58429
   4   23474.4    426.0   1.418151957  19.88861  -4.26368   0.69146   1.10973
   5   24267.6    412.1   0.003972854   0.05390   0.19087  -0.06444   0.11537
   6   25196.2    396.9   0.002420733   0.03163  -0.05070  -0.05386   0.16173
   7   25760.1    388.2   0.000942098   0.01204   0.00642  -0.10009   0.04450
   8   26424.0    378.4   0.003199456   0.03986   0.17499  -0.09570  -0.00897
   9   27165.8    368.1   0.003930914   0.04764   0.18833  -0.03831   0.10344
  10   27818.0    359.5   0.065057518   0.76992  -0.79936   0.11323   0.34369
  11   28023.3    356.8   0.433429555   5.09184  -1.88281   0.35914   1.19075
  12   28547.1    350.3   0.004760435   0.05490  -0.15964   0.01225   0.17107
  13   29376.9    340.4   0.121769430   1.36461   1.03286  -0.16933  -0.51879
  14   29431.0    339.8   0.002213691   0.02476  -0.04359  -0.05483  -0.14091
  15   29851.2    335.0   0.021857887   0.24106  -0.01439   0.05765  -0.48737
  16   30288.6    330.2   0.835412273   9.08023  -2.88456   0.29628   0.81962
  17   30812.1    324.5   0.125777753   1.34387  -0.05899   0.38515  -1.09181
  18   31192.0    320.6   0.014196844   0.14984  -0.08834   0.13908  -0.35027
  19   31803.3    314.4   0.066452888   0.68789  -0.37980  -0.00771   0.73728
  20   32409.7    308.5   0.050497090   0.51294  -0.62842   0.33812  -0.06086
  21   32427.3    308.4   0.261730291   2.65717  -0.70729   0.25078   1.44707
  22   32702.4    305.8   0.002010338   0.02024   0.06482  -0.05160  -0.11564
  23   33234.2    300.9   0.012803492   0.12683  -0.25641   0.07407   0.23579
  24   33255.1    300.7   0.026572492   0.26306  -0.30831  -0.00278   0.40987
  25   33599.6    297.6   0.190896876   1.87043   1.03582  -0.12769  -0.88386
  26   33879.1    295.2   0.048092083   0.46732  -0.61612   0.09704   0.27983
  27   33920.4    294.8   0.266800854   2.58942   1.41925  -0.32226  -0.68651
  28   34003.7    294.1   0.040184680   0.38905   0.15289   0.08563  -0.59862
  29   34695.5    288.2   0.024753091   0.23487  -0.20765   0.16342  -0.40626
  30   35150.2    284.5   0.010220085   0.09572  -0.11508   0.15714  -0.24038
  31   35434.6    282.2   0.042692127   0.39664  -0.09301  -0.06590   0.61939
  32   35524.5    281.5   0.014828680   0.13742  -0.24504   0.04079   0.27516
  33   35748.8    279.7   0.089455520   0.82380   0.24076  -0.01644  -0.87497
  34   35833.7    279.1   0.018427816   0.16930   0.21985  -0.06306  -0.34204
  35   36338.1    275.2   0.052848264   0.47879  -0.02890   0.02099  -0.69102
  36   36571.3    273.4   0.108117070   0.97326  -0.23514   0.11728  -0.95090
  37   36630.6    273.0   0.133804455   1.20255  -0.44128  -0.12687   0.99585
  38   36833.9    271.5   0.211765887   1.89271   0.99528  -0.10570   0.94390
  39   36979.5    270.4   0.005209108   0.04637   0.16966  -0.07538  -0.10913
  40   37460.2    266.9   0.105300011   0.92541   0.86555  -0.22734  -0.35292
  41   38239.1    261.5   0.067388266   0.58017   0.52050   0.05358  -0.55351
  42   38472.4    259.9   0.205051678   1.75465   0.86174   0.13482  -0.99693
  43   39490.9    253.2   0.099044926   0.82568  -0.19368  -0.24268   0.85398
  44   39643.6    252.2   0.009099891   0.07557   0.27111  -0.04507   0.00596
  45   40009.4    249.9   0.031303914   0.25758  -0.46858   0.18703  -0.05511

FINAL SINGLE POINT ENERGY     -8661.940336046750

DIPOLE MOMENT
-------------
                                X             Y             Z
Electronic contribution:     62.21418       3.25020       5.07670
Nuclear contribution   :    -59.73278      -3.72730     -10.56423
                        -----------------------------------------
Total Dipole Moment    :      2.48140      -0.47710      -5.48753
                        -----------------------------------------
Magnitude (a.u.)       :      6.04135
Magnitude (Debye)      :     15.35590

Rotational constants in cm-1:     0.000988     0.000243     0.000200
Rotational constants in MHz :    29.604723     7.284247     5.998525

                             ****ORCA TERMINATED NORMALLY****
TOTAL RUN TIME: 0 days 0 hours 10 minutes 10 seconds 156 msec
