                         Program Version 4.2.0 -  RELEASE  -
|  1> # ORCA input file
|  2> # SCF done       -160.768649691083          0.000700522174
|  3> ! CAM-B3LYP def2-SVP def2/J RIJCOSX Grid4 TightSCF
|  4> %maxcore 5000
|  5> %tddft
|  6>     Mode sTDDFT
|  7>     Ethresh 5.0
|  8>     maxcore 5000
|  9> end
| 10>
| 11> %pal
| 12>   nprocs 6
| 13>   end
| 14> * xyz 0 1
| 15>    C        1.33915        -4.63146         1.09019
| 16>    C        1.97591        -5.14943        -0.01097
| 17>    C        2.76722        -6.31489         0.01050
| 18>    N        3.42648        -7.25464        -0.03008
| 19>    C        1.89080        -4.61827        -1.31426
| 20>    N        1.84427        -4.26613        -2.40695
| 21>    C        1.30473        -5.23812         2.41541
| 22>    C        0.42858        -4.48416         3.23327
| 23>    C        0.17381        -4.81149         4.54176
| 24>    C        0.81424        -5.93863         5.06957
| 25>    C        1.69294        -6.68095         4.24691
| 26>    C        1.95110        -6.34969         2.92232
| 27>    S        2.38505        -8.02771         5.10129
| 28>    C        1.49215        -7.58269         6.53099
| 29>    C        0.71705        -6.48290         6.37975
| 30>   Br        1.66660        -8.61221         8.09010
| 31>    C       -0.10411        -3.34070         2.46132
| 32>    O       -0.81857        -2.45608         2.89066
| 33>    C        0.50059        -3.45286         1.11967
| 34>    C        0.46426        -2.48475         0.14543
| 35>    C       -0.43709        -1.41471         0.01804
| 36>    S        0.11717         0.00837        -0.83156
| 37>    C       -1.38802         0.77601        -0.57333
| 38>    C       -2.29686         0.00640         0.09033
| 39>    C       -3.68650         0.48438         0.35099
| 40>    C       -1.77130        -1.27559         0.43107
| 41>    C       -2.50047        -2.38450         0.96633
| 42>    C       -3.60875        -2.34071         1.73968
| 43>    C       -4.28921        -3.50668         2.18943
| 44>    C       -5.42980        -3.46307         2.91445
| 45>    C       -6.13577        -4.62669         3.35234
| 46>    C       -7.35045        -4.62892         3.92965
| 47>    C       -8.13502        -3.37890         4.19684
| 48>    C       -8.00707        -5.92770         4.32701
| 49>    N       -8.50259        -5.91295         5.68354
| 50>    C       -9.79934        -5.67081         6.05745
| 51>    C      -10.88400        -5.72288         5.25965
| 52>    C      -12.26819        -5.55969         5.59702
| 53>    N      -12.82187        -4.86614         6.63567
| 54>    C      -12.11731        -4.08089         7.61469
| 55>    C      -11.92900        -4.83954         8.92867
| 56>    C      -14.19679        -4.96830         6.57187
| 57>    C      -14.50670        -5.74132         5.45344
| 58>    C      -13.31452        -6.09405         4.84331
| 59>    C      -15.07031        -4.35436         7.50954
| 60>    C      -16.41830        -4.46128         7.46943
| 61>    C      -17.36020        -3.86297         8.37387
| 62>    C      -17.08008        -3.23963         9.58541
| 63>    O      -15.77283        -3.13784        10.01689
| 64>    C      -15.45059        -3.88953        11.17120
| 65>    C      -18.10826        -2.64971        10.38941
| 66>    O      -17.65652        -2.03685        11.51980
| 67>    C      -18.58340        -1.36008        12.33190
| 68>    C      -19.43187        -2.69851        10.02546
| 69>    C      -19.76049        -3.34529         8.82656
| 70>    C      -18.73526        -3.92033         8.00183
| 71>    N      -19.23325        -4.48564         6.90756
| 72>    S      -20.83619        -4.31142         6.91678
| 73>    N      -20.97739        -3.50753         8.30943
| 74>    H       -0.49996        -4.21810         5.13996
| 75>    H        2.63342        -6.94284         2.33668
| 76>    H        0.10355        -6.06936         7.15923
| 77>    H        1.25182        -2.50144        -0.59945
| 78>    H       -1.53530         1.77435        -0.93855
| 79>    H       -3.89230         1.36912        -0.24706
| 80>    H       -3.81032         0.74834         1.40069
| 81>    H       -4.40901        -0.28951         0.09882
| 82>    H       -2.09852        -3.35907         0.71071
| 83>    H       -3.99700        -1.39669         2.08705
| 84>    H       -3.87038        -4.46606         1.91187
| 85>    H       -5.84845        -2.49905         3.16806
| 86>    H       -5.64567        -5.57480         3.16724
| 87>    H       -8.31526        -2.83734         3.26939
| 88>    H       -7.59304        -2.71435         4.86943
| 89>    H       -9.09646        -3.61436         4.64453
| 90>    H       -7.28999        -6.75017         4.22837
| 91>    H       -8.84341        -6.13292         3.65527
| 92>    H       -7.79976        -5.70066         6.37379
| 93>    H       -9.89443        -5.50638         7.11984
| 94>    H      -10.75147        -5.98546         4.21861
| 95>    H      -12.68259        -3.16315         7.80237
| 96>    H      -11.15157        -3.79316         7.19224
| 97>    H      -12.89582        -5.06429         9.37135
| 98>    H      -11.35421        -4.23910         9.62944
| 99>    H      -11.41003        -5.78055         8.75974
|100>    H      -15.49263        -6.00456         5.12728
|101>    H      -13.19585        -6.69122         3.96007
|102>    H      -14.62964        -3.75932         8.29288
|103>    H      -16.88538        -5.02207         6.67255
|104>    H      -15.58476        -4.96160        10.98511
|105>    H      -16.05296        -3.59353        12.03196
|106>    H      -14.40138        -3.68296        11.37755
|107>    H      -19.09592        -0.56740        11.77879
|108>    H      -17.99926        -0.91910        13.13835
|109>    H      -19.32464        -2.04678        12.75336
|110>    H      -20.21918        -2.26006        10.61334
|111> *
|112>
|113>                          ****END OF INPUT****

CARTESIAN COORDINATES (ANGSTROEM)
---------------------------------
  C      1.339150   -4.631460    1.090190
  C      1.975910   -5.149430   -0.010970
  C      2.767220   -6.314890    0.010500
  N      3.426480   -7.254640   -0.030080
  C      1.890800   -4.618270   -1.314260
  N      1.844270   -4.266130   -2.406950
  C      1.304730   -5.238120    2.415410
  C      0.428580   -4.484160    3.233270
  C      0.173810   -4.811490    4.541760
  C      0.814240   -5.938630    5.069570
  C      1.692940   -6.680950    4.246910
  C      1.951100   -6.349690    2.922320
  S      2.385050   -8.027710    5.101290
  C      1.492150   -7.582690    6.530990
  C      0.717050   -6.482900    6.379750
  Br     1.666600   -8.612210    8.090100
  C     -0.104110   -3.340700    2.461320
  O     -0.818570   -2.456080    2.890660
  C      0.500590   -3.452860    1.119670
  C      0.464260   -2.484750    0.145430
  C     -0.437090   -1.414710    0.018040
  S      0.117170    0.008370   -0.831560
  C     -1.388020    0.776010   -0.573330
  C     -2.296860    0.006400    0.090330
  C     -3.686500    0.484380    0.350990
  C     -1.771300   -1.275590    0.431070
  C     -2.500470   -2.384500    0.966330
  C     -3.608750   -2.340710    1.739680
  C     -4.289210   -3.506680    2.189430
  C     -5.429800   -3.463070    2.914450
  C     -6.135770   -4.626690    3.352340
  C     -7.350450   -4.628920    3.929650
  C     -8.135020   -3.378900    4.196840
  C     -8.007070   -5.927700    4.327010
  N     -8.502590   -5.912950    5.683540
  C     -9.799340   -5.670810    6.057450
  C    -10.884000   -5.722880    5.259650
  C    -12.268190   -5.559690    5.597020
  N    -12.821870   -4.866140    6.635670
  C    -12.117310   -4.080890    7.614690
  C    -11.929000   -4.839540    8.928670
  C    -14.196790   -4.968300    6.571870
  C    -14.506700   -5.741320    5.453440
  C    -13.314520   -6.094050    4.843310
  C    -15.070310   -4.354360    7.509540
  C    -16.418300   -4.461280    7.469430
  C    -17.360200   -3.862970    8.373870
  C    -17.080080   -3.239630    9.585410
  O    -15.772830   -3.137840   10.016890
  C    -15.450590   -3.889530   11.171200
  C    -18.108260   -2.649710   10.389410
  O    -17.656520   -2.036850   11.519800
  C    -18.583400   -1.360080   12.331900
  C    -19.431870   -2.698510   10.025460
  C    -19.760490   -3.345290    8.826560
  C    -18.735260   -3.920330    8.001830
  N    -19.233250   -4.485640    6.907560
  S    -20.836190   -4.311420    6.916780
  N    -20.977390   -3.507530    8.309430
  H     -0.499960   -4.218100    5.139960
  H      2.633420   -6.942840    2.336680
  H      0.103550   -6.069360    7.159230
  H      1.251820   -2.501440   -0.599450
  H     -1.535300    1.774350   -0.938550
  H     -3.892300    1.369120   -0.247060
  H     -3.810320    0.748340    1.400690
  H     -4.409010   -0.289510    0.098820
  H     -2.098520   -3.359070    0.710710
  H     -3.997000   -1.396690    2.087050
  H     -3.870380   -4.466060    1.911870
  H     -5.848450   -2.499050    3.168060
  H     -5.645670   -5.574800    3.167240
  H     -8.315260   -2.837340    3.269390
  H     -7.593040   -2.714350    4.869430
  H     -9.096460   -3.614360    4.644530
  H     -7.289990   -6.750170    4.228370
  H     -8.843410   -6.132920    3.655270
  H     -7.799760   -5.700660    6.373790
  H     -9.894430   -5.506380    7.119840
  H    -10.751470   -5.985460    4.218610
  H    -12.682590   -3.163150    7.802370
  H    -11.151570   -3.793160    7.192240
  H    -12.895820   -5.064290    9.371350
  H    -11.354210   -4.239100    9.629440
  H    -11.410030   -5.780550    8.759740
  H    -15.492630   -6.004560    5.127280
  H    -13.195850   -6.691220    3.960070
  H    -14.629640   -3.759320    8.292880
  H    -16.885380   -5.022070    6.672550
  H    -15.584760   -4.961600   10.985110
  H    -16.052960   -3.593530   12.031960
  H    -14.401380   -3.682960   11.377550
  H    -19.095920   -0.567400   11.778790
  H    -17.999260   -0.919100   13.138350
  H    -19.324640   -2.046780   12.753360
  H    -20.219180   -2.260060   10.613340

 Total Charge           Charge          ....    0
 Multiplicity           Mult            ....    1
 Number of Electrons    NEL             ....  462
 Basis Dimension        Dim             .... 1041

ORBITAL ENERGIES
----------------

  NO   OCC          E(Eh)            E(eV)
   0   2.0000    -482.885650    -13139.9866
   1   2.0000     -88.994783     -2421.6712
   2   2.0000     -88.974369     -2421.1157
   3   2.0000     -88.963282     -2420.8140
   4   2.0000     -62.563367     -1702.4358
   5   2.0000     -56.397314     -1534.6489
   6   2.0000     -56.394606     -1534.5752
   7   2.0000     -56.394570     -1534.5743
   8   2.0000     -19.248149      -523.7688
   9   2.0000     -19.226323      -523.1749
  10   2.0000     -19.211227      -522.7641
  11   2.0000     -14.441173      -392.9643
  12   2.0000     -14.424422      -392.5085
  13   2.0000     -14.414868      -392.2485
  14   2.0000     -14.412235      -392.1769
  15   2.0000     -14.411535      -392.1578
  16   2.0000     -14.410040      -392.1171
  17   2.0000     -10.360900      -281.9344
  18   2.0000     -10.358295      -281.8635
  19   2.0000     -10.338473      -281.3241
  20   2.0000     -10.337670      -281.3023
  21   2.0000     -10.335361      -281.2395
  22   2.0000     -10.323599      -280.9194
  23   2.0000     -10.322746      -280.8962
  24   2.0000     -10.320045      -280.8227
  25   2.0000     -10.319611      -280.8109
  26   2.0000     -10.315322      -280.6942
  27   2.0000     -10.314582      -280.6740
  28   2.0000     -10.309634      -280.5394
  29   2.0000     -10.306780      -280.4617
  30   2.0000     -10.306579      -280.4563
  31   2.0000     -10.306493      -280.4539
  32   2.0000     -10.306200      -280.4460
  33   2.0000     -10.305203      -280.4188
  34   2.0000     -10.304841      -280.4090
  35   2.0000     -10.304593      -280.4022
  36   2.0000     -10.303751      -280.3793
  37   2.0000     -10.299696      -280.2690
  38   2.0000     -10.298901      -280.2473
  39   2.0000     -10.298710      -280.2421
  40   2.0000     -10.298104      -280.2256
  41   2.0000     -10.296300      -280.1766
  42   2.0000     -10.294427      -280.1256
  43   2.0000     -10.290237      -280.0116
  44   2.0000     -10.289952      -280.0038
  45   2.0000     -10.280789      -279.7545
  46   2.0000     -10.280540      -279.7477
  47   2.0000     -10.279121      -279.7091
  48   2.0000     -10.277585      -279.6673
  49   2.0000     -10.276004      -279.6243
  50   2.0000     -10.275193      -279.6022
  51   2.0000     -10.275190      -279.6021
  52   2.0000     -10.274118      -279.5730
  53   2.0000     -10.268205      -279.4121
  54   2.0000     -10.266549      -279.3670
  55   2.0000     -10.264407      -279.3087
  56   2.0000     -10.264060      -279.2993
  57   2.0000     -10.259841      -279.1845
  58   2.0000     -10.255361      -279.0626
  59   2.0000     -10.250078      -278.9188
  60   2.0000     -10.245122      -278.7840
  61   2.0000     -10.232209      -278.4326
  62   2.0000     -10.228563      -278.3333
  63   2.0000      -8.792788      -239.2639
  64   2.0000      -8.086998      -220.0584
  65   2.0000      -8.070430      -219.6076
  66   2.0000      -8.059538      -219.3112
  67   2.0000      -6.629079      -180.3864
  68   2.0000      -6.614513      -179.9900
  69   2.0000      -6.614340      -179.9854
  70   2.0000      -6.058322      -164.8553
  71   2.0000      -6.050709      -164.6482
  72   2.0000      -6.048985      -164.6013
  73   2.0000      -6.040133      -164.3604
  74   2.0000      -6.035849      -164.2438
  75   2.0000      -6.031609      -164.1284
  76   2.0000      -6.028738      -164.0503
  77   2.0000      -6.024594      -163.9375
  78   2.0000      -6.021717      -163.8593
  79   2.0000      -2.744938       -74.6936
  80   2.0000      -2.740897       -74.5836
  81   2.0000      -2.740700       -74.5782
  82   2.0000      -2.729154       -74.2641
  83   2.0000      -2.729143       -74.2638
  84   2.0000      -1.155913       -31.4540
  85   2.0000      -1.125383       -30.6232
  86   2.0000      -1.122508       -30.5450
  87   2.0000      -1.096775       -29.8448
  88   2.0000      -1.064248       -28.9597
  89   2.0000      -1.023619       -27.8541
  90   2.0000      -1.020831       -27.7782
  91   2.0000      -1.010807       -27.5054
  92   2.0000      -0.997082       -27.1320
  93   2.0000      -0.990287       -26.9471
  94   2.0000      -0.986286       -26.8382
  95   2.0000      -0.953331       -25.9415
  96   2.0000      -0.941141       -25.6098
  97   2.0000      -0.934561       -25.4307
  98   2.0000      -0.922167       -25.0934
  99   2.0000      -0.906584       -24.6694
 100   2.0000      -0.903412       -24.5831
 101   2.0000      -0.901834       -24.5401
 102   2.0000      -0.894173       -24.3317
 103   2.0000      -0.884109       -24.0578
 104   2.0000      -0.878265       -23.8988
 105   2.0000      -0.873977       -23.7821
 106   2.0000      -0.867642       -23.6097
 107   2.0000      -0.853275       -23.2188
 108   2.0000      -0.843103       -22.9420
 109   2.0000      -0.839579       -22.8461
 110   2.0000      -0.827613       -22.5205
 111   2.0000      -0.823725       -22.4147
 112   2.0000      -0.812070       -22.0976
 113   2.0000      -0.808651       -22.0045
 114   2.0000      -0.791333       -21.5333
 115   2.0000      -0.789902       -21.4943
 116   2.0000      -0.788215       -21.4484
 117   2.0000      -0.772933       -21.0326
 118   2.0000      -0.763240       -20.7688
 119   2.0000      -0.758081       -20.6284
 120   2.0000      -0.750162       -20.4130
 121   2.0000      -0.748265       -20.3613
 122   2.0000      -0.717180       -19.5155
 123   2.0000      -0.709901       -19.3174
 124   2.0000      -0.706192       -19.2165
 125   2.0000      -0.697099       -18.9690
 126   2.0000      -0.689578       -18.7644
 127   2.0000      -0.685855       -18.6631
 128   2.0000      -0.676476       -18.4079
 129   2.0000      -0.671840       -18.2817
 130   2.0000      -0.662065       -18.0157
 131   2.0000      -0.657853       -17.9011
 132   2.0000      -0.656665       -17.8688
 133   2.0000      -0.650259       -17.6944
 134   2.0000      -0.639971       -17.4145
 135   2.0000      -0.632819       -17.2199
 136   2.0000      -0.623899       -16.9771
 137   2.0000      -0.620171       -16.8757
 138   2.0000      -0.612945       -16.6791
 139   2.0000      -0.607538       -16.5319
 140   2.0000      -0.604100       -16.4384
 141   2.0000      -0.601359       -16.3638
 142   2.0000      -0.598523       -16.2866
 143   2.0000      -0.594075       -16.1656
 144   2.0000      -0.588752       -16.0208
 145   2.0000      -0.587244       -15.9797
 146   2.0000      -0.578056       -15.7297
 147   2.0000      -0.572677       -15.5833
 148   2.0000      -0.564784       -15.3686
 149   2.0000      -0.558838       -15.2067
 150   2.0000      -0.554840       -15.0980
 151   2.0000      -0.551311       -15.0019
 152   2.0000      -0.545061       -14.8319
 153   2.0000      -0.540412       -14.7054
 154   2.0000      -0.538648       -14.6574
 155   2.0000      -0.533530       -14.5181
 156   2.0000      -0.531948       -14.4750
 157   2.0000      -0.531609       -14.4658
 158   2.0000      -0.526632       -14.3304
 159   2.0000      -0.524360       -14.2685
 160   2.0000      -0.520976       -14.1765
 161   2.0000      -0.519806       -14.1446
 162   2.0000      -0.519034       -14.1236
 163   2.0000      -0.517488       -14.0816
 164   2.0000      -0.516864       -14.0646
 165   2.0000      -0.513112       -13.9625
 166   2.0000      -0.510900       -13.9023
 167   2.0000      -0.508339       -13.8326
 168   2.0000      -0.506398       -13.7798
 169   2.0000      -0.502002       -13.6602
 170   2.0000      -0.500232       -13.6120
 171   2.0000      -0.495331       -13.4786
 172   2.0000      -0.493058       -13.4168
 173   2.0000      -0.491815       -13.3830
 174   2.0000      -0.490016       -13.3340
 175   2.0000      -0.485153       -13.2017
 176   2.0000      -0.483779       -13.1643
 177   2.0000      -0.474099       -12.9009
 178   2.0000      -0.472302       -12.8520
 179   2.0000      -0.466675       -12.6989
 180   2.0000      -0.463925       -12.6240
 181   2.0000      -0.460383       -12.5277
 182   2.0000      -0.459859       -12.5134
 183   2.0000      -0.457419       -12.4470
 184   2.0000      -0.454826       -12.3764
 185   2.0000      -0.453286       -12.3345
 186   2.0000      -0.448967       -12.2170
 187   2.0000      -0.447529       -12.1779
 188   2.0000      -0.447012       -12.1638
 189   2.0000      -0.445109       -12.1120
 190   2.0000      -0.443413       -12.0659
 191   2.0000      -0.442576       -12.0431
 192   2.0000      -0.440691       -11.9918
 193   2.0000      -0.439682       -11.9643
 194   2.0000      -0.437218       -11.8973
 195   2.0000      -0.436045       -11.8654
 196   2.0000      -0.432718       -11.7749
 197   2.0000      -0.426716       -11.6115
 198   2.0000      -0.426528       -11.6064
 199   2.0000      -0.423970       -11.5368
 200   2.0000      -0.423707       -11.5297
 201   2.0000      -0.421595       -11.4722
 202   2.0000      -0.419379       -11.4119
 203   2.0000      -0.417358       -11.3569
 204   2.0000      -0.411919       -11.2089
 205   2.0000      -0.410684       -11.1753
 206   2.0000      -0.408561       -11.1175
 207   2.0000      -0.405073       -11.0226
 208   2.0000      -0.402136       -10.9427
 209   2.0000      -0.395512       -10.7624
 210   2.0000      -0.387518       -10.5449
 211   2.0000      -0.377985       -10.2855
 212   2.0000      -0.377872       -10.2824
 213   2.0000      -0.375069       -10.2061
 214   2.0000      -0.374920       -10.2021
 215   2.0000      -0.368371       -10.0239
 216   2.0000      -0.352721        -9.5980
 217   2.0000      -0.346197        -9.4205
 218   2.0000      -0.345352        -9.3975
 219   2.0000      -0.342331        -9.3153
 220   2.0000      -0.334722        -9.1083
 221   2.0000      -0.320052        -8.7091
 222   2.0000      -0.313836        -8.5399
 223   2.0000      -0.305626        -8.3165
 224   2.0000      -0.295841        -8.0502
 225   2.0000      -0.294603        -8.0166
 226   2.0000      -0.285546        -7.7701
 227   2.0000      -0.284528        -7.7424
 228   2.0000      -0.267496        -7.2789
 229   2.0000      -0.253053        -6.8859
 230   2.0000      -0.203482        -5.5370
 231   0.0000      -0.091371        -2.4863
 232   0.0000      -0.059532        -1.6200
 233   0.0000      -0.037234        -1.0132
 234   0.0000      -0.023590        -0.6419
 235   0.0000      -0.005796        -0.1577

MULLIKEN ATOMIC CHARGES
-----------------------
   0 C :    0.300596
   1 C :   -0.340393
   2 C :   -0.184273
   3 N :    0.145924
   4 C :   -0.211952
   5 N :    0.160117
   6 C :    0.014321
   7 C :   -0.011112
   8 C :   -0.077952
   9 C :    0.118622
  10 C :   -0.089433
  11 C :   -0.025362
  12 S :    0.184355
  13 C :   -0.122503
  14 C :    0.036492
  15 Br:    0.020340
  16 C :    0.127313
  17 O :   -0.144200
  18 C :   -0.121792
  19 C :    0.025425
  20 C :   -0.165552
  21 S :    0.143533
  22 C :   -0.098009
  23 C :   -0.103622
  24 C :    0.110839
  25 C :    0.181740
  26 C :   -0.018934
  27 C :    0.022780
  28 C :    0.017350
  29 C :    0.008754
  30 C :   -0.001222
  31 C :   -0.217857
  32 C :    0.092432
  33 C :    0.227854
  34 N :   -0.177576
  35 C :    0.032994
  36 C :   -0.049400
  37 C :    0.091212
  38 N :   -0.169951
  39 C :    0.083027
  40 C :    0.014843
  41 C :    0.105036
  42 C :   -0.036800
  43 C :   -0.041175
  44 C :    0.022112
  45 C :   -0.104935
  46 C :    0.114642
  47 C :    0.045771
  48 O :   -0.347045
  49 C :    0.200014
  50 C :    0.260378
  51 O :   -0.315427
  52 C :    0.178305
  53 C :   -0.225368
  54 C :    0.093579
  55 C :   -0.028107
  56 N :   -0.278542
  57 S :    0.465745
  58 N :   -0.282222
  59 H :   -0.013426
  60 H :   -0.005695
  61 H :   -0.006154
  62 H :    0.031316
  63 H :    0.024819
  64 H :    0.008541
  65 H :    0.043324
  66 H :    0.035081
  67 H :    0.000056
  68 H :   -0.018848
  69 H :   -0.017917
  70 H :   -0.017529
  71 H :   -0.031664
  72 H :    0.031094
  73 H :    0.026474
  74 H :    0.022457
  75 H :    0.004182
  76 H :    0.036475
  77 H :    0.113276
  78 H :   -0.015065
  79 H :   -0.027126
  80 H :    0.031614
  81 H :    0.016938
  82 H :    0.019722
  83 H :    0.016302
  84 H :    0.023558
  85 H :   -0.030328
  86 H :   -0.044287
  87 H :   -0.012235
  88 H :   -0.012519
  89 H :    0.014062
  90 H :    0.027125
  91 H :    0.023362
  92 H :    0.027631
  93 H :    0.036164
  94 H :    0.025747
  95 H :   -0.042253
Sum of atomic charges:   -0.0000000

LOEWDIN ATOMIC CHARGES
----------------------
   0 C :    0.075436
   1 C :   -0.144143
   2 C :   -0.018319
   3 N :   -0.056604
   4 C :   -0.026650
   5 N :   -0.052708
   6 C :   -0.022753
   7 C :   -0.047472
   8 C :    0.016925
   9 C :   -0.033638
  10 C :   -0.145859
  11 C :   -0.010273
  12 S :    0.430786
  13 C :   -0.272477
  14 C :   -0.071662
  15 Br:    0.134028
  16 C :    0.072972
  17 O :   -0.135187
  18 C :   -0.108594
  19 C :    0.049513
  20 C :   -0.180443
  21 S :    0.451809
  22 C :   -0.163157
  23 C :   -0.055238
  24 C :   -0.044319
  25 C :   -0.007911
  26 C :   -0.014044
  27 C :   -0.005160
  28 C :   -0.022729
  29 C :   -0.018602
  30 C :   -0.056916
  31 C :   -0.032837
  32 C :   -0.058389
  33 C :    0.042898
  34 N :   -0.025768
  35 C :    0.014346
  36 C :   -0.127983
  37 C :   -0.003403
  38 N :    0.059660
  39 C :    0.037211
  40 C :   -0.063418
  41 C :   -0.036031
  42 C :   -0.051334
  43 C :   -0.083343
  44 C :   -0.016507
  45 C :   -0.043766
  46 C :   -0.033942
  47 C :    0.024241
  48 O :   -0.123470
  49 C :    0.075883
  50 C :    0.052935
  51 O :   -0.093296
  52 C :    0.077166
  53 C :   -0.104686
  54 C :   -0.051038
  55 C :   -0.052605
  56 N :   -0.287080
  57 S :    0.604342
  58 N :   -0.302554
  59 H :    0.039494
  60 H :    0.040924
  61 H :    0.037697
  62 H :    0.044686
  63 H :    0.026380
  64 H :    0.033148
  65 H :    0.036921
  66 H :    0.037898
  67 H :    0.030235
  68 H :    0.027721
  69 H :    0.026476
  70 H :    0.024826
  71 H :    0.023472
  72 H :    0.038442
  73 H :    0.035060
  74 H :    0.032362
  75 H :    0.026621
  76 H :    0.036753
  77 H :    0.072822
  78 H :    0.021402
  79 H :    0.027513
  80 H :    0.030531
  81 H :    0.024579
  82 H :    0.028938
  83 H :    0.027038
  84 H :    0.024516
  85 H :    0.022978
  86 H :    0.017733
  87 H :    0.022526
  88 H :    0.028466
  89 H :    0.011676
  90 H :    0.010653
  91 H :    0.019712
  92 H :    0.018257
  93 H :    0.028136
  94 H :    0.016385
  95 H :    0.033182

  Mayer bond orders larger than 0.100000
B(  0-C ,  1-C ) :   1.6302 B(  0-C ,  6-C ) :   1.0045 B(  0-C , 18-C ) :   1.0767
B(  1-C ,  2-C ) :   1.1413 B(  1-C ,  4-C ) :   1.1429 B(  2-C ,  3-N ) :   2.9697
B(  4-C ,  5-N ) :   2.9965 B(  6-C ,  7-C ) :   1.2734 B(  6-C , 11-C ) :   1.4101
B(  7-C ,  8-C ) :   1.4285 B(  7-C , 16-C ) :   0.9300 B(  8-C ,  9-C ) :   1.2395
B(  8-C , 59-H ) :   1.0175 B(  9-C , 10-C ) :   1.3113 B(  9-C , 14-C ) :   1.1630
B( 10-C , 11-C ) :   1.3247 B( 10-C , 12-S ) :   1.0834 B( 11-C , 60-H ) :   0.9816
B( 12-S , 13-C ) :   1.0876 B( 13-C , 14-C ) :   1.6176 B( 13-C , 15-Br) :   1.0167
B( 14-C , 61-H ) :   1.0004 B( 16-C , 17-O ) :   2.2059 B( 16-C , 18-C ) :   0.9715
B( 18-C , 19-C ) :   1.5448 B( 19-C , 20-C ) :   1.2391 B( 19-C , 62-H ) :   0.9307
B( 20-C , 21-S ) :   1.1071 B( 20-C , 25-C ) :   1.3670 B( 21-S , 22-C ) :   1.1755
B( 22-C , 23-C ) :   1.5602 B( 22-C , 63-H ) :   0.9655 B( 23-C , 24-C ) :   1.0935
B( 23-C , 25-C ) :   1.2615 B( 24-C , 64-H ) :   0.9450 B( 24-C , 65-H ) :   0.9422
B( 24-C , 66-H ) :   0.9423 B( 25-C , 26-C ) :   1.1130 B( 26-C , 27-C ) :   1.6623
B( 26-C , 67-H ) :   0.9527 B( 27-C , 28-C ) :   1.1115 B( 27-C , 68-H ) :   0.9815
B( 28-C , 29-C ) :   1.6720 B( 28-C , 69-H ) :   0.9931 B( 29-C , 30-C ) :   1.0953
B( 29-C , 70-H ) :   0.9730 B( 30-C , 31-C ) :   1.7644 B( 30-C , 71-H ) :   0.9763
B( 31-C , 32-C ) :   1.0689 B( 31-C , 33-C ) :   1.0517 B( 32-C , 72-H ) :   0.9429
B( 32-C , 73-H ) :   0.9443 B( 32-C , 74-H ) :   0.9497 B( 33-C , 34-N ) :   0.9983
B( 33-C , 75-H ) :   0.9381 B( 33-C , 76-H ) :   0.9203 B( 34-N , 35-C ) :   1.1784
B( 34-N , 77-H ) :   0.9449 B( 35-C , 36-C ) :   1.6501 B( 35-C , 78-H ) :   0.9683
B( 36-C , 37-C ) :   1.1235 B( 36-C , 79-H ) :   0.9415 B( 37-C , 38-N ) :   1.2162
B( 37-C , 43-C ) :   1.3835 B( 38-N , 39-C ) :   0.9736 B( 38-N , 41-C ) :   1.1360
B( 39-C , 40-C ) :   1.1105 B( 39-C , 80-H ) :   0.9424 B( 39-C , 81-H ) :   0.9403
B( 40-C , 82-H ) :   0.9581 B( 40-C , 83-H ) :   0.9666 B( 40-C , 84-H ) :   0.9588
B( 41-C , 42-C ) :   1.4181 B( 41-C , 44-C ) :   1.0927 B( 42-C , 43-C ) :   1.3339
B( 42-C , 85-H ) :   1.0067 B( 43-C , 86-H ) :   1.0092 B( 44-C , 45-C ) :   1.6369
B( 44-C , 87-H ) :   0.9524 B( 45-C , 46-C ) :   1.1430 B( 45-C , 88-H ) :   0.9758
B( 46-C , 47-C ) :   1.4608 B( 46-C , 53-C ) :   0.1160 B( 46-C , 55-C ) :   1.1207
B( 47-C , 48-O ) :   1.1115 B( 47-C , 50-C ) :   1.1768 B( 48-O , 49-C ) :   0.9345
B( 49-C , 89-H ) :   0.9640 B( 49-C , 90-H ) :   0.9648 B( 49-C , 91-H ) :   0.9819
B( 50-C , 51-O ) :   1.1408 B( 50-C , 53-C ) :   1.3757 B( 51-O , 52-C ) :   0.9648
B( 52-C , 92-H ) :   0.9692 B( 52-C , 93-H ) :   0.9781 B( 52-C , 94-H ) :   0.9693
B( 53-C , 54-C ) :   1.1348 B( 53-C , 95-H ) :   1.0436 B( 54-C , 55-C ) :   1.1584
B( 54-C , 58-N ) :   1.5401 B( 55-C , 56-N ) :   1.5722 B( 56-N , 57-S ) :   1.2442
B( 56-N , 58-N ) :   0.1471 B( 57-S , 58-N ) :   1.2390

-----------------------------------------------------------------------------
         ABSORPTION SPECTRUM VIA TRANSITION ELECTRIC DIPOLE MOMENTS
-----------------------------------------------------------------------------
State   Energy  Wavelength   fosc         T2         TX        TY        TZ
        (cm-1)    (nm)                  (au**2)     (au)      (au)      (au)
-----------------------------------------------------------------------------
   0   16164.7    618.6   0.117196559   2.38684   1.47665  -0.06149  -0.45007
   1   19101.8    523.5   0.493139803   8.49907   2.77957  -0.75577  -0.44931
   2   20375.4    490.8   0.563918996   9.11144   2.53040  -0.77276  -1.45305
   3   22785.0    438.9   0.029677706   0.42880   0.57749   0.29396  -0.09428
   4   24418.9    409.5   0.236481683   3.18820  -0.30759   1.73280  -0.30165
   5   25092.6    398.5   0.171872177   2.25494  -1.18593   0.90186  -0.18752
   6   27652.5    361.6   0.316171550   3.76413  -0.44384   1.03795  -1.57791
   7   28072.4    356.2   0.109700918   1.28649  -1.02857  -0.32473   0.35081
   8   28273.7    353.7   0.113708444   1.32399  -0.72828   0.67968   0.57587
   9   29959.1    333.8   0.015683927   0.17235   0.29240  -0.29065  -0.04870
  10   30651.9    326.2   0.360727544   3.87434   0.76977   0.74101  -1.65309
  11   30758.9    325.1   0.501422838   5.36671  -2.10661   0.69133   0.67155
  12   30788.0    324.8   0.141372646   1.51168   1.05905  -0.61571   0.10482
  13   33009.0    302.9   0.348011645   3.47085  -0.13692  -0.14783   1.85209
  14   33703.5    296.7   0.085045428   0.83071   0.25580   0.60695  -0.62999
  15   33965.4    294.4   0.131648750   1.27602   1.09522  -0.20650  -0.18403
  16   34470.1    290.1   0.026078332   0.24906  -0.08834  -0.20076   0.44828
  17   34530.9    289.6   0.193231456   1.84224   1.09048   0.07066  -0.80504
  18   35368.8    282.7   1.031771609   9.60372   1.71612   1.55429  -2.05981
  19   36486.3    274.1   0.013633462   0.12301  -0.06321   0.01378   0.34471
  20   36952.7    270.6   0.002846792   0.02536  -0.04257  -0.04510   0.14668
  21   37299.2    268.1   0.267774902   2.36345  -0.58495  -0.64505  -1.26696
  22   37410.2    267.3   0.059225533   0.52119  -0.61596  -0.25272  -0.27913
  23   38021.1    263.0   0.140122163   1.21327   0.43852  -1.00121   0.13621
  24   38795.8    257.8   0.118824141   1.00831  -0.92927  -0.27471   0.26327
  25   39400.0    253.8   0.009941567   0.08307   0.28792   0.01235  -0.00448
  26   39499.1    253.2   0.034282383   0.28573  -0.42993  -0.20514   0.24251

FINAL SINGLE POINT ENERGY     -6094.430186933862

DIPOLE MOMENT
-------------
                                X             Y             Z
Electronic contribution:    171.18553     -65.51987       3.64292
Nuclear contribution   :   -171.30388      67.22953      -0.72305
                        -----------------------------------------
Total Dipole Moment    :     -0.11835       1.70966       2.91987
                        -----------------------------------------
Magnitude (a.u.)       :      3.38564
Magnitude (Debye)      :      8.60562

Rotational constants in cm-1:     0.001506     0.000246     0.000222
Rotational constants in MHz :    45.161989     7.379881     6.669095

                             ****ORCA TERMINATED NORMALLY****
TOTAL RUN TIME: 0 days 0 hours 7 minutes 6 seconds 547 msec
