                         Program Version 4.2.0 -  RELEASE  -
|  1> # ORCA input file
|  2> # SCF done       -187.315392944772          0.000424438586
|  3> ! CAM-B3LYP def2-SVP def2/J RIJCOSX Grid4 TightSCF
|  4> %maxcore 5000
|  5> %tddft
|  6>     Mode sTDDFT
|  7>     Ethresh 5.0
|  8>     maxcore 5000
|  9> end
| 10>
| 11> %pal
| 12>   nprocs 6
| 13>   end
| 14> * xyz 0 1
| 15>    C       -6.78618         4.30872         3.34316
| 16>    C       -6.34120         4.03231         4.60861
| 17>    C       -6.83146         4.66541         5.77044
| 18>    N       -7.19343         5.14541         6.74844
| 19>    C       -5.30864         3.12731         4.93808
| 20>    N       -4.46785         2.43788         5.30655
| 21>    C       -7.76446         5.32490         2.99266
| 22>    C       -7.80814         5.44632         1.58285
| 23>    C       -8.63142         6.34045         0.94188
| 24>    C       -9.45451         7.15211         1.72865
| 25>    C       -9.41127         7.01706         3.13761
| 26>    C       -8.57839         6.11560         3.78609
| 27>    S      -10.51607         8.10830         3.91802
| 28>    C      -11.01027         8.72506         2.36348
| 29>    C      -10.38359         8.14446         1.31276
| 30>   Br      -12.30788        10.07623         2.27386
| 31>    C       -6.86933         4.48604         0.96330
| 32>    O       -6.68250         4.35776        -0.22204
| 33>    C       -6.29193         3.71101         2.10481
| 34>    C       -5.58658         2.56026         2.03951
| 35>    C       -5.00922         1.92334         0.86914
| 36>    N       -4.80859         0.60566         0.99140
| 37>    C       -4.23937        -0.00476        -0.03236
| 38>    C       -3.85683         0.66777        -1.18000
| 39>    C       -4.10809         2.04815        -1.22013
| 40>    N       -4.67463         2.65598        -0.17684
| 41>    C       -3.76979         2.85610        -2.36953
| 42>    C       -4.24795         4.10444        -2.50540
| 43>    C       -4.00191         5.01565        -3.59818
| 44>    C       -4.83613         6.13713        -3.72981
| 45>    C       -4.62414         7.02696        -4.75318
| 46>    C       -3.56343         6.83542        -5.65600
| 47>    C       -2.72833         5.73335        -5.53352
| 48>    C       -2.95714         4.83291        -4.51307
| 49>    C       -3.55834         7.92972        -6.60010
| 50>    C       -4.62688         8.79255        -6.29470
| 51>    C       -5.38818         8.28658        -5.09063
| 52>    C       -6.85538         7.97607        -5.43929
| 53>    C       -6.99233         6.98831        -6.59154
| 54>    C       -5.33691         9.29802        -3.93024
| 55>    C       -3.91360         9.65875        -3.52240
| 56>    C       -4.85482         9.92079        -7.04104
| 57>    C       -3.99839        10.22899        -8.11278
| 58>    C       -2.92296         9.36667        -8.38749
| 59>    C       -2.70286         8.22137        -7.65390
| 60>    C       -4.15318        11.40182        -8.92594
| 61>    C       -5.25151        12.19849        -9.00297
| 62>    C       -5.37929        13.36660        -9.78662
| 63>    C       -4.40029        14.09395       -10.41892
| 64>    C       -4.62329        15.25962       -11.19690
| 65>    C       -3.49371        15.85311       -11.67411
| 66>    C       -2.30296        15.19826       -11.29673
| 67>    S       -2.67414        13.78383       -10.33345
| 68>    C       -0.99603        15.54273       -11.58502
| 69>    C       -0.51961        16.61208       -12.37354
| 70>    C        0.83860        16.67696       -12.44952
| 71>    C        1.52387        15.67081       -11.72110
| 72>    S        0.34526        14.62359       -10.94240
| 73>    C        2.88659        15.54401       -11.63855
| 74>    C        3.65380        14.60348       -10.91871
| 75>    C        5.05360        14.56355       -10.92013
| 76>    C        5.48438        13.50807       -10.08193
| 77>    C        6.74067        13.05265        -9.74199
| 78>    C        6.82415        11.96581        -8.85909
| 79>    C        7.91301        11.28713        -8.32637
| 80>    C        7.44510        10.24973        -7.46380
| 81>    C        6.06058        10.28460        -7.46394
| 82>    C        5.62842        11.34178        -8.32172
| 83>    C        4.37756        11.78854        -8.65819
| 84>    C        4.29000        12.88075        -9.54590
| 85>    C        3.19404        13.54868       -10.05996
| 86>    C        8.32201         9.35608        -6.74445
| 87>    C        7.93244         8.39366        -5.91279
| 88>    H       -8.64154         6.41032        -0.13461
| 89>    H       -8.58601         6.04564         4.86082
| 90>    H      -10.56883         8.40355         0.28635
| 91>    H       -5.42664         1.98546         2.94290
| 92>    H       -4.08497        -1.07060         0.08247
| 93>    H       -3.38933         0.15797        -2.00716
| 94>    H       -3.15149         2.38453        -3.12052
| 95>    H       -4.91532         4.45387        -1.72811
| 96>    H       -5.64143         6.27565        -3.02299
| 97>    H       -1.91040         5.58423        -6.22282
| 98>    H       -2.30272         3.98161        -4.40374
| 99>    H       -7.35811         8.90999        -5.70065
|100>    H       -7.34615         7.56841        -4.55293
|101>    H       -6.52856         7.38305        -7.49295
|102>    H       -8.04293         6.79809        -6.79935
|103>    H       -6.51355         6.04324        -6.34499
|104>    H       -5.86173         8.87147        -3.07265
|105>    H       -5.86785        10.20396        -4.23095
|106>    H       -3.37199         8.77372        -3.19575
|107>    H       -3.92878        10.37466        -2.70366
|108>    H       -3.37540        10.10194        -4.35738
|109>    H       -5.67028        10.58422        -6.79568
|110>    H       -2.26107         9.61327        -9.20547
|111>    H       -1.87554         7.56837        -7.88936
|112>    H       -3.31017        11.62005        -9.56623
|113>    H       -6.14064        11.91667        -8.45389
|114>    H       -6.38043        13.76895        -9.88491
|115>    H       -5.61974        15.62428       -11.37625
|116>    H       -3.48603        16.74679       -12.27231
|117>    H       -1.18783        17.29786       -12.86299
|118>    H        1.37863        17.42344       -13.00564
|119>    H        3.45612        16.27495       -12.20112
|120>    H        5.69727        15.22703       -11.46824
|121>    H        7.63564        13.51373       -10.13566
|122>    H        8.94938        11.49919        -8.52229
|123>    H        5.40212         9.63528        -6.91807
|124>    H        3.48089        11.33133        -8.26382
|125>    H        2.16723        13.31951        -9.84557
|126>    H        9.37942         9.51353        -6.91956
|127>    H        6.89346         8.20241        -5.70597
|128>    H        8.64341         7.76324        -5.40756
|129> *
|130>
|131>                          ****END OF INPUT****

CARTESIAN COORDINATES (ANGSTROEM)
---------------------------------
  C     -6.786180    4.308720    3.343160
  C     -6.341200    4.032310    4.608610
  C     -6.831460    4.665410    5.770440
  N     -7.193430    5.145410    6.748440
  C     -5.308640    3.127310    4.938080
  N     -4.467850    2.437880    5.306550
  C     -7.764460    5.324900    2.992660
  C     -7.808140    5.446320    1.582850
  C     -8.631420    6.340450    0.941880
  C     -9.454510    7.152110    1.728650
  C     -9.411270    7.017060    3.137610
  C     -8.578390    6.115600    3.786090
  S    -10.516070    8.108300    3.918020
  C    -11.010270    8.725060    2.363480
  C    -10.383590    8.144460    1.312760
  Br   -12.307880   10.076230    2.273860
  C     -6.869330    4.486040    0.963300
  O     -6.682500    4.357760   -0.222040
  C     -6.291930    3.711010    2.104810
  C     -5.586580    2.560260    2.039510
  C     -5.009220    1.923340    0.869140
  N     -4.808590    0.605660    0.991400
  C     -4.239370   -0.004760   -0.032360
  C     -3.856830    0.667770   -1.180000
  C     -4.108090    2.048150   -1.220130
  N     -4.674630    2.655980   -0.176840
  C     -3.769790    2.856100   -2.369530
  C     -4.247950    4.104440   -2.505400
  C     -4.001910    5.015650   -3.598180
  C     -4.836130    6.137130   -3.729810
  C     -4.624140    7.026960   -4.753180
  C     -3.563430    6.835420   -5.656000
  C     -2.728330    5.733350   -5.533520
  C     -2.957140    4.832910   -4.513070
  C     -3.558340    7.929720   -6.600100
  C     -4.626880    8.792550   -6.294700
  C     -5.388180    8.286580   -5.090630
  C     -6.855380    7.976070   -5.439290
  C     -6.992330    6.988310   -6.591540
  C     -5.336910    9.298020   -3.930240
  C     -3.913600    9.658750   -3.522400
  C     -4.854820    9.920790   -7.041040
  C     -3.998390   10.228990   -8.112780
  C     -2.922960    9.366670   -8.387490
  C     -2.702860    8.221370   -7.653900
  C     -4.153180   11.401820   -8.925940
  C     -5.251510   12.198490   -9.002970
  C     -5.379290   13.366600   -9.786620
  C     -4.400290   14.093950  -10.418920
  C     -4.623290   15.259620  -11.196900
  C     -3.493710   15.853110  -11.674110
  C     -2.302960   15.198260  -11.296730
  S     -2.674140   13.783830  -10.333450
  C     -0.996030   15.542730  -11.585020
  C     -0.519610   16.612080  -12.373540
  C      0.838600   16.676960  -12.449520
  C      1.523870   15.670810  -11.721100
  S      0.345260   14.623590  -10.942400
  C      2.886590   15.544010  -11.638550
  C      3.653800   14.603480  -10.918710
  C      5.053600   14.563550  -10.920130
  C      5.484380   13.508070  -10.081930
  C      6.740670   13.052650   -9.741990
  C      6.824150   11.965810   -8.859090
  C      7.913010   11.287130   -8.326370
  C      7.445100   10.249730   -7.463800
  C      6.060580   10.284600   -7.463940
  C      5.628420   11.341780   -8.321720
  C      4.377560   11.788540   -8.658190
  C      4.290000   12.880750   -9.545900
  C      3.194040   13.548680  -10.059960
  C      8.322010    9.356080   -6.744450
  C      7.932440    8.393660   -5.912790
  H     -8.641540    6.410320   -0.134610
  H     -8.586010    6.045640    4.860820
  H    -10.568830    8.403550    0.286350
  H     -5.426640    1.985460    2.942900
  H     -4.084970   -1.070600    0.082470
  H     -3.389330    0.157970   -2.007160
  H     -3.151490    2.384530   -3.120520
  H     -4.915320    4.453870   -1.728110
  H     -5.641430    6.275650   -3.022990
  H     -1.910400    5.584230   -6.222820
  H     -2.302720    3.981610   -4.403740
  H     -7.358110    8.909990   -5.700650
  H     -7.346150    7.568410   -4.552930
  H     -6.528560    7.383050   -7.492950
  H     -8.042930    6.798090   -6.799350
  H     -6.513550    6.043240   -6.344990
  H     -5.861730    8.871470   -3.072650
  H     -5.867850   10.203960   -4.230950
  H     -3.371990    8.773720   -3.195750
  H     -3.928780   10.374660   -2.703660
  H     -3.375400   10.101940   -4.357380
  H     -5.670280   10.584220   -6.795680
  H     -2.261070    9.613270   -9.205470
  H     -1.875540    7.568370   -7.889360
  H     -3.310170   11.620050   -9.566230
  H     -6.140640   11.916670   -8.453890
  H     -6.380430   13.768950   -9.884910
  H     -5.619740   15.624280  -11.376250
  H     -3.486030   16.746790  -12.272310
  H     -1.187830   17.297860  -12.862990
  H      1.378630   17.423440  -13.005640
  H      3.456120   16.274950  -12.201120
  H      5.697270   15.227030  -11.468240
  H      7.635640   13.513730  -10.135660
  H      8.949380   11.499190   -8.522290
  H      5.402120    9.635280   -6.918070
  H      3.480890   11.331330   -8.263820
  H      2.167230   13.319510   -9.845570
  H      9.379420    9.513530   -6.919560
  H      6.893460    8.202410   -5.705970
  H      8.643410    7.763240   -5.407560

 Total Charge           Charge          ....    0
 Multiplicity           Mult            ....    1
 Number of Electrons    NEL             ....  544
 Basis Dimension        Dim             .... 1257

ORBITAL ENERGIES
----------------

  NO   OCC          E(Eh)            E(eV)
   0   2.0000    -482.887884    -13140.0473
   1   2.0000     -88.977846     -2421.2103
   2   2.0000     -88.937675     -2420.1172
   3   2.0000     -88.936000     -2420.0716
   4   2.0000     -62.565566     -1702.4956
   5   2.0000     -56.399518     -1534.7089
   6   2.0000     -56.396798     -1534.6349
   7   2.0000     -56.396770     -1534.6341
   8   2.0000     -19.216892      -522.9182
   9   2.0000     -14.418077      -392.3358
  10   2.0000     -14.415279      -392.2597
  11   2.0000     -14.407776      -392.0555
  12   2.0000     -14.403562      -391.9409
  13   2.0000     -10.370467      -282.1948
  14   2.0000     -10.361711      -281.9565
  15   2.0000     -10.346645      -281.5465
  16   2.0000     -10.343758      -281.4680
  17   2.0000     -10.343373      -281.4575
  18   2.0000     -10.328336      -281.0483
  19   2.0000     -10.323465      -280.9158
  20   2.0000     -10.320328      -280.8304
  21   2.0000     -10.317712      -280.7592
  22   2.0000     -10.317252      -280.7467
  23   2.0000     -10.310670      -280.5676
  24   2.0000     -10.310608      -280.5659
  25   2.0000     -10.310202      -280.5549
  26   2.0000     -10.308157      -280.4992
  27   2.0000     -10.305633      -280.4305
  28   2.0000     -10.303455      -280.3713
  29   2.0000     -10.303262      -280.3660
  30   2.0000     -10.300386      -280.2878
  31   2.0000     -10.299750      -280.2704
  32   2.0000     -10.299078      -280.2522
  33   2.0000     -10.297380      -280.2060
  34   2.0000     -10.297151      -280.1997
  35   2.0000     -10.296386      -280.1789
  36   2.0000     -10.294517      -280.1281
  37   2.0000     -10.284713      -279.8613
  38   2.0000     -10.283771      -279.8356
  39   2.0000     -10.281488      -279.7735
  40   2.0000     -10.279187      -279.7109
  41   2.0000     -10.278154      -279.6828
  42   2.0000     -10.277375      -279.6616
  43   2.0000     -10.276316      -279.6328
  44   2.0000     -10.274327      -279.5786
  45   2.0000     -10.274185      -279.5748
  46   2.0000     -10.273795      -279.5642
  47   2.0000     -10.272547      -279.5302
  48   2.0000     -10.271399      -279.4990
  49   2.0000     -10.270378      -279.4712
  50   2.0000     -10.269976      -279.4603
  51   2.0000     -10.268921      -279.4316
  52   2.0000     -10.267471      -279.3921
  53   2.0000     -10.267042      -279.3804
  54   2.0000     -10.267034      -279.3802
  55   2.0000     -10.266776      -279.3732
  56   2.0000     -10.266075      -279.3541
  57   2.0000     -10.265592      -279.3409
  58   2.0000     -10.265360      -279.3346
  59   2.0000     -10.264609      -279.3142
  60   2.0000     -10.263984      -279.2972
  61   2.0000     -10.263982      -279.2972
  62   2.0000     -10.262942      -279.2689
  63   2.0000     -10.262845      -279.2662
  64   2.0000     -10.262480      -279.2563
  65   2.0000     -10.262150      -279.2473
  66   2.0000     -10.262090      -279.2457
  67   2.0000     -10.261986      -279.2428
  68   2.0000     -10.261902      -279.2406
  69   2.0000     -10.261181      -279.2209
  70   2.0000     -10.261082      -279.2182
  71   2.0000     -10.260357      -279.1985
  72   2.0000     -10.259220      -279.1676
  73   2.0000     -10.258697      -279.1533
  74   2.0000     -10.255698      -279.0717
  75   2.0000     -10.242195      -278.7043
  76   2.0000     -10.241247      -278.6785
  77   2.0000      -8.794984      -239.3237
  78   2.0000      -8.073793      -219.6991
  79   2.0000      -8.033677      -218.6075
  80   2.0000      -8.031781      -218.5559
  81   2.0000      -6.631265      -180.4459
  82   2.0000      -6.616733      -180.0505
  83   2.0000      -6.616508      -180.0443
  84   2.0000      -6.043462      -164.4510
  85   2.0000      -6.039229      -164.3358
  86   2.0000      -6.035030      -164.2215
  87   2.0000      -6.003453      -163.3623
  88   2.0000      -6.001533      -163.3100
  89   2.0000      -5.999414      -163.2524
  90   2.0000      -5.997418      -163.1981
  91   2.0000      -5.994565      -163.1204
  92   2.0000      -5.992807      -163.0726
  93   2.0000      -2.747186       -74.7547
  94   2.0000      -2.743041       -74.6419
  95   2.0000      -2.742887       -74.6378
  96   2.0000      -2.731320       -74.3230
  97   2.0000      -2.731317       -74.3229
  98   2.0000      -1.133758       -30.8511
  99   2.0000      -1.081355       -29.4252
 100   2.0000      -1.025151       -27.8958
 101   2.0000      -1.015042       -27.6207
 102   2.0000      -0.994712       -27.0675
 103   2.0000      -0.991238       -26.9729
 104   2.0000      -0.987207       -26.8633
 105   2.0000      -0.983924       -26.7739
 106   2.0000      -0.981933       -26.7198
 107   2.0000      -0.978592       -26.6288
 108   2.0000      -0.964842       -26.2547
 109   2.0000      -0.957186       -26.0464
 110   2.0000      -0.945467       -25.7275
 111   2.0000      -0.939811       -25.5736
 112   2.0000      -0.917606       -24.9693
 113   2.0000      -0.911793       -24.8111
 114   2.0000      -0.910498       -24.7759
 115   2.0000      -0.898959       -24.4619
 116   2.0000      -0.891047       -24.2466
 117   2.0000      -0.888499       -24.1773
 118   2.0000      -0.886308       -24.1177
 119   2.0000      -0.877307       -23.8727
 120   2.0000      -0.867747       -23.6126
 121   2.0000      -0.862370       -23.4663
 122   2.0000      -0.854389       -23.2491
 123   2.0000      -0.846778       -23.0420
 124   2.0000      -0.841389       -22.8953
 125   2.0000      -0.835359       -22.7313
 126   2.0000      -0.832700       -22.6589
 127   2.0000      -0.831325       -22.6215
 128   2.0000      -0.827485       -22.5170
 129   2.0000      -0.827025       -22.5045
 130   2.0000      -0.818924       -22.2841
 131   2.0000      -0.813475       -22.1358
 132   2.0000      -0.802096       -21.8261
 133   2.0000      -0.794935       -21.6313
 134   2.0000      -0.784000       -21.3337
 135   2.0000      -0.779249       -21.2044
 136   2.0000      -0.761999       -20.7350
 137   2.0000      -0.758874       -20.6500
 138   2.0000      -0.755732       -20.5645
 139   2.0000      -0.746601       -20.3160
 140   2.0000      -0.744347       -20.2547
 141   2.0000      -0.736747       -20.0479
 142   2.0000      -0.725096       -19.7309
 143   2.0000      -0.717257       -19.5176
 144   2.0000      -0.704670       -19.1751
 145   2.0000      -0.698833       -19.0162
 146   2.0000      -0.693601       -18.8738
 147   2.0000      -0.687231       -18.7005
 148   2.0000      -0.675317       -18.3763
 149   2.0000      -0.671441       -18.2708
 150   2.0000      -0.669740       -18.2245
 151   2.0000      -0.667510       -18.1639
 152   2.0000      -0.665874       -18.1193
 153   2.0000      -0.663729       -18.0610
 154   2.0000      -0.658744       -17.9253
 155   2.0000      -0.651629       -17.7317
 156   2.0000      -0.647858       -17.6291
 157   2.0000      -0.641126       -17.4459
 158   2.0000      -0.629797       -17.1376
 159   2.0000      -0.627811       -17.0836
 160   2.0000      -0.624561       -16.9952
 161   2.0000      -0.622779       -16.9467
 162   2.0000      -0.618514       -16.8306
 163   2.0000      -0.614333       -16.7169
 164   2.0000      -0.606573       -16.5057
 165   2.0000      -0.600435       -16.3387
 166   2.0000      -0.596473       -16.2309
 167   2.0000      -0.591864       -16.1054
 168   2.0000      -0.587836       -15.9958
 169   2.0000      -0.585672       -15.9369
 170   2.0000      -0.578071       -15.7301
 171   2.0000      -0.577157       -15.7052
 172   2.0000      -0.572386       -15.5754
 173   2.0000      -0.567070       -15.4308
 174   2.0000      -0.564418       -15.3586
 175   2.0000      -0.552349       -15.0302
 176   2.0000      -0.550778       -14.9874
 177   2.0000      -0.547780       -14.9058
 178   2.0000      -0.543351       -14.7853
 179   2.0000      -0.541432       -14.7331
 180   2.0000      -0.538348       -14.6492
 181   2.0000      -0.537483       -14.6257
 182   2.0000      -0.533894       -14.5280
 183   2.0000      -0.532693       -14.4953
 184   2.0000      -0.530182       -14.4270
 185   2.0000      -0.527630       -14.3575
 186   2.0000      -0.525017       -14.2864
 187   2.0000      -0.516177       -14.0459
 188   2.0000      -0.515548       -14.0288
 189   2.0000      -0.514660       -14.0046
 190   2.0000      -0.512958       -13.9583
 191   2.0000      -0.512196       -13.9375
 192   2.0000      -0.510239       -13.8843
 193   2.0000      -0.508228       -13.8296
 194   2.0000      -0.508027       -13.8241
 195   2.0000      -0.504025       -13.7152
 196   2.0000      -0.498613       -13.5680
 197   2.0000      -0.497188       -13.5292
 198   2.0000      -0.495935       -13.4951
 199   2.0000      -0.493917       -13.4402
 200   2.0000      -0.493020       -13.4157
 201   2.0000      -0.489808       -13.3284
 202   2.0000      -0.487942       -13.2776
 203   2.0000      -0.487071       -13.2539
 204   2.0000      -0.482575       -13.1315
 205   2.0000      -0.479588       -13.0502
 206   2.0000      -0.478168       -13.0116
 207   2.0000      -0.473557       -12.8862
 208   2.0000      -0.470926       -12.8146
 209   2.0000      -0.470171       -12.7940
 210   2.0000      -0.467351       -12.7173
 211   2.0000      -0.465837       -12.6761
 212   2.0000      -0.461818       -12.5667
 213   2.0000      -0.460861       -12.5407
 214   2.0000      -0.460088       -12.5196
 215   2.0000      -0.456757       -12.4290
 216   2.0000      -0.453127       -12.3302
 217   2.0000      -0.451393       -12.2830
 218   2.0000      -0.449561       -12.2332
 219   2.0000      -0.449214       -12.2237
 220   2.0000      -0.447414       -12.1748
 221   2.0000      -0.444341       -12.0911
 222   2.0000      -0.443939       -12.0802
 223   2.0000      -0.442752       -12.0479
 224   2.0000      -0.440656       -11.9908
 225   2.0000      -0.436296       -11.8722
 226   2.0000      -0.434712       -11.8291
 227   2.0000      -0.431906       -11.7528
 228   2.0000      -0.428399       -11.6573
 229   2.0000      -0.427719       -11.6388
 230   2.0000      -0.424101       -11.5404
 231   2.0000      -0.420899       -11.4532
 232   2.0000      -0.420580       -11.4446
 233   2.0000      -0.420303       -11.4370
 234   2.0000      -0.420167       -11.4333
 235   2.0000      -0.413991       -11.2653
 236   2.0000      -0.411801       -11.2057
 237   2.0000      -0.410967       -11.1830
 238   2.0000      -0.410392       -11.1673
 239   2.0000      -0.408445       -11.1144
 240   2.0000      -0.403695       -10.9851
 241   2.0000      -0.402367       -10.9490
 242   2.0000      -0.401031       -10.9126
 243   2.0000      -0.392049       -10.6682
 244   2.0000      -0.391517       -10.6537
 245   2.0000      -0.386762       -10.5243
 246   2.0000      -0.385267       -10.4837
 247   2.0000      -0.384115       -10.4523
 248   2.0000      -0.380860       -10.3637
 249   2.0000      -0.379111       -10.3161
 250   2.0000      -0.376964       -10.2577
 251   2.0000      -0.375880       -10.2282
 252   2.0000      -0.372036       -10.1236
 253   2.0000      -0.364905        -9.9296
 254   2.0000      -0.362500        -9.8641
 255   2.0000      -0.353181        -9.6105
 256   2.0000      -0.343641        -9.3509
 257   2.0000      -0.334032        -9.0895
 258   2.0000      -0.327964        -8.9244
 259   2.0000      -0.318053        -8.6547
 260   2.0000      -0.317457        -8.6384
 261   2.0000      -0.316214        -8.6046
 262   2.0000      -0.314815        -8.5666
 263   2.0000      -0.309124        -8.4117
 264   2.0000      -0.308388        -8.3917
 265   2.0000      -0.306612        -8.3433
 266   2.0000      -0.295035        -8.0283
 267   2.0000      -0.284376        -7.7383
 268   2.0000      -0.266201        -7.2437
 269   2.0000      -0.259532        -7.0622
 270   2.0000      -0.240281        -6.5384
 271   2.0000      -0.196208        -5.3391
 272   0.0000      -0.096466        -2.6250
 273   0.0000      -0.091162        -2.4806
 274   0.0000      -0.069753        -1.8981
 275   0.0000      -0.059150        -1.6096
 276   0.0000      -0.038868        -1.0576

MULLIKEN ATOMIC CHARGES
-----------------------
   0 C :    0.292143
   1 C :   -0.331165
   2 C :   -0.187709
   3 N :    0.158743
   4 C :   -0.203395
   5 N :    0.171813
   6 C :    0.018152
   7 C :   -0.017749
   8 C :   -0.073147
   9 C :    0.118237
  10 C :   -0.090878
  11 C :   -0.018106
  12 S :    0.188352
  13 C :   -0.123049
  14 C :    0.041046
  15 Br:    0.026628
  16 C :    0.156992
  17 O :   -0.113266
  18 C :   -0.039976
  19 C :    0.024191
  20 C :   -0.094785
  21 N :   -0.073379
  22 C :    0.077772
  23 C :   -0.036896
  24 C :    0.054295
  25 N :   -0.021166
  26 C :   -0.018985
  27 C :    0.031833
  28 C :    0.120980
  29 C :   -0.108194
  30 C :    0.019551
  31 C :    0.113709
  32 C :   -0.046495
  33 C :   -0.011438
  34 C :    0.102596
  35 C :    0.013311
  36 C :   -0.138399
  37 C :    0.071158
  38 C :    0.025497
  39 C :    0.070037
  40 C :    0.023387
  41 C :   -0.097696
  42 C :    0.129668
  43 C :   -0.023549
  44 C :   -0.044619
  45 C :   -0.037470
  46 C :    0.023129
  47 C :   -0.011920
  48 C :   -0.018778
  49 C :    0.029288
  50 C :    0.027255
  51 C :   -0.048129
  52 S :    0.057183
  53 C :   -0.027724
  54 C :    0.024046
  55 C :    0.035203
  56 C :   -0.027896
  57 S :    0.039809
  58 C :   -0.009900
  59 C :    0.053770
  60 C :   -0.034697
  61 C :    0.065328
  62 C :    0.003847
  63 C :    0.052396
  64 C :   -0.023633
  65 C :    0.057613
  66 C :   -0.019882
  67 C :    0.045212
  68 C :    0.008188
  69 C :    0.033809
  70 C :   -0.024453
  71 C :    0.007037
  72 C :   -0.017981
  73 H :   -0.011485
  74 H :   -0.003101
  75 H :   -0.003097
  76 H :    0.034132
  77 H :    0.008565
  78 H :   -0.004331
  79 H :   -0.027200
  80 H :    0.015757
  81 H :   -0.034579
  82 H :   -0.038103
  83 H :   -0.030145
  84 H :   -0.006463
  85 H :   -0.005995
  86 H :    0.022335
  87 H :    0.006522
  88 H :    0.020978
  89 H :   -0.006836
  90 H :   -0.004248
  91 H :    0.021127
  92 H :    0.008636
  93 H :    0.024136
  94 H :   -0.044951
  95 H :   -0.026976
  96 H :   -0.039589
  97 H :   -0.007992
  98 H :   -0.021117
  99 H :   -0.022453
 100 H :   -0.018065
 101 H :   -0.017299
 102 H :   -0.017375
 103 H :   -0.014924
 104 H :   -0.025585
 105 H :   -0.028866
 106 H :   -0.026756
 107 H :   -0.023100
 108 H :   -0.027896
 109 H :   -0.022406
 110 H :   -0.004310
 111 H :   -0.021456
 112 H :    0.008240
 113 H :    0.019569
Sum of atomic charges:   -0.0000000

LOEWDIN ATOMIC CHARGES
----------------------
   0 C :    0.074520
   1 C :   -0.128099
   2 C :   -0.016784
   3 N :   -0.047767
   4 C :   -0.026050
   5 N :   -0.037998
   6 C :   -0.022375
   7 C :   -0.050164
   8 C :    0.021112
   9 C :   -0.030713
  10 C :   -0.142646
  11 C :   -0.008699
  12 S :    0.433701
  13 C :   -0.269834
  14 C :   -0.070787
  15 Br:    0.139019
  16 C :    0.086613
  17 O :   -0.115053
  18 C :   -0.063918
  19 C :    0.071614
  20 C :    0.008990
  21 N :   -0.087732
  22 C :    0.045429
  23 C :   -0.052987
  24 C :    0.042293
  25 N :   -0.056585
  26 C :   -0.061120
  27 C :    0.038920
  28 C :   -0.033103
  29 C :   -0.012249
  30 C :    0.000122
  31 C :   -0.010464
  32 C :   -0.021333
  33 C :   -0.009546
  34 C :   -0.023733
  35 C :    0.005078
  36 C :   -0.035223
  37 C :   -0.011879
  38 C :   -0.057758
  39 C :   -0.011775
  40 C :   -0.057956
  41 C :   -0.021256
  42 C :   -0.019023
  43 C :   -0.019305
  44 C :   -0.019477
  45 C :   -0.032899
  46 C :   -0.036388
  47 C :   -0.069974
  48 C :   -0.141020
  49 C :   -0.037918
  50 C :   -0.038005
  51 C :   -0.190360
  52 S :    0.381113
  53 C :   -0.172351
  54 C :   -0.044352
  55 C :   -0.027249
  56 C :   -0.159152
  57 S :    0.370407
  58 C :   -0.042590
  59 C :   -0.069108
  60 C :    0.019746
  61 C :   -0.066744
  62 C :    0.077342
  63 C :   -0.072125
  64 C :    0.044860
  65 C :   -0.065273
  66 C :    0.027615
  67 C :   -0.061756
  68 C :    0.079542
  69 C :   -0.066704
  70 C :    0.035117
  71 C :   -0.025566
  72 C :   -0.048063
  73 H :    0.039797
  74 H :    0.041492
  75 H :    0.038868
  76 H :    0.050750
  77 H :    0.027398
  78 H :    0.034023
  79 H :    0.021893
  80 H :    0.037128
  81 H :    0.026815
  82 H :    0.025986
  83 H :    0.025102
  84 H :    0.018463
  85 H :    0.018536
  86 H :    0.025924
  87 H :    0.022905
  88 H :    0.025556
  89 H :    0.018212
  90 H :    0.019128
  91 H :    0.025417
  92 H :    0.023598
  93 H :    0.026569
  94 H :    0.021801
  95 H :    0.026494
  96 H :    0.025431
  97 H :    0.009963
  98 H :    0.025280
  99 H :    0.030819
 100 H :    0.030938
 101 H :    0.030126
 102 H :    0.030531
 103 H :    0.032102
 104 H :    0.034210
 105 H :    0.023313
 106 H :    0.034273
 107 H :    0.025082
 108 H :    0.023760
 109 H :    0.035993
 110 H :    0.014521
 111 H :    0.026951
 112 H :    0.018742
 113 H :    0.023947

  Mayer bond orders larger than 0.100000
B(  0-C ,  1-C ) :   1.6604 B(  0-C ,  6-C ) :   1.0141 B(  0-C , 18-C ) :   1.0369
B(  1-C ,  2-C ) :   1.1388 B(  1-C ,  4-C ) :   1.1366 B(  2-C ,  3-N ) :   2.9767
B(  4-C ,  5-N ) :   2.9987 B(  6-C ,  7-C ) :   1.2749 B(  6-C , 11-C ) :   1.3997
B(  7-C ,  8-C ) :   1.4220 B(  7-C , 16-C ) :   0.9428 B(  8-C ,  9-C ) :   1.2535
B(  8-C , 73-H ) :   1.0149 B(  9-C , 10-C ) :   1.2996 B(  9-C , 14-C ) :   1.1644
B( 10-C , 11-C ) :   1.3419 B( 10-C , 12-S ) :   1.0843 B( 11-C , 74-H ) :   0.9789
B( 12-S , 13-C ) :   1.0866 B( 13-C , 14-C ) :   1.6165 B( 13-C , 15-Br) :   1.0215
B( 14-C , 75-H ) :   1.0003 B( 16-C , 17-O ) :   2.2190 B( 16-C , 18-C ) :   0.9095
B( 18-C , 19-C ) :   1.6911 B( 19-C , 20-C ) :   1.0134 B( 19-C , 76-H ) :   0.9434
B( 20-C , 21-N ) :   1.5218 B( 20-C , 25-N ) :   1.5624 B( 21-N , 22-C ) :   1.5407
B( 22-C , 23-C ) :   1.3823 B( 22-C , 77-H ) :   0.9800 B( 23-C , 24-C ) :   1.3149
B( 23-C , 78-H ) :   0.9747 B( 24-C , 25-N ) :   1.5047 B( 24-C , 26-C ) :   1.0773
B( 26-C , 27-C ) :   1.7189 B( 26-C , 79-H ) :   0.9692 B( 27-C , 28-C ) :   1.0411
B( 27-C , 80-H ) :   0.9723 B( 28-C , 29-C ) :   1.2892 B( 28-C , 33-C ) :   1.3467
B( 29-C , 30-C ) :   1.3686 B( 29-C , 81-H ) :   1.0191 B( 30-C , 31-C ) :   1.3662
B( 30-C , 36-C ) :   0.9139 B( 31-C , 32-C ) :   1.3318 B( 31-C , 34-C ) :   1.0012
B( 32-C , 33-C ) :   1.3929 B( 32-C , 82-H ) :   0.9909 B( 33-C , 83-H ) :   0.9852
B( 34-C , 35-C ) :   1.3533 B( 34-C , 44-C ) :   1.3387 B( 35-C , 36-C ) :   0.9164
B( 35-C , 41-C ) :   1.4105 B( 36-C , 37-C ) :   1.0378 B( 36-C , 39-C ) :   1.0404
B( 37-C , 38-C ) :   1.1019 B( 37-C , 84-H ) :   0.9385 B( 37-C , 85-H ) :   0.9391
B( 38-C , 86-H ) :   0.9642 B( 38-C , 87-H ) :   0.9635 B( 38-C , 88-H ) :   0.9647
B( 39-C , 40-C ) :   1.1024 B( 39-C , 89-H ) :   0.9383 B( 39-C , 90-H ) :   0.9384
B( 40-C , 91-H ) :   0.9643 B( 40-C , 92-H ) :   0.9636 B( 40-C , 93-H ) :   0.9645
B( 41-C , 42-C ) :   1.2926 B( 41-C , 94-H ) :   1.0017 B( 42-C , 43-C ) :   1.3224
B( 42-C , 45-C ) :   1.1024 B( 43-C , 44-C ) :   1.3798 B( 43-C , 95-H ) :   0.9932
B( 44-C , 96-H ) :   0.9913 B( 45-C , 46-C ) :   1.6310 B( 45-C , 97-H ) :   0.9543
B( 46-C , 47-C ) :   1.1893 B( 46-C , 98-H ) :   0.9629 B( 47-C , 48-C ) :   1.5771
B( 47-C , 99-H ) :   0.9601 B( 48-C , 49-C ) :   1.1503 B( 48-C , 52-S ) :   1.0399
B( 49-C , 50-C ) :   1.5856 B( 49-C ,100-H ) :   0.9982 B( 50-C , 51-C ) :   1.1909
B( 50-C ,101-H ) :   0.9930 B( 51-C , 52-S ) :   1.0307 B( 51-C , 53-C ) :   1.5060
B( 53-C , 54-C ) :   1.1872 B( 53-C , 57-S ) :   1.0449 B( 54-C , 55-C ) :   1.5902
B( 54-C ,102-H ) :   0.9931 B( 55-C , 56-C ) :   1.1421 B( 55-C ,103-H ) :   0.9984
B( 56-C , 57-S ) :   1.0167 B( 56-C , 58-C ) :   1.5802 B( 58-C , 59-C ) :   1.1324
B( 58-C ,104-H ) :   0.9690 B( 59-C , 60-C ) :   1.4108 B( 59-C , 70-C ) :   1.1554
B( 60-C , 61-C ) :   1.1335 B( 60-C ,105-H ) :   1.0186 B( 61-C , 62-C ) :   1.3971
B( 61-C , 69-C ) :   1.1391 B( 62-C , 63-C ) :   1.1663 B( 62-C ,106-H ) :   1.0051
B( 63-C , 64-C ) :   1.3742 B( 63-C , 67-C ) :   1.1352 B( 64-C , 65-C ) :   1.1795
B( 64-C ,107-H ) :   1.0130 B( 65-C , 66-C ) :   1.4809 B( 65-C , 71-C ) :   1.0728
B( 66-C , 67-C ) :   1.1206 B( 66-C ,108-H ) :   1.0106 B( 67-C , 68-C ) :   1.4279
B( 68-C , 69-C ) :   1.1456 B( 68-C ,109-H ) :   1.0040 B( 69-C , 70-C ) :   1.4243
B( 70-C ,110-H ) :   0.9910 B( 71-C , 72-C ) :   1.9484 B( 71-C ,111-H ) :   0.9656
B( 72-C ,112-H ) :   0.9527 B( 72-C ,113-H ) :   0.9488

-----------------------------------------------------------------------------
         ABSORPTION SPECTRUM VIA TRANSITION ELECTRIC DIPOLE MOMENTS
-----------------------------------------------------------------------------
State   Energy  Wavelength   fosc         T2         TX        TY        TZ
        (cm-1)    (nm)                  (au**2)     (au)      (au)      (au)
-----------------------------------------------------------------------------
   0    5161.4   1937.5   0.005843185   0.37270   0.60181   0.08051  -0.06357
   1   13921.2    718.3   0.005667979   0.13404   0.36462   0.03261   0.00502
   2   13946.1    717.0   1.168068163  27.57347   4.81969   1.69684  -1.21027
   3   16242.8    615.7   0.002152060   0.04362  -0.16281   0.13053  -0.00867
   4   22048.3    453.5   0.061057056   0.91167   0.71838  -0.47555   0.41165
   5   22452.1    445.4   0.027994393   0.41048  -0.35582   0.48614  -0.21805
   6   22550.8    443.4   0.005034198   0.07349  -0.05922  -0.15567  -0.21390
   7   23152.4    431.9   0.012084803   0.17184  -0.00513  -0.09036  -0.40453
   8   23364.7    428.0   0.005741331   0.08090   0.07954  -0.16816   0.21516
   9   23444.2    426.5   0.062467508   0.87719  -0.42359  -0.64387   0.53216
  10   24255.8    412.3   2.208047213  29.96872  -2.04940   3.88764  -3.26419
  11   27388.7    365.1   0.510493737   6.13612  -0.81814   1.93808  -1.30791
  12   27630.5    361.9   0.114367986   1.36267   0.61068  -0.51259   0.85264
  13   27676.7    361.3   0.203157876   2.41654  -1.05157   1.03987  -0.47897
  14   27981.7    357.4   0.042840854   0.50403   0.44476  -0.51172   0.21062
  15   28665.5    348.9   0.072371318   0.83116   0.06115   0.04779  -0.90837
  16   28889.7    346.1   0.138618161   1.57962   0.89308  -0.80939   0.35625
  17   29113.9    343.5   0.288611352   3.26354  -1.39405   1.08940  -0.36518
  18   29313.5    341.1   0.001814318   0.02038   0.03112  -0.13125   0.04671
  19   29712.5    336.6   0.146569591   1.62398  -0.50677   0.46209   1.07407
  20   29942.1    334.0   0.062123753   0.68305   0.58142  -0.50623  -0.29788
  21   31307.1    319.4   0.061173382   0.64327   0.50822   0.11457  -0.60980
  22   31824.4    314.2   0.223399825   2.31099   1.12860   0.09531  -1.01398
  23   32354.9    309.1   0.037532443   0.38189  -0.30314  -0.52647  -0.11328
  24   32527.4    307.4   0.092624329   0.93746   0.38621  -0.56908   0.68150
  25   32656.1    306.2   0.094545686   0.95313  -0.13870   0.95031   0.17552
  26   32962.0    303.4   0.001307421   0.01306   0.06123  -0.01837  -0.09471
  27   33185.2    301.3   0.014758966   0.14642  -0.03453  -0.27905   0.25953
  28   33486.0    298.6   0.083035022   0.81634   0.53856  -0.60198   0.40487
  29   33592.2    297.7   0.648355192   6.35405  -1.48638   1.54188  -1.32942
  30   33763.1    296.2   0.054641995   0.53279  -0.33082   0.12932   0.63768
  31   33826.6    295.6   0.036033809   0.35069  -0.16579   0.42578   0.37672
  32   34487.1    290.0   0.024885630   0.23756   0.12664  -0.35741  -0.30623
  33   34510.1    289.8   0.016045353   0.15307   0.26072  -0.24039  -0.16524
  34   34715.5    288.1   0.004430310   0.04201   0.08751  -0.17392  -0.06409
  35   34834.6    287.1   0.069042624   0.65250   0.47089  -0.49949   0.42576
  36   35795.2    279.4   0.072089364   0.66301   0.02728   0.49704  -0.64437
  37   35839.9    279.0   0.413920628   3.80212   0.09164  -1.32913   1.42377
  38   35933.6    278.3   0.001228453   0.01125  -0.05107  -0.07517  -0.05473
  39   36287.5    275.6   0.017058088   0.15476   0.35044   0.03694  -0.17489
  40   36917.0    270.9   0.046738890   0.41680  -0.59781   0.22517   0.09338
  41   37036.5    270.0   0.020508055   0.18229  -0.30249   0.05015   0.29712
  42   37210.6    268.7   0.428663411   3.79249  -1.12999   1.58569  -0.03468
  43   37506.2    266.6   0.005480542   0.04811   0.04846  -0.15129  -0.15123
  44   37672.9    265.4   0.094835498   0.82874   0.01254  -0.75432   0.50949
  45   37853.0    264.2   0.003152869   0.02742   0.04175  -0.07706   0.14050
  46   38129.9    262.3   0.023588310   0.20366  -0.21039   0.38593   0.10225
  47   38244.6    261.5   0.027219362   0.23431  -0.31464  -0.32889   0.16475
  48   38401.7    260.4   0.010684885   0.09160   0.28995  -0.07555  -0.04266
  49   38540.7    259.5   0.050854736   0.43440   0.25774  -0.60530   0.03965
  50   38783.3    257.8   0.017909487   0.15202   0.12744   0.32055  -0.18175
  51   38998.0    256.4   0.003106637   0.02623   0.03199  -0.10977   0.11468
  52   39230.2    254.9   0.026139954   0.21936  -0.28088   0.35285   0.12636
  53   39306.7    254.4   0.004285754   0.03590  -0.05406   0.07958   0.16322
  54   39445.3    253.5   0.135343274   1.12958   0.35433  -0.51379  -0.86026
  55   39610.1    252.5   0.202366450   1.68193  -0.68872   0.65374   0.88330
  56   39923.7    250.5   0.007085538   0.05843  -0.07535   0.06990  -0.21878
  57   39936.1    250.4   0.017723596   0.14610  -0.17859   0.13663  -0.30909
  58   40176.5    248.9   0.033427638   0.27391   0.45851  -0.13075   0.21583

FINAL SINGLE POINT ENERGY     -6522.200799391352

DIPOLE MOMENT
-------------
                                X             Y             Z
Electronic contribution:   -134.84999       0.50887     132.80244
Nuclear contribution   :    134.91937       1.00827    -135.92071
                        -----------------------------------------
Total Dipole Moment    :      0.06939       1.51714      -3.11827
                        -----------------------------------------
Magnitude (a.u.)       :      3.46845
Magnitude (Debye)      :      8.81611

Rotational constants in cm-1:     0.000857     0.000241     0.000207
Rotational constants in MHz :    25.706904     7.238375     6.214054

                             ****ORCA TERMINATED NORMALLY****
TOTAL RUN TIME: 0 days 0 hours 13 minutes 0 seconds 631 msec
