                         Program Version 4.2.0 -  RELEASE  -
|  1> # ORCA input file
|  2> # SCF done       -189.005551845153          0.000353956719
|  3> ! CAM-B3LYP def2-SVP def2/J RIJCOSX Grid4 TightSCF
|  4> %maxcore 5000
|  5> %tddft
|  6>     Mode sTDDFT
|  7>     Ethresh 5.0
|  8>     maxcore 5000
|  9> end
| 10>
| 11> %pal
| 12>   nprocs 6
| 13>   end
| 14> * xyz 0 1
| 15>    C      -11.88919        -1.18652         1.66509
| 16>    C      -11.23934        -1.97629         2.57822
| 17>    C      -11.71192        -3.23031         3.01613
| 18>    N      -12.04523        -4.25933         3.40160
| 19>    C      -10.03765        -1.63117         3.23236
| 20>    N       -9.08131        -1.41276         3.82901
| 21>    C      -13.18729        -1.46965         1.06505
| 22>    C      -13.57984        -0.35366         0.28714
| 23>    C      -14.76396        -0.31615        -0.40748
| 24>    C      -15.60538        -1.43072        -0.32584
| 25>    C      -15.20381        -2.54195         0.45248
| 26>    C      -14.00379        -2.58211         1.15166
| 27>    S      -16.38664        -3.81472         0.40704
| 28>    C      -17.39090        -2.84854        -0.64088
| 29>    C      -16.86999        -1.63580        -0.94284
| 30>   Br      -19.03250        -3.53170        -1.23843
| 31>    C      -12.52228         0.67827         0.32923
| 32>    O      -12.50205         1.70174        -0.31932
| 33>    C      -11.45933         0.11729         1.20095
| 34>    C      -10.21692         0.65792         1.35139
| 35>    C       -9.87087         2.00624         1.04483
| 36>    C       -8.60169         2.35090         0.57593
| 37>    F       -7.69015         1.37635         0.41724
| 38>    C       -8.23190         3.64074         0.19668
| 39>    F       -6.96005         3.80274        -0.21316
| 40>    C       -9.09055         4.74357         0.28164
| 41>    C      -10.33854         4.43630         0.89044
| 42>    C      -10.72828         3.11430         1.24684
| 43>    N      -11.93767         3.19306         1.81225
| 44>    N      -12.23482         4.46151         1.76295
| 45>    N      -11.34410         5.25283         1.23076
| 46>    C      -13.48273         4.95927         2.25180
| 47>    C       -8.85485         6.07693        -0.13642
| 48>    C       -7.99023         6.57599        -1.07719
| 49>    C       -7.89912         7.96130        -1.40451
| 50>    C       -7.06561         8.24070        -2.43845
| 51>    C       -6.45149         7.09257        -2.99871
| 52>    S       -6.95603         5.65458        -2.14489
| 53>    C       -5.57787         7.01123        -4.06057
| 54>    C       -5.09581         8.06968        -4.87321
| 55>    C       -4.25663         7.65276        -5.85402
| 56>    C       -4.02872         6.24559        -5.86406
| 57>    S       -4.91827         5.46392        -4.57965
| 58>    C       -3.24365         5.53653        -6.72345
| 59>    C       -3.11451         4.12222        -6.57311
| 60>    N       -3.80232         3.57685        -5.55805
| 61>    C       -3.69370         2.28215        -5.35465
| 62>    C       -2.90088         1.48634        -6.16565
| 63>    C       -2.23296         2.12754        -7.22112
| 64>    N       -2.34855         3.43619        -7.41916
| 65>    C       -1.37310         1.37454        -8.11174
| 66>    C       -0.62200         1.95890        -9.06156
| 67>    C        0.22190         1.26101        -9.97934
| 68>    C        0.91620         0.11072        -9.80450
| 69>    C        1.22795        -0.69076        -8.63282
| 70>    C        1.39024        -0.24297        -7.35025
| 71>    C        1.78687        -1.06844        -6.27650
| 72>    N        2.08936        -1.70231        -5.36904
| 73>    C        1.25685         1.10346        -6.95040
| 74>    N        1.20393         2.18088        -6.55986
| 75>    C        1.57782        -2.02503        -9.10760
| 76>    C        1.72039        -1.98832       -10.51838
| 77>    C        1.40570        -0.63197       -11.00455
| 78>    O        1.47294        -0.20999       -12.13433
| 79>    C        2.08207        -3.09282       -11.25202
| 80>    C        2.30274        -4.29022       -10.56399
| 81>    C        2.14309        -4.32001        -9.15676
| 82>    C        1.78454        -3.20266        -8.41357
| 83>    S        2.45228        -5.90237        -8.51143
| 84>    C        2.79205        -6.49488       -10.11606
| 85>    C        2.67824        -5.55755       -11.08724
| 86>   Br        3.26125        -8.29391       -10.35686
| 87>    H      -15.03323         0.54646        -0.99670
| 88>    H      -13.73780        -3.45538         1.72353
| 89>    H      -17.35474        -0.91518        -1.57592
| 90>    H       -9.40198         0.02862         1.68870
| 91>    H      -13.65668         4.58240         3.25924
| 92>    H      -14.29403         4.62093         1.60540
| 93>    H      -13.43755         6.04571         2.25187
| 94>    H       -9.53677         6.79249         0.30642
| 95>    H       -8.45900         8.69747        -0.85509
| 96>    H       -6.87398         9.22952        -2.81485
| 97>    H       -5.38071         9.09500        -4.71461
| 98>    H       -3.78494         8.29692        -6.57515
| 99>    H       -2.69947         6.01930        -7.51820
|100>    H       -4.25925         1.87926        -4.52466
|101>    H       -2.79864         0.42732        -5.99523
|102>    H       -1.37025         0.30043        -7.97732
|103>    H       -0.72691         3.02771        -9.19355
|104>    H        0.27374         1.67267       -10.98369
|105>    H        2.19084        -3.03503       -12.32361
|106>    H        1.66781        -3.27446        -7.34487
|107>    H        2.85111        -5.75046       -12.13019
|108> *
|109>
|110>                          ****END OF INPUT****

CARTESIAN COORDINATES (ANGSTROEM)
---------------------------------
  C    -11.889190   -1.186520    1.665090
  C    -11.239340   -1.976290    2.578220
  C    -11.711920   -3.230310    3.016130
  N    -12.045230   -4.259330    3.401600
  C    -10.037650   -1.631170    3.232360
  N     -9.081310   -1.412760    3.829010
  C    -13.187290   -1.469650    1.065050
  C    -13.579840   -0.353660    0.287140
  C    -14.763960   -0.316150   -0.407480
  C    -15.605380   -1.430720   -0.325840
  C    -15.203810   -2.541950    0.452480
  C    -14.003790   -2.582110    1.151660
  S    -16.386640   -3.814720    0.407040
  C    -17.390900   -2.848540   -0.640880
  C    -16.869990   -1.635800   -0.942840
  Br   -19.032500   -3.531700   -1.238430
  C    -12.522280    0.678270    0.329230
  O    -12.502050    1.701740   -0.319320
  C    -11.459330    0.117290    1.200950
  C    -10.216920    0.657920    1.351390
  C     -9.870870    2.006240    1.044830
  C     -8.601690    2.350900    0.575930
  F     -7.690150    1.376350    0.417240
  C     -8.231900    3.640740    0.196680
  F     -6.960050    3.802740   -0.213160
  C     -9.090550    4.743570    0.281640
  C    -10.338540    4.436300    0.890440
  C    -10.728280    3.114300    1.246840
  N    -11.937670    3.193060    1.812250
  N    -12.234820    4.461510    1.762950
  N    -11.344100    5.252830    1.230760
  C    -13.482730    4.959270    2.251800
  C     -8.854850    6.076930   -0.136420
  C     -7.990230    6.575990   -1.077190
  C     -7.899120    7.961300   -1.404510
  C     -7.065610    8.240700   -2.438450
  C     -6.451490    7.092570   -2.998710
  S     -6.956030    5.654580   -2.144890
  C     -5.577870    7.011230   -4.060570
  C     -5.095810    8.069680   -4.873210
  C     -4.256630    7.652760   -5.854020
  C     -4.028720    6.245590   -5.864060
  S     -4.918270    5.463920   -4.579650
  C     -3.243650    5.536530   -6.723450
  C     -3.114510    4.122220   -6.573110
  N     -3.802320    3.576850   -5.558050
  C     -3.693700    2.282150   -5.354650
  C     -2.900880    1.486340   -6.165650
  C     -2.232960    2.127540   -7.221120
  N     -2.348550    3.436190   -7.419160
  C     -1.373100    1.374540   -8.111740
  C     -0.622000    1.958900   -9.061560
  C      0.221900    1.261010   -9.979340
  C      0.916200    0.110720   -9.804500
  C      1.227950   -0.690760   -8.632820
  C      1.390240   -0.242970   -7.350250
  C      1.786870   -1.068440   -6.276500
  N      2.089360   -1.702310   -5.369040
  C      1.256850    1.103460   -6.950400
  N      1.203930    2.180880   -6.559860
  C      1.577820   -2.025030   -9.107600
  C      1.720390   -1.988320  -10.518380
  C      1.405700   -0.631970  -11.004550
  O      1.472940   -0.209990  -12.134330
  C      2.082070   -3.092820  -11.252020
  C      2.302740   -4.290220  -10.563990
  C      2.143090   -4.320010   -9.156760
  C      1.784540   -3.202660   -8.413570
  S      2.452280   -5.902370   -8.511430
  C      2.792050   -6.494880  -10.116060
  C      2.678240   -5.557550  -11.087240
  Br     3.261250   -8.293910  -10.356860
  H    -15.033230    0.546460   -0.996700
  H    -13.737800   -3.455380    1.723530
  H    -17.354740   -0.915180   -1.575920
  H     -9.401980    0.028620    1.688700
  H    -13.656680    4.582400    3.259240
  H    -14.294030    4.620930    1.605400
  H    -13.437550    6.045710    2.251870
  H     -9.536770    6.792490    0.306420
  H     -8.459000    8.697470   -0.855090
  H     -6.873980    9.229520   -2.814850
  H     -5.380710    9.095000   -4.714610
  H     -3.784940    8.296920   -6.575150
  H     -2.699470    6.019300   -7.518200
  H     -4.259250    1.879260   -4.524660
  H     -2.798640    0.427320   -5.995230
  H     -1.370250    0.300430   -7.977320
  H     -0.726910    3.027710   -9.193550
  H      0.273740    1.672670  -10.983690
  H      2.190840   -3.035030  -12.323610
  H      1.667810   -3.274460   -7.344870
  H      2.851110   -5.750460  -12.130190

 Total Charge           Charge          ....    0
 Multiplicity           Mult            ....    1
 Number of Electrons    NEL             ....  570
 Basis Dimension        Dim             .... 1165

ORBITAL ENERGIES
----------------

  NO   OCC          E(Eh)            E(eV)
   0   2.0000    -482.889131    -13140.0813
   1   2.0000    -482.883924    -13139.9396
   2   2.0000     -88.980151     -2421.2730
   3   2.0000     -88.972931     -2421.0765
   4   2.0000     -88.945604     -2420.3329
   5   2.0000     -88.940573     -2420.1960
   6   2.0000     -62.566816     -1702.5296
   7   2.0000     -62.561629     -1702.3885
   8   2.0000     -56.400777     -1534.7432
   9   2.0000     -56.398045     -1534.6688
  10   2.0000     -56.398017     -1534.6681
  11   2.0000     -56.395575     -1534.6016
  12   2.0000     -56.392867     -1534.5279
  13   2.0000     -56.392834     -1534.5270
  14   2.0000     -24.796266      -674.7407
  15   2.0000     -24.790877      -674.5941
  16   2.0000     -19.220933      -523.0282
  17   2.0000     -19.207714      -522.6685
  18   2.0000     -14.540775      -395.6746
  19   2.0000     -14.443761      -393.0347
  20   2.0000     -14.438298      -392.8861
  21   2.0000     -14.421292      -392.4233
  22   2.0000     -14.418077      -392.3358
  23   2.0000     -14.413122      -392.2010
  24   2.0000     -14.410640      -392.1334
  25   2.0000     -14.409590      -392.1049
  26   2.0000     -14.408615      -392.0784
  27   2.0000     -10.378786      -282.4211
  28   2.0000     -10.371615      -282.2260
  29   2.0000     -10.368326      -282.1365
  30   2.0000     -10.363179      -281.9964
  31   2.0000     -10.359192      -281.8879
  32   2.0000     -10.356586      -281.8170
  33   2.0000     -10.349713      -281.6300
  34   2.0000     -10.348204      -281.5889
  35   2.0000     -10.343203      -281.4529
  36   2.0000     -10.336945      -281.2826
  37   2.0000     -10.335144      -281.2336
  38   2.0000     -10.331760      -281.1415
  39   2.0000     -10.331218      -281.1267
  40   2.0000     -10.325789      -280.9790
  41   2.0000     -10.323565      -280.9185
  42   2.0000     -10.322233      -280.8822
  43   2.0000     -10.322166      -280.8804
  44   2.0000     -10.319161      -280.7986
  45   2.0000     -10.318971      -280.7935
  46   2.0000     -10.318013      -280.7674
  47   2.0000     -10.314845      -280.6812
  48   2.0000     -10.313503      -280.6447
  49   2.0000     -10.313183      -280.6360
  50   2.0000     -10.312728      -280.6236
  51   2.0000     -10.311341      -280.5858
  52   2.0000     -10.311318      -280.5852
  53   2.0000     -10.311277      -280.5841
  54   2.0000     -10.311214      -280.5824
  55   2.0000     -10.310192      -280.5546
  56   2.0000     -10.306921      -280.4656
  57   2.0000     -10.306832      -280.4632
  58   2.0000     -10.305897      -280.4377
  59   2.0000     -10.304862      -280.4096
  60   2.0000     -10.304293      -280.3941
  61   2.0000     -10.303507      -280.3727
  62   2.0000     -10.301609      -280.3210
  63   2.0000     -10.300886      -280.3014
  64   2.0000     -10.300760      -280.2979
  65   2.0000     -10.299673      -280.2683
  66   2.0000     -10.298699      -280.2419
  67   2.0000     -10.297722      -280.2153
  68   2.0000     -10.296625      -280.1854
  69   2.0000     -10.294531      -280.1284
  70   2.0000     -10.294366      -280.1240
  71   2.0000     -10.293227      -280.0930
  72   2.0000     -10.292648      -280.0772
  73   2.0000     -10.290508      -280.0190
  74   2.0000     -10.288749      -279.9711
  75   2.0000     -10.287470      -279.9363
  76   2.0000     -10.287099      -279.9262
  77   2.0000     -10.286385      -279.9068
  78   2.0000     -10.285161      -279.8735
  79   2.0000     -10.270787      -279.4823
  80   2.0000      -8.796225      -239.3574
  81   2.0000      -8.791056      -239.2168
  82   2.0000      -8.076114      -219.7622
  83   2.0000      -8.068781      -219.5627
  84   2.0000      -8.041791      -218.8283
  85   2.0000      -8.034038      -218.6173
  86   2.0000      -6.632556      -180.4810
  87   2.0000      -6.627314      -180.3384
  88   2.0000      -6.617958      -180.0838
  89   2.0000      -6.617720      -180.0773
  90   2.0000      -6.612810      -179.9437
  91   2.0000      -6.612613      -179.9383
  92   2.0000      -6.045820      -164.5151
  93   2.0000      -6.041512      -164.3979
  94   2.0000      -6.038488      -164.3156
  95   2.0000      -6.037350      -164.2847
  96   2.0000      -6.034200      -164.1989
  97   2.0000      -6.030047      -164.0859
  98   2.0000      -6.011494      -163.5811
  99   2.0000      -6.007312      -163.4673
 100   2.0000      -6.004198      -163.3825
 101   2.0000      -6.002747      -163.3431
 102   2.0000      -5.999415      -163.2524
 103   2.0000      -5.995030      -163.1331
 104   2.0000      -2.748425       -74.7885
 105   2.0000      -2.744309       -74.6764
 106   2.0000      -2.744182       -74.6730
 107   2.0000      -2.743229       -74.6471
 108   2.0000      -2.739106       -74.5349
 109   2.0000      -2.738957       -74.5308
 110   2.0000      -2.732552       -74.3565
 111   2.0000      -2.732538       -74.3561
 112   2.0000      -2.727434       -74.2173
 113   2.0000      -2.727418       -74.2168
 114   2.0000      -1.317085       -35.8397
 115   2.0000      -1.298555       -35.3355
 116   2.0000      -1.218776       -33.1646
 117   2.0000      -1.136560       -30.9274
 118   2.0000      -1.122820       -30.5535
 119   2.0000      -1.086193       -29.5568
 120   2.0000      -1.028247       -27.9800
 121   2.0000      -1.018728       -27.7210
 122   2.0000      -1.017850       -27.6971
 123   2.0000      -1.008597       -27.4453
 124   2.0000      -0.998572       -27.1725
 125   2.0000      -0.997176       -27.1345
 126   2.0000      -0.994562       -27.0634
 127   2.0000      -0.992366       -27.0036
 128   2.0000      -0.990270       -26.9466
 129   2.0000      -0.988056       -26.8864
 130   2.0000      -0.986995       -26.8575
 131   2.0000      -0.983570       -26.7643
 132   2.0000      -0.971364       -26.4322
 133   2.0000      -0.949018       -25.8241
 134   2.0000      -0.939769       -25.5724
 135   2.0000      -0.928292       -25.2601
 136   2.0000      -0.924688       -25.1620
 137   2.0000      -0.913530       -24.8584
 138   2.0000      -0.912768       -24.8377
 139   2.0000      -0.907076       -24.6828
 140   2.0000      -0.904371       -24.6092
 141   2.0000      -0.891124       -24.2487
 142   2.0000      -0.887410       -24.1476
 143   2.0000      -0.882239       -24.0070
 144   2.0000      -0.881040       -23.9743
 145   2.0000      -0.869567       -23.6621
 146   2.0000      -0.854592       -23.2546
 147   2.0000      -0.848820       -23.0976
 148   2.0000      -0.836763       -22.7695
 149   2.0000      -0.833162       -22.6715
 150   2.0000      -0.829593       -22.5744
 151   2.0000      -0.825352       -22.4590
 152   2.0000      -0.818631       -22.2761
 153   2.0000      -0.814568       -22.1655
 154   2.0000      -0.793942       -21.6042
 155   2.0000      -0.786201       -21.3936
 156   2.0000      -0.772827       -21.0297
 157   2.0000      -0.766529       -20.8583
 158   2.0000      -0.755146       -20.5486
 159   2.0000      -0.748069       -20.3560
 160   2.0000      -0.743557       -20.2332
 161   2.0000      -0.735510       -20.0142
 162   2.0000      -0.732111       -19.9218
 163   2.0000      -0.716374       -19.4935
 164   2.0000      -0.708153       -19.2698
 165   2.0000      -0.702200       -19.1078
 166   2.0000      -0.693357       -18.8672
 167   2.0000      -0.691064       -18.8048
 168   2.0000      -0.686170       -18.6716
 169   2.0000      -0.683143       -18.5893
 170   2.0000      -0.676103       -18.3977
 171   2.0000      -0.667720       -18.1696
 172   2.0000      -0.660234       -17.9659
 173   2.0000      -0.657071       -17.8798
 174   2.0000      -0.649607       -17.6767
 175   2.0000      -0.648817       -17.6552
 176   2.0000      -0.644623       -17.5411
 177   2.0000      -0.635393       -17.2899
 178   2.0000      -0.629389       -17.1266
 179   2.0000      -0.626492       -17.0477
 180   2.0000      -0.622198       -16.9309
 181   2.0000      -0.619480       -16.8569
 182   2.0000      -0.619059       -16.8454
 183   2.0000      -0.611482       -16.6393
 184   2.0000      -0.605971       -16.4893
 185   2.0000      -0.602706       -16.4005
 186   2.0000      -0.601094       -16.3566
 187   2.0000      -0.595612       -16.2074
 188   2.0000      -0.595008       -16.1910
 189   2.0000      -0.589772       -16.0485
 190   2.0000      -0.582684       -15.8556
 191   2.0000      -0.580473       -15.7955
 192   2.0000      -0.577662       -15.7190
 193   2.0000      -0.576287       -15.6816
 194   2.0000      -0.565467       -15.3871
 195   2.0000      -0.561780       -15.2868
 196   2.0000      -0.555936       -15.1278
 197   2.0000      -0.547598       -14.9009
 198   2.0000      -0.546378       -14.8677
 199   2.0000      -0.542907       -14.7732
 200   2.0000      -0.541342       -14.7307
 201   2.0000      -0.541106       -14.7242
 202   2.0000      -0.539467       -14.6797
 203   2.0000      -0.534774       -14.5519
 204   2.0000      -0.532997       -14.5036
 205   2.0000      -0.531842       -14.4722
 206   2.0000      -0.529254       -14.4017
 207   2.0000      -0.529159       -14.3991
 208   2.0000      -0.520806       -14.1719
 209   2.0000      -0.517411       -14.0795
 210   2.0000      -0.515043       -14.0150
 211   2.0000      -0.513816       -13.9816
 212   2.0000      -0.512138       -13.9360
 213   2.0000      -0.509841       -13.8735
 214   2.0000      -0.507990       -13.8231
 215   2.0000      -0.505152       -13.7459
 216   2.0000      -0.504768       -13.7354
 217   2.0000      -0.503339       -13.6966
 218   2.0000      -0.500915       -13.6306
 219   2.0000      -0.500164       -13.6101
 220   2.0000      -0.497507       -13.5379
 221   2.0000      -0.495064       -13.4714
 222   2.0000      -0.490419       -13.3450
 223   2.0000      -0.488684       -13.2978
 224   2.0000      -0.487927       -13.2772
 225   2.0000      -0.485557       -13.2127
 226   2.0000      -0.484687       -13.1890
 227   2.0000      -0.481999       -13.1159
 228   2.0000      -0.475059       -12.9270
 229   2.0000      -0.472570       -12.8593
 230   2.0000      -0.468870       -12.7586
 231   2.0000      -0.465884       -12.6774
 232   2.0000      -0.464479       -12.6391
 233   2.0000      -0.461713       -12.5639
 234   2.0000      -0.455107       -12.3841
 235   2.0000      -0.454455       -12.3664
 236   2.0000      -0.452164       -12.3040
 237   2.0000      -0.451316       -12.2809
 238   2.0000      -0.448508       -12.2045
 239   2.0000      -0.446705       -12.1555
 240   2.0000      -0.444231       -12.0881
 241   2.0000      -0.443430       -12.0663
 242   2.0000      -0.441226       -12.0064
 243   2.0000      -0.438743       -11.9388
 244   2.0000      -0.438588       -11.9346
 245   2.0000      -0.435595       -11.8531
 246   2.0000      -0.433566       -11.7979
 247   2.0000      -0.430512       -11.7148
 248   2.0000      -0.427956       -11.6453
 249   2.0000      -0.425548       -11.5797
 250   2.0000      -0.423021       -11.5110
 251   2.0000      -0.420055       -11.4303
 252   2.0000      -0.416919       -11.3449
 253   2.0000      -0.414339       -11.2747
 254   2.0000      -0.409703       -11.1486
 255   2.0000      -0.408849       -11.1253
 256   2.0000      -0.405658       -11.0385
 257   2.0000      -0.401806       -10.9337
 258   2.0000      -0.396427       -10.7873
 259   2.0000      -0.393410       -10.7052
 260   2.0000      -0.392312       -10.6754
 261   2.0000      -0.385341       -10.4857
 262   2.0000      -0.383853       -10.4452
 263   2.0000      -0.378380       -10.2963
 264   2.0000      -0.373336       -10.1590
 265   2.0000      -0.372879       -10.1466
 266   2.0000      -0.366468        -9.9721
 267   2.0000      -0.365762        -9.9529
 268   2.0000      -0.363162        -9.8822
 269   2.0000      -0.356958        -9.7133
 270   2.0000      -0.340589        -9.2679
 271   2.0000      -0.339531        -9.2391
 272   2.0000      -0.336700        -9.1621
 273   2.0000      -0.328644        -8.9429
 274   2.0000      -0.324284        -8.8242
 275   2.0000      -0.320208        -8.7133
 276   2.0000      -0.315436        -8.5834
 277   2.0000      -0.313781        -8.5384
 278   2.0000      -0.311762        -8.4835
 279   2.0000      -0.309961        -8.4345
 280   2.0000      -0.302711        -8.2372
 281   2.0000      -0.297527        -8.0961
 282   2.0000      -0.290722        -7.9110
 283   2.0000      -0.279320        -7.6007
 284   2.0000      -0.224354        -6.1050
 285   0.0000      -0.100752        -2.7416
 286   0.0000      -0.095760        -2.6058
 287   0.0000      -0.072150        -1.9633
 288   0.0000      -0.063827        -1.7368
 289   0.0000      -0.052013        -1.4153

MULLIKEN ATOMIC CHARGES
-----------------------
   0 C :    0.295352
   1 C :   -0.342722
   2 C :   -0.184699
   3 N :    0.151209
   4 C :   -0.206414
   5 N :    0.163148
   6 C :    0.019674
   7 C :   -0.014800
   8 C :   -0.076740
   9 C :    0.119534
  10 C :   -0.092357
  11 C :   -0.022769
  12 S :    0.184157
  13 C :   -0.123290
  14 C :    0.037774
  15 Br:    0.020671
  16 C :    0.150445
  17 O :   -0.146176
  18 C :   -0.072853
  19 C :   -0.055627
  20 C :   -0.031436
  21 C :    0.201488
  22 F :   -0.166812
  23 C :    0.126790
  24 F :   -0.175549
  25 C :    0.028545
  26 C :   -0.034438
  27 C :    0.026891
  28 N :   -0.052254
  29 N :   -0.076484
  30 N :   -0.056222
  31 C :    0.148053
  32 C :   -0.084381
  33 C :   -0.000789
  34 C :    0.029794
  35 C :    0.043503
  36 C :   -0.062977
  37 S :    0.122374
  38 C :   -0.038905
  39 C :    0.036253
  40 C :    0.041191
  41 C :    0.018434
  42 S :    0.128655
  43 C :   -0.024021
  44 C :    0.022424
  45 N :   -0.162030
  46 C :    0.114958
  47 C :   -0.055393
  48 C :    0.039035
  49 N :   -0.046729
  50 C :    0.018748
  51 C :    0.034547
  52 C :    0.050532
  53 C :   -0.111233
  54 C :    0.263156
  55 C :   -0.337103
  56 C :   -0.183108
  57 N :    0.160304
  58 C :   -0.198168
  59 N :    0.185299
  60 C :    0.003698
  61 C :    0.004437
  62 C :    0.134419
  63 O :   -0.138337
  64 C :   -0.072207
  65 C :    0.114821
  66 C :   -0.087895
  67 C :   -0.023654
  68 S :    0.188637
  69 C :   -0.124090
  70 C :    0.040272
  71 Br:    0.027770
  72 H :   -0.015407
  73 H :   -0.007078
  74 H :   -0.004699
  75 H :    0.039097
  76 H :    0.052261
  77 H :    0.056245
  78 H :    0.050485
  79 H :    0.004691
  80 H :   -0.007016
  81 H :   -0.010348
  82 H :   -0.014744
  83 H :   -0.009007
  84 H :   -0.017500
  85 H :    0.012114
  86 H :   -0.003116
  87 H :    0.001044
  88 H :    0.031977
  89 H :    0.034749
  90 H :   -0.005882
  91 H :   -0.001667
  92 H :   -0.000531
Sum of atomic charges:   -0.0000000

LOEWDIN ATOMIC CHARGES
----------------------
   0 C :    0.075023
   1 C :   -0.138267
   2 C :   -0.017658
   3 N :   -0.055282
   4 C :   -0.024764
   5 N :   -0.048466
   6 C :   -0.020783
   7 C :   -0.046564
   8 C :    0.018215
   9 C :   -0.033158
  10 C :   -0.144732
  11 C :   -0.010815
  12 S :    0.430495
  13 C :   -0.272329
  14 C :   -0.071526
  15 Br:    0.134519
  16 C :    0.082114
  17 O :   -0.138712
  18 C :   -0.083538
  19 C :    0.078624
  20 C :   -0.076425
  21 C :    0.093951
  22 F :   -0.045345
  23 C :    0.038839
  24 F :   -0.052725
  25 C :   -0.029358
  26 C :   -0.051620
  27 C :   -0.034924
  28 N :   -0.082930
  29 N :    0.157799
  30 N :   -0.090401
  31 C :    0.033390
  32 C :   -0.064752
  33 C :   -0.126353
  34 C :   -0.029907
  35 C :   -0.022824
  36 C :   -0.175984
  37 S :    0.405349
  38 C :   -0.183065
  39 C :   -0.022303
  40 C :   -0.028083
  41 C :   -0.115191
  42 S :    0.425044
  43 C :   -0.078299
  44 C :    0.033323
  45 N :   -0.106283
  46 C :    0.065740
  47 C :   -0.068088
  48 C :    0.034280
  49 N :   -0.082193
  50 C :    0.006247
  51 C :    0.004260
  52 C :    0.067621
  53 C :   -0.080044
  54 C :    0.064795
  55 C :   -0.133683
  56 C :   -0.020365
  57 N :   -0.047335
  58 C :   -0.021126
  59 N :   -0.033820
  60 C :   -0.019035
  61 C :   -0.053535
  62 C :    0.084403
  63 O :   -0.136324
  64 C :    0.024228
  65 C :   -0.032063
  66 C :   -0.142131
  67 C :   -0.011909
  68 S :    0.435073
  69 C :   -0.270393
  70 C :   -0.070040
  71 Br:    0.140364
  72 H :    0.038995
  73 H :    0.040651
  74 H :    0.038088
  75 H :    0.047219
  76 H :    0.041243
  77 H :    0.041926
  78 H :    0.041341
  79 H :    0.041734
  80 H :    0.034811
  81 H :    0.033161
  82 H :    0.029733
  83 H :    0.034598
  84 H :    0.036069
  85 H :    0.030557
  86 H :    0.033591
  87 H :    0.030338
  88 H :    0.044054
  89 H :    0.050105
  90 H :    0.042542
  91 H :    0.041253
  92 H :    0.039743

  Mayer bond orders larger than 0.100000
B(  0-C ,  1-C ) :   1.6416 B(  0-C ,  6-C ) :   1.0065 B(  0-C , 18-C ) :   1.0665
B(  1-C ,  2-C ) :   1.1407 B(  1-C ,  4-C ) :   1.1432 B(  2-C ,  3-N ) :   2.9715
B(  4-C ,  5-N ) :   2.9934 B(  6-C ,  7-C ) :   1.2760 B(  6-C , 11-C ) :   1.4070
B(  7-C ,  8-C ) :   1.4271 B(  7-C , 16-C ) :   0.9427 B(  8-C ,  9-C ) :   1.2441
B(  8-C , 72-H ) :   1.0167 B(  9-C , 10-C ) :   1.3085 B(  9-C , 14-C ) :   1.1622
B( 10-C , 11-C ) :   1.3308 B( 10-C , 12-S ) :   1.0835 B( 11-C , 73-H ) :   0.9800
B( 12-S , 13-C ) :   1.0863 B( 13-C , 14-C ) :   1.6182 B( 13-C , 15-Br) :   1.0174
B( 14-C , 74-H ) :   1.0000 B( 16-C , 17-O ) :   2.2212 B( 16-C , 18-C ) :   0.9433
B( 18-C , 19-C ) :   1.6179 B( 19-C , 20-C ) :   1.1272 B( 19-C , 75-H ) :   0.9430
B( 20-C , 21-C ) :   1.3394 B( 20-C , 25-C ) :   0.1166 B( 20-C , 27-C ) :   1.1594
B( 21-C , 22-F ) :   1.1683 B( 21-C , 23-C ) :   1.2073 B( 23-C , 24-F ) :   1.1387
B( 23-C , 25-C ) :   1.3049 B( 25-C , 26-C ) :   1.1587 B( 25-C , 32-C ) :   1.1787
B( 26-C , 27-C ) :   1.2301 B( 26-C , 30-N ) :   1.4971 B( 27-C , 28-N ) :   1.4811
B( 28-N , 29-N ) :   1.2171 B( 28-N , 30-N ) :   0.1601 B( 29-N , 30-N ) :   1.2365
B( 29-N , 31-C ) :   0.9552 B( 31-C , 76-H ) :   0.9691 B( 31-C , 77-H ) :   0.9695
B( 31-C , 78-H ) :   0.9669 B( 32-C , 33-C ) :   1.5509 B( 32-C , 79-H ) :   0.9591
B( 33-C , 34-C ) :   1.1310 B( 33-C , 37-S ) :   1.0667 B( 34-C , 35-C ) :   1.6053
B( 34-C , 80-H ) :   0.9997 B( 35-C , 36-C ) :   1.1651 B( 35-C , 81-H ) :   0.9942
B( 36-C , 37-S ) :   1.0409 B( 36-C , 38-C ) :   1.5462 B( 38-C , 39-C ) :   1.1627
B( 38-C , 42-S ) :   0.9836 B( 39-C , 40-C ) :   1.6179 B( 39-C , 82-H ) :   0.9947
B( 40-C , 41-C ) :   1.1175 B( 40-C , 83-H ) :   1.0006 B( 41-C , 42-S ) :   1.0653
B( 41-C , 43-C ) :   1.5651 B( 42-S , 45-N ) :   0.1127 B( 43-C , 44-C ) :   1.1030
B( 43-C , 84-H ) :   0.9830 B( 44-C , 45-N ) :   1.3975 B( 44-C , 49-N ) :   1.4997
B( 45-N , 46-C ) :   1.5234 B( 46-C , 47-C ) :   1.3756 B( 46-C , 85-H ) :   0.9778
B( 47-C , 48-C ) :   1.3200 B( 47-C , 86-H ) :   0.9763 B( 48-C , 49-N ) :   1.5443
B( 48-C , 50-C ) :   1.0761 B( 50-C , 51-C ) :   1.7504 B( 50-C , 87-H ) :   0.9670
B( 51-C , 52-C ) :   1.0710 B( 51-C , 88-H ) :   0.9433 B( 52-C , 53-C ) :   1.7344
B( 52-C , 89-H ) :   0.9284 B( 53-C , 54-C ) :   1.0127 B( 53-C , 62-C ) :   0.9321
B( 54-C , 55-C ) :   1.6699 B( 54-C , 60-C ) :   1.0155 B( 55-C , 56-C ) :   1.1267
B( 55-C , 58-C ) :   1.1628 B( 56-C , 57-N ) :   2.9904 B( 58-C , 59-N ) :   2.9997
B( 60-C , 61-C ) :   1.2724 B( 60-C , 67-C ) :   1.4101 B( 61-C , 62-C ) :   0.9202
B( 61-C , 64-C ) :   1.4213 B( 62-C , 63-O ) :   2.2718 B( 64-C , 65-C ) :   1.2551
B( 64-C , 90-H ) :   1.0166 B( 65-C , 66-C ) :   1.3005 B( 65-C , 70-C ) :   1.1647
B( 66-C , 67-C ) :   1.3336 B( 66-C , 68-S ) :   1.0860 B( 67-C , 91-H ) :   0.9835
B( 68-S , 69-C ) :   1.0869 B( 69-C , 70-C ) :   1.6168 B( 69-C , 71-Br) :   1.0213
B( 70-C , 92-H ) :   1.0005

-----------------------------------------------------------------------------
         ABSORPTION SPECTRUM VIA TRANSITION ELECTRIC DIPOLE MOMENTS
-----------------------------------------------------------------------------
State   Energy  Wavelength   fosc         T2         TX        TY        TZ
        (cm-1)    (nm)                  (au**2)     (au)      (au)      (au)
-----------------------------------------------------------------------------
   0   13095.4    763.6   1.262699311  31.74367  -3.90450  -2.02021   3.52382
   1   16683.0    599.4   0.036957186   0.72929  -0.31685  -0.74081   0.28300
   2   20654.2    484.2   0.490118977   7.81213  -1.32308   1.84400   1.63133
   3   23521.9    425.1   0.089097068   1.24700  -0.37973  -0.99121   0.34684
   4   24318.1    411.2   0.524920620   7.10623  -0.24996   2.58559   0.59871
   5   24791.6    403.4   0.071795694   0.95339   0.43294  -0.71446  -0.50547
   6   26008.9    384.5   0.252408602   3.19490   1.30687  -1.21588   0.09281
   7   26474.7    377.7   0.091297757   1.13529   0.79738   0.65725   0.25979
   8   27150.3    368.3   0.259888301   3.15128  -0.22412   1.64889   0.61825
   9   27197.3    367.7   0.255806833   3.09643   1.38171   0.64202   0.88041
  10   27586.9    362.5   0.000058060   0.00069   0.00601  -0.01577  -0.02020
  11   28776.5    347.5   0.014222817   0.16271   0.35138   0.18939   0.05809
  12   29175.6    342.8   0.013109838   0.14793  -0.09721   0.37177   0.01625
  13   29371.5    340.5   0.080626318   0.90371   0.00649   0.85380  -0.41796
  14   29472.2    339.3   0.009125140   0.10193  -0.20161  -0.24582  -0.02921
  15   29605.8    337.8   0.013509234   0.15022  -0.27600  -0.26078  -0.07769
  16   30068.7    332.6   0.010151704   0.11115   0.06126  -0.26339   0.19499
  17   30306.6    330.0   0.101616140   1.10383   0.92352  -0.45100  -0.21803
  18   30380.7    329.2   0.018613801   0.20170   0.24455  -0.34570  -0.14963
  19   30985.6    322.7   0.083109105   0.88301   0.32708   0.68569   0.55304
  20   31252.8    320.0   0.024437798   0.25742  -0.45263   0.07879  -0.21526
  21   31693.5    315.5   0.068400483   0.71050   0.14968  -0.78498  -0.26814
  22   31941.2    313.1   0.064925860   0.66918  -0.07455   0.81463   0.00167
  23   33006.0    303.0   0.376371645   3.75404  -1.74844   0.50632  -0.66380
  24   33034.6    302.7   0.337191727   3.36034   1.53678  -0.66337   0.74739
  25   33352.0    299.8   0.884191222   8.72771  -0.70270   2.11949   1.93434
  26   33366.5    299.7   0.218773758   2.15854   0.34906  -1.10541  -0.90264
  27   33792.5    295.9   0.030299843   0.29519  -0.48268  -0.14345   0.20404
  28   34097.0    293.3   0.002827684   0.02730   0.10884   0.12373   0.01219
  29   34632.1    288.7   0.019310425   0.18356  -0.37183   0.10545   0.18490
  30   35299.6    283.3   0.074803637   0.69764   0.56558  -0.18977   0.58458
  31   35881.8    278.7   0.005775287   0.05299  -0.04701   0.22117   0.04316
  32   36237.2    276.0   0.007062385   0.06416  -0.20480   0.10485   0.10594
  33   36323.4    275.3   0.050229829   0.45525   0.66991   0.07889  -0.01569
  34   36998.6    270.3   0.024743816   0.22017  -0.38033  -0.19594   0.19267
  35   37072.3    269.7   0.026850788   0.23844  -0.34783  -0.25351   0.23063
  36   37372.3    267.6   0.091713567   0.80790  -0.34312  -0.78494   0.27210
  37   37476.8    266.8   0.013215882   0.11609  -0.19402   0.13820  -0.24362
  38   38043.9    262.9   0.000483271   0.00418   0.03500  -0.04497  -0.03057
  39   38063.5    262.7   0.007998927   0.06918  -0.22480   0.00836  -0.13630
  40   38276.1    261.3   0.005375711   0.04624  -0.16130  -0.00570   0.14208
  41   38413.6    260.3   0.018766336   0.16083  -0.01024  -0.21386   0.33910
  42   38489.1    259.8   0.240175594   2.05431  -0.01780  -1.15418   0.84962
  43   39022.5    256.3   0.028486110   0.24032  -0.09738  -0.47868   0.04132
  44   39150.1    255.4   0.058269665   0.48999   0.03895   0.68855  -0.11985
  45   39360.6    254.1   0.010546024   0.08821   0.05385   0.24160  -0.16413
  46   39618.9    252.4   0.022819205   0.18962   0.28590   0.31303   0.09944
  47   39883.9    250.7   0.003697414   0.03052  -0.07569  -0.04537   0.15077
  48   40072.6    249.5   0.014415800   0.11843  -0.26828  -0.13632  -0.16696
  49   40145.9    249.1   0.057450178   0.47111  -0.02038  -0.53184   0.43341

FINAL SINGLE POINT ENERGY     -9611.646471556500

DIPOLE MOMENT
-------------
                                X             Y             Z
Electronic contribution:    -29.82868    -154.92637     -28.28903
Nuclear contribution   :     27.96437     156.62796      25.38219
                        -----------------------------------------
Total Dipole Moment    :     -1.86432       1.70159      -2.90684
                        -----------------------------------------
Magnitude (a.u.)       :      3.84978
Magnitude (Debye)      :      9.78536

Rotational constants in cm-1:     0.000650     0.000206     0.000169
Rotational constants in MHz :    19.480642     6.167261     5.078743

                             ****ORCA TERMINATED NORMALLY****
TOTAL RUN TIME: 0 days 0 hours 8 minutes 36 seconds 325 msec
