                         Program Version 4.2.0 -  RELEASE  -
|  1> # ORCA input file
|  2> # SCF done       -161.645714284224          0.000312448948
|  3> ! CAM-B3LYP def2-SVP def2/J RIJCOSX Grid4 TightSCF
|  4> %maxcore 5000
|  5> %tddft
|  6>     Mode sTDDFT
|  7>     Ethresh 5.0
|  8>     maxcore 5000
|  9> end
| 10>
| 11> %pal
| 12>   nprocs 6
| 13>   end
| 14> * xyz 0 1
| 15>    C       -6.77588         5.33695         1.89557
| 16>    C       -6.89191         4.71864         3.10862
| 17>    C       -6.87825         5.40161         4.34462
| 18>    N       -6.87644         5.90694         5.37483
| 19>    C       -7.11568         3.33868         3.29616
| 20>    N       -7.34139         2.24179         3.54723
| 21>    C       -6.66824         6.77073         1.67213
| 22>    C       -6.82658         7.03302         0.28839
| 23>    C       -6.78692         8.30322        -0.23382
| 24>    C       -6.56747         9.36498         0.64911
| 25>    C       -6.40412         9.09340         2.03002
| 26>    C       -6.45264         7.81118         2.55962
| 27>    S       -6.14431        10.55041         2.94058
| 28>    C       -6.25839        11.49050         1.47627
| 29>    C       -6.47830        10.75399         0.36116
| 30>   Br       -6.07606        13.35438         1.55770
| 31>    C       -7.05056         5.76297        -0.43288
| 32>    O       -7.44720         5.64432        -1.56516
| 33>    C       -6.79132         4.69240         0.58324
| 34>    C       -6.52145         3.39850         0.33030
| 35>    C       -6.32057         2.83421        -0.99935
| 36>    N       -6.65746         1.55420        -1.16005
| 37>    C       -6.39636         1.00708        -2.33819
| 38>    C       -5.79914         1.71499        -3.36096
| 39>    C       -5.51807         3.06728        -3.11423
| 40>    N       -5.76877         3.60203        -1.92050
| 41>    C       -5.01782         3.92040        -4.16445
| 42>    C       -5.10933         5.26346        -4.09904
| 43>    C       -4.82343         6.15384        -5.17311
| 44>    S       -4.35639         7.79223        -4.83864
| 45>    C       -4.17212         8.10981        -6.51659
| 46>    C       -4.45650         7.04103        -7.30755
| 47>    C       -4.40836         7.10933        -8.79806
| 48>    C       -4.84905         5.89783        -6.54316
| 49>    C       -5.34889         4.64723        -7.04408
| 50>    C       -4.98803         4.00586        -8.17900
| 51>    C       -5.47300         2.72696        -8.57410
| 52>    C       -6.14299         1.83001        -7.79254
| 53>    C       -6.56331         0.57804        -8.26900
| 54>    C       -7.14971        -0.41936        -7.53096
| 55>    C       -7.61427        -1.65678        -8.04082
| 56>    C       -8.16984        -2.47695        -7.10994
| 57>    C       -8.16483        -1.95047        -5.79616
| 58>    S       -7.43256        -0.35889        -5.79345
| 59>    C       -8.67634        -2.56459        -4.66993
| 60>    C       -9.39819        -3.78293        -4.64761
| 61>    C       -9.86949        -4.12531        -3.42192
| 62>    C       -9.52983        -3.21217        -2.38710
| 63>    S       -8.56379        -1.90297        -3.04771
| 64>    C       -9.97570        -3.30922        -1.09838
| 65>    C       -9.65510        -2.48589         0.00316
| 66>    S      -10.76598        -2.42381         1.36871
| 67>    C       -9.79913        -1.33373         2.27247
| 68>    C       -8.65561        -1.02535         1.57931
| 69>    C       -8.57983        -1.67252         0.30412
| 70>    O       -7.39361        -1.41016        -0.28916
| 71>    C       -6.73172        -0.59501         0.58009
| 72>    N       -5.41641        -0.19957         0.25610
| 73>    O       -4.89840         0.62279         0.99215
| 74>    O       -4.87455        -0.71703        -0.69848
| 75>    C       -7.43189        -0.31648         1.71982
| 76>    H       -6.91630         8.47261        -1.29133
| 77>    H       -6.31906         7.65373         3.61694
| 78>    H       -6.57426        11.17096        -0.62466
| 79>    H       -6.36427         2.69297         1.13588
| 80>    H       -6.66552        -0.03433        -2.44913
| 81>    H       -5.57359         1.25371        -4.30767
| 82>    H       -4.61506         3.42165        -5.03360
| 83>    H       -5.44545         5.70071        -3.16813
| 84>    H       -3.86293         9.08734        -6.83185
| 85>    H       -4.40302         8.14673        -9.12434
| 86>    H       -5.27103         6.60531        -9.22922
| 87>    H       -3.50426         6.63188        -9.17555
| 88>    H       -6.09082         4.18310        -6.40699
| 89>    H       -4.25564         4.45205        -8.83579
| 90>    H       -5.23249         2.42125        -9.58535
| 91>    H       -6.35510         2.05668        -6.75619
| 92>    H       -6.41485         0.36888        -9.32155
| 93>    H       -7.52773        -1.89504        -9.08638
| 94>    H       -8.57205        -3.44894        -7.33051
| 95>    H       -9.57068        -4.35844        -5.53885
| 96>    H      -10.45441        -5.00415        -3.21592
| 97>    H      -10.70028        -4.08818        -0.89860
| 98>    H      -10.11587        -0.99924         3.23809
| 99>    H       -7.11508         0.29992         2.53666
|100> *
|101>
|102>                          ****END OF INPUT****

CARTESIAN COORDINATES (ANGSTROEM)
---------------------------------
  C     -6.775880    5.336950    1.895570
  C     -6.891910    4.718640    3.108620
  C     -6.878250    5.401610    4.344620
  N     -6.876440    5.906940    5.374830
  C     -7.115680    3.338680    3.296160
  N     -7.341390    2.241790    3.547230
  C     -6.668240    6.770730    1.672130
  C     -6.826580    7.033020    0.288390
  C     -6.786920    8.303220   -0.233820
  C     -6.567470    9.364980    0.649110
  C     -6.404120    9.093400    2.030020
  C     -6.452640    7.811180    2.559620
  S     -6.144310   10.550410    2.940580
  C     -6.258390   11.490500    1.476270
  C     -6.478300   10.753990    0.361160
  Br    -6.076060   13.354380    1.557700
  C     -7.050560    5.762970   -0.432880
  O     -7.447200    5.644320   -1.565160
  C     -6.791320    4.692400    0.583240
  C     -6.521450    3.398500    0.330300
  C     -6.320570    2.834210   -0.999350
  N     -6.657460    1.554200   -1.160050
  C     -6.396360    1.007080   -2.338190
  C     -5.799140    1.714990   -3.360960
  C     -5.518070    3.067280   -3.114230
  N     -5.768770    3.602030   -1.920500
  C     -5.017820    3.920400   -4.164450
  C     -5.109330    5.263460   -4.099040
  C     -4.823430    6.153840   -5.173110
  S     -4.356390    7.792230   -4.838640
  C     -4.172120    8.109810   -6.516590
  C     -4.456500    7.041030   -7.307550
  C     -4.408360    7.109330   -8.798060
  C     -4.849050    5.897830   -6.543160
  C     -5.348890    4.647230   -7.044080
  C     -4.988030    4.005860   -8.179000
  C     -5.473000    2.726960   -8.574100
  C     -6.142990    1.830010   -7.792540
  C     -6.563310    0.578040   -8.269000
  C     -7.149710   -0.419360   -7.530960
  C     -7.614270   -1.656780   -8.040820
  C     -8.169840   -2.476950   -7.109940
  C     -8.164830   -1.950470   -5.796160
  S     -7.432560   -0.358890   -5.793450
  C     -8.676340   -2.564590   -4.669930
  C     -9.398190   -3.782930   -4.647610
  C     -9.869490   -4.125310   -3.421920
  C     -9.529830   -3.212170   -2.387100
  S     -8.563790   -1.902970   -3.047710
  C     -9.975700   -3.309220   -1.098380
  C     -9.655100   -2.485890    0.003160
  S    -10.765980   -2.423810    1.368710
  C     -9.799130   -1.333730    2.272470
  C     -8.655610   -1.025350    1.579310
  C     -8.579830   -1.672520    0.304120
  O     -7.393610   -1.410160   -0.289160
  C     -6.731720   -0.595010    0.580090
  N     -5.416410   -0.199570    0.256100
  O     -4.898400    0.622790    0.992150
  O     -4.874550   -0.717030   -0.698480
  C     -7.431890   -0.316480    1.719820
  H     -6.916300    8.472610   -1.291330
  H     -6.319060    7.653730    3.616940
  H     -6.574260   11.170960   -0.624660
  H     -6.364270    2.692970    1.135880
  H     -6.665520   -0.034330   -2.449130
  H     -5.573590    1.253710   -4.307670
  H     -4.615060    3.421650   -5.033600
  H     -5.445450    5.700710   -3.168130
  H     -3.862930    9.087340   -6.831850
  H     -4.403020    8.146730   -9.124340
  H     -5.271030    6.605310   -9.229220
  H     -3.504260    6.631880   -9.175550
  H     -6.090820    4.183100   -6.406990
  H     -4.255640    4.452050   -8.835790
  H     -5.232490    2.421250   -9.585350
  H     -6.355100    2.056680   -6.756190
  H     -6.414850    0.368880   -9.321550
  H     -7.527730   -1.895040   -9.086380
  H     -8.572050   -3.448940   -7.330510
  H     -9.570680   -4.358440   -5.538850
  H    -10.454410   -5.004150   -3.215920
  H    -10.700280   -4.088180   -0.898600
  H    -10.115870   -0.999240    3.238090
  H     -7.115080    0.299920    2.536660

 Total Charge           Charge          ....    0
 Multiplicity           Mult            ....    1
 Number of Electrons    NEL             ....  482
 Basis Dimension        Dim             .... 1012

ORBITAL ENERGIES
----------------

  NO   OCC          E(Eh)            E(eV)
   0   2.0000    -482.887379    -13140.0336
   1   2.0000     -88.977290     -2421.1952
   2   2.0000     -88.963721     -2420.8259
   3   2.0000     -88.949679     -2420.4438
   4   2.0000     -88.943406     -2420.2731
   5   2.0000     -88.941978     -2420.2343
   6   2.0000     -62.565098     -1702.4829
   7   2.0000     -56.399050     -1534.6962
   8   2.0000     -56.396328     -1534.6221
   9   2.0000     -56.396299     -1534.6213
  10   2.0000     -19.294674      -525.0348
  11   2.0000     -19.235754      -523.4315
  12   2.0000     -19.232743      -523.3496
  13   2.0000     -19.214741      -522.8597
  14   2.0000     -14.644269      -398.4908
  15   2.0000     -14.422510      -392.4565
  16   2.0000     -14.418771      -392.3547
  17   2.0000     -14.404248      -391.9595
  18   2.0000     -14.400861      -391.8674
  19   2.0000     -10.370404      -282.1930
  20   2.0000     -10.366981      -282.0999
  21   2.0000     -10.361301      -281.9453
  22   2.0000     -10.347174      -281.5609
  23   2.0000     -10.345989      -281.5287
  24   2.0000     -10.341342      -281.4022
  25   2.0000     -10.336158      -281.2612
  26   2.0000     -10.328012      -281.0395
  27   2.0000     -10.326553      -280.9998
  28   2.0000     -10.321260      -280.8558
  29   2.0000     -10.319940      -280.8198
  30   2.0000     -10.311117      -280.5798
  31   2.0000     -10.310415      -280.5607
  32   2.0000     -10.308692      -280.5138
  33   2.0000     -10.308373      -280.5051
  34   2.0000     -10.308059      -280.4966
  35   2.0000     -10.307774      -280.4888
  36   2.0000     -10.307249      -280.4745
  37   2.0000     -10.306682      -280.4591
  38   2.0000     -10.305739      -280.4334
  39   2.0000     -10.303164      -280.3634
  40   2.0000     -10.302424      -280.3432
  41   2.0000     -10.302377      -280.3419
  42   2.0000     -10.301653      -280.3222
  43   2.0000     -10.298353      -280.2324
  44   2.0000     -10.294545      -280.1288
  45   2.0000     -10.294368      -280.1240
  46   2.0000     -10.286406      -279.9073
  47   2.0000     -10.286363      -279.9062
  48   2.0000     -10.285782      -279.8904
  49   2.0000     -10.283854      -279.8379
  50   2.0000     -10.283671      -279.8329
  51   2.0000     -10.282936      -279.8129
  52   2.0000     -10.281114      -279.7633
  53   2.0000     -10.280797      -279.7547
  54   2.0000     -10.280527      -279.7474
  55   2.0000     -10.277640      -279.6688
  56   2.0000     -10.276569      -279.6397
  57   2.0000     -10.275558      -279.6121
  58   2.0000     -10.274821      -279.5921
  59   2.0000     -10.273193      -279.5478
  60   2.0000     -10.272737      -279.5354
  61   2.0000     -10.272649      -279.5330
  62   2.0000     -10.269311      -279.4422
  63   2.0000     -10.268743      -279.4267
  64   2.0000     -10.265805      -279.3468
  65   2.0000      -8.794535      -239.3115
  66   2.0000      -8.073307      -219.6859
  67   2.0000      -8.058852      -219.2925
  68   2.0000      -8.045790      -218.9371
  69   2.0000      -8.039276      -218.7598
  70   2.0000      -8.037532      -218.7124
  71   2.0000      -6.630845      -180.4345
  72   2.0000      -6.616280      -180.0381
  73   2.0000      -6.616051      -180.0319
  74   2.0000      -6.043016      -164.4388
  75   2.0000      -6.038721      -164.3220
  76   2.0000      -6.034493      -164.2069
  77   2.0000      -6.028196      -164.0356
  78   2.0000      -6.023885      -163.9182
  79   2.0000      -6.021160      -163.8441
  80   2.0000      -6.014973      -163.6757
  81   2.0000      -6.010852      -163.5636
  82   2.0000      -6.009036      -163.5142
  83   2.0000      -6.008098      -163.4887
  84   2.0000      -6.007377      -163.4690
  85   2.0000      -6.005054      -163.4058
  86   2.0000      -6.003266      -163.3572
  87   2.0000      -6.000183      -163.2733
  88   2.0000      -5.998354      -163.2235
  89   2.0000      -2.746707       -74.7417
  90   2.0000      -2.742620       -74.6305
  91   2.0000      -2.742481       -74.6267
  92   2.0000      -2.730888       -74.3113
  93   2.0000      -2.730864       -74.3106
  94   2.0000      -1.315649       -35.8006
  95   2.0000      -1.213218       -33.0133
  96   2.0000      -1.131791       -30.7976
  97   2.0000      -1.131301       -30.7843
  98   2.0000      -1.078258       -29.3409
  99   2.0000      -1.025828       -27.9142
 100   2.0000      -1.017167       -27.6785
 101   2.0000      -0.999286       -27.1920
 102   2.0000      -0.992027       -26.9944
 103   2.0000      -0.991387       -26.9770
 104   2.0000      -0.984178       -26.7809
 105   2.0000      -0.982342       -26.7309
 106   2.0000      -0.974825       -26.5263
 107   2.0000      -0.968191       -26.3458
 108   2.0000      -0.945360       -25.7245
 109   2.0000      -0.920442       -25.0465
 110   2.0000      -0.914755       -24.8917
 111   2.0000      -0.912737       -24.8368
 112   2.0000      -0.910962       -24.7885
 113   2.0000      -0.892205       -24.2781
 114   2.0000      -0.889713       -24.2103
 115   2.0000      -0.888335       -24.1728
 116   2.0000      -0.880053       -23.9474
 117   2.0000      -0.875289       -23.8178
 118   2.0000      -0.867200       -23.5977
 119   2.0000      -0.851430       -23.1686
 120   2.0000      -0.845110       -22.9966
 121   2.0000      -0.840172       -22.8622
 122   2.0000      -0.831415       -22.6240
 123   2.0000      -0.830088       -22.5878
 124   2.0000      -0.820884       -22.3374
 125   2.0000      -0.814676       -22.1685
 126   2.0000      -0.796029       -21.6610
 127   2.0000      -0.782348       -21.2888
 128   2.0000      -0.778193       -21.1757
 129   2.0000      -0.771735       -21.0000
 130   2.0000      -0.761059       -20.7095
 131   2.0000      -0.757117       -20.6022
 132   2.0000      -0.738161       -20.0864
 133   2.0000      -0.730142       -19.8682
 134   2.0000      -0.725059       -19.7299
 135   2.0000      -0.703003       -19.1297
 136   2.0000      -0.699625       -19.0378
 137   2.0000      -0.692970       -18.8567
 138   2.0000      -0.692572       -18.8458
 139   2.0000      -0.676935       -18.4203
 140   2.0000      -0.676017       -18.3954
 141   2.0000      -0.667083       -18.1523
 142   2.0000      -0.659329       -17.9413
 143   2.0000      -0.657087       -17.8803
 144   2.0000      -0.647268       -17.6131
 145   2.0000      -0.642130       -17.4732
 146   2.0000      -0.634534       -17.2665
 147   2.0000      -0.630595       -17.1594
 148   2.0000      -0.625244       -17.0138
 149   2.0000      -0.624305       -16.9882
 150   2.0000      -0.617229       -16.7957
 151   2.0000      -0.615014       -16.7354
 152   2.0000      -0.610459       -16.6114
 153   2.0000      -0.608232       -16.5508
 154   2.0000      -0.602885       -16.4053
 155   2.0000      -0.601040       -16.3551
 156   2.0000      -0.595101       -16.1935
 157   2.0000      -0.590388       -16.0653
 158   2.0000      -0.584985       -15.9183
 159   2.0000      -0.578225       -15.7343
 160   2.0000      -0.570248       -15.5172
 161   2.0000      -0.565742       -15.3946
 162   2.0000      -0.558704       -15.2031
 163   2.0000      -0.552797       -15.0424
 164   2.0000      -0.549682       -14.9576
 165   2.0000      -0.545606       -14.8467
 166   2.0000      -0.541033       -14.7222
 167   2.0000      -0.539669       -14.6851
 168   2.0000      -0.535491       -14.5714
 169   2.0000      -0.532027       -14.4772
 170   2.0000      -0.527636       -14.3577
 171   2.0000      -0.526698       -14.3322
 172   2.0000      -0.520848       -14.1730
 173   2.0000      -0.515950       -14.0397
 174   2.0000      -0.512097       -13.9349
 175   2.0000      -0.511324       -13.9138
 176   2.0000      -0.508890       -13.8476
 177   2.0000      -0.508028       -13.8241
 178   2.0000      -0.504774       -13.7356
 179   2.0000      -0.502305       -13.6684
 180   2.0000      -0.499738       -13.5986
 181   2.0000      -0.495232       -13.4759
 182   2.0000      -0.494089       -13.4449
 183   2.0000      -0.493361       -13.4250
 184   2.0000      -0.492363       -13.3979
 185   2.0000      -0.490034       -13.3345
 186   2.0000      -0.484307       -13.1787
 187   2.0000      -0.481572       -13.1043
 188   2.0000      -0.475218       -12.9314
 189   2.0000      -0.471069       -12.8184
 190   2.0000      -0.466868       -12.7041
 191   2.0000      -0.464567       -12.6415
 192   2.0000      -0.460785       -12.5386
 193   2.0000      -0.459385       -12.5005
 194   2.0000      -0.457667       -12.4538
 195   2.0000      -0.454101       -12.3567
 196   2.0000      -0.453055       -12.3282
 197   2.0000      -0.450479       -12.2582
 198   2.0000      -0.449792       -12.2395
 199   2.0000      -0.446762       -12.1570
 200   2.0000      -0.443988       -12.0815
 201   2.0000      -0.441966       -12.0265
 202   2.0000      -0.440318       -11.9817
 203   2.0000      -0.435680       -11.8555
 204   2.0000      -0.431836       -11.7509
 205   2.0000      -0.430023       -11.7015
 206   2.0000      -0.428406       -11.6575
 207   2.0000      -0.422330       -11.4922
 208   2.0000      -0.421079       -11.4581
 209   2.0000      -0.418566       -11.3897
 210   2.0000      -0.415626       -11.3098
 211   2.0000      -0.415163       -11.2972
 212   2.0000      -0.413699       -11.2573
 213   2.0000      -0.412570       -11.2266
 214   2.0000      -0.404155       -10.9976
 215   2.0000      -0.397484       -10.8161
 216   2.0000      -0.393825       -10.7165
 217   2.0000      -0.390133       -10.6161
 218   2.0000      -0.385801       -10.4982
 219   2.0000      -0.382916       -10.4197
 220   2.0000      -0.378852       -10.3091
 221   2.0000      -0.376667       -10.2496
 222   2.0000      -0.371537       -10.1100
 223   2.0000      -0.371195       -10.1007
 224   2.0000      -0.363041        -9.8788
 225   2.0000      -0.358774        -9.7627
 226   2.0000      -0.351585        -9.5671
 227   2.0000      -0.342873        -9.3300
 228   2.0000      -0.335559        -9.1310
 229   2.0000      -0.333667        -9.0796
 230   2.0000      -0.324997        -8.8436
 231   2.0000      -0.320919        -8.7326
 232   2.0000      -0.317898        -8.6505
 233   2.0000      -0.315599        -8.5879
 234   2.0000      -0.313597        -8.5334
 235   2.0000      -0.303513        -8.2590
 236   2.0000      -0.295849        -8.0505
 237   2.0000      -0.290634        -7.9085
 238   2.0000      -0.273874        -7.4525
 239   2.0000      -0.253442        -6.8965
 240   2.0000      -0.203582        -5.5398
 241   0.0000      -0.089017        -2.4223
 242   0.0000      -0.076462        -2.0806
 243   0.0000      -0.055119        -1.4999
 244   0.0000      -0.050310        -1.3690
 245   0.0000      -0.039018        -1.0617

MULLIKEN ATOMIC CHARGES
-----------------------
   0 C :    0.282121
   1 C :   -0.336145
   2 C :   -0.193010
   3 N :    0.154999
   4 C :   -0.153589
   5 N :    0.152122
   6 C :    0.016633
   7 C :    0.000086
   8 C :   -0.072865
   9 C :    0.115850
  10 C :   -0.089442
  11 C :   -0.017180
  12 S :    0.188036
  13 C :   -0.124240
  14 C :    0.042425
  15 Br:    0.026525
  16 C :    0.154367
  17 O :   -0.126909
  18 C :   -0.051804
  19 C :    0.028050
  20 C :   -0.027363
  21 N :   -0.143084
  22 C :    0.104459
  23 C :   -0.028898
  24 C :    0.055181
  25 N :   -0.058803
  26 C :   -0.052947
  27 C :    0.081216
  28 C :   -0.145670
  29 S :    0.117603
  30 C :   -0.124563
  31 C :   -0.078366
  32 C :    0.110775
  33 C :    0.130115
  34 C :   -0.070052
  35 C :    0.003682
  36 C :    0.010928
  37 C :    0.013540
  38 C :   -0.019207
  39 C :   -0.018200
  40 C :    0.036312
  41 C :    0.024805
  42 C :   -0.055050
  43 S :    0.067603
  44 C :   -0.042362
  45 C :    0.022905
  46 C :    0.031831
  47 C :   -0.022030
  48 S :    0.093130
  49 C :    0.026916
  50 C :   -0.246095
  51 S :    0.137505
  52 C :   -0.127328
  53 C :    0.106275
  54 C :    0.217784
  55 O :   -0.203588
  56 C :    0.268372
  57 N :    0.272944
  58 O :   -0.249681
  59 O :   -0.230001
  60 C :   -0.054426
  61 H :   -0.007384
  62 H :   -0.002886
  63 H :   -0.001883
  64 H :    0.036637
  65 H :    0.018869
  66 H :   -0.005099
  67 H :    0.011773
  68 H :    0.011937
  69 H :    0.012568
  70 H :    0.006861
  71 H :    0.028683
  72 H :    0.035088
  73 H :    0.026634
  74 H :   -0.020200
  75 H :   -0.017338
  76 H :   -0.014391
  77 H :   -0.017939
  78 H :   -0.014050
  79 H :   -0.015777
  80 H :   -0.014510
  81 H :   -0.013082
  82 H :   -0.011858
  83 H :    0.034672
  84 H :    0.000479
Sum of atomic charges:   -0.0000000

LOEWDIN ATOMIC CHARGES
----------------------
   0 C :    0.082807
   1 C :   -0.134632
   2 C :   -0.018076
   3 N :   -0.048151
   4 C :    0.000319
   5 N :   -0.046642
   6 C :   -0.022545
   7 C :   -0.046697
   8 C :    0.020736
   9 C :   -0.028853
  10 C :   -0.143265
  11 C :   -0.007294
  12 S :    0.433259
  13 C :   -0.269572
  14 C :   -0.070078
  15 Br:    0.139460
  16 C :    0.086072
  17 O :   -0.116604
  18 C :   -0.061963
  19 C :    0.073209
  20 C :    0.021938
  21 N :   -0.097694
  22 C :    0.054417
  23 C :   -0.051179
  24 C :    0.041118
  25 N :   -0.069344
  26 C :   -0.045668
  27 C :    0.006880
  28 C :   -0.174577
  29 S :    0.430729
  30 C :   -0.190360
  31 C :   -0.054595
  32 C :   -0.045128
  33 C :   -0.050694
  34 C :   -0.009172
  35 C :   -0.044351
  36 C :   -0.023879
  37 C :   -0.030985
  38 C :   -0.054356
  39 C :   -0.148504
  40 C :   -0.034332
  41 C :   -0.033973
  42 C :   -0.178757
  43 S :    0.370304
  44 C :   -0.178398
  45 C :   -0.034024
  46 C :   -0.033257
  47 C :   -0.145610
  48 S :    0.392839
  49 C :   -0.080514
  50 C :   -0.206479
  51 S :    0.463702
  52 C :   -0.180948
  53 C :   -0.077157
  54 C :    0.016005
  55 O :   -0.005379
  56 C :    0.026690
  57 N :    0.284921
  58 O :   -0.214304
  59 O :   -0.190483
  60 C :   -0.006039
  61 H :    0.041236
  62 H :    0.041498
  63 H :    0.039519
  64 H :    0.045125
  65 H :    0.010074
  66 H :    0.023999
  67 H :    0.032256
  68 H :    0.035130
  69 H :    0.020503
  70 H :    0.031785
  71 H :    0.035383
  72 H :    0.034313
  73 H :    0.033543
  74 H :    0.026691
  75 H :    0.026666
  76 H :    0.019513
  77 H :    0.032640
  78 H :    0.033038
  79 H :    0.030873
  80 H :    0.030984
  81 H :    0.032832
  82 H :    0.034203
  83 H :    0.030707
  84 H :    0.036593

  Mayer bond orders larger than 0.100000
B(  0-C ,  1-C ) :   1.6595 B(  0-C ,  6-C ) :   1.0244 B(  0-C , 18-C ) :   1.0275
B(  1-C ,  2-C ) :   1.1313 B(  1-C ,  4-C ) :   1.1476 B(  2-C ,  3-N ) :   2.9826
B(  4-C ,  5-N ) :   2.9525 B(  6-C ,  7-C ) :   1.2685 B(  6-C , 11-C ) :   1.3964
B(  7-C ,  8-C ) :   1.4218 B(  7-C , 16-C ) :   0.9267 B(  8-C ,  9-C ) :   1.2559
B(  8-C , 61-H ) :   1.0149 B(  9-C , 10-C ) :   1.2980 B(  9-C , 14-C ) :   1.1647
B( 10-C , 11-C ) :   1.3456 B( 10-C , 12-S ) :   1.0825 B( 11-C , 62-H ) :   0.9808
B( 12-S , 13-C ) :   1.0877 B( 13-C , 14-C ) :   1.6158 B( 13-C , 15-Br) :   1.0209
B( 14-C , 63-H ) :   1.0009 B( 16-C , 17-O ) :   2.2452 B( 16-C , 18-C ) :   0.9038
B( 18-C , 19-C ) :   1.7540 B( 19-C , 20-C ) :   0.9943 B( 19-C , 64-H ) :   0.9365
B( 20-C , 21-N ) :   1.4717 B( 20-C , 25-N ) :   1.5400 B( 21-N , 22-C ) :   1.4727
B( 22-C , 23-C ) :   1.4031 B( 22-C , 65-H ) :   0.9572 B( 23-C , 24-C ) :   1.3155
B( 23-C , 66-H ) :   0.9696 B( 24-C , 25-N ) :   1.5025 B( 24-C , 26-C ) :   1.0696
B( 26-C , 27-C ) :   1.7243 B( 26-C , 67-H ) :   0.9723 B( 27-C , 28-C ) :   1.1010
B( 27-C , 68-H ) :   0.9511 B( 28-C , 29-S ) :   1.1327 B( 28-C , 33-C ) :   1.4377
B( 29-S , 30-C ) :   1.1436 B( 30-C , 31-C ) :   1.5922 B( 30-C , 69-H ) :   0.9664
B( 31-C , 32-C ) :   1.0936 B( 31-C , 33-C ) :   1.2409 B( 32-C , 70-H ) :   0.9479
B( 32-C , 71-H ) :   0.9443 B( 32-C , 72-H ) :   0.9432 B( 33-C , 34-C ) :   1.1026
B( 34-C , 35-C ) :   1.7002 B( 34-C , 73-H ) :   0.9472 B( 35-C , 36-C ) :   1.1279
B( 35-C , 74-H ) :   0.9708 B( 36-C , 37-C ) :   1.6524 B( 36-C , 75-H ) :   0.9749
B( 37-C , 38-C ) :   1.1710 B( 37-C , 76-H ) :   0.9630 B( 38-C , 39-C ) :   1.5634
B( 38-C , 77-H ) :   0.9787 B( 39-C , 40-C ) :   1.1415 B( 39-C , 43-S ) :   1.0233
B( 40-C , 41-C ) :   1.5940 B( 40-C , 78-H ) :   0.9986 B( 41-C , 42-C ) :   1.1845
B( 41-C , 79-H ) :   0.9918 B( 42-C , 43-S ) :   1.0412 B( 42-C , 44-C ) :   1.5219
B( 44-C , 45-C ) :   1.1773 B( 44-C , 48-S ) :   1.0391 B( 45-C , 46-C ) :   1.6076
B( 45-C , 80-H ) :   0.9924 B( 46-C , 47-C ) :   1.1292 B( 46-C , 81-H ) :   0.9979
B( 47-C , 48-S ) :   1.0423 B( 47-C , 49-C ) :   1.6381 B( 49-C , 50-C ) :   1.1180
B( 49-C , 82-H ) :   0.9444 B( 50-C , 51-S ) :   1.1251 B( 50-C , 52-C ) :   0.1066
B( 50-C , 54-C ) :   1.4530 B( 51-S , 52-C ) :   1.1808 B( 52-C , 53-C ) :   1.4422
B( 52-C , 83-H ) :   0.9733 B( 53-C , 54-C ) :   1.2135 B( 53-C , 60-C ) :   1.0729
B( 54-C , 55-O ) :   1.1094 B( 55-O , 56-C ) :   1.0955 B( 56-C , 57-N ) :   0.9147
B( 56-C , 60-C ) :   1.5826 B( 57-N , 58-O ) :   1.5262 B( 57-N , 59-O ) :   1.5188
B( 58-O , 59-O ) :   0.2532 B( 60-C , 84-H ) :   1.0000

-----------------------------------------------------------------------------
         ABSORPTION SPECTRUM VIA TRANSITION ELECTRIC DIPOLE MOMENTS
-----------------------------------------------------------------------------
State   Energy  Wavelength   fosc         T2         TX        TY        TZ
        (cm-1)    (nm)                  (au**2)     (au)      (au)      (au)
-----------------------------------------------------------------------------
   0   13159.7    759.9   0.058778458   1.47045   0.53712   0.78472  -0.75244
   1   13964.8    716.1   0.695222449  16.38951  -1.66071  -2.45419   2.75835
   2   18035.3    554.5   0.081328989   1.48456  -0.36515  -1.07683   0.43779
   3   20563.3    486.3   0.003667136   0.05871  -0.02779   0.02756   0.23912
   4   20771.0    481.4   0.222611088   3.52830   0.34329   0.19781  -1.83612
   5   22603.5    442.4   0.011954380   0.17411  -0.09828  -0.36666   0.17324
   6   23630.8    423.2   0.490074381   6.82745   0.06284  -0.79993  -2.48669
   7   25034.2    399.5   0.001088375   0.01431   0.10053  -0.04380   0.04782
   8   26139.8    382.6   0.380082721   4.78687  -0.24364  -0.99421  -1.93366
   9   26966.0    370.8   0.037674544   0.45995   0.09331  -0.38920  -0.54751
  10   28130.7    355.5   0.315355998   3.69059  -0.19521  -1.82440   0.56924
  11   28737.3    348.0   0.177995967   2.03911   0.42972   1.31570   0.35125
  12   28836.0    346.8   0.013530496   0.15447  -0.14937  -0.23828  -0.27456
  13   28976.8    345.1   0.346488837   3.93654   1.08424   1.58141  -0.51001
  14   29346.5    340.8   0.009328027   0.10464  -0.14414  -0.06365   0.28252
  15   30132.6    331.9   0.058143998   0.63525   0.13702   0.60454  -0.50101
  16   30437.4    328.5   0.164526935   1.77953  -0.19608   0.31144   1.28222
  17   30950.4    323.1   0.004456061   0.04740   0.05668   0.15960  -0.13680
  18   31048.8    322.1   0.026083967   0.27657   0.28156   0.02197   0.44364
  19   31087.2    321.7   0.505372954   5.35188   1.11191   1.90963  -0.68473
  20   31450.6    318.0   0.067469100   0.70624   0.20530   0.81077  -0.08214
  21   32012.6    312.4   0.013743908   0.14134   0.18872   0.09466   0.31107
  22   32639.7    306.4   0.167221482   1.68663   0.24737  -0.86384  -0.93767
  23   32985.7    303.2   0.040304668   0.40226   0.24137  -0.37777  -0.44865
  24   33285.7    300.4   0.006292556   0.06224  -0.01864   0.20734   0.13747
  25   33540.8    298.1   0.006873742   0.06747  -0.18954   0.09704   0.14874
  26   33672.6    297.0   0.085920792   0.84003  -0.05405   0.75876   0.51128
  27   33959.9    294.5   0.103343411   1.00183   0.47438   0.57440  -0.66847
  28   34162.8    292.7   0.163694524   1.57745   0.42883  -1.07060   0.49736
  29   34417.9    290.5   0.031268977   0.29909  -0.28122   0.24339   0.40096
  30   34450.0    290.3   0.634431569   6.06278   0.99769   1.95336  -1.11882
  31   35222.5    283.9   0.081910366   0.76559   0.21926  -0.56609   0.63012
  32   35592.6    281.0   0.017959461   0.16612  -0.32681   0.23731   0.05476
  33   35928.1    278.3   0.030218295   0.27689   0.29351  -0.37966   0.21587
  34   36356.5    275.1   0.053427641   0.48379   0.00946   0.57611   0.38961
  35   36536.6    273.7   0.043584693   0.39272   0.03785   0.58308  -0.22649
  36   36781.3    271.9   0.013550252   0.12128   0.14118   0.11771  -0.29580
  37   37010.0    270.2   0.003467605   0.03085  -0.01299   0.12787   0.11969
  38   37210.0    268.7   0.072978735   0.64567  -0.23214   0.70862   0.29941
  39   37320.5    267.9   0.005673732   0.05005   0.07442   0.03184  -0.20856
  40   37659.1    265.5   0.248102499   2.16889   0.30441  -1.43704  -0.10557
  41   37824.8    264.4   0.020912539   0.18201  -0.08305  -0.26359  -0.32502
  42   38377.7    260.6   0.052076139   0.44672   0.32365   0.44440  -0.38011
  43   38451.1    260.1   0.171452860   1.46795  -0.59057  -0.83002   0.65593
  44   38682.1    258.5   0.068005730   0.57878   0.22865   0.27603   0.67105
  45   38849.1    257.4   0.042219766   0.35777  -0.25949  -0.49048   0.22332
  46   39121.0    255.6   0.010639473   0.08953   0.16898  -0.16921  -0.17986
  47   39351.2    254.1   0.145572425   1.21786  -0.14524  -0.85921  -0.67714
  48   39563.7    252.8   0.039981029   0.33268  -0.11716  -0.20190   0.52744
  49   39594.2    252.6   0.087585813   0.72825   0.62689   0.50520   0.28290
  50   39769.6    251.4   0.041555596   0.34400  -0.50960  -0.12772  -0.26075
  51   39858.7    250.9   0.092720508   0.76582  -0.81042  -0.10038   0.31459
  52   40074.8    249.5   0.012234603   0.10051  -0.11760   0.13033   0.26399
  53   40246.9    248.5   0.015730599   0.12867  -0.19847  -0.22273  -0.19918

FINAL SINGLE POINT ENERGY     -6903.120224572202

DIPOLE MOMENT
-------------
                                X             Y             Z
Electronic contribution:      0.82735     112.36107      91.41403
Nuclear contribution   :     -1.59128    -111.68719     -94.03633
                        -----------------------------------------
Total Dipole Moment    :     -0.76393       0.67388      -2.62230
                        -----------------------------------------
Magnitude (a.u.)       :      2.81321
Magnitude (Debye)      :      7.15061

Rotational constants in cm-1:     0.001280     0.000604     0.000432
Rotational constants in MHz :    38.373192    18.118284    12.948546

                             ****ORCA TERMINATED NORMALLY****
TOTAL RUN TIME: 0 days 0 hours 8 minutes 14 seconds 747 msec
