                         Program Version 4.2.0 -  RELEASE  -
|  1> # ORCA input file
|  2> # SCF done       -195.069138027364          0.000567277852
|  3> ! CAM-B3LYP def2-SVP def2/J RIJCOSX Grid4 TightSCF
|  4> %maxcore 5000
|  5> %tddft
|  6>     Mode sTDDFT
|  7>     Ethresh 5.0
|  8>     maxcore 5000
|  9> end
| 10>
| 11> %pal
| 12>   nprocs 6
| 13>   end
| 14> * xyz 0 1
| 15>    C      -13.31233       -10.51028        -6.87245
| 16>    C      -12.15368       -10.40151        -6.13886
| 17>    C      -11.07710       -11.30679        -6.22409
| 18>    N      -10.16523       -12.00500        -6.24748
| 19>    C      -11.85811        -9.38523        -5.20820
| 20>    N      -11.53344        -8.59692        -4.43737
| 21>    C      -13.59492       -11.56305        -7.84597
| 22>    C      -14.87126       -11.32766        -8.41296
| 23>    C      -15.42181       -12.14905        -9.36534
| 24>    C      -14.67783       -13.25969        -9.77927
| 25>    C      -13.40489       -13.48726        -9.20695
| 26>    C      -12.84735       -12.65482        -8.24356
| 27>    S      -12.65649       -14.91428        -9.85812
| 28>    C      -14.04625       -15.18173       -10.87645
| 29>    C      -15.02087       -14.25218       -10.73816
| 30>   Br      -14.07876       -16.66346       -12.02664
| 31>    C      -15.45384       -10.10895        -7.81239
| 32>    O      -16.53598        -9.62211        -8.07609
| 33>    C      -14.45211        -9.62787        -6.84045
| 34>    C      -14.61081        -8.52429        -6.03029
| 35>    C      -15.72196        -7.68428        -6.00947
| 36>    C      -15.81297        -6.61030        -5.14658
| 37>    C      -16.88618        -5.69538        -5.02586
| 38>    C      -16.70153        -4.74089        -4.06981
| 39>    C      -15.47023        -4.85562        -3.38701
| 40>    S      -14.55115        -6.21009        -4.00380
| 41>    C      -14.97236        -4.07927        -2.35798
| 42>    C      -15.56778        -2.96975        -1.71075
| 43>    C      -14.80981        -2.44926        -0.71109
| 44>    C      -13.56347        -3.11092        -0.50200
| 45>    S      -13.40954        -4.42142        -1.66345
| 46>    C      -12.67547        -2.79954         0.48763
| 47>    C      -11.41996        -3.40743         0.80253
| 48>    C      -10.83172        -3.12406         2.04477
| 49>    C       -9.64560        -3.71388         2.43255
| 50>    N       -9.24833        -3.48009         3.80100
| 51>    O       -9.35272        -2.34790         4.22194
| 52>    O       -8.89407        -4.43547         4.45551
| 53>    C       -8.93158        -4.57431         1.57650
| 54>    C       -9.53334        -4.85142         0.33744
| 55>    C      -10.73050        -4.29748        -0.04020
| 56>    C       -7.63545        -5.14677         1.82437
| 57>    C       -6.66351        -4.69539         2.64486
| 58>    C       -5.41381        -5.37252         2.73785
| 59>    O       -4.48712        -4.96175         3.64437
| 60>    C       -4.89614        -6.45593         2.05530
| 61>    C       -5.15814        -7.43421         0.99750
| 62>    O       -6.11736        -7.58909         0.28352
| 63>    N       -4.00203        -8.20550         0.96475
| 64>    C       -3.01563        -7.83725         1.87808
| 65>    O       -1.94438        -8.37784         1.99324
| 66>    C       -3.60284        -6.69993         2.58451
| 67>    C       -3.38965        -5.75752         3.57208
| 68>    C       -2.30306        -5.54553         4.47088
| 69>    C       -1.18550        -6.29434         4.43244
| 70>    C       -0.05159        -6.11878         5.32153
| 71>    C        1.17603        -5.91598         4.76180
| 72>    S        2.41229        -5.51457         5.88035
| 73>    C        1.28031        -5.68515         7.18725
| 74>    C       -0.00936        -6.04569         6.76416
| 75>    C       -0.97613        -6.39509         7.74331
| 76>    C       -2.26336        -7.04093         7.29844
| 77>    C       -2.00567        -8.46549         6.80269
| 78>    C       -0.68066        -6.25208         9.09210
| 79>    C       -1.67226        -6.64894        10.15585
| 80>    C       -2.69900        -5.54240        10.40988
| 81>    C        0.57762        -5.74775         9.50262
| 82>    C        1.10555        -5.50284        10.82301
| 83>    C        2.42085        -5.16160        10.78827
| 84>    S        3.10120        -5.07811         9.20875
| 85>    C        1.56741        -5.52560         8.53221
| 86>    C        0.39233        -5.52590        12.09952
| 87>    C        0.87820        -6.08506        13.19870
| 88>    H      -16.39686       -11.94308        -9.77837
| 89>    H      -11.87363       -12.87322        -7.83857
| 90>    H      -15.94404       -14.26410       -11.28825
| 91>    H      -13.81237        -8.28182        -5.33961
| 92>    H      -16.54404        -7.87744        -6.68309
| 93>    H      -17.75961        -5.77515        -5.64830
| 94>    H      -17.41181        -3.96709        -3.83945
| 95>    H      -16.53503        -2.59749        -1.99658
| 96>    H      -15.09949        -1.60957        -0.10430
| 97>    H      -12.98301        -2.00242         1.15379
| 98>    H      -11.33106        -2.46577         2.74154
| 99>    H       -9.01818        -5.51440        -0.34069
|100>    H      -11.12563        -4.53731        -1.01298
|101>    H       -7.41114        -6.01142         1.21248
|102>    H       -6.75841        -3.81469         3.26205
|103>    H       -3.88439        -8.97574         0.32185
|104>    H       -2.42551        -4.74253         5.18475
|105>    H       -1.06724        -7.02374         3.64103
|106>    H        1.40287        -5.92239         3.71311
|107>    H       -2.72055        -6.46628         6.49690
|108>    H       -2.98256        -7.07683         8.11177
|109>    H       -2.94416        -8.94086         6.52658
|110>    H       -1.53129        -9.05885         7.58163
|111>    H       -1.35539        -8.46156         5.93177
|112>    H       -1.13380        -6.86369        11.07871
|113>    H       -2.18618        -7.56772         9.87202
|114>    H       -2.20183        -4.60944        10.66625
|115>    H       -3.36004        -5.82095        11.22772
|116>    H       -3.30293        -5.36000         9.52420
|117>    H        3.03768        -4.91073        11.62920
|118>    H       -0.55341        -5.00279        12.13069
|119>    H        1.81310        -6.62028        13.19657
|120>    H        0.34819        -6.04653        14.13485
|121> *
|122>
|123>                          ****END OF INPUT****

CARTESIAN COORDINATES (ANGSTROEM)
---------------------------------
  C    -13.312330  -10.510280   -6.872450
  C    -12.153680  -10.401510   -6.138860
  C    -11.077100  -11.306790   -6.224090
  N    -10.165230  -12.005000   -6.247480
  C    -11.858110   -9.385230   -5.208200
  N    -11.533440   -8.596920   -4.437370
  C    -13.594920  -11.563050   -7.845970
  C    -14.871260  -11.327660   -8.412960
  C    -15.421810  -12.149050   -9.365340
  C    -14.677830  -13.259690   -9.779270
  C    -13.404890  -13.487260   -9.206950
  C    -12.847350  -12.654820   -8.243560
  S    -12.656490  -14.914280   -9.858120
  C    -14.046250  -15.181730  -10.876450
  C    -15.020870  -14.252180  -10.738160
  Br   -14.078760  -16.663460  -12.026640
  C    -15.453840  -10.108950   -7.812390
  O    -16.535980   -9.622110   -8.076090
  C    -14.452110   -9.627870   -6.840450
  C    -14.610810   -8.524290   -6.030290
  C    -15.721960   -7.684280   -6.009470
  C    -15.812970   -6.610300   -5.146580
  C    -16.886180   -5.695380   -5.025860
  C    -16.701530   -4.740890   -4.069810
  C    -15.470230   -4.855620   -3.387010
  S    -14.551150   -6.210090   -4.003800
  C    -14.972360   -4.079270   -2.357980
  C    -15.567780   -2.969750   -1.710750
  C    -14.809810   -2.449260   -0.711090
  C    -13.563470   -3.110920   -0.502000
  S    -13.409540   -4.421420   -1.663450
  C    -12.675470   -2.799540    0.487630
  C    -11.419960   -3.407430    0.802530
  C    -10.831720   -3.124060    2.044770
  C     -9.645600   -3.713880    2.432550
  N     -9.248330   -3.480090    3.801000
  O     -9.352720   -2.347900    4.221940
  O     -8.894070   -4.435470    4.455510
  C     -8.931580   -4.574310    1.576500
  C     -9.533340   -4.851420    0.337440
  C    -10.730500   -4.297480   -0.040200
  C     -7.635450   -5.146770    1.824370
  C     -6.663510   -4.695390    2.644860
  C     -5.413810   -5.372520    2.737850
  O     -4.487120   -4.961750    3.644370
  C     -4.896140   -6.455930    2.055300
  C     -5.158140   -7.434210    0.997500
  O     -6.117360   -7.589090    0.283520
  N     -4.002030   -8.205500    0.964750
  C     -3.015630   -7.837250    1.878080
  O     -1.944380   -8.377840    1.993240
  C     -3.602840   -6.699930    2.584510
  C     -3.389650   -5.757520    3.572080
  C     -2.303060   -5.545530    4.470880
  C     -1.185500   -6.294340    4.432440
  C     -0.051590   -6.118780    5.321530
  C      1.176030   -5.915980    4.761800
  S      2.412290   -5.514570    5.880350
  C      1.280310   -5.685150    7.187250
  C     -0.009360   -6.045690    6.764160
  C     -0.976130   -6.395090    7.743310
  C     -2.263360   -7.040930    7.298440
  C     -2.005670   -8.465490    6.802690
  C     -0.680660   -6.252080    9.092100
  C     -1.672260   -6.648940   10.155850
  C     -2.699000   -5.542400   10.409880
  C      0.577620   -5.747750    9.502620
  C      1.105550   -5.502840   10.823010
  C      2.420850   -5.161600   10.788270
  S      3.101200   -5.078110    9.208750
  C      1.567410   -5.525600    8.532210
  C      0.392330   -5.525900   12.099520
  C      0.878200   -6.085060   13.198700
  H    -16.396860  -11.943080   -9.778370
  H    -11.873630  -12.873220   -7.838570
  H    -15.944040  -14.264100  -11.288250
  H    -13.812370   -8.281820   -5.339610
  H    -16.544040   -7.877440   -6.683090
  H    -17.759610   -5.775150   -5.648300
  H    -17.411810   -3.967090   -3.839450
  H    -16.535030   -2.597490   -1.996580
  H    -15.099490   -1.609570   -0.104300
  H    -12.983010   -2.002420    1.153790
  H    -11.331060   -2.465770    2.741540
  H     -9.018180   -5.514400   -0.340690
  H    -11.125630   -4.537310   -1.012980
  H     -7.411140   -6.011420    1.212480
  H     -6.758410   -3.814690    3.262050
  H     -3.884390   -8.975740    0.321850
  H     -2.425510   -4.742530    5.184750
  H     -1.067240   -7.023740    3.641030
  H      1.402870   -5.922390    3.713110
  H     -2.720550   -6.466280    6.496900
  H     -2.982560   -7.076830    8.111770
  H     -2.944160   -8.940860    6.526580
  H     -1.531290   -9.058850    7.581630
  H     -1.355390   -8.461560    5.931770
  H     -1.133800   -6.863690   11.078710
  H     -2.186180   -7.567720    9.872020
  H     -2.201830   -4.609440   10.666250
  H     -3.360040   -5.820950   11.227720
  H     -3.302930   -5.360000    9.524200
  H      3.037680   -4.910730   11.629200
  H     -0.553410   -5.002790   12.130690
  H      1.813100   -6.620280   13.196570
  H      0.348190   -6.046530   14.134850

 Total Charge           Charge          ....    0
 Multiplicity           Mult            ....    1
 Number of Electrons    NEL             ....  566
 Basis Dimension        Dim             .... 1225

ORBITAL ENERGIES
----------------

  NO   OCC          E(Eh)            E(eV)
   0   2.0000    -482.879609    -13139.8222
   1   2.0000     -88.968514     -2420.9563
   2   2.0000     -88.967756     -2420.9357
   3   2.0000     -88.961981     -2420.7786
   4   2.0000     -88.948633     -2420.4153
   5   2.0000     -88.944115     -2420.2924
   6   2.0000     -62.557320     -1702.2712
   7   2.0000     -56.391259     -1534.4842
   8   2.0000     -56.388562     -1534.4108
   9   2.0000     -56.388526     -1534.4098
  10   2.0000     -19.308718      -525.4169
  11   2.0000     -19.248561      -523.7800
  12   2.0000     -19.247911      -523.7623
  13   2.0000     -19.211620      -522.7748
  14   2.0000     -19.210494      -522.7441
  15   2.0000     -19.205062      -522.5963
  16   2.0000     -14.652181      -398.7061
  17   2.0000     -14.453317      -393.2947
  18   2.0000     -14.405692      -391.9988
  19   2.0000     -14.402666      -391.9165
  20   2.0000     -10.399113      -282.9742
  21   2.0000     -10.398296      -282.9520
  22   2.0000     -10.358541      -281.8702
  23   2.0000     -10.357119      -281.8315
  24   2.0000     -10.355328      -281.7828
  25   2.0000     -10.351420      -281.6765
  26   2.0000     -10.338633      -281.3285
  27   2.0000     -10.336479      -281.2699
  28   2.0000     -10.331198      -281.1262
  29   2.0000     -10.330342      -281.1029
  30   2.0000     -10.328764      -281.0600
  31   2.0000     -10.327737      -281.0320
  32   2.0000     -10.327534      -281.0265
  33   2.0000     -10.316573      -280.7282
  34   2.0000     -10.312964      -280.6300
  35   2.0000     -10.310908      -280.5741
  36   2.0000     -10.310605      -280.5658
  37   2.0000     -10.309320      -280.5309
  38   2.0000     -10.308513      -280.5089
  39   2.0000     -10.308236      -280.5014
  40   2.0000     -10.307873      -280.4915
  41   2.0000     -10.306681      -280.4591
  42   2.0000     -10.305476      -280.4263
  43   2.0000     -10.302821      -280.3540
  44   2.0000     -10.299024      -280.2507
  45   2.0000     -10.298658      -280.2407
  46   2.0000     -10.297857      -280.2189
  47   2.0000     -10.296005      -280.1685
  48   2.0000     -10.295758      -280.1618
  49   2.0000     -10.295492      -280.1546
  50   2.0000     -10.293572      -280.1023
  51   2.0000     -10.293321      -280.0955
  52   2.0000     -10.292422      -280.0711
  53   2.0000     -10.291730      -280.0522
  54   2.0000     -10.291554      -280.0474
  55   2.0000     -10.289814      -280.0001
  56   2.0000     -10.289570      -279.9934
  57   2.0000     -10.287558      -279.9387
  58   2.0000     -10.286158      -279.9006
  59   2.0000     -10.285985      -279.8959
  60   2.0000     -10.284639      -279.8593
  61   2.0000     -10.283502      -279.8283
  62   2.0000     -10.282533      -279.8020
  63   2.0000     -10.281914      -279.7851
  64   2.0000     -10.280136      -279.7367
  65   2.0000     -10.279859      -279.7292
  66   2.0000     -10.274873      -279.5935
  67   2.0000     -10.273337      -279.5517
  68   2.0000     -10.271886      -279.5122
  69   2.0000     -10.271313      -279.4966
  70   2.0000     -10.268147      -279.4105
  71   2.0000     -10.267375      -279.3895
  72   2.0000     -10.258935      -279.1598
  73   2.0000     -10.256634      -279.0972
  74   2.0000     -10.253306      -279.0066
  75   2.0000     -10.251879      -278.9678
  76   2.0000     -10.246368      -278.8179
  77   2.0000      -8.786744      -239.0995
  78   2.0000      -8.064433      -219.4444
  79   2.0000      -8.063798      -219.4271
  80   2.0000      -8.058156      -219.2736
  81   2.0000      -8.044868      -218.9120
  82   2.0000      -8.040334      -218.7886
  83   2.0000      -6.622988      -180.2207
  84   2.0000      -6.608493      -179.8262
  85   2.0000      -6.608326      -179.8217
  86   2.0000      -6.034165      -164.1980
  87   2.0000      -6.033494      -164.1797
  88   2.0000      -6.030019      -164.0851
  89   2.0000      -6.029220      -164.0634
  90   2.0000      -6.027782      -164.0243
  91   2.0000      -6.025427      -163.9602
  92   2.0000      -6.024998      -163.9485
  93   2.0000      -6.023725      -163.9139
  94   2.0000      -6.019229      -163.7915
  95   2.0000      -6.014324      -163.6581
  96   2.0000      -6.010148      -163.5444
  97   2.0000      -6.009828      -163.5357
  98   2.0000      -6.006564      -163.4469
  99   2.0000      -6.005665      -163.4225
 100   2.0000      -6.001970      -163.3219
 101   2.0000      -2.738908       -74.5295
 102   2.0000      -2.734785       -74.4173
 103   2.0000      -2.734653       -74.4137
 104   2.0000      -2.723147       -74.1006
 105   2.0000      -2.723122       -74.0999
 106   2.0000      -1.329104       -36.1668
 107   2.0000      -1.224678       -33.3252
 108   2.0000      -1.154778       -31.4231
 109   2.0000      -1.147644       -31.2290
 110   2.0000      -1.134446       -30.8698
 111   2.0000      -1.118485       -30.4355
 112   2.0000      -1.041513       -28.3410
 113   2.0000      -1.017365       -27.6839
 114   2.0000      -1.013171       -27.5698
 115   2.0000      -1.003380       -27.3034
 116   2.0000      -0.997327       -27.1386
 117   2.0000      -0.996507       -27.1163
 118   2.0000      -0.990619       -26.9561
 119   2.0000      -0.983299       -26.7569
 120   2.0000      -0.978726       -26.6325
 121   2.0000      -0.966648       -26.3038
 122   2.0000      -0.935986       -25.4695
 123   2.0000      -0.933834       -25.4109
 124   2.0000      -0.924239       -25.1498
 125   2.0000      -0.921457       -25.0741
 126   2.0000      -0.918522       -24.9942
 127   2.0000      -0.910514       -24.7763
 128   2.0000      -0.900846       -24.5133
 129   2.0000      -0.898861       -24.4593
 130   2.0000      -0.891632       -24.2625
 131   2.0000      -0.883942       -24.0533
 132   2.0000      -0.877668       -23.8826
 133   2.0000      -0.876566       -23.8526
 134   2.0000      -0.868265       -23.6267
 135   2.0000      -0.864087       -23.5130
 136   2.0000      -0.855320       -23.2744
 137   2.0000      -0.848625       -23.0923
 138   2.0000      -0.842284       -22.9197
 139   2.0000      -0.841387       -22.8953
 140   2.0000      -0.831012       -22.6130
 141   2.0000      -0.820336       -22.3225
 142   2.0000      -0.814006       -22.1502
 143   2.0000      -0.809323       -22.0228
 144   2.0000      -0.796041       -21.6614
 145   2.0000      -0.792194       -21.5567
 146   2.0000      -0.777313       -21.1518
 147   2.0000      -0.772881       -21.0312
 148   2.0000      -0.769803       -20.9474
 149   2.0000      -0.763102       -20.7651
 150   2.0000      -0.760634       -20.6979
 151   2.0000      -0.749172       -20.3860
 152   2.0000      -0.739684       -20.1278
 153   2.0000      -0.720106       -19.5951
 154   2.0000      -0.713965       -19.4280
 155   2.0000      -0.712420       -19.3859
 156   2.0000      -0.704797       -19.1785
 157   2.0000      -0.700919       -19.0730
 158   2.0000      -0.694105       -18.8875
 159   2.0000      -0.689105       -18.7515
 160   2.0000      -0.686983       -18.6938
 161   2.0000      -0.681792       -18.5525
 162   2.0000      -0.679489       -18.4898
 163   2.0000      -0.671229       -18.2651
 164   2.0000      -0.665178       -18.1004
 165   2.0000      -0.659161       -17.9367
 166   2.0000      -0.652063       -17.7435
 167   2.0000      -0.648895       -17.6573
 168   2.0000      -0.642131       -17.4733
 169   2.0000      -0.640093       -17.4178
 170   2.0000      -0.636369       -17.3165
 171   2.0000      -0.630130       -17.1467
 172   2.0000      -0.623587       -16.9687
 173   2.0000      -0.617128       -16.7929
 174   2.0000      -0.614045       -16.7090
 175   2.0000      -0.613561       -16.6958
 176   2.0000      -0.609212       -16.5775
 177   2.0000      -0.604550       -16.4507
 178   2.0000      -0.595657       -16.2086
 179   2.0000      -0.594225       -16.1697
 180   2.0000      -0.592036       -16.1101
 181   2.0000      -0.590983       -16.0815
 182   2.0000      -0.587189       -15.9782
 183   2.0000      -0.586441       -15.9579
 184   2.0000      -0.584986       -15.9183
 185   2.0000      -0.581559       -15.8250
 186   2.0000      -0.572652       -15.5826
 187   2.0000      -0.569200       -15.4887
 188   2.0000      -0.559800       -15.2329
 189   2.0000      -0.555976       -15.1289
 190   2.0000      -0.555007       -15.1025
 191   2.0000      -0.548841       -14.9347
 192   2.0000      -0.542047       -14.7498
 193   2.0000      -0.541584       -14.7373
 194   2.0000      -0.537298       -14.6206
 195   2.0000      -0.534917       -14.5558
 196   2.0000      -0.531400       -14.4601
 197   2.0000      -0.529593       -14.4110
 198   2.0000      -0.529127       -14.3983
 199   2.0000      -0.526429       -14.3249
 200   2.0000      -0.521972       -14.2036
 201   2.0000      -0.520577       -14.1656
 202   2.0000      -0.519235       -14.1291
 203   2.0000      -0.518079       -14.0977
 204   2.0000      -0.515822       -14.0362
 205   2.0000      -0.514401       -13.9976
 206   2.0000      -0.510334       -13.8869
 207   2.0000      -0.505808       -13.7637
 208   2.0000      -0.503574       -13.7030
 209   2.0000      -0.500513       -13.6197
 210   2.0000      -0.499752       -13.5989
 211   2.0000      -0.499211       -13.5842
 212   2.0000      -0.498201       -13.5568
 213   2.0000      -0.497470       -13.5368
 214   2.0000      -0.494865       -13.4660
 215   2.0000      -0.488191       -13.2844
 216   2.0000      -0.485328       -13.2065
 217   2.0000      -0.484258       -13.1773
 218   2.0000      -0.483033       -13.1440
 219   2.0000      -0.482099       -13.1186
 220   2.0000      -0.481052       -13.0901
 221   2.0000      -0.480065       -13.0632
 222   2.0000      -0.479089       -13.0367
 223   2.0000      -0.478119       -13.0103
 224   2.0000      -0.475910       -12.9502
 225   2.0000      -0.466219       -12.6865
 226   2.0000      -0.463055       -12.6004
 227   2.0000      -0.461679       -12.5629
 228   2.0000      -0.458930       -12.4881
 229   2.0000      -0.453281       -12.3344
 230   2.0000      -0.452169       -12.3041
 231   2.0000      -0.449855       -12.2412
 232   2.0000      -0.448719       -12.2103
 233   2.0000      -0.445696       -12.1280
 234   2.0000      -0.443965       -12.0809
 235   2.0000      -0.441872       -12.0239
 236   2.0000      -0.439504       -11.9595
 237   2.0000      -0.436569       -11.8797
 238   2.0000      -0.435228       -11.8432
 239   2.0000      -0.433294       -11.7905
 240   2.0000      -0.432680       -11.7738
 241   2.0000      -0.430681       -11.7194
 242   2.0000      -0.430382       -11.7113
 243   2.0000      -0.423827       -11.5329
 244   2.0000      -0.420838       -11.4516
 245   2.0000      -0.418591       -11.3905
 246   2.0000      -0.416185       -11.3250
 247   2.0000      -0.416048       -11.3212
 248   2.0000      -0.413568       -11.2537
 249   2.0000      -0.412628       -11.2282
 250   2.0000      -0.411709       -11.2032
 251   2.0000      -0.406777       -11.0690
 252   2.0000      -0.401295       -10.9198
 253   2.0000      -0.396943       -10.8014
 254   2.0000      -0.390344       -10.6218
 255   2.0000      -0.389262       -10.5923
 256   2.0000      -0.385454       -10.4887
 257   2.0000      -0.380974       -10.3668
 258   2.0000      -0.380356       -10.3500
 259   2.0000      -0.379126       -10.3165
 260   2.0000      -0.376433       -10.2433
 261   2.0000      -0.370082       -10.0704
 262   2.0000      -0.369071       -10.0429
 263   2.0000      -0.368235       -10.0202
 264   2.0000      -0.366663        -9.9774
 265   2.0000      -0.361526        -9.8376
 266   2.0000      -0.357682        -9.7330
 267   2.0000      -0.356114        -9.6904
 268   2.0000      -0.350485        -9.5372
 269   2.0000      -0.346064        -9.4169
 270   2.0000      -0.344815        -9.3829
 271   2.0000      -0.340684        -9.2705
 272   2.0000      -0.334895        -9.1130
 273   2.0000      -0.325308        -8.8521
 274   2.0000      -0.321075        -8.7369
 275   2.0000      -0.313101        -8.5199
 276   2.0000      -0.306960        -8.3528
 277   2.0000      -0.299846        -8.1592
 278   2.0000      -0.285018        -7.7557
 279   2.0000      -0.273791        -7.4502
 280   2.0000      -0.259830        -7.0703
 281   2.0000      -0.253960        -6.9106
 282   2.0000      -0.233175        -6.3450
 283   0.0000      -0.113336        -3.0840
 284   0.0000      -0.070777        -1.9259
 285   0.0000      -0.056428        -1.5355
 286   0.0000      -0.040950        -1.1143
 287   0.0000      -0.039359        -1.0710

MULLIKEN ATOMIC CHARGES
-----------------------
   0 C :    0.329122
   1 C :   -0.362262
   2 C :   -0.186733
   3 N :    0.142330
   4 C :   -0.188573
   5 N :    0.130224
   6 C :    0.011925
   7 C :   -0.013098
   8 C :   -0.074178
   9 C :    0.117580
  10 C :   -0.093025
  11 C :   -0.022638
  12 S :    0.182284
  13 C :   -0.123190
  14 C :    0.037047
  15 Br:    0.017442
  16 C :    0.137679
  17 O :   -0.161536
  18 C :   -0.081131
  19 C :   -0.048024
  20 C :   -0.019287
  21 C :    0.005032
  22 C :    0.029634
  23 C :    0.045605
  24 C :   -0.046992
  25 S :    0.102509
  26 C :   -0.027235
  27 C :    0.033208
  28 C :    0.047432
  29 C :   -0.017860
  30 S :    0.090192
  31 C :   -0.016490
  32 C :    0.094894
  33 C :   -0.039139
  34 C :    0.103778
  35 N :    0.225675
  36 O :   -0.234710
  37 O :   -0.219706
  38 C :    0.103667
  39 C :   -0.032971
  40 C :    0.009336
  41 C :   -0.033276
  42 C :    0.052893
  43 C :    0.086471
  44 O :   -0.195342
  45 C :   -0.075811
  46 C :    0.194681
  47 O :   -0.158216
  48 N :   -0.157752
  49 C :    0.185856
  50 O :   -0.155566
  51 C :   -0.074252
  52 C :    0.106059
  53 C :    0.021384
  54 C :   -0.065996
  55 C :    0.038740
  56 C :   -0.088021
  57 S :    0.130393
  58 C :   -0.150546
  59 C :    0.112183
  60 C :   -0.123822
  61 C :    0.064558
  62 C :    0.028747
  63 C :   -0.125507
  64 C :    0.017867
  65 C :    0.039869
  66 C :    0.105521
  67 C :    0.047907
  68 C :   -0.113666
  69 S :    0.117122
  70 C :   -0.137322
  71 C :   -0.034466
  72 C :   -0.022701
  73 H :   -0.014995
  74 H :   -0.009570
  75 H :   -0.005601
  76 H :    0.019111
  77 H :    0.017971
  78 H :    0.002265
  79 H :   -0.003666
  80 H :   -0.004714
  81 H :   -0.000612
  82 H :   -0.006096
  83 H :   -0.003921
  84 H :    0.013010
  85 H :    0.008936
  86 H :    0.014260
  87 H :   -0.003035
  88 H :    0.139472
  89 H :    0.005885
  90 H :    0.040423
  91 H :    0.022629
  92 H :   -0.008859
  93 H :   -0.005160
  94 H :    0.011844
  95 H :    0.009021
  96 H :    0.020121
  97 H :    0.009055
  98 H :    0.005939
  99 H :    0.010632
 100 H :    0.015114
 101 H :    0.008313
 102 H :    0.016346
 103 H :    0.011694
 104 H :    0.018220
 105 H :    0.020165
Sum of atomic charges:   -0.0000000

LOEWDIN ATOMIC CHARGES
----------------------
   0 C :    0.073277
   1 C :   -0.152615
   2 C :   -0.018805
   3 N :   -0.064658
   4 C :   -0.020401
   5 N :   -0.065206
   6 C :   -0.018639
   7 C :   -0.049419
   8 C :    0.018430
   9 C :   -0.035104
  10 C :   -0.145183
  11 C :   -0.012407
  12 S :    0.429130
  13 C :   -0.273890
  14 C :   -0.070956
  15 Br:    0.131811
  16 C :    0.082212
  17 O :   -0.156072
  18 C :   -0.103445
  19 C :    0.049435
  20 C :   -0.069061
  21 C :   -0.103581
  22 C :   -0.037075
  23 C :   -0.007588
  24 C :   -0.187721
  25 S :    0.411294
  26 C :   -0.152704
  27 C :   -0.035296
  28 C :   -0.009552
  29 C :   -0.145482
  30 S :    0.409199
  31 C :   -0.027589
  32 C :   -0.030958
  33 C :    0.011095
  34 C :   -0.020542
  35 N :    0.279592
  36 O :   -0.201101
  37 O :   -0.188999
  38 C :   -0.006563
  39 C :    0.007448
  40 C :   -0.003383
  41 C :    0.001053
  42 C :   -0.022823
  43 C :    0.064500
  44 O :    0.021938
  45 C :   -0.098579
  46 C :    0.089108
  47 O :   -0.162321
  48 N :   -0.000007
  49 C :    0.089416
  50 O :   -0.162300
  51 C :   -0.108532
  52 C :    0.073726
  53 C :   -0.052727
  54 C :    0.024692
  55 C :   -0.068190
  56 C :   -0.159847
  57 S :    0.417794
  58 C :   -0.177578
  59 C :   -0.043164
  60 C :   -0.021448
  61 C :   -0.033584
  62 C :   -0.046858
  63 C :   -0.019709
  64 C :   -0.032317
  65 C :   -0.049879
  66 C :   -0.042989
  67 C :   -0.062882
  68 C :   -0.165600
  69 S :    0.405036
  70 C :   -0.179111
  71 C :   -0.019984
  72 C :   -0.046750
  73 H :    0.039128
  74 H :    0.040219
  75 H :    0.037843
  76 H :    0.031086
  77 H :    0.039297
  78 H :    0.039678
  79 H :    0.036019
  80 H :    0.035711
  81 H :    0.038181
  82 H :    0.039496
  83 H :    0.038897
  84 H :    0.045225
  85 H :    0.020475
  86 H :    0.038607
  87 H :    0.034065
  88 H :    0.096024
  89 H :    0.039468
  90 H :    0.037982
  91 H :    0.026290
  92 H :    0.026197
  93 H :    0.023632
  94 H :    0.024050
  95 H :    0.024010
  96 H :    0.025300
  97 H :    0.030149
  98 H :    0.026623
  99 H :    0.020546
 100 H :    0.024315
 101 H :    0.022806
 102 H :    0.023053
 103 H :    0.031132
 104 H :    0.022077
 105 H :    0.023410

  Mayer bond orders larger than 0.100000
B(  0-C ,  1-C ) :   1.5906 B(  0-C ,  6-C ) :   0.9910 B(  0-C , 18-C ) :   1.1067
B(  1-C ,  2-C ) :   1.1479 B(  1-C ,  4-C ) :   1.1528 B(  2-C ,  3-N ) :   2.9634
B(  4-C ,  5-N ) :   2.9559 B(  6-C ,  7-C ) :   1.2765 B(  6-C , 11-C ) :   1.4195
B(  7-C ,  8-C ) :   1.4300 B(  7-C , 16-C ) :   0.9363 B(  8-C ,  9-C ) :   1.2419
B(  8-C , 73-H ) :   1.0155 B(  9-C , 10-C ) :   1.3132 B(  9-C , 14-C ) :   1.1611
B( 10-C , 11-C ) :   1.3227 B( 10-C , 12-S ) :   1.0849 B( 11-C , 74-H ) :   0.9784
B( 12-S , 13-C ) :   1.0852 B( 13-C , 14-C ) :   1.6206 B( 13-C , 15-Br) :   1.0153
B( 14-C , 75-H ) :   0.9997 B( 16-C , 17-O ) :   2.1941 B( 16-C , 18-C ) :   0.9619
B( 18-C , 19-C ) :   1.4999 B( 19-C , 20-C ) :   1.2437 B( 19-C , 76-H ) :   0.9396
B( 20-C , 21-C ) :   1.4323 B( 20-C , 77-H ) :   0.9806 B( 21-C , 22-C ) :   1.1675
B( 21-C , 25-S ) :   1.0834 B( 22-C , 23-C ) :   1.5577 B( 22-C , 78-H ) :   1.0013
B( 23-C , 24-C ) :   1.2011 B( 23-C , 79-H ) :   0.9947 B( 24-C , 25-S ) :   1.0464
B( 24-C , 26-C ) :   1.4900 B( 26-C , 27-C ) :   1.1769 B( 26-C , 30-S ) :   1.0685
B( 27-C , 28-C ) :   1.6065 B( 27-C , 80-H ) :   0.9932 B( 28-C , 29-C ) :   1.1253
B( 28-C , 81-H ) :   0.9997 B( 29-C , 30-S ) :   1.0267 B( 29-C , 31-C ) :   1.6053
B( 31-C , 32-C ) :   1.1078 B( 31-C , 82-H ) :   0.9729 B( 32-C , 33-C ) :   1.2705
B( 32-C , 40-C ) :   1.2946 B( 33-C , 34-C ) :   1.4185 B( 33-C , 83-H ) :   0.9971
B( 34-C , 35-N ) :   0.8523 B( 34-C , 38-C ) :   1.3282 B( 35-N , 36-O ) :   1.5346
B( 35-N , 37-O ) :   1.5517 B( 36-O , 37-O ) :   0.2750 B( 38-C , 39-C ) :   1.3202
B( 38-C , 41-C ) :   1.1011 B( 39-C , 40-C ) :   1.4310 B( 39-C , 84-H ) :   0.9939
B( 40-C , 85-H ) :   0.9746 B( 41-C , 42-C ) :   1.6525 B( 41-C , 86-H ) :   0.9430
B( 42-C , 43-C ) :   1.1833 B( 42-C , 87-H ) :   0.9533 B( 43-C , 44-O ) :   1.1366
B( 43-C , 45-C ) :   1.4369 B( 44-O , 52-C ) :   1.1508 B( 45-C , 46-C ) :   0.8868
B( 45-C , 51-C ) :   1.2722 B( 46-C , 47-O ) :   2.1578 B( 46-C , 48-N ) :   1.1036
B( 48-N , 49-C ) :   1.0915 B( 48-N , 88-H ) :   0.9163 B( 49-C , 50-O ) :   2.1762
B( 49-C , 51-C ) :   0.8889 B( 51-C , 52-C ) :   1.4300 B( 52-C , 53-C ) :   1.1573
B( 53-C , 54-C ) :   1.7399 B( 53-C , 89-H ) :   0.9498 B( 54-C , 55-C ) :   1.0119
B( 54-C , 90-H ) :   0.9353 B( 55-C , 56-C ) :   1.6114 B( 55-C , 59-C ) :   1.1515
B( 56-C , 57-S ) :   1.1231 B( 56-C , 91-H ) :   0.9678 B( 57-S , 58-C ) :   1.0784
B( 58-C , 59-C ) :   1.3716 B( 58-C , 70-C ) :   1.3736 B( 59-C , 60-C ) :   1.2575
B( 60-C , 61-C ) :   1.0836 B( 60-C , 63-C ) :   1.5068 B( 61-C , 62-C ) :   1.1065
B( 61-C , 92-H ) :   0.9087 B( 61-C , 93-H ) :   0.9081 B( 62-C , 94-H ) :   0.9662
B( 62-C , 95-H ) :   0.9610 B( 62-C , 96-H ) :   0.9662 B( 63-C , 64-C ) :   1.0582
B( 63-C , 66-C ) :   1.2642 B( 64-C , 65-C ) :   1.1075 B( 64-C , 97-H ) :   0.9163
B( 64-C , 98-H ) :   0.9148 B( 65-C , 99-H ) :   0.9574 B( 65-C ,100-H ) :   0.9679
B( 65-C ,101-H ) :   0.9626 B( 66-C , 67-C ) :   1.1560 B( 66-C , 70-C ) :   1.3732
B( 67-C , 68-C ) :   1.6354 B( 67-C , 71-C ) :   1.0043 B( 68-C , 69-S ) :   1.1076
B( 68-C ,102-H ) :   0.9651 B( 69-S , 70-C ) :   1.0784 B( 71-C , 72-C ) :   1.9800
B( 71-C ,103-H ) :   0.9515 B( 72-C ,104-H ) :   0.9593 B( 72-C ,105-H ) :   0.9520

-----------------------------------------------------------------------------
         ABSORPTION SPECTRUM VIA TRANSITION ELECTRIC DIPOLE MOMENTS
-----------------------------------------------------------------------------
State   Energy  Wavelength   fosc         T2         TX        TY        TZ
        (cm-1)    (nm)                  (au**2)     (au)      (au)      (au)
-----------------------------------------------------------------------------
   0   12305.0    812.7   1.240083148  33.17756  -1.91488  -3.38705  -4.24720
   1   20727.3    482.5   0.772365643  12.26747   2.97865  -1.83125   0.20400
   2   21249.9    470.6   0.406738892   6.30135   2.25819  -0.91993   0.59635
   3   23614.6    423.5   0.033771329   0.47081   0.48987  -0.43498  -0.20402
   4   24704.4    404.8   0.282716340   3.76749  -1.34779  -0.53468  -1.29038
   5   25652.0    389.8   0.174213055   2.23581  -0.61588   1.14710   0.73530
   6   25734.6    388.6   0.012904554   0.16508  -0.25338   0.30344   0.09385
   7   26782.7    373.4   0.092127826   1.13243   0.73427  -0.76936   0.03703
   8   26800.3    373.1   0.011473316   0.14094  -0.25481   0.27569  -0.00199
   9   27657.0    361.6   0.025411435   0.30248   0.40668  -0.28651   0.23454
  10   28210.4    354.5   0.694283174   8.10219   2.24642   0.28121   1.72531
  11   28360.5    352.6   0.040456502   0.46962  -0.56384   0.38833  -0.03022
  12   28654.7    349.0   0.168586091   1.93688  -1.06152   0.90001   0.00397
  13   30244.8    330.6   0.046594928   0.50718   0.51581  -0.48119  -0.09786
  14   30850.8    324.1   0.120807283   1.28915   0.66672  -0.87694  -0.27495
  15   31678.6    315.7   0.008877256   0.09225   0.11042  -0.14474  -0.24313
  16   32145.6    311.1   0.073717670   0.75496   0.21866   0.62552   0.56203
  17   32177.6    310.8   0.314150980   3.21410  -0.42537  -1.27229  -1.18930
  18   32486.9    307.8   0.254999020   2.58408   0.66475   0.98007   1.08703
  19   32755.5    305.3   0.001568179   0.01576  -0.03680   0.06227  -0.10261
  20   32909.7    303.9   0.025290984   0.25300   0.13147   0.26138   0.40914
  21   33328.1    300.0   0.039021791   0.38545  -0.56066   0.14089  -0.22642
  22   33508.6    298.4   0.014757199   0.14499  -0.35990   0.11225  -0.05347
  23   34470.9    290.1   0.083597471   0.79839   0.75963  -0.41366   0.22414
  24   34825.4    287.1   0.034886045   0.32979  -0.04316   0.29881   0.48850
  25   35215.8    284.0   0.064394416   0.60199  -0.36055  -0.34129  -0.59624
  26   35665.7    280.4   0.087898885   0.81135  -0.80182  -0.01963  -0.40994
  27   35762.6    279.6   0.051502515   0.47410  -0.55241  -0.02989  -0.40994
  28   35991.2    277.8   0.041464273   0.37927  -0.59552   0.10594  -0.11576
  29   36153.6    276.6   0.119630569   1.08935  -0.33083  -0.49502  -0.85723
  30   37093.7    269.6   0.086675299   0.76925   0.57424   0.25750   0.61090
  31   37458.2    267.0   0.013621104   0.11971   0.26876  -0.15796   0.15010
  32   37810.4    264.5   0.107099723   0.93251   0.76375  -0.01192   0.59081
  33   38052.7    262.8   0.128705066   1.11349  -0.85486   0.38099  -0.48739
  34   38262.2    261.4   0.129199986   1.11165  -1.04812  -0.05722  -0.09910
  35   38354.1    260.7   0.134842497   1.15742   0.91616   0.37336  -0.42270
  36   38577.0    259.2   0.020390353   0.17401  -0.36556  -0.10515   0.17122
  37   38632.0    258.9   0.013721619   0.11693  -0.14913   0.22996  -0.20447
  38   39019.3    256.3   0.012741393   0.10750   0.26639  -0.09593  -0.16533
  39   39213.5    255.0   0.006956100   0.05840   0.17828   0.09704   0.13114
  40   39499.4    253.2   0.050271602   0.41899   0.58726   0.07201   0.26256
  41   40093.0    249.4   0.090917590   0.74654   0.03873   0.08951   0.85850
  42   40134.5    249.2   0.217724070   1.78593   0.37500   0.17150   1.27118

FINAL SINGLE POINT ENERGY     -7422.847084554789

DIPOLE MOMENT
-------------
                                X             Y             Z
Electronic contribution:   -103.61756    -120.20806    -220.69216
Nuclear contribution   :    101.01676     122.41989     220.93125
                        -----------------------------------------
Total Dipole Moment    :     -2.60080       2.21183       0.23909
                        -----------------------------------------
Magnitude (a.u.)       :      3.42250
Magnitude (Debye)      :      8.69931

Rotational constants in cm-1:     0.000984     0.000167     0.000146
Rotational constants in MHz :    29.498274     5.009960     4.377479

                             ****ORCA TERMINATED NORMALLY****
TOTAL RUN TIME: 0 days 0 hours 14 minutes 39 seconds 943 msec
