                         Program Version 4.2.0 -  RELEASE  -
|  1> # ORCA input file
|  2> # SCF done       -178.241773680276          0.000647682274
|  3> ! CAM-B3LYP def2-SVP def2/J RIJCOSX Grid4 TightSCF
|  4> %maxcore 5000
|  5> %tddft
|  6>     Mode sTDDFT
|  7>     Ethresh 5.0
|  8>     maxcore 5000
|  9> end
| 10>
| 11> %pal
| 12>   nprocs 6
| 13>   end
| 14> * xyz 0 1
| 15>    C       -1.48799        11.87545         2.22129
| 16>    C       -1.52499        12.06797         3.57837
| 17>    C       -0.63984        12.91176         4.28100
| 18>    N        0.04783        13.59631         4.89328
| 19>    C       -2.38394        11.35752         4.43700
| 20>    N       -3.00362        10.74721         5.18825
| 21>    C       -0.46548        12.35818         1.30887
| 22>    C       -0.62615        11.69610         0.06541
| 23>    C        0.21545        11.91121        -0.99875
| 24>    C        1.26211        12.82393        -0.82829
| 25>    C        1.40833        13.48748         0.41529
| 26>    C        0.55891        13.26835         1.49236
| 27>    S        2.76334        14.57280         0.40464
| 28>    C        3.11647        14.12418        -1.24284
| 29>    C        2.26084        13.21027        -1.76179
| 30>   Br        4.57693        14.90427        -2.12063
| 31>    C       -1.78576        10.78464         0.13003
| 32>    O       -2.18053        10.05659        -0.75107
| 33>    C       -2.38558        11.01586         1.47192
| 34>    C       -3.66112        10.71528         1.84701
| 35>    C       -4.55232         9.80524         1.22999
| 36>    S       -6.28060         9.97267         1.53406
| 37>    C       -6.64657         8.54226         0.62418
| 38>    C       -5.47185         7.97870         0.12399
| 39>    C       -4.31127         8.68991         0.46995
| 40>    N       -5.41167         6.84068        -0.72161
| 41>    O       -6.43520         6.51031        -1.29347
| 42>    O       -4.34151         6.28114        -0.83143
| 43>    N       -7.91323         8.06472         0.60816
| 44>    C       -8.28777         6.73754         0.51055
| 45>    S       -9.74532         6.34831        -0.33922
| 46>    C       -9.44819         4.66974        -0.04566
| 47>    N      -10.39983         3.75284        -0.52442
| 48>    O      -10.19376         2.57180        -0.34108
| 49>    O      -11.36954         4.22501        -1.09039
| 50>    C       -8.29545         4.43128         0.64939
| 51>    C       -7.62180         5.61741         1.00065
| 52>    C       -6.41063         5.63117         1.79699
| 53>    C       -6.14296         6.55029         2.73814
| 54>    C       -4.91816         6.59819         3.48165
| 55>    C       -4.61617         7.50727         4.42163
| 56>    C       -5.53320         8.57872         4.90975
| 57>    C       -3.29927         7.43115         5.15732
| 58>    N       -3.50981         7.06707         6.54311
| 59>    C       -3.92701         5.85288         6.90120
| 60>    C       -4.23745         5.48102         8.17947
| 61>    C       -4.60397         4.18701         8.57337
| 62>    C       -5.01142         3.09551         7.83980
| 63>    C       -5.55560         2.92172         6.52217
| 64>    C       -6.27204         3.83939         5.78250
| 65>    C       -6.85946         3.57053         4.53540
| 66>    N       -7.33970         3.43460         3.49960
| 67>    C       -6.56620         5.13700         6.22569
| 68>    N       -6.84569         6.20172         6.55810
| 69>    C       -5.46311         1.50083         6.18800
| 70>    C       -5.07337         0.78908         7.34813
| 71>    C       -4.85141         1.75373         8.44776
| 72>    O       -4.56200         1.50313         9.59772
| 73>    C       -4.92856        -0.57540         7.36251
| 74>    C       -5.16691        -1.26942         6.17011
| 75>    C       -5.54164        -0.54771         5.01333
| 76>    C       -5.69873         0.83368         5.00260
| 77>    S       -5.77144        -1.59942         3.64906
| 78>    C       -5.37089        -2.97668         4.63949
| 79>    C       -5.07862        -2.66723         5.92485
| 80>   Br       -5.37109        -4.69307         3.88212
| 81>    H        0.07463        11.38809        -1.93141
| 82>    H        0.70411        13.79850         2.41904
| 83>    H        2.33133        12.82347        -2.76185
| 84>    H       -4.07183        11.24149         2.70204
| 85>    H       -3.33512         8.37164         0.15424
| 86>    H       -8.66171         8.73890         0.70402
| 87>    H       -7.96841         3.44995         0.94117
| 88>    H       -5.72284         4.81642         1.61871
| 89>    H       -6.88815         7.29542         2.97621
| 90>    H       -4.18544         5.84472         3.21892
| 91>    H       -6.18460         8.94980         4.12382
| 92>    H       -4.96234         9.41180         5.31108
| 93>    H       -6.16588         8.17294         5.70172
| 94>    H       -2.80616         8.40631         5.13741
| 95>    H       -2.64322         6.68935         4.69249
| 96>    H       -3.60796         7.81852         7.21039
| 97>    H       -3.91326         5.11522         6.10947
| 98>    H       -4.12265         6.21671         8.96373
| 99>    H       -4.47951         3.96538         9.62951
|100>    H       -4.64050        -1.09422         8.26315
|101>    H       -5.98226         1.34085         4.09536
|102>    H       -4.81044        -3.39306         6.67057
|103> *
|104>
|105>                          ****END OF INPUT****

CARTESIAN COORDINATES (ANGSTROEM)
---------------------------------
  C     -1.487990   11.875450    2.221290
  C     -1.524990   12.067970    3.578370
  C     -0.639840   12.911760    4.281000
  N      0.047830   13.596310    4.893280
  C     -2.383940   11.357520    4.437000
  N     -3.003620   10.747210    5.188250
  C     -0.465480   12.358180    1.308870
  C     -0.626150   11.696100    0.065410
  C      0.215450   11.911210   -0.998750
  C      1.262110   12.823930   -0.828290
  C      1.408330   13.487480    0.415290
  C      0.558910   13.268350    1.492360
  S      2.763340   14.572800    0.404640
  C      3.116470   14.124180   -1.242840
  C      2.260840   13.210270   -1.761790
  Br     4.576930   14.904270   -2.120630
  C     -1.785760   10.784640    0.130030
  O     -2.180530   10.056590   -0.751070
  C     -2.385580   11.015860    1.471920
  C     -3.661120   10.715280    1.847010
  C     -4.552320    9.805240    1.229990
  S     -6.280600    9.972670    1.534060
  C     -6.646570    8.542260    0.624180
  C     -5.471850    7.978700    0.123990
  C     -4.311270    8.689910    0.469950
  N     -5.411670    6.840680   -0.721610
  O     -6.435200    6.510310   -1.293470
  O     -4.341510    6.281140   -0.831430
  N     -7.913230    8.064720    0.608160
  C     -8.287770    6.737540    0.510550
  S     -9.745320    6.348310   -0.339220
  C     -9.448190    4.669740   -0.045660
  N    -10.399830    3.752840   -0.524420
  O    -10.193760    2.571800   -0.341080
  O    -11.369540    4.225010   -1.090390
  C     -8.295450    4.431280    0.649390
  C     -7.621800    5.617410    1.000650
  C     -6.410630    5.631170    1.796990
  C     -6.142960    6.550290    2.738140
  C     -4.918160    6.598190    3.481650
  C     -4.616170    7.507270    4.421630
  C     -5.533200    8.578720    4.909750
  C     -3.299270    7.431150    5.157320
  N     -3.509810    7.067070    6.543110
  C     -3.927010    5.852880    6.901200
  C     -4.237450    5.481020    8.179470
  C     -4.603970    4.187010    8.573370
  C     -5.011420    3.095510    7.839800
  C     -5.555600    2.921720    6.522170
  C     -6.272040    3.839390    5.782500
  C     -6.859460    3.570530    4.535400
  N     -7.339700    3.434600    3.499600
  C     -6.566200    5.137000    6.225690
  N     -6.845690    6.201720    6.558100
  C     -5.463110    1.500830    6.188000
  C     -5.073370    0.789080    7.348130
  C     -4.851410    1.753730    8.447760
  O     -4.562000    1.503130    9.597720
  C     -4.928560   -0.575400    7.362510
  C     -5.166910   -1.269420    6.170110
  C     -5.541640   -0.547710    5.013330
  C     -5.698730    0.833680    5.002600
  S     -5.771440   -1.599420    3.649060
  C     -5.370890   -2.976680    4.639490
  C     -5.078620   -2.667230    5.924850
  Br    -5.371090   -4.693070    3.882120
  H      0.074630   11.388090   -1.931410
  H      0.704110   13.798500    2.419040
  H      2.331330   12.823470   -2.761850
  H     -4.071830   11.241490    2.702040
  H     -3.335120    8.371640    0.154240
  H     -8.661710    8.738900    0.704020
  H     -7.968410    3.449950    0.941170
  H     -5.722840    4.816420    1.618710
  H     -6.888150    7.295420    2.976210
  H     -4.185440    5.844720    3.218920
  H     -6.184600    8.949800    4.123820
  H     -4.962340    9.411800    5.311080
  H     -6.165880    8.172940    5.701720
  H     -2.806160    8.406310    5.137410
  H     -2.643220    6.689350    4.692490
  H     -3.607960    7.818520    7.210390
  H     -3.913260    5.115220    6.109470
  H     -4.122650    6.216710    8.963730
  H     -4.479510    3.965380    9.629510
  H     -4.640500   -1.094220    8.263150
  H     -5.982260    1.340850    4.095360
  H     -4.810440   -3.393060    6.670570

 Total Charge           Charge          ....    0
 Multiplicity           Mult            ....    1
 Number of Electrons    NEL             ....  536
 Basis Dimension        Dim             .... 1086

ORBITAL ENERGIES
----------------

  NO   OCC          E(Eh)            E(eV)
   0   2.0000    -482.894787    -13140.2352
   1   2.0000    -482.878294    -13139.7864
   2   2.0000     -88.997594     -2421.7477
   3   2.0000     -88.987180     -2421.4643
   4   2.0000     -88.975120     -2421.1361
   5   2.0000     -88.967343     -2420.9245
   6   2.0000     -62.572525     -1702.6850
   7   2.0000     -62.556039     -1702.2364
   8   2.0000     -56.406486     -1534.8985
   9   2.0000     -56.403746     -1534.8240
  10   2.0000     -56.403719     -1534.8232
  11   2.0000     -56.389984     -1534.4495
  12   2.0000     -56.387279     -1534.3759
  13   2.0000     -56.387239     -1534.3748
  14   2.0000     -19.246669      -523.7285
  15   2.0000     -19.243943      -523.6543
  16   2.0000     -19.232503      -523.3430
  17   2.0000     -19.228802      -523.2423
  18   2.0000     -19.228391      -523.2311
  19   2.0000     -19.197714      -522.3964
  20   2.0000     -14.653288      -398.7362
  21   2.0000     -14.640175      -398.3794
  22   2.0000     -14.501289      -394.6001
  23   2.0000     -14.465904      -393.6373
  24   2.0000     -14.438697      -392.8969
  25   2.0000     -14.429972      -392.6595
  26   2.0000     -14.410890      -392.1403
  27   2.0000     -14.409568      -392.1043
  28   2.0000     -10.395921      -282.8874
  29   2.0000     -10.384552      -282.5780
  30   2.0000     -10.370020      -282.1826
  31   2.0000     -10.359576      -281.8984
  32   2.0000     -10.358655      -281.8733
  33   2.0000     -10.357940      -281.8539
  34   2.0000     -10.350266      -281.6451
  35   2.0000     -10.349272      -281.6180
  36   2.0000     -10.347891      -281.5804
  37   2.0000     -10.344529      -281.4889
  38   2.0000     -10.344067      -281.4764
  39   2.0000     -10.340855      -281.3890
  40   2.0000     -10.338250      -281.3181
  41   2.0000     -10.335295      -281.2377
  42   2.0000     -10.333576      -281.1909
  43   2.0000     -10.332640      -281.1654
  44   2.0000     -10.332448      -281.1602
  45   2.0000     -10.325570      -280.9730
  46   2.0000     -10.322058      -280.8775
  47   2.0000     -10.320361      -280.8313
  48   2.0000     -10.319933      -280.8196
  49   2.0000     -10.318984      -280.7938
  50   2.0000     -10.318494      -280.7805
  51   2.0000     -10.316159      -280.7169
  52   2.0000     -10.315522      -280.6996
  53   2.0000     -10.315237      -280.6919
  54   2.0000     -10.314745      -280.6785
  55   2.0000     -10.313855      -280.6543
  56   2.0000     -10.307222      -280.4738
  57   2.0000     -10.306951      -280.4664
  58   2.0000     -10.305706      -280.4325
  59   2.0000     -10.297698      -280.2146
  60   2.0000     -10.297522      -280.2098
  61   2.0000     -10.296705      -280.1876
  62   2.0000     -10.293953      -280.1127
  63   2.0000     -10.293304      -280.0950
  64   2.0000     -10.290820      -280.0274
  65   2.0000     -10.288567      -279.9661
  66   2.0000     -10.285656      -279.8869
  67   2.0000     -10.280734      -279.7530
  68   2.0000     -10.279270      -279.7132
  69   2.0000     -10.277665      -279.6695
  70   2.0000     -10.272716      -279.5348
  71   2.0000     -10.272437      -279.5272
  72   2.0000     -10.271945      -279.5138
  73   2.0000     -10.253634      -279.0156
  74   2.0000      -8.801982      -239.5141
  75   2.0000      -8.785487      -239.0653
  76   2.0000      -8.093217      -220.2276
  77   2.0000      -8.083103      -219.9524
  78   2.0000      -8.071022      -219.6237
  79   2.0000      -8.063342      -219.4147
  80   2.0000      -6.638349      -180.6387
  81   2.0000      -6.623684      -180.2396
  82   2.0000      -6.623468      -180.2337
  83   2.0000      -6.621781      -180.1878
  84   2.0000      -6.607209      -179.7913
  85   2.0000      -6.607050      -179.7870
  86   2.0000      -6.062784      -164.9767
  87   2.0000      -6.058612      -164.8632
  88   2.0000      -6.054683      -164.7563
  89   2.0000      -6.052784      -164.7046
  90   2.0000      -6.048499      -164.5880
  91   2.0000      -6.044371      -164.4757
  92   2.0000      -6.040654      -164.3745
  93   2.0000      -6.036251      -164.2547
  94   2.0000      -6.033052      -164.1677
  95   2.0000      -6.032496      -164.1526
  96   2.0000      -6.028757      -164.0508
  97   2.0000      -6.024557      -163.9365
  98   2.0000      -2.754211       -74.9459
  99   2.0000      -2.750135       -74.8350
 100   2.0000      -2.749895       -74.8284
 101   2.0000      -2.738283       -74.5125
 102   2.0000      -2.738271       -74.5121
 103   2.0000      -2.737595       -74.4937
 104   2.0000      -2.733591       -74.3848
 105   2.0000      -2.733456       -74.3811
 106   2.0000      -2.721876       -74.0660
 107   2.0000      -2.721846       -74.0652
 108   2.0000      -1.326339       -36.0915
 109   2.0000      -1.311181       -35.6790
 110   2.0000      -1.149057       -31.2674
 111   2.0000      -1.145967       -31.1833
 112   2.0000      -1.130349       -30.7584
 113   2.0000      -1.112821       -30.2814
 114   2.0000      -1.105497       -30.0821
 115   2.0000      -1.064438       -28.9648
 116   2.0000      -1.039220       -28.2786
 117   2.0000      -1.029382       -28.0109
 118   2.0000      -1.021951       -27.8087
 119   2.0000      -1.014205       -27.5979
 120   2.0000      -1.013293       -27.5731
 121   2.0000      -1.006647       -27.3922
 122   2.0000      -1.004963       -27.3464
 123   2.0000      -0.993578       -27.0366
 124   2.0000      -0.989993       -26.9391
 125   2.0000      -0.979400       -26.6508
 126   2.0000      -0.957538       -26.0559
 127   2.0000      -0.934461       -25.4280
 128   2.0000      -0.930822       -25.3290
 129   2.0000      -0.925728       -25.1903
 130   2.0000      -0.922119       -25.0921
 131   2.0000      -0.910040       -24.7634
 132   2.0000      -0.905522       -24.6405
 133   2.0000      -0.899333       -24.4721
 134   2.0000      -0.899217       -24.4689
 135   2.0000      -0.894994       -24.3540
 136   2.0000      -0.884959       -24.0810
 137   2.0000      -0.876754       -23.8577
 138   2.0000      -0.870669       -23.6921
 139   2.0000      -0.865437       -23.5497
 140   2.0000      -0.846138       -23.0246
 141   2.0000      -0.842156       -22.9162
 142   2.0000      -0.835182       -22.7265
 143   2.0000      -0.821817       -22.3628
 144   2.0000      -0.818170       -22.2635
 145   2.0000      -0.802919       -21.8485
 146   2.0000      -0.787801       -21.4372
 147   2.0000      -0.784092       -21.3362
 148   2.0000      -0.777483       -21.1564
 149   2.0000      -0.772589       -21.0232
 150   2.0000      -0.763534       -20.7768
 151   2.0000      -0.755033       -20.5455
 152   2.0000      -0.742922       -20.2159
 153   2.0000      -0.734223       -19.9792
 154   2.0000      -0.720105       -19.5951
 155   2.0000      -0.708783       -19.2870
 156   2.0000      -0.705825       -19.2065
 157   2.0000      -0.702655       -19.1202
 158   2.0000      -0.691982       -18.8298
 159   2.0000      -0.688810       -18.7435
 160   2.0000      -0.678763       -18.4701
 161   2.0000      -0.678341       -18.4586
 162   2.0000      -0.667764       -18.1708
 163   2.0000      -0.659188       -17.9374
 164   2.0000      -0.651200       -17.7201
 165   2.0000      -0.646509       -17.5924
 166   2.0000      -0.643616       -17.5137
 167   2.0000      -0.637249       -17.3404
 168   2.0000      -0.635469       -17.2920
 169   2.0000      -0.630629       -17.1603
 170   2.0000      -0.622019       -16.9260
 171   2.0000      -0.621186       -16.9033
 172   2.0000      -0.619825       -16.8663
 173   2.0000      -0.617019       -16.7899
 174   2.0000      -0.614716       -16.7273
 175   2.0000      -0.611942       -16.6518
 176   2.0000      -0.607643       -16.5348
 177   2.0000      -0.599770       -16.3206
 178   2.0000      -0.597233       -16.2515
 179   2.0000      -0.591400       -16.0928
 180   2.0000      -0.586510       -15.9597
 181   2.0000      -0.584809       -15.9135
 182   2.0000      -0.574541       -15.6341
 183   2.0000      -0.570272       -15.5179
 184   2.0000      -0.565943       -15.4001
 185   2.0000      -0.564908       -15.3719
 186   2.0000      -0.559522       -15.2254
 187   2.0000      -0.556096       -15.1322
 188   2.0000      -0.554474       -15.0880
 189   2.0000      -0.550764       -14.9871
 190   2.0000      -0.547922       -14.9097
 191   2.0000      -0.539704       -14.6861
 192   2.0000      -0.538479       -14.6528
 193   2.0000      -0.537237       -14.6190
 194   2.0000      -0.533211       -14.5094
 195   2.0000      -0.528941       -14.3932
 196   2.0000      -0.523906       -14.2562
 197   2.0000      -0.523009       -14.2318
 198   2.0000      -0.522298       -14.2124
 199   2.0000      -0.519794       -14.1443
 200   2.0000      -0.515099       -14.0166
 201   2.0000      -0.511019       -13.9055
 202   2.0000      -0.507804       -13.8180
 203   2.0000      -0.505977       -13.7683
 204   2.0000      -0.505585       -13.7577
 205   2.0000      -0.501606       -13.6494
 206   2.0000      -0.499942       -13.6041
 207   2.0000      -0.495437       -13.4815
 208   2.0000      -0.491568       -13.3762
 209   2.0000      -0.489628       -13.3235
 210   2.0000      -0.486738       -13.2448
 211   2.0000      -0.483710       -13.1624
 212   2.0000      -0.480233       -13.0678
 213   2.0000      -0.476934       -12.9780
 214   2.0000      -0.474736       -12.9182
 215   2.0000      -0.472356       -12.8535
 216   2.0000      -0.470938       -12.8149
 217   2.0000      -0.468963       -12.7611
 218   2.0000      -0.465336       -12.6624
 219   2.0000      -0.462523       -12.5859
 220   2.0000      -0.460640       -12.5347
 221   2.0000      -0.459397       -12.5008
 222   2.0000      -0.456271       -12.4158
 223   2.0000      -0.453672       -12.3450
 224   2.0000      -0.453086       -12.3291
 225   2.0000      -0.448355       -12.2004
 226   2.0000      -0.446401       -12.1472
 227   2.0000      -0.444762       -12.1026
 228   2.0000      -0.441693       -12.0191
 229   2.0000      -0.438718       -11.9381
 230   2.0000      -0.437673       -11.9097
 231   2.0000      -0.435802       -11.8588
 232   2.0000      -0.434270       -11.8171
 233   2.0000      -0.431796       -11.7498
 234   2.0000      -0.429632       -11.6909
 235   2.0000      -0.425202       -11.5703
 236   2.0000      -0.423053       -11.5119
 237   2.0000      -0.419641       -11.4190
 238   2.0000      -0.416605       -11.3364
 239   2.0000      -0.403790       -10.9877
 240   2.0000      -0.401231       -10.9180
 241   2.0000      -0.399541       -10.8721
 242   2.0000      -0.396885       -10.7998
 243   2.0000      -0.392846       -10.6899
 244   2.0000      -0.387873       -10.5546
 245   2.0000      -0.384529       -10.4636
 246   2.0000      -0.383946       -10.4477
 247   2.0000      -0.379593       -10.3293
 248   2.0000      -0.377963       -10.2849
 249   2.0000      -0.375692       -10.2231
 250   2.0000      -0.369055       -10.0425
 251   2.0000      -0.368007       -10.0140
 252   2.0000      -0.367443        -9.9986
 253   2.0000      -0.362210        -9.8562
 254   2.0000      -0.359699        -9.7879
 255   2.0000      -0.356354        -9.6969
 256   2.0000      -0.351505        -9.5649
 257   2.0000      -0.342175        -9.3110
 258   2.0000      -0.339877        -9.2485
 259   2.0000      -0.328508        -8.9392
 260   2.0000      -0.322832        -8.7847
 261   2.0000      -0.320271        -8.7150
 262   2.0000      -0.306647        -8.3443
 263   2.0000      -0.306248        -8.3334
 264   2.0000      -0.286981        -7.8092
 265   2.0000      -0.283254        -7.7077
 266   2.0000      -0.273192        -7.4339
 267   2.0000      -0.260227        -7.0811
 268   0.0000      -0.106413        -2.8957
 269   0.0000      -0.075738        -2.0609
 270   0.0000      -0.074190        -2.0188
 271   0.0000      -0.060025        -1.6334
 272   0.0000      -0.040917        -1.1134

MULLIKEN ATOMIC CHARGES
-----------------------
   0 C :    0.277856
   1 C :   -0.337685
   2 C :   -0.182951
   3 N :    0.156511
   4 C :   -0.160349
   5 N :    0.129408
   6 C :    0.014795
   7 C :   -0.017350
   8 C :   -0.063767
   9 C :    0.113214
  10 C :   -0.091677
  11 C :   -0.015412
  12 S :    0.192566
  13 C :   -0.124002
  14 C :    0.043489
  15 Br:    0.033207
  16 C :    0.155064
  17 O :   -0.143616
  18 C :   -0.105975
  19 C :    0.043840
  20 C :   -0.099443
  21 S :    0.137630
  22 C :   -0.163732
  23 C :    0.179091
  24 C :    0.056504
  25 N :    0.255525
  26 O :   -0.229045
  27 O :   -0.240360
  28 N :    0.014808
  29 C :   -0.111826
  30 S :    0.173497
  31 C :    0.006095
  32 N :    0.274451
  33 O :   -0.240735
  34 O :   -0.267183
  35 C :    0.023065
  36 C :    0.108956
  37 C :   -0.045738
  38 C :    0.056954
  39 C :   -0.014433
  40 C :   -0.181879
  41 C :    0.074620
  42 C :    0.198217
  43 N :   -0.125725
  44 C :    0.099750
  45 C :   -0.021744
  46 C :    0.049030
  47 C :   -0.165285
  48 C :    0.285693
  49 C :   -0.388932
  50 C :   -0.145265
  51 N :    0.123849
  52 C :   -0.181552
  53 N :    0.148272
  54 C :   -0.008018
  55 C :    0.010113
  56 C :    0.131665
  57 O :   -0.157307
  58 C :   -0.077328
  59 C :    0.113251
  60 C :   -0.091048
  61 C :   -0.026665
  62 S :    0.180716
  63 C :   -0.125388
  64 C :    0.039673
  65 Br:    0.017564
  66 H :   -0.004888
  67 H :   -0.001919
  68 H :    0.000188
  69 H :    0.027823
  70 H :    0.024746
  71 H :    0.152436
  72 H :    0.015250
  73 H :    0.004725
  74 H :   -0.010973
  75 H :   -0.027719
  76 H :    0.004128
  77 H :    0.010282
  78 H :    0.048896
  79 H :    0.023879
  80 H :    0.012146
  81 H :    0.140632
  82 H :    0.031848
  83 H :   -0.012396
  84 H :    0.024950
  85 H :   -0.013081
  86 H :   -0.012956
  87 H :   -0.005516
Sum of atomic charges:   -0.0000000

LOEWDIN ATOMIC CHARGES
----------------------
   0 C :    0.082025
   1 C :   -0.149662
   2 C :   -0.021684
   3 N :   -0.047386
   4 C :   -0.001086
   5 N :   -0.065189
   6 C :   -0.024145
   7 C :   -0.049476
   8 C :    0.025155
   9 C :   -0.029637
  10 C :   -0.144095
  11 C :   -0.006974
  12 S :    0.437985
  13 C :   -0.269111
  14 C :   -0.069093
  15 Br:    0.144257
  16 C :    0.084771
  17 O :   -0.130922
  18 C :   -0.095809
  19 C :    0.049751
  20 C :   -0.189262
  21 S :    0.447843
  22 C :   -0.087671
  23 C :   -0.104205
  24 C :    0.035886
  25 N :    0.286104
  26 O :   -0.194730
  27 O :   -0.205800
  28 N :    0.026934
  29 C :   -0.126502
  30 S :    0.459572
  31 C :   -0.199936
  32 N :    0.273646
  33 O :   -0.206838
  34 O :   -0.232223
  35 C :    0.018662
  36 C :   -0.078921
  37 C :   -0.026960
  38 C :   -0.018190
  39 C :   -0.057763
  40 C :   -0.022425
  41 C :   -0.070734
  42 C :    0.043425
  43 N :    0.051133
  44 C :    0.114426
  45 C :   -0.125279
  46 C :    0.082174
  47 C :   -0.141941
  48 C :    0.072439
  49 C :   -0.180074
  50 C :   -0.005053
  51 N :   -0.076214
  52 C :   -0.000705
  53 N :   -0.064437
  54 C :   -0.019954
  55 C :   -0.049575
  56 C :    0.080345
  57 O :   -0.158315
  58 C :    0.018978
  59 C :   -0.035908
  60 C :   -0.146659
  61 C :   -0.017727
  62 S :    0.428056
  63 C :   -0.274536
  64 C :   -0.070430
  65 Br:    0.131879
  66 H :    0.043279
  67 H :    0.042019
  68 H :    0.040452
  69 H :    0.044019
  70 H :    0.047527
  71 H :    0.096323
  72 H :    0.047430
  73 H :    0.032407
  74 H :    0.022700
  75 H :    0.023130
  76 H :    0.012784
  77 H :    0.023978
  78 H :    0.040530
  79 H :    0.032341
  80 H :    0.027089
  81 H :    0.092663
  82 H :    0.037763
  83 H :    0.029875
  84 H :    0.046325
  85 H :    0.039850
  86 H :    0.037302
  87 H :    0.038003

  Mayer bond orders larger than 0.100000
B(  0-C ,  1-C ) :   1.6276 B(  0-C ,  6-C ) :   1.0217 B(  0-C , 18-C ) :   1.0605
B(  1-C ,  2-C ) :   1.1280 B(  1-C ,  4-C ) :   1.1595 B(  2-C ,  3-N ) :   2.9850
B(  4-C ,  5-N ) :   2.9008 B(  6-C ,  7-C ) :   1.2670 B(  6-C , 11-C ) :   1.4072
B(  7-C ,  8-C ) :   1.4313 B(  7-C , 16-C ) :   0.9435 B(  8-C ,  9-C ) :   1.2446
B(  8-C , 66-H ) :   1.0161 B(  9-C , 10-C ) :   1.3012 B(  9-C , 14-C ) :   1.1696
B( 10-C , 11-C ) :   1.3312 B( 10-C , 12-S ) :   1.0880 B( 11-C , 67-H ) :   0.9819
B( 12-S , 13-C ) :   1.0890 B( 13-C , 14-C ) :   1.6133 B( 13-C , 15-Br) :   1.0244
B( 14-C , 68-H ) :   0.9995 B( 16-C , 17-O ) :   2.2092 B( 16-C , 18-C ) :   0.9400
B( 18-C , 19-C ) :   1.6184 B( 19-C , 20-C ) :   1.1862 B( 19-C , 69-H ) :   0.9417
B( 20-C , 21-S ) :   1.0411 B( 20-C , 24-C ) :   1.4421 B( 21-S , 22-C ) :   1.1786
B( 22-C , 23-C ) :   1.3566 B( 22-C , 28-N ) :   1.2270 B( 23-C , 24-C ) :   1.2978
B( 23-C , 25-N ) :   0.9257 B( 24-C , 70-H ) :   0.9898 B( 25-N , 26-O ) :   1.5249
B( 25-N , 27-O ) :   1.5363 B( 26-O , 27-O ) :   0.2590 B( 28-N , 29-C ) :   1.0911
B( 28-N , 71-H ) :   0.8947 B( 29-C , 30-S ) :   1.1335 B( 29-C , 36-C ) :   1.4356
B( 30-S , 31-C ) :   1.0966 B( 31-C , 32-N ) :   0.9559 B( 31-C , 35-C ) :   1.4802
B( 32-N , 33-O ) :   1.5515 B( 32-N , 34-O ) :   1.5147 B( 33-O , 34-O ) :   0.2610
B( 35-C , 36-C ) :   1.2309 B( 35-C , 72-H ) :   1.0061 B( 36-C , 37-C ) :   1.0365
B( 37-C , 38-C ) :   1.7480 B( 37-C , 73-H ) :   0.9606 B( 38-C , 39-C ) :   1.1222
B( 38-C , 74-H ) :   0.9513 B( 39-C , 40-C ) :   1.7578 B( 39-C , 75-H ) :   0.9767
B( 40-C , 41-C ) :   1.0699 B( 40-C , 42-C ) :   1.0467 B( 41-C , 76-H ) :   0.9351
B( 41-C , 77-H ) :   0.9342 B( 41-C , 78-H ) :   0.9154 B( 42-C , 43-N ) :   0.9907
B( 42-C , 79-H ) :   0.9187 B( 42-C , 80-H ) :   0.9413 B( 43-N , 44-C ) :   1.3695
B( 43-N , 81-H ) :   0.9315 B( 44-C , 45-C ) :   1.4298 B( 44-C , 82-H ) :   0.9570
B( 45-C , 46-C ) :   1.3333 B( 45-C , 83-H ) :   0.9578 B( 46-C , 47-C ) :   1.4857
B( 46-C , 84-H ) :   0.9324 B( 47-C , 48-C ) :   1.1132 B( 47-C , 56-C ) :   0.9755
B( 48-C , 49-C ) :   1.5503 B( 48-C , 54-C ) :   1.0030 B( 49-C , 50-C ) :   1.1467
B( 49-C , 52-C ) :   1.2017 B( 50-C , 51-N ) :   2.9106 B( 52-C , 53-N ) :   2.9100
B( 54-C , 55-C ) :   1.2813 B( 54-C , 61-C ) :   1.4205 B( 55-C , 56-C ) :   0.9126
B( 55-C , 58-C ) :   1.4362 B( 56-C , 57-O ) :   2.2492 B( 58-C , 59-C ) :   1.2404
B( 58-C , 85-H ) :   1.0163 B( 59-C , 60-C ) :   1.3188 B( 59-C , 64-C ) :   1.1633
B( 60-C , 61-C ) :   1.3210 B( 60-C , 62-S ) :   1.0819 B( 61-C , 86-H ) :   0.9824
B( 62-S , 63-C ) :   1.0871 B( 63-C , 64-C ) :   1.6200 B( 63-C , 65-Br) :   1.0147
B( 64-C , 87-H ) :   0.9994

-----------------------------------------------------------------------------
         ABSORPTION SPECTRUM VIA TRANSITION ELECTRIC DIPOLE MOMENTS
-----------------------------------------------------------------------------
State   Energy  Wavelength   fosc         T2         TX        TY        TZ
        (cm-1)    (nm)                  (au**2)     (au)      (au)      (au)
-----------------------------------------------------------------------------
   0   19214.5    520.4   0.036351280   0.62283   0.46247   0.63949  -0.00061
   1   21107.6    473.8   0.015901456   0.24801  -0.46427  -0.02707   0.17814
   2   21464.3    465.9   1.056015440  16.19679  -2.90276  -2.68397  -0.75307
   3   22559.6    443.3   0.074174426   1.08243   0.82824   0.53725   0.32835
   4   25094.1    398.5   0.077435466   1.01588  -0.02235   0.43191  -0.91041
   5   26401.0    378.8   0.058995368   0.73565  -0.34780  -0.77910  -0.08767
   6   26558.9    376.5   0.038339389   0.47524  -0.14374   0.02568   0.67373
   7   27744.8    360.4   0.479000241   5.68369   1.76059   1.11146  -1.16133
   8   27969.7    357.5   0.013790453   0.16232   0.02255  -0.11643   0.38504
   9   28189.3    354.7   0.017552011   0.20498   0.10336   0.11933  -0.42434
  10   28415.5    351.9   0.110620855   1.28161   1.07071   0.32332  -0.17509
  11   29130.1    343.3   0.058339429   0.65932  -0.38049  -0.66471   0.26965
  12   29782.2    335.8   0.053326437   0.58947  -0.20811  -0.29528   0.67748
  13   29898.2    334.5   0.115651928   1.27346   0.23675   1.07462  -0.25020
  14   30040.6    332.9   0.387603748   4.24771  -0.29502   2.01345   0.32666
  15   30244.3    330.6   0.035389745   0.38522   0.09498   0.56251   0.24449
  16   31135.8    321.2   0.009730407   0.10288   0.07064  -0.27447   0.15021
  17   31312.3    319.4   0.017690353   0.18599  -0.22480  -0.31065   0.19737
  18   31631.6    316.1   0.262941528   2.73661   0.28188  -1.44724   0.75011
  19   32157.6    311.0   0.057881784   0.59256  -0.54161  -0.49165  -0.23978
  20   32349.9    309.1   0.313603385   3.19141  -0.61020  -1.66715   0.19916
  21   32431.5    308.3   0.088484936   0.89821  -0.87541  -0.31532  -0.18011
  22   32519.4    307.5   0.014763328   0.14946   0.15943  -0.14369   0.32155
  23   32808.8    304.8   0.454968376   4.56526  -1.52967  -0.02641   1.49153
  24   33139.6    301.8   0.120775408   1.19979   0.25546   0.14589   1.05511
  25   34809.7    287.3   0.000254368   0.00241   0.02686   0.02995  -0.02806
  26   35120.9    284.7   0.231692352   2.17181   0.52652  -1.27704   0.51358
  27   35155.2    284.5   0.010188768   0.09541   0.12032  -0.25973   0.11610
  28   35616.3    280.8   0.015350038   0.14189  -0.04070   0.28766   0.23975
  29   36071.1    277.2   0.016674427   0.15218   0.01849   0.33976   0.19080
  30   36212.9    276.1   0.007894016   0.07176   0.09148   0.22057   0.12143
  31   36253.0    275.8   0.069333355   0.62961   0.11499  -0.78300   0.05744
  32   36651.6    272.8   0.118650783   1.06575   0.42992   0.63367   0.69237
  33   36727.7    272.3   0.079428353   0.71196  -0.38855  -0.56432  -0.49248
  34   36923.4    270.8   0.018828838   0.16788  -0.06229  -0.32502  -0.24158
  35   37407.2    267.3   0.000970242   0.00854  -0.06860  -0.06107  -0.01014
  36   37816.9    264.4   0.101432706   0.88301  -0.79569  -0.46428   0.18529
  37   38347.3    260.8   0.037751919   0.32410   0.50274   0.11114   0.24289
  38   38491.4    259.8   0.005420442   0.04636  -0.16517  -0.08399  -0.10966
  39   38753.9    258.0   0.243703099   2.07024   0.69204   0.83731   0.94352
  40   39182.8    255.2   0.098210993   0.82516   0.90783   0.02166   0.02339
  41   39450.4    253.5   0.101354596   0.84580  -0.79247  -0.14440  -0.44378
  42   39697.7    251.9   0.073474739   0.60932  -0.29232   0.04754  -0.72223
  43   39997.9    250.0   0.047779580   0.39326   0.57681  -0.24285  -0.03963

FINAL SINGLE POINT ENERGY     -9392.079499929690

DIPOLE MOMENT
-------------
                                X             Y             Z
Electronic contribution:     73.82353     -28.47114     -59.52069
Nuclear contribution   :    -71.06753      31.61505      59.09506
                        -----------------------------------------
Total Dipole Moment    :      2.75601       3.14391      -0.42563
                        -----------------------------------------
Magnitude (a.u.)       :      4.20249
Magnitude (Debye)      :     10.68187

Rotational constants in cm-1:     0.001158     0.000316     0.000297
Rotational constants in MHz :    34.710038     9.480042     8.891265

                             ****ORCA TERMINATED NORMALLY****
TOTAL RUN TIME: 0 days 0 hours 9 minutes 14 seconds 325 msec
