                         Program Version 4.2.0 -  RELEASE  -
|  1> # ORCA input file
|  2> # SCF done       -191.833147446576          0.000457816594
|  3> ! CAM-B3LYP def2-SVP def2/J RIJCOSX Grid4 TightSCF
|  4> %maxcore 5000
|  5> %tddft
|  6>     Mode sTDDFT
|  7>     Ethresh 5.0
|  8>     maxcore 5000
|  9> end
| 10>
| 11> %pal
| 12>   nprocs 6
| 13>   end
| 14> * xyz 0 1
| 15>    C       -2.11083        -1.00185         0.25560
| 16>    C       -2.63743        -2.25969         0.11593
| 17>    C       -1.86366        -3.43649         0.05173
| 18>    N       -1.28250        -4.42520        -0.00211
| 19>    C       -4.01225        -2.54403        -0.02733
| 20>    N       -5.10610        -2.85680        -0.18121
| 21>    C       -0.69223        -0.66704         0.27662
| 22>    C       -0.55936         0.74274         0.29216
| 23>    C        0.66190         1.37101         0.30413
| 24>    C        1.80860         0.57003         0.29415
| 25>    C        1.66620        -0.83775         0.28406
| 26>    C        0.43080        -1.47357         0.27641
| 27>    S        3.21004        -1.63592         0.28351
| 28>    C        4.01384        -0.08863         0.29279
| 29>    C        3.17253         0.97217         0.29768
| 30>   Br        5.88813        -0.01896         0.29550
| 31>    C       -1.89780         1.36662         0.32373
| 32>    O       -2.12888         2.54914         0.46108
| 33>    C       -2.86137         0.23708         0.30272
| 34>    C       -4.20309         0.36236         0.50692
| 35>    C       -4.93813         1.57505         0.36894
| 36>    C       -6.03242         1.85163         1.21694
| 37>    C       -6.71462         3.12151         1.18374
| 38>    N       -7.75255         3.33787         2.00923
| 39>    C       -8.09993         2.40478         2.86134
| 40>    C       -7.38578         1.16389         2.92856
| 41>    N       -6.38866         0.91723         2.11508
| 42>    C       -7.76830         0.18454         3.87888
| 43>    N       -8.10456        -0.57372         4.66907
| 44>    C       -9.20476         2.63531         3.71809
| 45>    N      -10.08739         2.79744         4.43039
| 46>    C       -6.34652         4.14544         0.28128
| 47>    C       -5.36049         3.80543        -0.66401
| 48>    C       -4.66064         2.54063        -0.61828
| 49>    N       -3.78483         2.41993        -1.61412
| 50>    S       -3.78852         3.76985        -2.47731
| 51>    N       -4.91830         4.57036        -1.66877
| 52>    C       -6.91592         5.47741         0.34317
| 53>    C       -7.12843         6.20369        -0.83930
| 54>    C       -7.59785         7.49092        -0.76759
| 55>    C       -7.90020         8.06885         0.48029
| 56>    C       -7.70645         7.35319         1.65413
| 57>    C       -7.21145         6.06887         1.57903
| 58>    C       -8.41993         9.39771         0.26127
| 59>    C       -8.45409         9.64261        -1.12323
| 60>    C       -7.87713         8.46807        -1.88688
| 61>    C       -6.56895         8.95569        -2.55398
| 62>    C       -5.73479         7.88669        -3.24853
| 63>    C       -8.86507         7.90305        -2.91762
| 64>    C      -10.20797         7.54010        -2.29361
| 65>    C       -8.92664        10.83485        -1.61186
| 66>    C       -9.37526        11.82247        -0.71971
| 67>    C       -9.31410        11.56754         0.65907
| 68>    C       -8.85082        10.36830         1.15604
| 69>    C       -9.89057        13.09451        -1.15940
| 70>    C      -10.23603        13.42551        -2.42076
| 71>    C      -10.70726        14.72155        -2.78848
| 72>    O      -10.58679        15.74933        -1.90606
| 73>    C      -11.00892        16.86711        -2.50895
| 74>    C      -11.42257        16.61418        -3.77736
| 75>    C      -11.24776        15.21633        -3.97440
| 76>    N      -11.59412        14.56116        -5.13080
| 77>    C      -11.88810        13.25024        -5.28066
| 78>    C      -12.21683        12.68553        -6.47653
| 79>    C      -12.57491        11.33382        -6.71823
| 80>    C      -12.87971        11.06083        -8.01284
| 81>    C      -12.78008        12.17459        -8.88507
| 82>    S      -12.27477        13.59668        -7.99308
| 83>    C      -13.02449        12.21874       -10.23616
| 84>    C      -13.43705        11.14784       -11.07618
| 85>    C      -13.60164        11.48852       -12.37361
| 86>    C      -13.32997        12.86657       -12.66599
| 87>    S      -12.85323        13.69239       -11.17428
| 88>    C      -13.40570        13.48644       -13.85162
| 89>    H        0.73110         2.44749         0.31864
| 90>    H        0.37376        -2.54929         0.27661
| 91>    H        3.49800         1.99644         0.30468
| 92>    H       -4.77630        -0.48808         0.85418
| 93>    H       -6.94414         5.72463        -1.78616
| 94>    H       -7.93105         7.79574         2.61273
| 95>    H       -7.02423         5.51699         2.48602
| 96>    H       -5.95800         9.42895        -1.78080
| 97>    H       -6.83550         9.72804        -3.27986
| 98>    H       -5.38065         7.14265        -2.54117
| 99>    H       -4.86740         8.35573        -3.70866
|100>    H       -6.30080         7.38900        -4.03157
|101>    H       -8.43281         7.01147        -3.37284
|102>    H       -9.01622         8.64437        -3.70585
|103>    H      -10.07666         6.79494        -1.51232
|104>    H      -10.87589         7.13178        -3.04892
|105>    H      -10.67933         8.41619        -1.85308
|106>    H       -8.94157        11.02036        -2.67524
|107>    H       -9.65081        12.33384         1.34247
|108>    H       -8.81979        10.18942         2.22016
|109>    H      -10.03463        13.83721        -0.38592
|110>    H      -10.14303        12.71306        -3.22588
|111>    H      -10.97143        17.77494        -1.94038
|112>    H      -11.81083        17.31438        -4.48779
|113>    H      -11.74193        15.14834        -5.94308
|114>    H      -11.88748        12.64477        -4.38775
|115>    H      -12.59807        10.61270        -5.92041
|116>    H      -13.17581        10.09202        -8.37200
|117>    H      -13.59790        10.15924       -10.68392
|118>    H      -13.90920        10.81421       -13.15295
|119>    H      -13.69944        12.94658       -14.73433
|120>    H      -13.17758        14.53080       -13.96045
|121> *
|122>
|123>                          ****END OF INPUT****

CARTESIAN COORDINATES (ANGSTROEM)
---------------------------------
  C     -2.110830   -1.001850    0.255600
  C     -2.637430   -2.259690    0.115930
  C     -1.863660   -3.436490    0.051730
  N     -1.282500   -4.425200   -0.002110
  C     -4.012250   -2.544030   -0.027330
  N     -5.106100   -2.856800   -0.181210
  C     -0.692230   -0.667040    0.276620
  C     -0.559360    0.742740    0.292160
  C      0.661900    1.371010    0.304130
  C      1.808600    0.570030    0.294150
  C      1.666200   -0.837750    0.284060
  C      0.430800   -1.473570    0.276410
  S      3.210040   -1.635920    0.283510
  C      4.013840   -0.088630    0.292790
  C      3.172530    0.972170    0.297680
  Br     5.888130   -0.018960    0.295500
  C     -1.897800    1.366620    0.323730
  O     -2.128880    2.549140    0.461080
  C     -2.861370    0.237080    0.302720
  C     -4.203090    0.362360    0.506920
  C     -4.938130    1.575050    0.368940
  C     -6.032420    1.851630    1.216940
  C     -6.714620    3.121510    1.183740
  N     -7.752550    3.337870    2.009230
  C     -8.099930    2.404780    2.861340
  C     -7.385780    1.163890    2.928560
  N     -6.388660    0.917230    2.115080
  C     -7.768300    0.184540    3.878880
  N     -8.104560   -0.573720    4.669070
  C     -9.204760    2.635310    3.718090
  N    -10.087390    2.797440    4.430390
  C     -6.346520    4.145440    0.281280
  C     -5.360490    3.805430   -0.664010
  C     -4.660640    2.540630   -0.618280
  N     -3.784830    2.419930   -1.614120
  S     -3.788520    3.769850   -2.477310
  N     -4.918300    4.570360   -1.668770
  C     -6.915920    5.477410    0.343170
  C     -7.128430    6.203690   -0.839300
  C     -7.597850    7.490920   -0.767590
  C     -7.900200    8.068850    0.480290
  C     -7.706450    7.353190    1.654130
  C     -7.211450    6.068870    1.579030
  C     -8.419930    9.397710    0.261270
  C     -8.454090    9.642610   -1.123230
  C     -7.877130    8.468070   -1.886880
  C     -6.568950    8.955690   -2.553980
  C     -5.734790    7.886690   -3.248530
  C     -8.865070    7.903050   -2.917620
  C    -10.207970    7.540100   -2.293610
  C     -8.926640   10.834850   -1.611860
  C     -9.375260   11.822470   -0.719710
  C     -9.314100   11.567540    0.659070
  C     -8.850820   10.368300    1.156040
  C     -9.890570   13.094510   -1.159400
  C    -10.236030   13.425510   -2.420760
  C    -10.707260   14.721550   -2.788480
  O    -10.586790   15.749330   -1.906060
  C    -11.008920   16.867110   -2.508950
  C    -11.422570   16.614180   -3.777360
  C    -11.247760   15.216330   -3.974400
  N    -11.594120   14.561160   -5.130800
  C    -11.888100   13.250240   -5.280660
  C    -12.216830   12.685530   -6.476530
  C    -12.574910   11.333820   -6.718230
  C    -12.879710   11.060830   -8.012840
  C    -12.780080   12.174590   -8.885070
  S    -12.274770   13.596680   -7.993080
  C    -13.024490   12.218740  -10.236160
  C    -13.437050   11.147840  -11.076180
  C    -13.601640   11.488520  -12.373610
  C    -13.329970   12.866570  -12.665990
  S    -12.853230   13.692390  -11.174280
  C    -13.405700   13.486440  -13.851620
  H      0.731100    2.447490    0.318640
  H      0.373760   -2.549290    0.276610
  H      3.498000    1.996440    0.304680
  H     -4.776300   -0.488080    0.854180
  H     -6.944140    5.724630   -1.786160
  H     -7.931050    7.795740    2.612730
  H     -7.024230    5.516990    2.486020
  H     -5.958000    9.428950   -1.780800
  H     -6.835500    9.728040   -3.279860
  H     -5.380650    7.142650   -2.541170
  H     -4.867400    8.355730   -3.708660
  H     -6.300800    7.389000   -4.031570
  H     -8.432810    7.011470   -3.372840
  H     -9.016220    8.644370   -3.705850
  H    -10.076660    6.794940   -1.512320
  H    -10.875890    7.131780   -3.048920
  H    -10.679330    8.416190   -1.853080
  H     -8.941570   11.020360   -2.675240
  H     -9.650810   12.333840    1.342470
  H     -8.819790   10.189420    2.220160
  H    -10.034630   13.837210   -0.385920
  H    -10.143030   12.713060   -3.225880
  H    -10.971430   17.774940   -1.940380
  H    -11.810830   17.314380   -4.487790
  H    -11.741930   15.148340   -5.943080
  H    -11.887480   12.644770   -4.387750
  H    -12.598070   10.612700   -5.920410
  H    -13.175810   10.092020   -8.372000
  H    -13.597900   10.159240  -10.683920
  H    -13.909200   10.814210  -13.152950
  H    -13.699440   12.946580  -14.734330
  H    -13.177580   14.530800  -13.960450

 Total Charge           Charge          ....    0
 Multiplicity           Mult            ....    1
 Number of Electrons    NEL             ....  558
 Basis Dimension        Dim             .... 1230

ORBITAL ENERGIES
----------------

  NO   OCC          E(Eh)            E(eV)
   0   2.0000    -482.888528    -13140.0649
   1   2.0000     -89.052407     -2423.2392
   2   2.0000     -88.978559     -2421.2297
   3   2.0000     -88.937393     -2420.1095
   4   2.0000     -88.925368     -2419.7823
   5   2.0000     -62.566224     -1702.5135
   6   2.0000     -56.400181     -1534.7269
   7   2.0000     -56.397456     -1534.6528
   8   2.0000     -56.397425     -1534.6520
   9   2.0000     -19.289746      -524.9007
  10   2.0000     -19.220102      -523.0056
  11   2.0000     -14.467880      -393.6910
  12   2.0000     -14.467128      -393.6706
  13   2.0000     -14.463206      -393.5638
  14   2.0000     -14.460962      -393.5028
  15   2.0000     -14.455086      -393.3429
  16   2.0000     -14.433728      -392.7617
  17   2.0000     -14.430923      -392.6854
  18   2.0000     -14.418482      -392.3468
  19   2.0000     -14.416374      -392.2895
  20   2.0000     -10.389535      -282.7136
  21   2.0000     -10.383842      -282.5587
  22   2.0000     -10.371342      -282.2186
  23   2.0000     -10.362166      -281.9689
  24   2.0000     -10.357946      -281.8540
  25   2.0000     -10.354078      -281.7488
  26   2.0000     -10.348396      -281.5942
  27   2.0000     -10.348044      -281.5846
  28   2.0000     -10.346606      -281.5455
  29   2.0000     -10.343586      -281.4633
  30   2.0000     -10.332963      -281.1742
  31   2.0000     -10.331714      -281.1402
  32   2.0000     -10.329173      -281.0711
  33   2.0000     -10.326084      -280.9870
  34   2.0000     -10.325724      -280.9772
  35   2.0000     -10.324428      -280.9420
  36   2.0000     -10.324243      -280.9369
  37   2.0000     -10.322533      -280.8904
  38   2.0000     -10.320761      -280.8422
  39   2.0000     -10.320686      -280.8401
  40   2.0000     -10.318572      -280.7826
  41   2.0000     -10.316707      -280.7319
  42   2.0000     -10.311645      -280.5941
  43   2.0000     -10.311331      -280.5856
  44   2.0000     -10.308973      -280.5214
  45   2.0000     -10.305272      -280.4207
  46   2.0000     -10.304630      -280.4032
  47   2.0000     -10.302127      -280.3351
  48   2.0000     -10.299897      -280.2744
  49   2.0000     -10.295938      -280.1667
  50   2.0000     -10.294710      -280.1333
  51   2.0000     -10.294444      -280.1261
  52   2.0000     -10.293943      -280.1124
  53   2.0000     -10.293061      -280.0884
  54   2.0000     -10.283867      -279.8383
  55   2.0000     -10.283588      -279.8307
  56   2.0000     -10.283537      -279.8293
  57   2.0000     -10.283320      -279.8234
  58   2.0000     -10.282385      -279.7979
  59   2.0000     -10.281729      -279.7801
  60   2.0000     -10.280324      -279.7418
  61   2.0000     -10.278300      -279.6868
  62   2.0000     -10.277331      -279.6604
  63   2.0000     -10.276759      -279.6448
  64   2.0000     -10.275743      -279.6172
  65   2.0000     -10.275308      -279.6053
  66   2.0000     -10.275090      -279.5994
  67   2.0000     -10.273870      -279.5662
  68   2.0000     -10.273370      -279.5526
  69   2.0000     -10.272057      -279.5169
  70   2.0000     -10.271918      -279.5131
  71   2.0000     -10.271094      -279.4907
  72   2.0000     -10.270420      -279.4723
  73   2.0000     -10.268263      -279.4136
  74   2.0000     -10.267114      -279.3824
  75   2.0000     -10.255294      -279.0607
  76   2.0000     -10.252841      -278.9940
  77   2.0000     -10.251868      -278.9675
  78   2.0000      -8.795642      -239.3416
  79   2.0000      -8.143448      -221.5945
  80   2.0000      -8.074619      -219.7216
  81   2.0000      -8.033816      -218.6112
  82   2.0000      -8.022092      -218.2922
  83   2.0000      -6.631955      -180.4647
  84   2.0000      -6.617381      -180.0681
  85   2.0000      -6.617165      -180.0622
  86   2.0000      -6.114390      -166.3810
  87   2.0000      -6.106616      -166.1695
  88   2.0000      -6.106552      -166.1677
  89   2.0000      -6.044315      -164.4742
  90   2.0000      -6.040027      -164.3575
  91   2.0000      -6.035808      -164.2427
  92   2.0000      -6.003683      -163.3685
  93   2.0000      -5.999812      -163.2632
  94   2.0000      -5.994361      -163.1148
  95   2.0000      -5.991967      -163.0497
  96   2.0000      -5.988083      -162.9440
  97   2.0000      -5.982531      -162.7930
  98   2.0000      -2.747806       -74.7716
  99   2.0000      -2.743736       -74.6609
 100   2.0000      -2.743581       -74.6566
 101   2.0000      -2.732001       -74.3415
 102   2.0000      -2.731960       -74.3404
 103   2.0000      -1.209728       -32.9184
 104   2.0000      -1.148118       -31.2419
 105   2.0000      -1.134140       -30.8615
 106   2.0000      -1.126036       -30.6410
 107   2.0000      -1.063569       -28.9412
 108   2.0000      -1.052804       -28.6482
 109   2.0000      -1.026113       -27.9219
 110   2.0000      -1.017318       -27.6826
 111   2.0000      -1.015717       -27.6391
 112   2.0000      -1.006969       -27.4010
 113   2.0000      -1.002192       -27.2710
 114   2.0000      -0.995923       -27.1004
 115   2.0000      -0.994547       -27.0630
 116   2.0000      -0.992315       -27.0023
 117   2.0000      -0.984628       -26.7931
 118   2.0000      -0.980616       -26.6839
 119   2.0000      -0.956924       -26.0392
 120   2.0000      -0.951590       -25.8941
 121   2.0000      -0.945678       -25.7332
 122   2.0000      -0.927802       -25.2468
 123   2.0000      -0.914496       -24.8847
 124   2.0000      -0.911457       -24.8020
 125   2.0000      -0.909618       -24.7520
 126   2.0000      -0.902851       -24.5678
 127   2.0000      -0.900824       -24.5127
 128   2.0000      -0.889325       -24.1998
 129   2.0000      -0.887619       -24.1534
 130   2.0000      -0.873444       -23.7676
 131   2.0000      -0.866805       -23.5870
 132   2.0000      -0.852077       -23.1862
 133   2.0000      -0.841575       -22.9004
 134   2.0000      -0.840118       -22.8608
 135   2.0000      -0.838646       -22.8207
 136   2.0000      -0.836939       -22.7743
 137   2.0000      -0.834628       -22.7114
 138   2.0000      -0.833725       -22.6868
 139   2.0000      -0.831954       -22.6386
 140   2.0000      -0.827269       -22.5111
 141   2.0000      -0.809540       -22.0287
 142   2.0000      -0.803283       -21.8585
 143   2.0000      -0.794617       -21.6226
 144   2.0000      -0.776600       -21.1324
 145   2.0000      -0.771099       -20.9827
 146   2.0000      -0.769118       -20.9288
 147   2.0000      -0.762096       -20.7377
 148   2.0000      -0.747521       -20.3411
 149   2.0000      -0.740234       -20.1428
 150   2.0000      -0.724155       -19.7053
 151   2.0000      -0.722704       -19.6658
 152   2.0000      -0.716527       -19.4977
 153   2.0000      -0.708502       -19.2793
 154   2.0000      -0.706934       -19.2366
 155   2.0000      -0.700025       -19.0487
 156   2.0000      -0.697020       -18.9669
 157   2.0000      -0.693830       -18.8801
 158   2.0000      -0.689184       -18.7536
 159   2.0000      -0.679141       -18.4804
 160   2.0000      -0.676972       -18.4213
 161   2.0000      -0.675046       -18.3689
 162   2.0000      -0.665847       -18.1186
 163   2.0000      -0.660838       -17.9823
 164   2.0000      -0.656774       -17.8717
 165   2.0000      -0.653735       -17.7890
 166   2.0000      -0.652818       -17.7641
 167   2.0000      -0.647588       -17.6218
 168   2.0000      -0.636405       -17.3174
 169   2.0000      -0.627568       -17.0770
 170   2.0000      -0.625882       -17.0311
 171   2.0000      -0.621450       -16.9105
 172   2.0000      -0.615634       -16.7522
 173   2.0000      -0.610914       -16.6238
 174   2.0000      -0.606355       -16.4998
 175   2.0000      -0.600752       -16.3473
 176   2.0000      -0.598410       -16.2836
 177   2.0000      -0.596019       -16.2185
 178   2.0000      -0.587861       -15.9965
 179   2.0000      -0.586361       -15.9557
 180   2.0000      -0.580452       -15.7949
 181   2.0000      -0.574926       -15.6445
 182   2.0000      -0.571011       -15.5380
 183   2.0000      -0.567031       -15.4297
 184   2.0000      -0.564531       -15.3617
 185   2.0000      -0.557280       -15.1644
 186   2.0000      -0.555600       -15.1187
 187   2.0000      -0.551384       -15.0039
 188   2.0000      -0.547016       -14.8851
 189   2.0000      -0.545072       -14.8322
 190   2.0000      -0.544042       -14.8041
 191   2.0000      -0.540754       -14.7147
 192   2.0000      -0.537755       -14.6330
 193   2.0000      -0.535144       -14.5620
 194   2.0000      -0.531950       -14.4751
 195   2.0000      -0.528293       -14.3756
 196   2.0000      -0.527681       -14.3589
 197   2.0000      -0.524927       -14.2840
 198   2.0000      -0.521790       -14.1986
 199   2.0000      -0.520876       -14.1738
 200   2.0000      -0.516155       -14.0453
 201   2.0000      -0.513738       -13.9795
 202   2.0000      -0.511112       -13.9081
 203   2.0000      -0.507688       -13.8149
 204   2.0000      -0.503750       -13.7077
 205   2.0000      -0.501900       -13.6574
 206   2.0000      -0.500554       -13.6208
 207   2.0000      -0.498576       -13.5669
 208   2.0000      -0.496955       -13.5228
 209   2.0000      -0.494984       -13.4692
 210   2.0000      -0.492054       -13.3895
 211   2.0000      -0.489955       -13.3324
 212   2.0000      -0.486017       -13.2252
 213   2.0000      -0.482994       -13.1429
 214   2.0000      -0.481591       -13.1047
 215   2.0000      -0.480155       -13.0657
 216   2.0000      -0.478194       -13.0123
 217   2.0000      -0.476517       -12.9667
 218   2.0000      -0.474249       -12.9050
 219   2.0000      -0.472621       -12.8607
 220   2.0000      -0.467848       -12.7308
 221   2.0000      -0.462157       -12.5759
 222   2.0000      -0.460472       -12.5301
 223   2.0000      -0.458182       -12.4678
 224   2.0000      -0.456328       -12.4173
 225   2.0000      -0.455422       -12.3927
 226   2.0000      -0.453363       -12.3366
 227   2.0000      -0.452172       -12.3042
 228   2.0000      -0.451143       -12.2762
 229   2.0000      -0.450450       -12.2574
 230   2.0000      -0.448809       -12.2127
 231   2.0000      -0.446186       -12.1413
 232   2.0000      -0.445712       -12.1284
 233   2.0000      -0.443265       -12.0619
 234   2.0000      -0.442249       -12.0342
 235   2.0000      -0.441386       -12.0107
 236   2.0000      -0.440383       -11.9834
 237   2.0000      -0.439890       -11.9700
 238   2.0000      -0.439006       -11.9460
 239   2.0000      -0.434703       -11.8289
 240   2.0000      -0.428659       -11.6644
 241   2.0000      -0.426677       -11.6105
 242   2.0000      -0.426305       -11.6004
 243   2.0000      -0.422333       -11.4923
 244   2.0000      -0.421254       -11.4629
 245   2.0000      -0.418845       -11.3973
 246   2.0000      -0.416625       -11.3370
 247   2.0000      -0.415968       -11.3191
 248   2.0000      -0.415117       -11.2959
 249   2.0000      -0.413016       -11.2387
 250   2.0000      -0.409782       -11.1507
 251   2.0000      -0.409200       -11.1349
 252   2.0000      -0.400920       -10.9096
 253   2.0000      -0.394579       -10.7370
 254   2.0000      -0.392839       -10.6897
 255   2.0000      -0.391439       -10.6516
 256   2.0000      -0.389341       -10.5945
 257   2.0000      -0.385312       -10.4849
 258   2.0000      -0.383192       -10.4272
 259   2.0000      -0.379082       -10.3153
 260   2.0000      -0.377893       -10.2830
 261   2.0000      -0.375966       -10.2305
 262   2.0000      -0.366615        -9.9761
 263   2.0000      -0.358183        -9.7467
 264   2.0000      -0.354868        -9.6564
 265   2.0000      -0.345793        -9.4095
 266   2.0000      -0.342262        -9.3134
 267   2.0000      -0.337213        -9.1760
 268   2.0000      -0.329313        -8.9611
 269   2.0000      -0.326119        -8.8742
 270   2.0000      -0.318714        -8.6727
 271   2.0000      -0.318319        -8.6619
 272   2.0000      -0.317511        -8.6399
 273   2.0000      -0.310840        -8.4584
 274   2.0000      -0.297239        -8.0883
 275   2.0000      -0.292505        -7.9595
 276   2.0000      -0.276408        -7.5215
 277   2.0000      -0.246690        -6.7128
 278   2.0000      -0.203171        -5.5286
 279   0.0000      -0.131306        -3.5730
 280   0.0000      -0.085152        -2.3171
 281   0.0000      -0.061155        -1.6641
 282   0.0000      -0.053791        -1.4637
 283   0.0000      -0.046802        -1.2735

MULLIKEN ATOMIC CHARGES
-----------------------
   0 C :    0.293403
   1 C :   -0.330468
   2 C :   -0.188377
   3 N :    0.155240
   4 C :   -0.200995
   5 N :    0.170615
   6 C :    0.018573
   7 C :   -0.016487
   8 C :   -0.072577
   9 C :    0.115814
  10 C :   -0.089403
  11 C :   -0.020592
  12 S :    0.188136
  13 C :   -0.122853
  14 C :    0.039332
  15 Br:    0.025989
  16 C :    0.153719
  17 O :   -0.157670
  18 C :   -0.052107
  19 C :   -0.075465
  20 C :    0.066963
  21 C :   -0.021750
  22 C :   -0.087990
  23 N :    0.053172
  24 C :   -0.144952
  25 C :   -0.125768
  26 N :    0.056399
  27 C :   -0.196718
  28 N :    0.240437
  29 C :   -0.204413
  30 N :    0.237733
  31 C :    0.117749
  32 C :    0.029340
  33 C :    0.012648
  34 N :   -0.267752
  35 S :    0.560489
  36 N :   -0.280708
  37 C :   -0.003360
  38 C :   -0.060597
  39 C :    0.012229
  40 C :    0.116789
  41 C :   -0.068565
  42 C :    0.045778
  43 C :    0.095353
  44 C :    0.028569
  45 C :   -0.128868
  46 C :    0.075609
  47 C :    0.025389
  48 C :    0.052619
  49 C :    0.022509
  50 C :   -0.103689
  51 C :    0.129595
  52 C :   -0.016540
  53 C :   -0.045355
  54 C :   -0.020202
  55 C :   -0.048369
  56 C :    0.069792
  57 O :   -0.197412
  58 C :    0.162003
  59 C :   -0.055816
  60 C :    0.074441
  61 N :   -0.031689
  62 C :    0.024971
  63 C :   -0.057307
  64 C :    0.040267
  65 C :    0.014102
  66 C :   -0.043426
  67 S :    0.029902
  68 C :   -0.076184
  69 C :    0.031396
  70 C :    0.043087
  71 C :   -0.059930
  72 S :    0.057773
  73 C :   -0.038516
  74 H :   -0.011264
  75 H :   -0.004668
  76 H :   -0.002804
  77 H :    0.047745
  78 H :   -0.019063
  79 H :   -0.029614
  80 H :   -0.021175
  81 H :    0.004870
  82 H :   -0.002607
  83 H :    0.024299
  84 H :    0.008201
  85 H :   -0.000759
  86 H :    0.006354
  87 H :   -0.002741
  88 H :    0.022634
  89 H :    0.008907
  90 H :    0.021045
  91 H :   -0.043145
  92 H :   -0.027331
  93 H :   -0.031874
  94 H :   -0.011704
  95 H :   -0.004625
  96 H :    0.014810
  97 H :   -0.021925
  98 H :    0.134270
  99 H :    0.014145
 100 H :   -0.017378
 101 H :   -0.020753
 102 H :   -0.017966
 103 H :   -0.018271
 104 H :    0.012812
 105 H :    0.014518
Sum of atomic charges:   -0.0000000

LOEWDIN ATOMIC CHARGES
----------------------
   0 C :    0.073348
   1 C :   -0.130234
   2 C :   -0.017595
   3 N :   -0.048520
   4 C :   -0.024300
   5 N :   -0.042747
   6 C :   -0.020343
   7 C :   -0.048685
   8 C :    0.020657
   9 C :   -0.032044
  10 C :   -0.142867
  11 C :   -0.009208
  12 S :    0.434194
  13 C :   -0.270569
  14 C :   -0.070878
  15 Br:    0.138495
  16 C :    0.084891
  17 O :   -0.148453
  18 C :   -0.072433
  19 C :    0.080169
  20 C :   -0.044117
  21 C :    0.013243
  22 C :   -0.016474
  23 N :    0.014713
  24 C :   -0.036177
  25 C :   -0.015028
  26 N :   -0.003218
  27 C :   -0.034520
  28 N :    0.005037
  29 C :   -0.037374
  30 N :   -0.005036
  31 C :    0.029053
  32 C :   -0.041789
  33 C :   -0.024527
  34 N :   -0.271885
  35 S :    0.696564
  36 N :   -0.272843
  37 C :   -0.030295
  38 C :    0.003160
  39 C :   -0.002347
  40 C :    0.007731
  41 C :   -0.025411
  42 C :    0.012913
  43 C :   -0.027415
  44 C :    0.012478
  45 C :   -0.034416
  46 C :   -0.009148
  47 C :   -0.062944
  48 C :   -0.015408
  49 C :   -0.057097
  50 C :   -0.023959
  51 C :   -0.014708
  52 C :   -0.019951
  53 C :   -0.012271
  54 C :   -0.024740
  55 C :   -0.043069
  56 C :   -0.014079
  57 O :    0.015480
  58 C :    0.053396
  59 C :   -0.091478
  60 C :   -0.016291
  61 N :    0.041347
  62 C :    0.002690
  63 C :   -0.205234
  64 C :   -0.028351
  65 C :   -0.054374
  66 C :   -0.170950
  67 S :    0.327153
  68 C :   -0.196402
  69 C :   -0.025745
  70 C :   -0.043886
  71 C :   -0.137119
  72 S :    0.333949
  73 C :   -0.094446
  74 H :    0.040290
  75 H :    0.041520
  76 H :    0.038925
  77 H :    0.049304
  78 H :    0.026450
  79 H :    0.029784
  80 H :    0.027178
  81 H :    0.026640
  82 H :    0.019909
  83 H :    0.023035
  84 H :    0.026379
  85 H :    0.018679
  86 H :    0.020041
  87 H :    0.019803
  88 H :    0.026050
  89 H :    0.023657
  90 H :    0.024999
  91 H :    0.021642
  92 H :    0.027205
  93 H :    0.028212
  94 H :    0.029323
  95 H :    0.028849
  96 H :    0.025509
  97 H :    0.030881
  98 H :    0.084954
  99 H :    0.034594
 100 H :    0.030902
 101 H :    0.029062
 102 H :    0.030023
 103 H :    0.030527
 104 H :    0.025496
 105 H :    0.022913

  Mayer bond orders larger than 0.100000
B(  0-C ,  1-C ) :   1.6529 B(  0-C ,  6-C ) :   1.0098 B(  0-C , 18-C ) :   1.0576
B(  1-C ,  2-C ) :   1.1392 B(  1-C ,  4-C ) :   1.1436 B(  2-C ,  3-N ) :   2.9721
B(  4-C ,  5-N ) :   2.9913 B(  6-C ,  7-C ) :   1.2746 B(  6-C , 11-C ) :   1.4063
B(  7-C ,  8-C ) :   1.4240 B(  7-C , 16-C ) :   0.9488 B(  8-C ,  9-C ) :   1.2468
B(  8-C , 74-H ) :   1.0171 B(  9-C , 10-C ) :   1.3047 B(  9-C , 14-C ) :   1.1637
B( 10-C , 11-C ) :   1.3333 B( 10-C , 12-S ) :   1.0853 B( 11-C , 75-H ) :   0.9808
B( 12-S , 13-C ) :   1.0868 B( 13-C , 14-C ) :   1.6161 B( 13-C , 15-Br) :   1.0201
B( 14-C , 76-H ) :   1.0010 B( 16-C , 17-O ) :   2.2135 B( 16-C , 18-C ) :   0.9410
B( 18-C , 19-C ) :   1.6160 B( 19-C , 20-C ) :   1.1536 B( 19-C , 77-H ) :   0.9291
B( 20-C , 21-C ) :   1.2689 B( 20-C , 31-C ) :   0.1287 B( 20-C , 33-C ) :   1.2139
B( 21-C , 22-C ) :   1.1054 B( 21-C , 26-N ) :   1.4441 B( 22-C , 23-N ) :   1.4412
B( 22-C , 31-C ) :   1.2656 B( 23-N , 24-C ) :   1.7318 B( 24-C , 25-C ) :   1.2011
B( 24-C , 29-C ) :   1.1524 B( 25-C , 26-N ) :   1.7501 B( 25-C , 27-C ) :   1.1468
B( 27-C , 28-N ) :   3.0443 B( 29-C , 30-N ) :   3.0502 B( 31-C , 32-C ) :   1.2478
B( 31-C , 37-C ) :   1.0445 B( 32-C , 33-C ) :   1.1019 B( 32-C , 36-N ) :   1.4825
B( 33-C , 34-N ) :   1.5072 B( 34-N , 35-S ) :   1.2915 B( 34-N , 36-N ) :   0.1554
B( 35-S , 36-N ) :   1.3004 B( 37-C , 38-C ) :   1.2884 B( 37-C , 42-C ) :   1.3413
B( 38-C , 39-C ) :   1.4069 B( 38-C , 78-H ) :   0.9957 B( 39-C , 40-C ) :   1.3657
B( 39-C , 45-C ) :   0.9141 B( 40-C , 41-C ) :   1.3271 B( 40-C , 43-C ) :   1.0022
B( 41-C , 42-C ) :   1.4004 B( 41-C , 79-H ) :   0.9937 B( 42-C , 80-H ) :   0.9799
B( 43-C , 44-C ) :   1.3603 B( 43-C , 53-C ) :   1.3312 B( 44-C , 45-C ) :   0.9267
B( 44-C , 50-C ) :   1.4063 B( 45-C , 46-C ) :   1.0144 B( 45-C , 48-C ) :   1.0307
B( 46-C , 47-C ) :   1.1162 B( 46-C , 81-H ) :   0.9386 B( 46-C , 82-H ) :   0.9372
B( 47-C , 83-H ) :   0.9568 B( 47-C , 84-H ) :   0.9566 B( 47-C , 85-H ) :   0.9608
B( 48-C , 49-C ) :   1.1028 B( 48-C , 86-H ) :   0.9386 B( 48-C , 87-H ) :   0.9394
B( 49-C , 88-H ) :   0.9651 B( 49-C , 89-H ) :   0.9648 B( 49-C , 90-H ) :   0.9631
B( 50-C , 51-C ) :   1.2980 B( 50-C , 91-H ) :   0.9971 B( 51-C , 52-C ) :   1.3336
B( 51-C , 54-C ) :   1.0508 B( 52-C , 53-C ) :   1.3815 B( 52-C , 92-H ) :   0.9935
B( 53-C , 93-H ) :   0.9927 B( 54-C , 55-C ) :   1.6816 B( 54-C , 94-H ) :   0.9900
B( 55-C , 56-C ) :   1.1441 B( 55-C , 95-H ) :   0.9517 B( 56-C , 57-O ) :   1.1259
B( 56-C , 60-C ) :   1.4174 B( 57-O , 58-C ) :   1.1568 B( 58-C , 59-C ) :   1.5292
B( 58-C , 96-H ) :   1.0044 B( 59-C , 60-C ) :   1.2174 B( 59-C , 97-H ) :   1.0130
B( 60-C , 61-N ) :   1.1273 B( 61-N , 62-C ) :   1.1841 B( 61-N , 98-H ) :   0.9112
B( 62-C , 63-C ) :   1.6025 B( 62-C , 99-H ) :   0.9547 B( 63-C , 64-C ) :   1.1451
B( 63-C , 67-S ) :   0.9921 B( 64-C , 65-C ) :   1.6276 B( 64-C ,100-H ) :   0.9944
B( 65-C , 66-C ) :   1.1664 B( 65-C ,101-H ) :   0.9917 B( 66-C , 67-S ) :   1.0393
B( 66-C , 68-C ) :   1.5702 B( 68-C , 69-C ) :   1.1563 B( 68-C , 72-S ) :   1.0275
B( 69-C , 70-C ) :   1.6595 B( 69-C ,102-H ) :   0.9911 B( 70-C , 71-C ) :   1.0825
B( 70-C ,103-H ) :   0.9919 B( 71-C , 72-S ) :   1.0092 B( 71-C , 73-C ) :   1.8640
B( 73-C ,104-H ) :   0.9496 B( 73-C ,105-H ) :   0.9411

-----------------------------------------------------------------------------
         ABSORPTION SPECTRUM VIA TRANSITION ELECTRIC DIPOLE MOMENTS
-----------------------------------------------------------------------------
State   Energy  Wavelength   fosc         T2         TX        TY        TZ
        (cm-1)    (nm)                  (au**2)     (au)      (au)      (au)
-----------------------------------------------------------------------------
   0    7980.6   1253.0   0.139058729   5.73640   1.15544  -1.82959   1.02662
   1   12877.5    776.5   0.600424207  15.34973  -1.97179   3.34611  -0.51509
   2   18101.2    552.4   0.051732657   0.94088   0.54766  -0.40602  -0.68999
   3   19587.3    510.5   0.024736342   0.41575   0.49714  -0.38886   0.13189
   4   19831.6    504.2   1.347713889  22.37255  -1.47076   0.30629  -4.48504
   5   22030.9    453.9   0.037575934   0.56151   0.71740  -0.17662  -0.12507
   6   22658.3    441.3   0.047151571   0.68508  -0.75424   0.21851  -0.26166
   7   23358.3    428.1   0.056766506   0.80007  -0.63752   0.56233   0.27825
   8   23714.2    421.7   0.227960347   3.16466  -1.10832   1.29240   0.51573
   9   24079.2    415.3   0.199019709   2.72101  -0.06166  -0.84520  -1.41522
  10   24481.4    408.5   0.087114052   1.17146   1.06488   0.10781  -0.16082
  11   24709.9    404.7   0.024365838   0.32463   0.26439  -0.01758  -0.50440
  12   26029.4    384.2   0.005052844   0.06391   0.02432  -0.20507  -0.14582
  13   26301.6    380.2   0.015980239   0.20002   0.25122  -0.17907   0.32380
  14   26886.7    371.9   0.001345353   0.01647  -0.02547  -0.01397  -0.12502
  15   27690.1    361.1   0.078841806   0.93736   0.66657  -0.58465  -0.38888
  16   28176.1    354.9   0.033483573   0.39122  -0.23297  -0.57849  -0.04792
  17   28357.0    352.6   0.011210108   0.13014  -0.03799   0.35588   0.04527
  18   28466.6    351.3   0.016833956   0.19468   0.40207  -0.09314   0.15604
  19   28543.2    350.3   0.310120077   3.57687  -1.22930   1.43372   0.10061
  20   28945.5    345.5   0.010693399   0.12162  -0.03119   0.32387  -0.12554
  21   29368.5    340.5   0.206648171   2.31646  -0.14418   1.34266  -0.70209
  22   29975.7    333.6   0.074895531   0.82255  -0.90012  -0.06871  -0.08729
  23   30391.3    329.0   0.467870742   5.06819   2.15473   0.64400   0.10303
  24   30586.6    326.9   0.111207922   1.19696   0.75322   0.27802  -0.74319
  25   30959.2    323.0   0.001713554   0.01822   0.01146   0.09667  -0.09351
  26   31432.9    318.1   0.337794933   3.53789   1.17377   0.99335  -1.08324
  27   32025.3    312.3   0.147200062   1.51318   0.04105  -0.58290   1.08246
  28   32270.8    309.9   0.034958212   0.35663   0.28982  -0.46790   0.23174
  29   32672.0    306.1   0.218704616   2.20373   0.12553  -1.37090   0.55553
  30   33178.5    301.4   0.009043213   0.08973  -0.29781  -0.01312  -0.02949
  31   33277.1    300.5   0.091219181   0.90244   0.62683  -0.71345   0.02258
  32   33398.4    299.4   0.129859109   1.28004  -0.28434   1.08848  -0.12000
  33   33574.1    297.8   0.094396341   0.92561  -0.02557  -0.94740  -0.16551
  34   34615.3    288.9   0.198739948   1.89014   1.21867  -0.18361  -0.60931
  35   34913.6    286.4   0.065369770   0.61639   0.49225   0.48134   0.37735
  36   35038.9    285.4   0.153755222   1.44463   0.70666   0.93087   0.28059
  37   35486.4    281.8   0.625415841   5.80206  -1.12310  -1.69934   1.28567
  38   35826.8    279.1   0.025067742   0.23035   0.16217   0.34077  -0.29652
  39   36094.5    277.1   0.047177587   0.43030   0.09372  -0.44499   0.47275
  40   36123.7    276.8   0.001061710   0.00968   0.03014   0.05897   0.07273
  41   36226.3    276.0   0.061986206   0.56331  -0.49668   0.04871   0.56057
  42   37053.3    269.9   0.147266238   1.30844   0.10870  -1.09685  -0.30585
  43   37316.9    268.0   0.028022549   0.24722   0.13212  -0.37847  -0.29415
  44   37399.2    267.4   0.036317678   0.31969  -0.29503   0.34649   0.33554
  45   37493.7    266.7   0.067107541   0.58924  -0.33921   0.33510   0.60157
  46   38053.1    262.8   0.061827740   0.53490  -0.70747   0.09181  -0.16110
  47   38615.6    259.0   0.087674910   0.74746  -0.54966  -0.16714   0.64607
  48   38757.7    258.0   0.006633807   0.05635  -0.10159   0.12404  -0.17504
  49   39428.3    253.6   0.000161135   0.00135  -0.03650  -0.00007  -0.00364
  50   39600.7    252.5   0.022736791   0.18902  -0.36419  -0.01203   0.23714
  51   39682.4    252.0   0.000382333   0.00317  -0.00159  -0.02697   0.04942
  52   39902.3    250.6   0.025806998   0.21292  -0.23103   0.35714   0.17888
  53   40058.7    249.6   0.020248693   0.16641  -0.40447   0.02626   0.04611
  54   40136.7    249.1   0.046498299   0.38139  -0.58014   0.01167   0.21141

FINAL SINGLE POINT ENERGY     -7035.104572933240

DIPOLE MOMENT
-------------
                                X             Y             Z
Electronic contribution:    190.16035    -151.12175      66.21215
Nuclear contribution   :   -188.47927     155.04686     -67.73725
                        -----------------------------------------
Total Dipole Moment    :      1.68108       3.92511      -1.52510
                        -----------------------------------------
Magnitude (a.u.)       :      4.53414
Magnitude (Debye)      :     11.52487

Rotational constants in cm-1:     0.001021     0.000207     0.000197
Rotational constants in MHz :    30.594375     6.201151     5.906821

                             ****ORCA TERMINATED NORMALLY****
TOTAL RUN TIME: 0 days 0 hours 17 minutes 32 seconds 926 msec
