                         Program Version 4.2.0 -  RELEASE  -
|  1> # ORCA input file
|  2> # SCF done       -160.375496768698          0.000577973662
|  3> ! CAM-B3LYP def2-SVP def2/J RIJCOSX Grid4 TightSCF
|  4> %maxcore 5000
|  5> %tddft
|  6>     Mode sTDDFT
|  7>     Ethresh 5.0
|  8>     maxcore 5000
|  9> end
| 10>
| 11> %pal
| 12>   nprocs 6
| 13>   end
| 14> * xyz 0 1
| 15>    C       -6.95035        -0.52283         1.20249
| 16>    C       -5.71654        -1.13389         1.14542
| 17>    C       -5.39249        -2.33805         1.80175
| 18>    N       -5.04296        -3.30527         2.31365
| 19>    C       -4.61711        -0.69825         0.38827
| 20>    N       -3.67590        -0.45231        -0.22993
| 21>    C       -8.10819        -1.04574         1.91382
| 22>    C       -9.19592        -0.15494         1.74225
| 23>    C      -10.43785        -0.38962         2.27762
| 24>    C      -10.61916        -1.56258         3.01775
| 25>    C       -9.53212        -2.45488         3.16962
| 26>    C       -8.27527        -2.21773         2.62840
| 27>    S       -9.98174        -3.85800         4.09087
| 28>    C      -11.60059        -3.23244         4.26057
| 29>    C      -11.79714        -2.03638         3.65755
| 30>   Br      -12.88018        -4.22007         5.21202
| 31>    C       -8.78187         0.95429         0.85844
| 32>    O       -9.51242         1.76101         0.32992
| 33>    C       -7.33007         0.74592         0.61591
| 34>    C       -6.54120         1.55392        -0.13830
| 35>    C       -6.80424         2.91265        -0.57485
| 36>    N       -7.59625         3.72321         0.12299
| 37>    C       -7.71258         4.96108        -0.32804
| 38>    C       -7.07339         5.42311        -1.46814
| 39>    C       -6.25849         4.50696        -2.14896
| 40>    N       -6.12691         3.26221        -1.66259
| 41>    C       -5.52170         4.71054        -3.36051
| 42>    C       -5.53683         5.78681        -4.18583
| 43>    C       -4.84712         5.87486        -5.41466
| 44>    C       -4.08103         4.92880        -6.05551
| 45>    C       -3.45994         5.13615        -7.31717
| 46>    C       -2.75091         4.07555        -7.78736
| 47>    C       -2.75567         2.95366        -6.92654
| 48>    S       -3.71369         3.30354        -5.50189
| 49>    C       -2.09669         1.75489        -7.10898
| 50>    C       -1.28291         1.40186        -8.21261
| 51>    C       -0.70313         0.18047        -8.09933
| 52>    C       -1.02452        -0.52055        -6.90367
| 53>    S       -2.12222         0.45183        -5.93475
| 54>    C       -0.46779        -1.72959        -6.58437
| 55>    C       -0.64068        -2.58908        -5.48078
| 56>    S        0.59820        -3.83168        -5.27349
| 57>    C       -0.16320        -4.48159        -3.88126
| 58>    C       -1.31222        -3.81162        -3.58228
| 59>    C       -1.58675        -2.73789        -4.48430
| 60>    S       -3.10534        -1.93774        -4.15716
| 61>    C       -3.38585        -3.00449        -2.79060
| 62>    C       -2.34702        -3.96420        -2.60108
| 63>    C       -2.60980        -4.82269        -1.57576
| 64>    S       -4.12087        -4.48507        -0.83183
| 65>    C       -4.43675        -3.15082        -1.91620
| 66>    C       -5.64755        -2.40249        -1.83754
| 67>    S       -7.09413        -3.04935        -1.11802
| 68>    C       -5.84254        -1.11701        -2.28404
| 69>    O       -4.86297        -0.31609        -2.78662
| 70>    C       -7.17740        -0.64929        -2.09479
| 71>    N       -7.53760         0.63236        -2.38450
| 72>    N       -6.99595         1.33230        -3.47384
| 73>    C       -7.98439        -1.58480        -1.45606
| 74>    C       -9.37362        -1.47565        -1.13594
| 75>    C      -10.07415        -2.40008        -0.47747
| 76>    H      -11.24755         0.30639         2.12409
| 77>    H       -7.48236        -2.93392         2.76388
| 78>    H      -12.73358        -1.50897         3.66168
| 79>    H       -5.54878         1.22306        -0.41234
| 80>    H       -8.34928         5.60995         0.26009
| 81>    H       -7.19043         6.43937        -1.80529
| 82>    H       -4.92078         3.85209        -3.61870
| 83>    H       -6.12721         6.65312        -3.91641
| 84>    H       -4.94564         6.81185        -5.94882
| 85>    H       -3.56122         6.07253        -7.83747
| 86>    H       -2.22423         4.07338        -8.72459
| 87>    H       -1.14574         2.05976        -9.05144
| 88>    H       -0.04634        -0.25102        -8.83406
| 89>    H        0.27866        -2.07791        -7.28962
| 90>    H        0.27334        -5.31557        -3.37025
| 91>    H       -2.00919        -5.63236        -1.21416
| 92>    H       -4.06799        -0.37431        -2.22631
| 93>    H       -8.49722         0.89828        -2.19563
| 94>    H       -6.60890         2.21460        -3.10741
| 95>    H       -6.21100         0.80344        -3.84884
| 96>    H       -9.86301        -0.56841        -1.46698
| 97>    H       -9.61253        -3.30996        -0.13126
| 98>    H      -11.12171        -2.27446        -0.27395
| 99> *
|100>
|101>                          ****END OF INPUT****

CARTESIAN COORDINATES (ANGSTROEM)
---------------------------------
  C     -6.950350   -0.522830    1.202490
  C     -5.716540   -1.133890    1.145420
  C     -5.392490   -2.338050    1.801750
  N     -5.042960   -3.305270    2.313650
  C     -4.617110   -0.698250    0.388270
  N     -3.675900   -0.452310   -0.229930
  C     -8.108190   -1.045740    1.913820
  C     -9.195920   -0.154940    1.742250
  C    -10.437850   -0.389620    2.277620
  C    -10.619160   -1.562580    3.017750
  C     -9.532120   -2.454880    3.169620
  C     -8.275270   -2.217730    2.628400
  S     -9.981740   -3.858000    4.090870
  C    -11.600590   -3.232440    4.260570
  C    -11.797140   -2.036380    3.657550
  Br   -12.880180   -4.220070    5.212020
  C     -8.781870    0.954290    0.858440
  O     -9.512420    1.761010    0.329920
  C     -7.330070    0.745920    0.615910
  C     -6.541200    1.553920   -0.138300
  C     -6.804240    2.912650   -0.574850
  N     -7.596250    3.723210    0.122990
  C     -7.712580    4.961080   -0.328040
  C     -7.073390    5.423110   -1.468140
  C     -6.258490    4.506960   -2.148960
  N     -6.126910    3.262210   -1.662590
  C     -5.521700    4.710540   -3.360510
  C     -5.536830    5.786810   -4.185830
  C     -4.847120    5.874860   -5.414660
  C     -4.081030    4.928800   -6.055510
  C     -3.459940    5.136150   -7.317170
  C     -2.750910    4.075550   -7.787360
  C     -2.755670    2.953660   -6.926540
  S     -3.713690    3.303540   -5.501890
  C     -2.096690    1.754890   -7.108980
  C     -1.282910    1.401860   -8.212610
  C     -0.703130    0.180470   -8.099330
  C     -1.024520   -0.520550   -6.903670
  S     -2.122220    0.451830   -5.934750
  C     -0.467790   -1.729590   -6.584370
  C     -0.640680   -2.589080   -5.480780
  S      0.598200   -3.831680   -5.273490
  C     -0.163200   -4.481590   -3.881260
  C     -1.312220   -3.811620   -3.582280
  C     -1.586750   -2.737890   -4.484300
  S     -3.105340   -1.937740   -4.157160
  C     -3.385850   -3.004490   -2.790600
  C     -2.347020   -3.964200   -2.601080
  C     -2.609800   -4.822690   -1.575760
  S     -4.120870   -4.485070   -0.831830
  C     -4.436750   -3.150820   -1.916200
  C     -5.647550   -2.402490   -1.837540
  S     -7.094130   -3.049350   -1.118020
  C     -5.842540   -1.117010   -2.284040
  O     -4.862970   -0.316090   -2.786620
  C     -7.177400   -0.649290   -2.094790
  N     -7.537600    0.632360   -2.384500
  N     -6.995950    1.332300   -3.473840
  C     -7.984390   -1.584800   -1.456060
  C     -9.373620   -1.475650   -1.135940
  C    -10.074150   -2.400080   -0.477470
  H    -11.247550    0.306390    2.124090
  H     -7.482360   -2.933920    2.763880
  H    -12.733580   -1.508970    3.661680
  H     -5.548780    1.223060   -0.412340
  H     -8.349280    5.609950    0.260090
  H     -7.190430    6.439370   -1.805290
  H     -4.920780    3.852090   -3.618700
  H     -6.127210    6.653120   -3.916410
  H     -4.945640    6.811850   -5.948820
  H     -3.561220    6.072530   -7.837470
  H     -2.224230    4.073380   -8.724590
  H     -1.145740    2.059760   -9.051440
  H     -0.046340   -0.251020   -8.834060
  H      0.278660   -2.077910   -7.289620
  H      0.273340   -5.315570   -3.370250
  H     -2.009190   -5.632360   -1.214160
  H     -4.067990   -0.374310   -2.226310
  H     -8.497220    0.898280   -2.195630
  H     -6.608900    2.214600   -3.107410
  H     -6.211000    0.803440   -3.848840
  H     -9.863010   -0.568410   -1.466980
  H     -9.612530   -3.309960   -0.131260
  H    -11.121710   -2.274460   -0.273950

 Total Charge           Charge          ....    0
 Multiplicity           Mult            ....    1
 Number of Electrons    NEL             ....  498
 Basis Dimension        Dim             .... 1015

ORBITAL ENERGIES
----------------

  NO   OCC          E(Eh)            E(eV)
   0   2.0000    -482.878864    -13139.8019
   1   2.0000     -88.966322     -2420.8967
   2   2.0000     -88.958536     -2420.6848
   3   2.0000     -88.955546     -2420.6035
   4   2.0000     -88.949573     -2420.4409
   5   2.0000     -88.949087     -2420.4277
   6   2.0000     -88.948101     -2420.4009
   7   2.0000     -88.947246     -2420.3776
   8   2.0000     -62.556543     -1702.2501
   9   2.0000     -56.390482     -1534.4630
  10   2.0000     -56.387791     -1534.3898
  11   2.0000     -56.387752     -1534.3888
  12   2.0000     -19.241054      -523.5757
  13   2.0000     -19.202782      -522.5343
  14   2.0000     -14.457035      -393.3959
  15   2.0000     -14.409996      -392.1159
  16   2.0000     -14.405495      -391.9935
  17   2.0000     -14.399897      -391.8411
  18   2.0000     -14.399205      -391.8223
  19   2.0000     -14.399199      -391.8221
  20   2.0000     -10.352942      -281.7179
  21   2.0000     -10.350263      -281.6450
  22   2.0000     -10.340078      -281.3678
  23   2.0000     -10.328223      -281.0452
  24   2.0000     -10.327915      -281.0369
  25   2.0000     -10.324220      -280.9363
  26   2.0000     -10.323025      -280.9038
  27   2.0000     -10.318909      -280.7918
  28   2.0000     -10.318547      -280.7819
  29   2.0000     -10.315338      -280.6946
  30   2.0000     -10.314752      -280.6787
  31   2.0000     -10.314598      -280.6745
  32   2.0000     -10.311597      -280.5928
  33   2.0000     -10.311526      -280.5909
  34   2.0000     -10.308481      -280.5080
  35   2.0000     -10.307658      -280.4856
  36   2.0000     -10.305776      -280.4344
  37   2.0000     -10.304277      -280.3936
  38   2.0000     -10.303027      -280.3596
  39   2.0000     -10.302784      -280.3530
  40   2.0000     -10.301405      -280.3155
  41   2.0000     -10.298268      -280.2301
  42   2.0000     -10.297604      -280.2120
  43   2.0000     -10.296638      -280.1858
  44   2.0000     -10.296577      -280.1841
  45   2.0000     -10.294976      -280.1405
  46   2.0000     -10.294494      -280.1274
  47   2.0000     -10.293296      -280.0948
  48   2.0000     -10.290941      -280.0307
  49   2.0000     -10.290760      -280.0258
  50   2.0000     -10.288469      -279.9635
  51   2.0000     -10.288437      -279.9626
  52   2.0000     -10.288411      -279.9619
  53   2.0000     -10.288185      -279.9558
  54   2.0000     -10.285667      -279.8872
  55   2.0000     -10.283502      -279.8283
  56   2.0000     -10.281960      -279.7863
  57   2.0000     -10.281757      -279.7808
  58   2.0000     -10.281476      -279.7732
  59   2.0000     -10.281318      -279.7689
  60   2.0000     -10.279061      -279.7075
  61   2.0000     -10.275553      -279.6120
  62   2.0000     -10.273802      -279.5644
  63   2.0000     -10.264800      -279.3194
  64   2.0000     -10.256362      -279.0898
  65   2.0000      -8.785944      -239.0777
  66   2.0000      -8.062367      -219.3881
  67   2.0000      -8.054220      -219.1665
  68   2.0000      -8.050640      -219.0691
  69   2.0000      -8.045322      -218.9243
  70   2.0000      -8.044433      -218.9002
  71   2.0000      -8.042539      -218.8486
  72   2.0000      -8.041451      -218.8190
  73   2.0000      -6.622177      -180.1986
  74   2.0000      -6.607707      -179.8049
  75   2.0000      -6.607525      -179.7999
  76   2.0000      -6.032075      -164.1411
  77   2.0000      -6.027779      -164.0242
  78   2.0000      -6.023640      -163.9116
  79   2.0000      -6.023570      -163.9097
  80   2.0000      -6.020141      -163.8164
  81   2.0000      -6.019360      -163.7951
  82   2.0000      -6.016208      -163.7093
  83   2.0000      -6.015561      -163.6917
  84   2.0000      -6.015133      -163.6801
  85   2.0000      -6.014177      -163.6541
  86   2.0000      -6.012783      -163.6162
  87   2.0000      -6.012206      -163.6005
  88   2.0000      -6.011576      -163.5833
  89   2.0000      -6.011009      -163.5679
  90   2.0000      -6.010060      -163.5421
  91   2.0000      -6.008240      -163.4925
  92   2.0000      -6.007348      -163.4682
  93   2.0000      -6.006171      -163.4362
  94   2.0000      -6.005539      -163.4190
  95   2.0000      -6.003888      -163.3741
  96   2.0000      -6.001873      -163.3193
  97   2.0000      -2.738088       -74.5072
  98   2.0000      -2.733964       -74.3949
  99   2.0000      -2.733877       -74.3926
 100   2.0000      -2.722355       -74.0791
 101   2.0000      -2.722335       -74.0785
 102   2.0000      -1.138231       -30.9728
 103   2.0000      -1.117914       -30.4200
 104   2.0000      -1.079660       -29.3790
 105   2.0000      -1.068613       -29.0784
 106   2.0000      -1.012367       -27.5479
 107   2.0000      -1.010188       -27.4886
 108   2.0000      -1.004981       -27.3469
 109   2.0000      -0.996496       -27.1160
 110   2.0000      -0.984926       -26.8012
 111   2.0000      -0.983465       -26.7615
 112   2.0000      -0.977793       -26.6071
 113   2.0000      -0.976003       -26.5584
 114   2.0000      -0.973203       -26.4822
 115   2.0000      -0.967062       -26.3151
 116   2.0000      -0.932026       -25.3617
 117   2.0000      -0.916307       -24.9340
 118   2.0000      -0.913286       -24.8518
 119   2.0000      -0.900010       -24.4905
 120   2.0000      -0.897613       -24.4253
 121   2.0000      -0.892525       -24.2868
 122   2.0000      -0.884628       -24.0720
 123   2.0000      -0.875166       -23.8145
 124   2.0000      -0.873290       -23.7634
 125   2.0000      -0.870261       -23.6810
 126   2.0000      -0.858014       -23.3478
 127   2.0000      -0.845657       -23.0115
 128   2.0000      -0.838164       -22.8076
 129   2.0000      -0.830990       -22.6124
 130   2.0000      -0.825781       -22.4707
 131   2.0000      -0.820398       -22.3242
 132   2.0000      -0.818443       -22.2710
 133   2.0000      -0.805802       -21.9270
 134   2.0000      -0.798322       -21.7234
 135   2.0000      -0.795606       -21.6495
 136   2.0000      -0.777723       -21.1629
 137   2.0000      -0.771486       -20.9932
 138   2.0000      -0.757991       -20.6260
 139   2.0000      -0.748869       -20.3778
 140   2.0000      -0.743893       -20.2423
 141   2.0000      -0.726852       -19.7787
 142   2.0000      -0.717194       -19.5159
 143   2.0000      -0.713499       -19.4153
 144   2.0000      -0.695431       -18.9236
 145   2.0000      -0.689023       -18.7493
 146   2.0000      -0.682089       -18.5606
 147   2.0000      -0.676978       -18.4215
 148   2.0000      -0.670239       -18.2381
 149   2.0000      -0.669225       -18.2105
 150   2.0000      -0.663292       -18.0491
 151   2.0000      -0.656866       -17.8742
 152   2.0000      -0.648365       -17.6429
 153   2.0000      -0.642032       -17.4706
 154   2.0000      -0.634451       -17.2643
 155   2.0000      -0.627287       -17.0694
 156   2.0000      -0.618838       -16.8394
 157   2.0000      -0.615717       -16.7545
 158   2.0000      -0.614299       -16.7159
 159   2.0000      -0.610583       -16.6148
 160   2.0000      -0.606282       -16.4978
 161   2.0000      -0.596168       -16.2226
 162   2.0000      -0.590317       -16.0633
 163   2.0000      -0.585605       -15.9351
 164   2.0000      -0.585497       -15.9322
 165   2.0000      -0.577233       -15.7073
 166   2.0000      -0.573542       -15.6069
 167   2.0000      -0.572365       -15.5748
 168   2.0000      -0.569645       -15.5008
 169   2.0000      -0.562147       -15.2968
 170   2.0000      -0.548825       -14.9343
 171   2.0000      -0.540124       -14.6975
 172   2.0000      -0.538902       -14.6643
 173   2.0000      -0.538090       -14.6422
 174   2.0000      -0.536252       -14.5922
 175   2.0000      -0.529302       -14.4031
 176   2.0000      -0.527120       -14.3437
 177   2.0000      -0.524251       -14.2656
 178   2.0000      -0.521404       -14.1881
 179   2.0000      -0.520756       -14.1705
 180   2.0000      -0.515418       -14.0252
 181   2.0000      -0.512669       -13.9504
 182   2.0000      -0.508380       -13.8337
 183   2.0000      -0.502023       -13.6607
 184   2.0000      -0.500929       -13.6310
 185   2.0000      -0.499949       -13.6043
 186   2.0000      -0.498517       -13.5653
 187   2.0000      -0.495821       -13.4920
 188   2.0000      -0.495108       -13.4726
 189   2.0000      -0.492994       -13.4150
 190   2.0000      -0.486311       -13.2332
 191   2.0000      -0.483962       -13.1693
 192   2.0000      -0.482518       -13.1300
 193   2.0000      -0.479583       -13.0501
 194   2.0000      -0.478210       -13.0127
 195   2.0000      -0.477682       -12.9984
 196   2.0000      -0.475038       -12.9264
 197   2.0000      -0.472343       -12.8531
 198   2.0000      -0.466652       -12.6983
 199   2.0000      -0.463117       -12.6021
 200   2.0000      -0.461538       -12.5591
 201   2.0000      -0.459193       -12.4953
 202   2.0000      -0.457193       -12.4409
 203   2.0000      -0.449616       -12.2347
 204   2.0000      -0.447919       -12.1885
 205   2.0000      -0.446891       -12.1605
 206   2.0000      -0.442011       -12.0277
 207   2.0000      -0.439987       -11.9726
 208   2.0000      -0.438641       -11.9360
 209   2.0000      -0.432512       -11.7692
 210   2.0000      -0.430324       -11.7097
 211   2.0000      -0.429366       -11.6836
 212   2.0000      -0.424938       -11.5632
 213   2.0000      -0.423370       -11.5205
 214   2.0000      -0.421611       -11.4726
 215   2.0000      -0.417675       -11.3655
 216   2.0000      -0.415074       -11.2947
 217   2.0000      -0.414223       -11.2716
 218   2.0000      -0.412982       -11.2378
 219   2.0000      -0.402290       -10.9469
 220   2.0000      -0.399458       -10.8698
 221   2.0000      -0.397065       -10.8047
 222   2.0000      -0.395462       -10.7611
 223   2.0000      -0.393851       -10.7172
 224   2.0000      -0.389783       -10.6065
 225   2.0000      -0.382462       -10.4073
 226   2.0000      -0.380651       -10.3580
 227   2.0000      -0.375507       -10.2181
 228   2.0000      -0.374465       -10.1897
 229   2.0000      -0.372107       -10.1255
 230   2.0000      -0.368340       -10.0230
 231   2.0000      -0.362940        -9.8761
 232   2.0000      -0.356745        -9.7075
 233   2.0000      -0.341206        -9.2847
 234   2.0000      -0.337486        -9.1835
 235   2.0000      -0.333003        -9.0615
 236   2.0000      -0.326251        -8.8777
 237   2.0000      -0.325708        -8.8630
 238   2.0000      -0.324633        -8.8337
 239   2.0000      -0.310955        -8.4615
 240   2.0000      -0.302548        -8.2327
 241   2.0000      -0.300732        -8.1833
 242   2.0000      -0.294501        -8.0138
 243   2.0000      -0.287394        -7.8204
 244   2.0000      -0.281792        -7.6679
 245   2.0000      -0.268514        -7.3066
 246   2.0000      -0.250809        -6.8249
 247   2.0000      -0.231495        -6.2993
 248   2.0000      -0.213692        -5.8148
 249   0.0000      -0.083828        -2.2811
 250   0.0000      -0.074823        -2.0360
 251   0.0000      -0.047136        -1.2826
 252   0.0000      -0.028480        -0.7750
 253   0.0000      -0.025787        -0.7017

MULLIKEN ATOMIC CHARGES
-----------------------
   0 C :    0.354119
   1 C :   -0.385857
   2 C :   -0.197034
   3 N :    0.147079
   4 C :   -0.154672
   5 N :    0.094190
   6 C :    0.013416
   7 C :    0.019672
   8 C :   -0.094311
   9 C :    0.125612
  10 C :   -0.088080
  11 C :   -0.037995
  12 S :    0.177850
  13 C :   -0.122019
  14 C :    0.032901
  15 Br:    0.015395
  16 C :    0.114939
  17 O :   -0.143336
  18 C :   -0.028814
  19 C :    0.027481
  20 C :   -0.083587
  21 N :   -0.035024
  22 C :    0.075339
  23 C :   -0.050778
  24 C :    0.080402
  25 N :   -0.143073
  26 C :   -0.009829
  27 C :    0.045177
  28 C :   -0.028554
  29 C :   -0.004992
  30 C :    0.029398
  31 C :    0.034037
  32 C :   -0.048704
  33 S :    0.066957
  34 C :   -0.034250
  35 C :    0.025583
  36 C :    0.037506
  37 C :   -0.030187
  38 S :    0.107153
  39 C :    0.010100
  40 C :   -0.205256
  41 S :    0.117752
  42 C :   -0.125630
  43 C :    0.105213
  44 C :    0.012710
  45 S :    0.138555
  46 C :   -0.004370
  47 C :    0.124806
  48 C :   -0.141671
  49 S :    0.169113
  50 C :   -0.195660
  51 C :   -0.138798
  52 S :    0.117789
  53 C :    0.088335
  54 O :   -0.246045
  55 C :    0.136003
  56 N :   -0.095463
  57 N :   -0.079692
  58 C :   -0.197225
  59 C :    0.000541
  60 C :   -0.034158
  61 H :   -0.017078
  62 H :   -0.010753
  63 H :   -0.006636
  64 H :    0.017058
  65 H :    0.006618
  66 H :   -0.009061
  67 H :    0.008049
  68 H :   -0.017439
  69 H :   -0.019638
  70 H :   -0.014004
  71 H :   -0.014069
  72 H :   -0.011850
  73 H :   -0.008247
  74 H :   -0.009106
  75 H :    0.019265
  76 H :    0.015862
  77 H :    0.209635
  78 H :    0.142054
  79 H :    0.106713
  80 H :    0.118775
  81 H :   -0.010828
  82 H :    0.023461
  83 H :    0.021162
Sum of atomic charges:   -0.0000000

LOEWDIN ATOMIC CHARGES
----------------------
   0 C :    0.078344
   1 C :   -0.166213
   2 C :   -0.028016
   3 N :   -0.073487
   4 C :    0.011595
   5 N :   -0.090721
   6 C :   -0.015879
   7 C :   -0.042551
   8 C :    0.018216
   9 C :   -0.034595
  10 C :   -0.145296
  11 C :   -0.012543
  12 S :    0.426263
  13 C :   -0.274579
  14 C :   -0.071766
  15 Br:    0.130846
  16 C :    0.081900
  17 O :   -0.138993
  18 C :   -0.085640
  19 C :    0.057027
  20 C :    0.016240
  21 N :   -0.074842
  22 C :    0.051449
  23 C :   -0.058826
  24 C :    0.040584
  25 N :   -0.090326
  26 C :   -0.069145
  27 C :   -0.002085
  28 C :   -0.083112
  29 C :   -0.122429
  30 C :   -0.040525
  31 C :   -0.027341
  32 C :   -0.194020
  33 S :    0.400853
  34 C :   -0.157568
  35 C :   -0.041909
  36 C :   -0.018145
  37 C :   -0.158630
  38 S :    0.384155
  39 C :   -0.061751
  40 C :   -0.200178
  41 S :    0.439891
  42 C :   -0.173251
  43 C :   -0.072606
  44 C :   -0.179293
  45 S :    0.403310
  46 C :   -0.178338
  47 C :   -0.074470
  48 C :   -0.177783
  49 S :    0.471943
  50 C :   -0.217625
  51 C :   -0.209604
  52 S :    0.428385
  53 C :   -0.015334
  54 O :   -0.061801
  55 C :   -0.026476
  56 N :    0.073108
  57 N :   -0.044247
  58 C :   -0.215958
  59 C :   -0.044753
  60 C :   -0.058366
  61 H :    0.037952
  62 H :    0.039728
  63 H :    0.037521
  64 H :    0.042390
  65 H :    0.027052
  66 H :    0.031740
  67 H :    0.011343
  68 H :    0.029153
  69 H :    0.032269
  70 H :    0.032807
  71 H :    0.031772
  72 H :    0.032227
  73 H :    0.034633
  74 H :    0.035663
  75 H :    0.026938
  76 H :    0.025867
  77 H :    0.069779
  78 H :    0.077294
  79 H :    0.037729
  80 H :    0.052313
  81 H :    0.030216
  82 H :    0.015757
  83 H :    0.024768

  Mayer bond orders larger than 0.100000
B(  0-C ,  1-C ) :   1.5762 B(  0-C ,  6-C ) :   1.0080 B(  0-C , 18-C ) :   1.0867
B(  1-C ,  2-C ) :   1.1555 B(  1-C ,  4-C ) :   1.1861 B(  2-C ,  3-N ) :   2.9369
B(  4-C ,  5-N ) :   2.8495 B(  6-C ,  7-C ) :   1.2702 B(  6-C , 11-C ) :   1.4046
B(  7-C ,  8-C ) :   1.4205 B(  7-C , 16-C ) :   0.9324 B(  8-C ,  9-C ) :   1.2400
B(  8-C , 61-H ) :   1.0181 B(  9-C , 10-C ) :   1.3098 B(  9-C , 14-C ) :   1.1588
B( 10-C , 11-C ) :   1.3235 B( 10-C , 12-S ) :   1.0808 B( 11-C , 62-H ) :   0.9803
B( 12-S , 13-C ) :   1.0840 B( 13-C , 14-C ) :   1.6190 B( 13-C , 15-Br) :   1.0144
B( 14-C , 63-H ) :   1.0013 B( 16-C , 17-O ) :   2.2307 B( 16-C , 18-C ) :   0.9391
B( 18-C , 19-C ) :   1.5951 B( 19-C , 20-C ) :   0.9962 B( 19-C , 56-N ) :   0.1181
B( 19-C , 64-H ) :   0.9343 B( 20-C , 21-N ) :   1.5435 B( 20-C , 25-N ) :   1.4775
B( 21-N , 22-C ) :   1.5308 B( 22-C , 23-C ) :   1.3860 B( 22-C , 65-H ) :   0.9783
B( 23-C , 24-C ) :   1.3445 B( 23-C , 66-H ) :   0.9696 B( 24-C , 25-N ) :   1.4263
B( 24-C , 26-C ) :   1.1104 B( 26-C , 27-C ) :   1.5951 B( 26-C , 67-H ) :   0.9422
B( 27-C , 28-C ) :   1.2136 B( 27-C , 68-H ) :   0.9678 B( 28-C , 29-C ) :   1.5568
B( 28-C , 69-H ) :   0.9614 B( 29-C , 30-C ) :   1.1502 B( 29-C , 33-S ) :   1.0608
B( 30-C , 31-C ) :   1.5907 B( 30-C , 70-H ) :   0.9985 B( 31-C , 32-C ) :   1.1861
B( 31-C , 71-H ) :   0.9915 B( 32-C , 33-S ) :   1.0270 B( 32-C , 34-C ) :   1.5148
B( 34-C , 35-C ) :   1.1740 B( 34-C , 38-S ) :   1.0611 B( 35-C , 36-C ) :   1.6026
B( 35-C , 72-H ) :   0.9923 B( 36-C , 37-C ) :   1.1309 B( 36-C , 73-H ) :   0.9995
B( 37-C , 38-S ) :   1.0214 B( 37-C , 39-C ) :   1.6347 B( 39-C , 40-C ) :   1.1461
B( 39-C , 74-H ) :   0.9405 B( 40-C , 41-S ) :   1.1226 B( 40-C , 44-C ) :   1.5000
B( 41-S , 42-C ) :   1.1536 B( 42-C , 43-C ) :   1.5349 B( 42-C , 75-H ) :   0.9681
B( 43-C , 44-C ) :   1.2385 B( 43-C , 47-C ) :   1.0114 B( 44-C , 45-S ) :   1.0014
B( 45-S , 46-C ) :   1.0085 B( 46-C , 47-C ) :   1.2309 B( 46-C , 50-C ) :   1.5699
B( 47-C , 48-C ) :   1.5369 B( 48-C , 49-S ) :   1.1546 B( 48-C , 76-H ) :   0.9704
B( 49-S , 50-C ) :   1.1502 B( 50-C , 51-C ) :   1.0941 B( 51-C , 52-S ) :   1.0946
B( 51-C , 53-C ) :   1.5267 B( 51-C , 58-C ) :   0.1031 B( 52-S , 58-C ) :   1.0561
B( 53-C , 54-O ) :   1.1905 B( 53-C , 55-C ) :   1.2126 B( 54-O , 77-H ) :   0.8972
B( 55-C , 56-N ) :   1.1905 B( 55-C , 58-C ) :   1.4273 B( 56-N , 57-N ) :   1.0163
B( 56-N , 78-H ) :   0.9105 B( 57-N , 79-H ) :   0.9392 B( 57-N , 80-H ) :   0.9623
B( 58-C , 59-C ) :   1.1616 B( 59-C , 60-C ) :   1.8956 B( 59-C , 81-H ) :   0.9552
B( 60-C , 82-H ) :   0.9542 B( 60-C , 83-H ) :   0.9431

-----------------------------------------------------------------------------
         ABSORPTION SPECTRUM VIA TRANSITION ELECTRIC DIPOLE MOMENTS
-----------------------------------------------------------------------------
State   Energy  Wavelength   fosc         T2         TX        TY        TZ
        (cm-1)    (nm)                  (au**2)     (au)      (au)      (au)
-----------------------------------------------------------------------------
   0   13883.7    720.3   0.538273360  12.76363  -1.82950   3.04051   0.41458
   1   16416.8    609.1   0.336878067   6.75554  -0.55685   1.50347   2.04574
   2   17219.5    580.7   0.030579145   0.58463  -0.45435   0.55828  -0.25792
   3   18139.6    551.3   0.019222480   0.34887  -0.54893   0.21481  -0.03737
   4   19408.5    515.2   0.034906979   0.59210   0.63707  -0.42994  -0.03730
   5   20445.3    489.1   0.080709049   1.29959   0.46034  -1.03991  -0.07912
   6   21778.8    459.2   0.126986451   1.91955   1.01140  -0.43687  -0.84009
   7   23922.5    418.0   0.061142052   0.84141   0.13708   0.66481  -0.61697
   8   24364.5    410.4   0.015776042   0.21316  -0.25512   0.11883   0.36600
   9   26199.1    381.7   0.666152751   8.37074  -1.74628  -0.82566   2.15395
  10   26429.2    378.4   0.057924878   0.72153   0.27951  -0.09026  -0.79703
  11   26614.0    375.7   0.184416192   2.28121   0.13626  -0.90102   1.20449
  12   27059.2    369.6   0.328318878   3.99444  -0.21294  -1.20598   1.57947
  13   27127.4    368.6   0.054477105   0.66112  -0.22441  -0.69396   0.35942
  14   27443.0    364.4   0.149911268   1.79836  -1.07812   0.69094   0.39828
  15   28335.5    352.9   0.328186159   3.81298   1.52844   0.54335  -1.08702
  16   29035.8    344.4   0.013884394   0.15742   0.01331  -0.39554  -0.02816
  17   29253.4    341.8   0.170519548   1.91900  -0.69000  -1.11766   0.44016
  18   29644.3    337.3   0.005427691   0.06028   0.10553   0.04338  -0.21739
  19   30209.5    331.0   0.033309001   0.36299  -0.47615   0.33001  -0.16543
  20   30563.9    327.2   0.032501411   0.35008  -0.14068   0.53506  -0.20977
  21   30764.6    325.0   0.013664446   0.14622   0.05551   0.25090   0.28318
  22   31238.5    320.1   0.075965638   0.80058  -0.01609  -0.76457   0.46450
  23   31387.1    318.6   0.096491575   1.01208   0.02897  -0.68787   0.73354
  24   31598.6    316.5   0.557437875   5.80769  -1.97558   1.36674   0.19185
  25   31843.5    314.0   0.032993407   0.34110  -0.06017  -0.20411   0.54389
  26   32136.7    311.2   0.249445788   2.55535  -0.65093  -1.38758   0.45415
  27   32518.2    307.5   0.024740283   0.25047  -0.31452   0.38547  -0.05439
  28   32795.2    304.9   0.022314363   0.22400   0.30174  -0.31190  -0.18888
  29   33211.0    301.1   0.444542804   4.40663   1.44773   0.74381  -1.32569
  30   33246.9    300.8   0.127395827   1.26148  -1.05872  -0.01929   0.37445
  31   33540.8    298.1   0.103499186   1.01587   0.86952  -0.43637   0.26343
  32   33918.2    294.8   0.100664342   0.97705   0.86640  -0.46912   0.07952
  33   33977.4    294.3   0.061192436   0.59290  -0.69207  -0.27746   0.19223
  34   34250.9    292.0   0.062901733   0.60460   0.16247   0.66944  -0.36062
  35   34640.3    288.7   0.001794540   0.01705  -0.04297   0.09718   0.07593
  36   35180.2    284.3   0.025645256   0.23998  -0.05371   0.46403  -0.14756
  37   35295.7    283.3   0.009590222   0.08945   0.07598   0.04966  -0.28498
  38   35752.6    279.7   0.173733032   1.59974   0.58589   0.86661  -0.71096
  39   35935.7    278.3   0.128423466   1.17651   0.31951   0.98285  -0.32928
  40   36122.3    276.8   0.022683215   0.20673  -0.43597   0.11316  -0.06206
  41   36645.8    272.9   0.030916151   0.27774  -0.08409   0.30114  -0.42424
  42   36796.9    271.8   0.020143380   0.18022   0.17982  -0.38432  -0.01353
  43   37107.1    269.5   0.222688632   1.97568  -0.42906  -1.16954   0.65097
  44   37156.2    269.1   0.065855174   0.58349  -0.51398   0.56140  -0.06438
  45   37419.5    267.2   0.010771334   0.09476   0.22821  -0.19887   0.05601
  46   38005.8    263.1   0.019445720   0.16844   0.17594  -0.27838   0.24493
  47   38185.5    261.9   0.031756641   0.27379   0.46346  -0.22769  -0.08453
  48   38534.2    259.5   0.041644426   0.35578   0.49128  -0.32215   0.10320
  49   38729.8    258.2   0.017342257   0.14741   0.23899   0.13539  -0.26827
  50   38841.2    257.5   0.005938645   0.05034  -0.21985  -0.02532   0.03691
  51   39039.0    256.2   0.009545105   0.08049   0.04646  -0.06621   0.27194
  52   39208.4    255.0   0.003182680   0.02672  -0.11418  -0.04490   0.10803
  53   39255.2    254.7   0.000162153   0.00136   0.00151   0.02543  -0.02666
  54   39392.1    253.9   0.022521560   0.18822  -0.17162   0.39514   0.05124
  55   39724.6    251.7   0.025913953   0.21476   0.34479  -0.28842  -0.11267
  56   39814.2    251.2   0.067914322   0.56156  -0.04756   0.72678  -0.17634
  57   40008.8    249.9   0.081816492   0.67323   0.02140  -0.65601   0.49236

FINAL SINGLE POINT ENERGY     -7565.095410114476

DIPOLE MOMENT
-------------
                                X             Y             Z
Electronic contribution:    -67.32461     -68.02067      90.61489
Nuclear contribution   :     67.64991      69.04441     -92.48714
                        -----------------------------------------
Total Dipole Moment    :      0.32530       1.02374      -1.87225
                        -----------------------------------------
Magnitude (a.u.)       :      2.15851
Magnitude (Debye)      :      5.48651

Rotational constants in cm-1:     0.001718     0.000607     0.000474
Rotational constants in MHz :    51.513185    18.185264    14.210176

                             ****ORCA TERMINATED NORMALLY****
TOTAL RUN TIME: 0 days 0 hours 9 minutes 59 seconds 948 msec
