                         Program Version 4.2.0 -  RELEASE  -
|  1> # ORCA input file
|  2> # SCF done       -188.243031024066          0.000625755440
|  3> ! CAM-B3LYP def2-SVP def2/J RIJCOSX Grid4 TightSCF
|  4> %maxcore 5000
|  5> %tddft
|  6>     Mode sTDDFT
|  7>     Ethresh 5.0
|  8>     maxcore 5000
|  9> end
| 10>
| 11> %pal
| 12>   nprocs 6
| 13>   end
| 14> * xyz 0 1
| 15>    C       -6.61572         4.64198        -2.52456
| 16>    C       -6.99188         5.92516        -2.85505
| 17>    C       -6.31222         6.69685        -3.80565
| 18>    N       -5.83681         7.32258        -4.64721
| 19>    C       -8.16001         6.55753        -2.38574
| 20>    N       -9.09819         7.11229        -2.02459
| 21>    C       -5.39745         3.97832        -2.97208
| 22>    C       -5.46054         2.60529        -2.61415
| 23>    C       -4.45792         1.71667        -2.91322
| 24>    C       -3.32551         2.20755        -3.57314
| 25>    C       -3.24849         3.58779        -3.88615
| 26>    C       -4.27558         4.48069        -3.60214
| 27>    S       -1.74516         3.99188        -4.64808
| 28>    C       -1.25380         2.32529        -4.56245
| 29>    C       -2.16376         1.50376        -3.98106
| 30>   Br        0.41204         1.81935        -5.25151
| 31>    C       -6.71017         2.36643        -1.88084
| 32>    O       -7.12231         1.31181        -1.41870
| 33>    C       -7.39114         3.66647        -1.80312
| 34>    C       -8.62608         3.79766        -1.21933
| 35>    N       -9.26846         2.74318        -0.70536
| 36>    C      -10.60702         2.72632        -0.38296
| 37>    S      -11.15172         1.77664         0.95966
| 38>    C      -12.75605         2.37193         0.70414
| 39>    N      -13.77137         1.90741         1.55727
| 40>    O      -14.89454         2.33371         1.38072
| 41>    O      -13.44009         1.10638         2.41175
| 42>    C      -12.85744         3.24307        -0.34915
| 43>    C      -11.62948         3.44150        -1.00562
| 44>    C      -11.43652         4.26451        -2.18962
| 45>    C      -10.65721         3.85328        -3.21078
| 46>    C      -10.13049         4.60655        -4.29135
| 47>    S       -8.73947         3.89369        -5.08393
| 48>    C       -8.35360         5.35314        -5.90984
| 49>    C       -9.30310         6.34506        -5.66067
| 50>    C      -10.32000         5.91530        -4.74254
| 51>    C      -11.35073         6.81428        -4.41255
| 52>    C      -11.34477         8.08751        -4.92917
| 53>    C      -12.41470         9.03076        -4.58333
| 54>    O      -12.50552        10.15877        -4.99510
| 55>    C      -10.31317         8.51242        -5.80747
| 56>    C       -9.32008         7.66162        -6.17645
| 57>    N       -7.22474         5.52089        -6.64943
| 58>    C       -6.14002         4.67275        -6.76349
| 59>    C       -6.12466         3.31264        -6.66130
| 60>    S       -4.56251         2.66374        -6.97614
| 61>    C       -3.90702         4.22576        -7.23930
| 62>    C       -4.84275         5.20403        -7.08200
| 63>    N       -4.61710         6.57923        -7.12342
| 64>    C       -3.72096         7.19753        -7.91606
| 65>    C       -3.21649         6.69100        -9.07706
| 66>    C       -2.32933         7.36261        -9.93451
| 67>    C       -1.48651         8.42447        -9.71766
| 68>    C       -0.93081         9.03985        -8.54154
| 69>    C       -0.72111         8.45557        -7.31189
| 70>    C       -0.07733         9.08590        -6.23017
| 71>    N        0.42027         9.54937        -5.30436
| 72>    C       -1.06295         7.12982        -7.01242
| 73>    N       -1.31992         6.04622        -6.72570
| 74>    C       -0.36763        10.32846        -8.94179
| 75>    C       -0.38319        10.41027       -10.35565
| 76>    C       -1.01737         9.19038       -10.89859
| 77>    O       -1.16128         8.89059       -12.06362
| 78>    C        0.11765        11.49066       -11.03816
| 79>    C        0.64811        12.54711       -10.28840
| 80>    C        0.64275        12.46325        -8.87636
| 81>    C        0.14389        11.36481        -8.18575
| 82>    S        1.33193        13.88290        -8.14887
| 83>    C        1.62061        14.55743        -9.73002
| 84>    C        1.21940        13.76407       -10.75149
| 85>   Br        2.42049        16.24745        -9.88329
| 86>    H       -4.53704         0.67714        -2.63686
| 87>    H       -4.16544         5.52273        -3.85301
| 88>    H       -2.01946         0.44767        -3.84602
| 89>    H       -9.12948         4.75275        -1.16426
| 90>    H       -8.72030         1.87092        -0.68562
| 91>    H      -13.78800         3.69071        -0.64789
| 92>    H      -11.89645         5.23835        -2.17240
| 93>    H      -10.27636         2.83814        -3.17135
| 94>    H      -12.15857         6.49937        -3.77262
| 95>    H      -13.16690         8.61397        -3.88431
| 96>    H      -10.35657         9.52472        -6.17766
| 97>    H       -8.55184         7.98248        -6.86500
| 98>    H       -7.06061         6.46786        -6.96600
| 99>    H       -6.93503         2.64373        -6.46289
|100>    H       -2.86375         4.35583        -7.44519
|101>    H       -5.00516         7.09583        -6.33198
|102>    H       -3.50218         8.21882        -7.63261
|103>    H       -3.59047         5.73562        -9.41818
|104>    H       -2.34673         7.03731       -10.97094
|105>    H        0.10338        11.52216       -12.11627
|106>    H        0.15705        11.34833        -7.10847
|107>    H        1.32095        14.02480       -11.78911
|108> *
|109>
|110>                          ****END OF INPUT****

CARTESIAN COORDINATES (ANGSTROEM)
---------------------------------
  C     -6.615720    4.641980   -2.524560
  C     -6.991880    5.925160   -2.855050
  C     -6.312220    6.696850   -3.805650
  N     -5.836810    7.322580   -4.647210
  C     -8.160010    6.557530   -2.385740
  N     -9.098190    7.112290   -2.024590
  C     -5.397450    3.978320   -2.972080
  C     -5.460540    2.605290   -2.614150
  C     -4.457920    1.716670   -2.913220
  C     -3.325510    2.207550   -3.573140
  C     -3.248490    3.587790   -3.886150
  C     -4.275580    4.480690   -3.602140
  S     -1.745160    3.991880   -4.648080
  C     -1.253800    2.325290   -4.562450
  C     -2.163760    1.503760   -3.981060
  Br     0.412040    1.819350   -5.251510
  C     -6.710170    2.366430   -1.880840
  O     -7.122310    1.311810   -1.418700
  C     -7.391140    3.666470   -1.803120
  C     -8.626080    3.797660   -1.219330
  N     -9.268460    2.743180   -0.705360
  C    -10.607020    2.726320   -0.382960
  S    -11.151720    1.776640    0.959660
  C    -12.756050    2.371930    0.704140
  N    -13.771370    1.907410    1.557270
  O    -14.894540    2.333710    1.380720
  O    -13.440090    1.106380    2.411750
  C    -12.857440    3.243070   -0.349150
  C    -11.629480    3.441500   -1.005620
  C    -11.436520    4.264510   -2.189620
  C    -10.657210    3.853280   -3.210780
  C    -10.130490    4.606550   -4.291350
  S     -8.739470    3.893690   -5.083930
  C     -8.353600    5.353140   -5.909840
  C     -9.303100    6.345060   -5.660670
  C    -10.320000    5.915300   -4.742540
  C    -11.350730    6.814280   -4.412550
  C    -11.344770    8.087510   -4.929170
  C    -12.414700    9.030760   -4.583330
  O    -12.505520   10.158770   -4.995100
  C    -10.313170    8.512420   -5.807470
  C     -9.320080    7.661620   -6.176450
  N     -7.224740    5.520890   -6.649430
  C     -6.140020    4.672750   -6.763490
  C     -6.124660    3.312640   -6.661300
  S     -4.562510    2.663740   -6.976140
  C     -3.907020    4.225760   -7.239300
  C     -4.842750    5.204030   -7.082000
  N     -4.617100    6.579230   -7.123420
  C     -3.720960    7.197530   -7.916060
  C     -3.216490    6.691000   -9.077060
  C     -2.329330    7.362610   -9.934510
  C     -1.486510    8.424470   -9.717660
  C     -0.930810    9.039850   -8.541540
  C     -0.721110    8.455570   -7.311890
  C     -0.077330    9.085900   -6.230170
  N      0.420270    9.549370   -5.304360
  C     -1.062950    7.129820   -7.012420
  N     -1.319920    6.046220   -6.725700
  C     -0.367630   10.328460   -8.941790
  C     -0.383190   10.410270  -10.355650
  C     -1.017370    9.190380  -10.898590
  O     -1.161280    8.890590  -12.063620
  C      0.117650   11.490660  -11.038160
  C      0.648110   12.547110  -10.288400
  C      0.642750   12.463250   -8.876360
  C      0.143890   11.364810   -8.185750
  S      1.331930   13.882900   -8.148870
  C      1.620610   14.557430   -9.730020
  C      1.219400   13.764070  -10.751490
  Br     2.420490   16.247450   -9.883290
  H     -4.537040    0.677140   -2.636860
  H     -4.165440    5.522730   -3.853010
  H     -2.019460    0.447670   -3.846020
  H     -9.129480    4.752750   -1.164260
  H     -8.720300    1.870920   -0.685620
  H    -13.788000    3.690710   -0.647890
  H    -11.896450    5.238350   -2.172400
  H    -10.276360    2.838140   -3.171350
  H    -12.158570    6.499370   -3.772620
  H    -13.166900    8.613970   -3.884310
  H    -10.356570    9.524720   -6.177660
  H     -8.551840    7.982480   -6.865000
  H     -7.060610    6.467860   -6.966000
  H     -6.935030    2.643730   -6.462890
  H     -2.863750    4.355830   -7.445190
  H     -5.005160    7.095830   -6.331980
  H     -3.502180    8.218820   -7.632610
  H     -3.590470    5.735620   -9.418180
  H     -2.346730    7.037310  -10.970940
  H      0.103380   11.522160  -12.116270
  H      0.157050   11.348330   -7.108470
  H      1.320950   14.024800  -11.789110

 Total Charge           Charge          ....    0
 Multiplicity           Mult            ....    1
 Number of Electrons    NEL             ....  574
 Basis Dimension        Dim             .... 1160

ORBITAL ENERGIES
----------------

  NO   OCC          E(Eh)            E(eV)
   0   2.0000    -482.888037    -13140.0515
   1   2.0000    -482.882412    -13139.8984
   2   2.0000     -88.993655     -2421.6405
   3   2.0000     -88.985856     -2421.4282
   4   2.0000     -88.977144     -2421.1912
   5   2.0000     -88.972293     -2421.0592
   6   2.0000     -88.971643     -2421.0415
   7   2.0000     -62.565737     -1702.5003
   8   2.0000     -62.560124     -1702.3475
   9   2.0000     -56.399666     -1534.7129
  10   2.0000     -56.396970     -1534.6396
  11   2.0000     -56.396956     -1534.6392
  12   2.0000     -56.394074     -1534.5608
  13   2.0000     -56.391363     -1534.4870
  14   2.0000     -56.391327     -1534.4860
  15   2.0000     -19.244829      -523.6784
  16   2.0000     -19.244782      -523.6771
  17   2.0000     -19.237519      -523.4795
  18   2.0000     -19.212032      -522.7860
  19   2.0000     -19.204334      -522.5765
  20   2.0000     -14.656471      -398.8228
  21   2.0000     -14.495042      -394.4301
  22   2.0000     -14.479625      -394.0106
  23   2.0000     -14.473263      -393.8375
  24   2.0000     -14.443917      -393.0390
  25   2.0000     -14.427499      -392.5922
  26   2.0000     -14.419420      -392.3724
  27   2.0000     -14.409511      -392.1027
  28   2.0000     -10.384616      -282.5798
  29   2.0000     -10.374087      -282.2933
  30   2.0000     -10.370532      -282.1965
  31   2.0000     -10.366837      -282.0960
  32   2.0000     -10.361969      -281.9635
  33   2.0000     -10.359348      -281.8922
  34   2.0000     -10.355536      -281.7885
  35   2.0000     -10.354801      -281.7685
  36   2.0000     -10.354590      -281.7627
  37   2.0000     -10.353937      -281.7450
  38   2.0000     -10.352815      -281.7144
  39   2.0000     -10.352549      -281.7072
  40   2.0000     -10.350311      -281.6463
  41   2.0000     -10.340638      -281.3831
  42   2.0000     -10.338482      -281.3244
  43   2.0000     -10.333191      -281.1804
  44   2.0000     -10.332212      -281.1538
  45   2.0000     -10.331291      -281.1287
  46   2.0000     -10.330083      -281.0958
  47   2.0000     -10.325132      -280.9611
  48   2.0000     -10.320829      -280.8440
  49   2.0000     -10.317180      -280.7447
  50   2.0000     -10.316550      -280.7276
  51   2.0000     -10.314201      -280.6637
  52   2.0000     -10.314145      -280.6622
  53   2.0000     -10.313592      -280.6471
  54   2.0000     -10.311725      -280.5963
  55   2.0000     -10.310595      -280.5656
  56   2.0000     -10.310554      -280.5644
  57   2.0000     -10.306776      -280.4616
  58   2.0000     -10.306736      -280.4605
  59   2.0000     -10.305955      -280.4393
  60   2.0000     -10.303158      -280.3632
  61   2.0000     -10.302828      -280.3542
  62   2.0000     -10.302609      -280.3482
  63   2.0000     -10.302546      -280.3465
  64   2.0000     -10.301778      -280.3256
  65   2.0000     -10.301190      -280.3096
  66   2.0000     -10.299802      -280.2719
  67   2.0000     -10.298667      -280.2410
  68   2.0000     -10.295817      -280.1634
  69   2.0000     -10.295672      -280.1595
  70   2.0000     -10.293753      -280.1072
  71   2.0000     -10.292964      -280.0858
  72   2.0000     -10.292489      -280.0729
  73   2.0000     -10.287236      -279.9299
  74   2.0000     -10.286189      -279.9014
  75   2.0000     -10.286106      -279.8992
  76   2.0000     -10.280707      -279.7523
  77   2.0000     -10.278927      -279.7038
  78   2.0000     -10.277292      -279.6593
  79   2.0000      -8.795185      -239.3292
  80   2.0000      -8.789544      -239.1756
  81   2.0000      -8.089330      -220.1219
  82   2.0000      -8.080229      -219.8742
  83   2.0000      -8.072397      -219.6611
  84   2.0000      -8.067651      -219.5320
  85   2.0000      -8.067495      -219.5277
  86   2.0000      -6.631459      -180.4512
  87   2.0000      -6.625844      -180.2984
  88   2.0000      -6.616989      -180.0574
  89   2.0000      -6.616675      -180.0489
  90   2.0000      -6.611275      -179.9019
  91   2.0000      -6.611088      -179.8968
  92   2.0000      -6.058801      -164.8683
  93   2.0000      -6.054439      -164.7497
  94   2.0000      -6.051089      -164.6585
  95   2.0000      -6.049503      -164.6153
  96   2.0000      -6.045292      -164.5008
  97   2.0000      -6.042629      -164.4283
  98   2.0000      -6.042023      -164.4118
  99   2.0000      -6.037622      -164.2920
 100   2.0000      -6.037353      -164.2847
 101   2.0000      -6.036963      -164.2741
 102   2.0000      -6.033754      -164.1868
 103   2.0000      -6.033064      -164.1680
 104   2.0000      -6.032554      -164.1542
 105   2.0000      -6.029621      -164.0743
 106   2.0000      -6.028874      -164.0540
 107   2.0000      -2.747368       -74.7597
 108   2.0000      -2.743289       -74.6487
 109   2.0000      -2.743058       -74.6424
 110   2.0000      -2.741683       -74.6050
 111   2.0000      -2.737632       -74.4948
 112   2.0000      -2.737501       -74.4912
 113   2.0000      -2.731546       -74.3291
 114   2.0000      -2.731536       -74.3289
 115   2.0000      -2.725920       -74.1761
 116   2.0000      -2.725901       -74.1755
 117   2.0000      -1.327158       -36.1138
 118   2.0000      -1.152516       -31.3616
 119   2.0000      -1.146539       -31.1989
 120   2.0000      -1.124648       -30.6032
 121   2.0000      -1.119439       -30.4615
 122   2.0000      -1.101837       -29.9825
 123   2.0000      -1.095989       -29.8234
 124   2.0000      -1.068676       -29.0802
 125   2.0000      -1.039415       -28.2839
 126   2.0000      -1.025531       -27.9061
 127   2.0000      -1.019493       -27.7418
 128   2.0000      -1.016022       -27.6474
 129   2.0000      -1.013193       -27.5704
 130   2.0000      -1.012220       -27.5439
 131   2.0000      -1.003708       -27.3123
 132   2.0000      -0.999876       -27.2080
 133   2.0000      -0.994222       -27.0542
 134   2.0000      -0.984295       -26.7840
 135   2.0000      -0.983297       -26.7569
 136   2.0000      -0.950189       -25.8559
 137   2.0000      -0.945397       -25.7256
 138   2.0000      -0.938764       -25.5451
 139   2.0000      -0.923633       -25.1333
 140   2.0000      -0.920145       -25.0384
 141   2.0000      -0.909991       -24.7621
 142   2.0000      -0.908191       -24.7131
 143   2.0000      -0.904232       -24.6054
 144   2.0000      -0.894006       -24.3271
 145   2.0000      -0.890699       -24.2371
 146   2.0000      -0.881501       -23.9869
 147   2.0000      -0.881265       -23.9804
 148   2.0000      -0.873845       -23.7785
 149   2.0000      -0.857644       -23.3377
 150   2.0000      -0.852154       -23.1883
 151   2.0000      -0.847926       -23.0732
 152   2.0000      -0.847011       -23.0484
 153   2.0000      -0.837313       -22.7844
 154   2.0000      -0.835644       -22.7390
 155   2.0000      -0.825059       -22.4510
 156   2.0000      -0.813774       -22.1439
 157   2.0000      -0.802259       -21.8306
 158   2.0000      -0.789428       -21.4814
 159   2.0000      -0.771772       -21.0010
 160   2.0000      -0.770318       -20.9614
 161   2.0000      -0.766115       -20.8471
 162   2.0000      -0.752403       -20.4739
 163   2.0000      -0.746282       -20.3074
 164   2.0000      -0.732628       -19.9358
 165   2.0000      -0.725290       -19.7361
 166   2.0000      -0.723694       -19.6927
 167   2.0000      -0.717814       -19.5327
 168   2.0000      -0.709607       -19.3094
 169   2.0000      -0.700469       -19.0607
 170   2.0000      -0.698459       -19.0060
 171   2.0000      -0.689657       -18.7665
 172   2.0000      -0.686008       -18.6672
 173   2.0000      -0.680840       -18.5266
 174   2.0000      -0.677895       -18.4465
 175   2.0000      -0.676344       -18.4042
 176   2.0000      -0.671387       -18.2694
 177   2.0000      -0.661560       -18.0020
 178   2.0000      -0.655337       -17.8326
 179   2.0000      -0.651833       -17.7373
 180   2.0000      -0.641732       -17.4624
 181   2.0000      -0.637974       -17.3602
 182   2.0000      -0.636929       -17.3317
 183   2.0000      -0.636272       -17.3138
 184   2.0000      -0.630747       -17.1635
 185   2.0000      -0.629465       -17.1286
 186   2.0000      -0.622338       -16.9347
 187   2.0000      -0.617550       -16.8044
 188   2.0000      -0.611181       -16.6311
 189   2.0000      -0.608176       -16.5493
 190   2.0000      -0.598483       -16.2855
 191   2.0000      -0.592266       -16.1164
 192   2.0000      -0.588098       -16.0030
 193   2.0000      -0.587440       -15.9851
 194   2.0000      -0.585944       -15.9443
 195   2.0000      -0.584370       -15.9015
 196   2.0000      -0.573287       -15.5999
 197   2.0000      -0.571217       -15.5436
 198   2.0000      -0.566078       -15.4038
 199   2.0000      -0.564661       -15.3652
 200   2.0000      -0.558490       -15.1973
 201   2.0000      -0.555852       -15.1255
 202   2.0000      -0.551098       -14.9961
 203   2.0000      -0.547167       -14.8892
 204   2.0000      -0.544801       -14.8248
 205   2.0000      -0.544388       -14.8135
 206   2.0000      -0.539527       -14.6813
 207   2.0000      -0.534502       -14.5445
 208   2.0000      -0.532644       -14.4940
 209   2.0000      -0.531037       -14.4503
 210   2.0000      -0.528399       -14.3785
 211   2.0000      -0.527925       -14.3656
 212   2.0000      -0.526276       -14.3207
 213   2.0000      -0.524935       -14.2842
 214   2.0000      -0.523948       -14.2573
 215   2.0000      -0.517298       -14.0764
 216   2.0000      -0.513638       -13.9768
 217   2.0000      -0.512577       -13.9479
 218   2.0000      -0.510376       -13.8880
 219   2.0000      -0.506454       -13.7813
 220   2.0000      -0.504924       -13.7397
 221   2.0000      -0.503775       -13.7084
 222   2.0000      -0.501713       -13.6523
 223   2.0000      -0.500742       -13.6259
 224   2.0000      -0.496065       -13.4986
 225   2.0000      -0.495351       -13.4792
 226   2.0000      -0.492563       -13.4033
 227   2.0000      -0.488928       -13.3044
 228   2.0000      -0.483601       -13.1594
 229   2.0000      -0.483202       -13.1486
 230   2.0000      -0.482900       -13.1404
 231   2.0000      -0.478739       -13.0271
 232   2.0000      -0.477022       -12.9804
 233   2.0000      -0.476027       -12.9534
 234   2.0000      -0.472837       -12.8666
 235   2.0000      -0.469756       -12.7827
 236   2.0000      -0.467768       -12.7286
 237   2.0000      -0.462718       -12.5912
 238   2.0000      -0.461550       -12.5594
 239   2.0000      -0.459267       -12.4973
 240   2.0000      -0.457284       -12.4433
 241   2.0000      -0.453858       -12.3501
 242   2.0000      -0.453371       -12.3369
 243   2.0000      -0.450856       -12.2684
 244   2.0000      -0.444901       -12.1064
 245   2.0000      -0.443704       -12.0738
 246   2.0000      -0.441995       -12.0273
 247   2.0000      -0.440485       -11.9862
 248   2.0000      -0.437807       -11.9133
 249   2.0000      -0.435800       -11.8587
 250   2.0000      -0.435068       -11.8388
 251   2.0000      -0.432244       -11.7619
 252   2.0000      -0.430620       -11.7178
 253   2.0000      -0.428948       -11.6723
 254   2.0000      -0.424345       -11.5470
 255   2.0000      -0.422005       -11.4833
 256   2.0000      -0.421127       -11.4595
 257   2.0000      -0.416466       -11.3326
 258   2.0000      -0.411585       -11.1998
 259   2.0000      -0.406569       -11.0633
 260   2.0000      -0.394383       -10.7317
 261   2.0000      -0.391572       -10.6552
 262   2.0000      -0.388251       -10.5648
 263   2.0000      -0.385631       -10.4936
 264   2.0000      -0.384040       -10.4502
 265   2.0000      -0.377431       -10.2704
 266   2.0000      -0.376761       -10.2522
 267   2.0000      -0.376233       -10.2378
 268   2.0000      -0.372738       -10.1427
 269   2.0000      -0.371986       -10.1222
 270   2.0000      -0.364648        -9.9226
 271   2.0000      -0.360764        -9.8169
 272   2.0000      -0.353435        -9.6175
 273   2.0000      -0.349233        -9.5031
 274   2.0000      -0.332120        -9.0374
 275   2.0000      -0.331327        -9.0159
 276   2.0000      -0.330198        -8.9852
 277   2.0000      -0.327862        -8.9216
 278   2.0000      -0.323840        -8.8121
 279   2.0000      -0.320049        -8.7090
 280   2.0000      -0.310895        -8.4599
 281   2.0000      -0.310380        -8.4459
 282   2.0000      -0.299242        -8.1428
 283   2.0000      -0.296120        -8.0578
 284   2.0000      -0.291059        -7.9201
 285   2.0000      -0.266276        -7.2457
 286   2.0000      -0.237828        -6.4716
 287   0.0000      -0.099061        -2.6956
 288   0.0000      -0.080321        -2.1856
 289   0.0000      -0.073323        -1.9952
 290   0.0000      -0.061834        -1.6826
 291   0.0000      -0.048489        -1.3195

MULLIKEN ATOMIC CHARGES
-----------------------
   0 C :    0.352393
   1 C :   -0.381164
   2 C :   -0.115749
   3 N :    0.086047
   4 C :   -0.186071
   5 N :    0.151143
   6 C :    0.008271
   7 C :    0.000316
   8 C :   -0.080910
   9 C :    0.131204
  10 C :   -0.098769
  11 C :   -0.017063
  12 S :    0.226629
  13 C :   -0.126544
  14 C :    0.030172
  15 Br:    0.030523
  16 C :    0.162991
  17 O :   -0.206409
  18 C :   -0.154513
  19 C :    0.035772
  20 N :   -0.017328
  21 C :   -0.130490
  22 S :    0.206267
  23 C :   -0.003434
  24 N :    0.275297
  25 O :   -0.240776
  26 O :   -0.258076
  27 C :    0.001745
  28 C :    0.110232
  29 C :   -0.100868
  30 C :    0.104196
  31 C :   -0.187876
  32 S :    0.104545
  33 C :   -0.116909
  34 C :    0.125928
  35 C :    0.148542
  36 C :   -0.047869
  37 C :    0.001708
  38 C :    0.162578
  39 O :   -0.174705
  40 C :    0.007498
  41 C :   -0.030313
  42 N :   -0.005160
  43 C :    0.113977
  44 C :   -0.211523
  45 S :    0.131609
  46 C :   -0.154858
  47 C :    0.098486
  48 N :   -0.075666
  49 C :    0.083397
  50 C :   -0.048413
  51 C :    0.050659
  52 C :   -0.152173
  53 C :    0.281471
  54 C :   -0.374539
  55 C :   -0.177388
  56 N :    0.145391
  57 C :   -0.182537
  58 N :    0.134932
  59 C :   -0.007726
  60 C :    0.011024
  61 C :    0.131710
  62 O :   -0.155150
  63 C :   -0.079702
  64 C :    0.115478
  65 C :   -0.088959
  66 C :   -0.027557
  67 S :    0.181526
  68 C :   -0.123398
  69 C :    0.036360
  70 Br:    0.018896
  71 H :   -0.010329
  72 H :   -0.008873
  73 H :   -0.005295
  74 H :    0.060781
  75 H :    0.171168
  76 H :    0.011343
  77 H :    0.009772
  78 H :   -0.009340
  79 H :   -0.027410
  80 H :   -0.022456
  81 H :   -0.004043
  82 H :   -0.030235
  83 H :    0.123904
  84 H :    0.030094
  85 H :    0.048861
  86 H :    0.145227
  87 H :    0.038747
  88 H :    0.012850
  89 H :    0.025740
  90 H :   -0.010645
  91 H :   -0.004494
  92 H :   -0.003695
Sum of atomic charges:   -0.0000000

LOEWDIN ATOMIC CHARGES
----------------------
   0 C :    0.094414
   1 C :   -0.173032
   2 C :    0.036993
   3 N :   -0.094025
   4 C :   -0.018134
   5 N :   -0.056680
   6 C :   -0.026795
   7 C :   -0.052610
   8 C :    0.023485
   9 C :   -0.031896
  10 C :   -0.149163
  11 C :   -0.006249
  12 S :    0.493363
  13 C :   -0.273897
  14 C :   -0.075321
  15 Br:    0.142080
  16 C :    0.093234
  17 O :   -0.170977
  18 C :   -0.159519
  19 C :    0.136338
  20 N :    0.059901
  21 C :   -0.133791
  22 S :    0.478913
  23 C :   -0.200189
  24 N :    0.272947
  25 O :   -0.206883
  26 O :   -0.223350
  27 C :   -0.001739
  28 C :   -0.072838
  29 C :   -0.068375
  30 C :   -0.030997
  31 C :   -0.217660
  32 S :    0.474162
  33 C :   -0.113120
  34 C :   -0.084418
  35 C :   -0.026784
  36 C :    0.019606
  37 C :   -0.069844
  38 C :    0.110820
  39 O :   -0.129461
  40 C :   -0.005418
  41 C :   -0.013267
  42 N :    0.030425
  43 C :   -0.031858
  44 C :   -0.239711
  45 S :    0.463392
  46 C :   -0.186347
  47 C :   -0.046698
  48 N :    0.046825
  49 C :    0.102991
  50 C :   -0.119485
  51 C :    0.078044
  52 C :   -0.134213
  53 C :    0.073314
  54 C :   -0.175170
  55 C :   -0.024891
  56 N :   -0.067109
  57 C :    0.005598
  58 N :   -0.087025
  59 C :   -0.020413
  60 C :   -0.050421
  61 C :    0.081218
  62 O :   -0.154839
  63 C :    0.019662
  64 C :   -0.034858
  65 C :   -0.145828
  66 C :   -0.014445
  67 S :    0.429247
  68 C :   -0.273673
  69 C :   -0.070418
  70 Br:    0.133254
  71 H :    0.041360
  72 H :    0.037120
  73 H :    0.037899
  74 H :    0.047745
  75 H :    0.085855
  76 H :    0.047563
  77 H :    0.028772
  78 H :    0.026469
  79 H :    0.028562
  80 H :   -0.005518
  81 H :    0.035242
  82 H :    0.025372
  83 H :    0.084138
  84 H :    0.013313
  85 H :    0.026398
  86 H :    0.063028
  87 H :    0.039323
  88 H :    0.034928
  89 H :    0.046800
  90 H :    0.040640
  91 H :    0.040115
  92 H :    0.038483

  Mayer bond orders larger than 0.100000
B(  0-C ,  1-C ) :   1.5739 B(  0-C ,  6-C ) :   1.0050 B(  0-C , 18-C ) :   1.1329
B(  1-C ,  2-C ) :   1.1877 B(  1-C ,  4-C ) :   1.1496 B(  2-C ,  3-N ) :   2.8584
B(  3-N , 86-H ) :   0.1453 B(  4-C ,  5-N ) :   2.9435 B(  6-C ,  7-C ) :   1.2694
B(  6-C , 11-C ) :   1.4106 B(  7-C ,  8-C ) :   1.4222 B(  7-C , 16-C ) :   0.9734
B(  8-C ,  9-C ) :   1.2313 B(  8-C , 71-H ) :   1.0185 B(  9-C , 10-C ) :   1.2981
B(  9-C , 14-C ) :   1.1757 B( 10-C , 11-C ) :   1.3223 B( 10-C , 12-S ) :   1.1000
B( 11-C , 72-H ) :   0.9822 B( 12-S , 13-C ) :   1.1033 B( 13-C , 14-C ) :   1.5931
B( 13-C , 15-Br) :   1.0249 B( 14-C , 73-H ) :   1.0002 B( 16-C , 17-O ) :   2.0815
B( 16-C , 18-C ) :   0.9876 B( 17-O , 75-H ) :   0.1268 B( 18-C , 19-C ) :   1.4428
B( 19-C , 20-N ) :   1.3811 B( 19-C , 74-H ) :   0.9201 B( 20-N , 21-C ) :   1.0883
B( 20-N , 75-H ) :   0.8416 B( 21-C , 22-S ) :   1.1431 B( 21-C , 28-C ) :   1.4503
B( 22-S , 23-C ) :   1.1128 B( 23-C , 24-N ) :   0.9542 B( 23-C , 27-C ) :   1.4765
B( 24-N , 25-O ) :   1.5467 B( 24-N , 26-O ) :   1.5195 B( 25-O , 26-O ) :   0.2652
B( 27-C , 28-C ) :   1.2343 B( 27-C , 76-H ) :   1.0101 B( 28-C , 29-C ) :   1.0209
B( 29-C , 30-C ) :   1.7443 B( 29-C , 77-H ) :   0.9533 B( 30-C , 31-C ) :   1.1880
B( 30-C , 78-H ) :   0.9202 B( 31-C , 32-S ) :   1.0788 B( 31-C , 35-C ) :   1.3438
B( 32-S , 33-C ) :   1.1842 B( 33-C , 34-C ) :   1.2884 B( 33-C , 42-N ) :   1.2177
B( 34-C , 35-C ) :   1.2260 B( 34-C , 41-C ) :   1.1519 B( 35-C , 36-C ) :   1.2030
B( 36-C , 37-C ) :   1.4786 B( 36-C , 79-H ) :   0.9930 B( 37-C , 38-C ) :   0.9677
B( 37-C , 40-C ) :   1.1966 B( 38-C , 39-O ) :   2.1797 B( 38-C , 80-H ) :   0.9554
B( 40-C , 41-C ) :   1.5650 B( 40-C , 81-H ) :   0.9882 B( 41-C , 82-H ) :   0.9959
B( 42-N , 43-C ) :   1.1167 B( 42-N , 83-H ) :   0.8916 B( 43-C , 44-C ) :   1.5182
B( 43-C , 47-C ) :   1.2585 B( 44-C , 45-S ) :   1.1393 B( 44-C , 84-H ) :   0.9670
B( 45-S , 46-C ) :   1.1814 B( 46-C , 47-C ) :   1.5518 B( 46-C , 85-H ) :   0.9530
B( 47-C , 48-N ) :   1.0336 B( 48-N , 49-C ) :   1.3045 B( 48-N , 86-H ) :   0.8621
B( 49-C , 50-C ) :   1.4976 B( 49-C , 87-H ) :   0.9625 B( 50-C , 51-C ) :   1.2908
B( 50-C , 88-H ) :   0.9498 B( 51-C , 52-C ) :   1.5278 B( 51-C , 89-H ) :   0.9308
B( 52-C , 53-C ) :   1.0978 B( 52-C , 61-C ) :   0.9662 B( 53-C , 54-C ) :   1.5733
B( 53-C , 59-C ) :   1.0060 B( 54-C , 55-C ) :   1.1246 B( 54-C , 57-C ) :   1.1984
B( 55-C , 56-N ) :   2.9868 B( 57-C , 58-N ) :   2.9429 B( 59-C , 60-C ) :   1.2784
B( 59-C , 66-C ) :   1.4177 B( 60-C , 61-C ) :   0.9152 B( 60-C , 63-C ) :   1.4309
B( 61-C , 62-O ) :   2.2518 B( 63-C , 64-C ) :   1.2411 B( 63-C , 90-H ) :   1.0180
B( 64-C , 65-C ) :   1.3155 B( 64-C , 69-C ) :   1.1620 B( 65-C , 66-C ) :   1.3204
B( 65-C , 67-S ) :   1.0828 B( 66-C , 91-H ) :   0.9841 B( 67-S , 68-C ) :   1.0877
B( 68-C , 69-C ) :   1.6184 B( 68-C , 70-Br) :   1.0153 B( 69-C , 92-H ) :   1.0009

-----------------------------------------------------------------------------
         ABSORPTION SPECTRUM VIA TRANSITION ELECTRIC DIPOLE MOMENTS
-----------------------------------------------------------------------------
State   Energy  Wavelength   fosc         T2         TX        TY        TZ
        (cm-1)    (nm)                  (au**2)     (au)      (au)      (au)
-----------------------------------------------------------------------------
   0   11421.2    875.6   0.004472488   0.12892   0.08687   0.14207  -0.31810
   1   18590.2    537.9   0.027192373   0.48155  -0.22406   0.42234  -0.50297
   2   20356.5    491.2   0.605440615   9.79140   2.45293   1.68499  -0.96714
   3   21277.4    470.0   0.098932082   1.53072   0.36671   0.44333   1.09531
   4   22276.7    448.9   0.012105566   0.17890  -0.34297  -0.12611   0.21299
   5   22939.2    435.9   0.050943615   0.73112  -0.60203  -0.59023  -0.14246
   6   24537.1    407.5   0.416541376   5.58871   1.88052   0.85091  -1.15251
   7   25421.7    393.4   0.092657885   1.19992  -0.60081  -0.61639   0.67750
   8   26001.3    384.6   0.240591359   3.04621  -1.54121   0.20829   0.79215
   9   27835.4    359.3   0.050013306   0.59151   0.64683   0.09435  -0.40524
  10   28292.1    353.5   0.109835443   1.27806   0.33193  -0.99840   0.41361
  11   28980.2    345.1   0.621221791   7.05701  -2.33473  -0.59245   1.12029
  12   29539.1    338.5   0.508138709   5.66318  -0.68641  -2.14093   0.78003
  13   29710.4    336.6   0.023723173   0.26287  -0.42651   0.01850   0.28394
  14   30686.2    325.9   0.206483213   2.21522   1.33428  -0.05357  -0.65730
  15   30713.7    325.6   0.017397743   0.18648  -0.12444   0.40644   0.07617
  16   31321.8    319.3   0.252684442   2.65588   0.22680   1.05486  -1.22136
  17   31448.7    318.0   0.022210877   0.23251   0.32364   0.33120  -0.13443
  18   31533.4    317.1   0.047760392   0.49862  -0.25906  -0.46057   0.46839
  19   31571.1    316.7   0.175102352   1.82590   1.11575   0.08121  -0.75789
  20   31924.8    313.2   0.003072910   0.03169   0.05193  -0.14872   0.08290
  21   32055.9    312.0   0.114818739   1.17918  -0.48701   0.96408  -0.11204
  22   32212.3    310.4   0.064398476   0.65816   0.55185  -0.08911  -0.58794
  23   32385.9    308.8   0.104086070   1.05806   0.74527  -0.61739  -0.34853
  24   32626.4    306.5   0.165751023   1.67249   0.39643   0.89770  -0.84230
  25   32699.4    305.8   0.071032702   0.71515   0.32632   0.51288  -0.58789
  26   33178.9    301.4   0.094470250   0.93737  -0.76056   0.58881   0.11055
  27   33458.2    298.9   0.037064170   0.36469   0.32185  -0.47745   0.18206
  28   33564.8    297.9   0.101911290   0.99957  -0.87837   0.39910   0.26222
  29   33880.9    295.2   0.364533002   3.54207  -0.62980   1.75616  -0.24764
  30   34225.9    292.2   0.066529553   0.63993  -0.65469   0.42685   0.17065
  31   34639.3    288.7   0.016395154   0.15582   0.24584   0.09207  -0.29480
  32   34774.4    287.6   0.029806532   0.28218   0.29378  -0.10319  -0.43038
  33   35087.7    285.0   0.390295823   3.66197  -0.57900  -1.32247   1.25611
  34   35269.3    283.5   0.053464301   0.49905  -0.56001   0.12770   0.41125
  35   35349.5    282.9   0.104141542   0.96988   0.20868   0.57630  -0.77085
  36   36036.0    277.5   0.011895962   0.10868   0.15879  -0.27116   0.09966
  37   36380.8    274.9   0.085744924   0.77591  -0.55940   0.57115   0.36983
  38   36522.0    273.8   0.034619654   0.31206  -0.27353   0.48416   0.05327
  39   36777.0    271.9   0.049889838   0.44659   0.37757  -0.49815   0.23639
  40   36925.8    270.8   0.069250564   0.61740   0.60339  -0.47038  -0.17906
  41   37254.3    268.4   0.060443810   0.53414  -0.63408   0.10728   0.34724
  42   37315.5    268.0   0.220075694   1.94159   0.49868  -1.19612   0.51206
  43   37526.7    266.5   0.001561265   0.01370   0.04837  -0.00130  -0.10656
  44   37906.7    263.8   0.063159789   0.54853  -0.39565  -0.19910   0.59359
  45   38021.4    263.0   0.104175041   0.90201  -0.23842   0.85568  -0.33613
  46   38273.5    261.3   0.211119832   1.81596  -0.97257  -0.52439   0.77142
  47   38653.2    258.7   0.001515894   0.01291   0.09272   0.00643  -0.06537
  48   38897.3    257.1   0.003029122   0.02564   0.05636   0.08643   0.12243
  49   39040.3    256.1   0.025109989   0.21174   0.37115   0.06649  -0.26376
  50   39104.1    255.7   0.022758667   0.19160   0.00862   0.41909  -0.12605
  51   39457.0    253.4   0.064723539   0.54003  -0.58688   0.00035   0.44226
  52   39658.0    252.2   0.044271588   0.36751  -0.04899  -0.54769   0.25524
  53   39898.8    250.6   0.004170035   0.03441   0.17451  -0.05354   0.03298
  54   40058.7    249.6   0.009441569   0.07759  -0.22622  -0.05372   0.15339
  55   40122.1    249.2   0.059585747   0.48892  -0.52338   0.42135   0.19353
  56   40307.2    248.1   0.091493363   0.74728  -0.80935   0.07380  -0.29460

FINAL SINGLE POINT ENERGY     -9905.424539667560

DIPOLE MOMENT
-------------
                                X             Y             Z
Electronic contribution:    147.96417      52.04702     -35.59100
Nuclear contribution   :   -146.69492     -53.32190      34.38810
                        -----------------------------------------
Total Dipole Moment    :      1.26925      -1.27488      -1.20289
                        -----------------------------------------
Magnitude (a.u.)       :      2.16408
Magnitude (Debye)      :      5.50066

Rotational constants in cm-1:     0.001186     0.000323     0.000278
Rotational constants in MHz :    35.562291     9.696457     8.340745

                             ****ORCA TERMINATED NORMALLY****
TOTAL RUN TIME: 0 days 0 hours 10 minutes 57 seconds 964 msec
