                         Program Version 4.2.0 -  RELEASE  -
|  1> # ORCA input file
|  2> # SCF done       -194.816680416317          0.000625419814
|  3> ! CAM-B3LYP def2-SVP def2/J RIJCOSX Grid4 TightSCF
|  4> %maxcore 5000
|  5> %tddft
|  6>     Mode sTDDFT
|  7>     Ethresh 5.0
|  8>     maxcore 5000
|  9> end
| 10>
| 11> %pal
| 12>   nprocs 6
| 13>   end
| 14> * xyz 0 1
| 15>    C       -2.17888         2.02605         0.91534
| 16>    C       -1.92112         0.72700         1.26731
| 17>    C       -0.77779         0.00817         0.85798
| 18>    N        0.13164        -0.62933         0.56867
| 19>    C       -2.76311        -0.08813         2.05349
| 20>    N       -3.39896        -0.81813         2.67066
| 21>    C       -1.35256         2.84991         0.04120
| 22>    C       -2.01752         4.08080        -0.19307
| 23>    C       -1.48766         5.06955        -0.98705
| 24>    C       -0.23151         4.84436        -1.55950
| 25>    C        0.43336         3.61953        -1.30415
| 26>    C       -0.11178         2.61155        -0.51834
| 27>    S        1.98541         3.56099        -2.07214
| 28>    C        1.72276         5.15028        -2.72870
| 29>    C        0.53618         5.70707        -2.38841
| 30>   Br        3.03708         5.91568        -3.82352
| 31>    C       -3.27963         4.09590         0.55950
| 32>    O       -4.09319         5.00039         0.60566
| 33>    C       -3.33289         2.82063         1.29446
| 34>    C       -4.25757         2.50785         2.25294
| 35>    C       -5.38167         3.24266         2.66348
| 36>    S       -6.02824         4.73111         1.98702
| 37>    C       -7.40891         4.77692         3.08754
| 38>    C       -7.30985         3.69439         3.94641
| 39>    C       -6.21948         2.86125         3.70628
| 40>    O       -6.25577         1.84572         4.60656
| 41>    C       -7.34826         2.06211         5.37893
| 42>    S       -7.80211         1.11577         6.60164
| 43>    O       -8.00968         3.17926         4.99588
| 44>    C       -8.37898         5.79161         3.04327
| 45>    C       -8.36063         6.75113         2.06588
| 46>    C       -9.25251         7.81553         1.93651
| 47>    C       -9.17162         8.71224         0.88935
| 48>    C       -9.95592         9.86309         0.65376
| 49>    C       -9.60988        10.55253        -0.47423
| 50>    C       -8.54616         9.96516        -1.18931
| 51>    S       -7.98549         8.52455        -0.38694
| 52>    C       -7.94948        10.37602        -2.37410
| 53>    C       -8.19102        11.52976        -3.14386
| 54>    C       -7.39645        11.62080        -4.25068
| 55>    C       -6.50512        10.53345        -4.41527
| 56>    S       -6.69944         9.39856        -3.10262
| 57>    C       -5.60466        10.38964        -5.45078
| 58>    C       -4.75753         9.30781        -5.69943
| 59>    S       -3.62537         9.38668        -7.05331
| 60>    C       -2.98626         7.76794        -6.80922
| 61>    C       -3.65139         7.23305        -5.72157
| 62>    C       -4.59141         8.06089        -5.10434
| 63>    O       -5.09089         7.37978        -4.03255
| 64>    C       -4.45350         6.18968        -3.99599
| 65>    S       -4.69551         5.05870        -2.87192
| 66>    O       -3.57769         6.06922        -5.02284
| 67>    C       -1.92598         7.18719        -7.52207
| 68>    C       -1.09843         7.85819        -8.37221
| 69>    C        0.01820         7.31615        -9.03906
| 70>    C        0.71293         6.14895        -8.85940
| 71>    C        0.74434         5.12520        -7.84245
| 72>    C        0.45566         5.25184        -6.50408
| 73>    C        0.48036         4.18617        -5.58542
| 74>    N        0.42743         3.36459        -4.78389
| 75>    C        0.13439         6.45672        -5.85263
| 76>    N       -0.10754         7.39769        -5.23931
| 77>    C        1.36765         3.94153        -8.43172
| 78>    C        1.91022         4.29161        -9.69323
| 79>    C        1.58669         5.70140        -9.98096
| 80>    O        1.91629         6.35619       -10.94342
| 81>    C        2.60589         3.40070       -10.47291
| 82>    C        2.76590         2.09731        -9.98984
| 83>    C        2.20922         1.75291        -8.73496
| 84>    C        1.51195         2.65720        -7.94290
| 85>    S        2.51668         0.09118        -8.33328
| 86>    C        3.38043        -0.11546        -9.83362
| 87>    C        3.43550         1.00115       -10.59843
| 88>   Br        4.12578        -1.78476       -10.24982
| 89>    H       -2.02426         5.99004        -1.15407
| 90>    H        0.43265         1.69595        -0.35858
| 91>    H        0.21264         6.67719        -2.72064
| 92>    H       -4.13124         1.58428         2.80620
| 93>    H       -9.15005         5.78318         3.80189
| 94>    H       -7.57535         6.67666         1.32226
| 95>    H      -10.02898         7.95803         2.67573
| 96>    H      -10.74617        10.15292         1.32355
| 97>    H      -10.09459        11.45242        -0.80777
| 98>    H       -8.92748        12.26158        -2.86490
| 99>    H       -7.42782        12.43058        -4.95764
|100>    H       -5.54418        11.20273        -6.16128
|101>    H       -1.79449         6.12860        -7.34477
|102>    H       -1.32974         8.89515        -8.58106
|103>    H        0.37796         7.89285        -9.88711
|104>    H        3.01598         3.69933       -11.42477
|105>    H        1.10206         2.34315        -6.99751
|106>    H        3.92768         1.05123       -11.55243
|107> *
|108>
|109>                          ****END OF INPUT****

CARTESIAN COORDINATES (ANGSTROEM)
---------------------------------
  C     -2.178880    2.026050    0.915340
  C     -1.921120    0.727000    1.267310
  C     -0.777790    0.008170    0.857980
  N      0.131640   -0.629330    0.568670
  C     -2.763110   -0.088130    2.053490
  N     -3.398960   -0.818130    2.670660
  C     -1.352560    2.849910    0.041200
  C     -2.017520    4.080800   -0.193070
  C     -1.487660    5.069550   -0.987050
  C     -0.231510    4.844360   -1.559500
  C      0.433360    3.619530   -1.304150
  C     -0.111780    2.611550   -0.518340
  S      1.985410    3.560990   -2.072140
  C      1.722760    5.150280   -2.728700
  C      0.536180    5.707070   -2.388410
  Br     3.037080    5.915680   -3.823520
  C     -3.279630    4.095900    0.559500
  O     -4.093190    5.000390    0.605660
  C     -3.332890    2.820630    1.294460
  C     -4.257570    2.507850    2.252940
  C     -5.381670    3.242660    2.663480
  S     -6.028240    4.731110    1.987020
  C     -7.408910    4.776920    3.087540
  C     -7.309850    3.694390    3.946410
  C     -6.219480    2.861250    3.706280
  O     -6.255770    1.845720    4.606560
  C     -7.348260    2.062110    5.378930
  S     -7.802110    1.115770    6.601640
  O     -8.009680    3.179260    4.995880
  C     -8.378980    5.791610    3.043270
  C     -8.360630    6.751130    2.065880
  C     -9.252510    7.815530    1.936510
  C     -9.171620    8.712240    0.889350
  C     -9.955920    9.863090    0.653760
  C     -9.609880   10.552530   -0.474230
  C     -8.546160    9.965160   -1.189310
  S     -7.985490    8.524550   -0.386940
  C     -7.949480   10.376020   -2.374100
  C     -8.191020   11.529760   -3.143860
  C     -7.396450   11.620800   -4.250680
  C     -6.505120   10.533450   -4.415270
  S     -6.699440    9.398560   -3.102620
  C     -5.604660   10.389640   -5.450780
  C     -4.757530    9.307810   -5.699430
  S     -3.625370    9.386680   -7.053310
  C     -2.986260    7.767940   -6.809220
  C     -3.651390    7.233050   -5.721570
  C     -4.591410    8.060890   -5.104340
  O     -5.090890    7.379780   -4.032550
  C     -4.453500    6.189680   -3.995990
  S     -4.695510    5.058700   -2.871920
  O     -3.577690    6.069220   -5.022840
  C     -1.925980    7.187190   -7.522070
  C     -1.098430    7.858190   -8.372210
  C      0.018200    7.316150   -9.039060
  C      0.712930    6.148950   -8.859400
  C      0.744340    5.125200   -7.842450
  C      0.455660    5.251840   -6.504080
  C      0.480360    4.186170   -5.585420
  N      0.427430    3.364590   -4.783890
  C      0.134390    6.456720   -5.852630
  N     -0.107540    7.397690   -5.239310
  C      1.367650    3.941530   -8.431720
  C      1.910220    4.291610   -9.693230
  C      1.586690    5.701400   -9.980960
  O      1.916290    6.356190  -10.943420
  C      2.605890    3.400700  -10.472910
  C      2.765900    2.097310   -9.989840
  C      2.209220    1.752910   -8.734960
  C      1.511950    2.657200   -7.942900
  S      2.516680    0.091180   -8.333280
  C      3.380430   -0.115460   -9.833620
  C      3.435500    1.001150  -10.598430
  Br     4.125780   -1.784760  -10.249820
  H     -2.024260    5.990040   -1.154070
  H      0.432650    1.695950   -0.358580
  H      0.212640    6.677190   -2.720640
  H     -4.131240    1.584280    2.806200
  H     -9.150050    5.783180    3.801890
  H     -7.575350    6.676660    1.322260
  H    -10.028980    7.958030    2.675730
  H    -10.746170   10.152920    1.323550
  H    -10.094590   11.452420   -0.807770
  H     -8.927480   12.261580   -2.864900
  H     -7.427820   12.430580   -4.957640
  H     -5.544180   11.202730   -6.161280
  H     -1.794490    6.128600   -7.344770
  H     -1.329740    8.895150   -8.581060
  H      0.377960    7.892850   -9.887110
  H      3.015980    3.699330  -11.424770
  H      1.102060    2.343150   -6.997510
  H      3.927680    1.051230  -11.552430

 Total Charge           Charge          ....    0
 Multiplicity           Mult            ....    1
 Number of Electrons    NEL             ....  616
 Basis Dimension        Dim             .... 1194

ORBITAL ENERGIES
----------------

  NO   OCC          E(Eh)            E(eV)
   0   2.0000    -482.885012    -13139.9692
   1   2.0000    -482.876278    -13139.7315
   2   2.0000     -88.983155     -2421.3547
   3   2.0000     -88.975278     -2421.1404
   4   2.0000     -88.969871     -2420.9933
   5   2.0000     -88.962272     -2420.7865
   6   2.0000     -88.961993     -2420.7789
   7   2.0000     -88.960837     -2420.7474
   8   2.0000     -88.895946     -2418.9817
   9   2.0000     -88.886904     -2418.7356
  10   2.0000     -62.562715     -1702.4180
  11   2.0000     -62.553643     -1702.1712
  12   2.0000     -56.396668     -1534.6313
  13   2.0000     -56.393949     -1534.5574
  14   2.0000     -56.393916     -1534.5565
  15   2.0000     -56.387586     -1534.3842
  16   2.0000     -56.384913     -1534.3115
  17   2.0000     -56.384864     -1534.3101
  18   2.0000     -19.327619      -525.9313
  19   2.0000     -19.325388      -525.8705
  20   2.0000     -19.320247      -525.7307
  21   2.0000     -19.316641      -525.6325
  22   2.0000     -19.218232      -522.9547
  23   2.0000     -19.213827      -522.8348
  24   2.0000     -14.422243      -392.4492
  25   2.0000     -14.417240      -392.3130
  26   2.0000     -14.408442      -392.0736
  27   2.0000     -14.406916      -392.0321
  28   2.0000     -10.448371      -284.3146
  29   2.0000     -10.440102      -284.0896
  30   2.0000     -10.371085      -282.2116
  31   2.0000     -10.365796      -282.0677
  32   2.0000     -10.365112      -282.0490
  33   2.0000     -10.364303      -282.0270
  34   2.0000     -10.363939      -282.0171
  35   2.0000     -10.358515      -281.8695
  36   2.0000     -10.354687      -281.7654
  37   2.0000     -10.346796      -281.5506
  38   2.0000     -10.345327      -281.5107
  39   2.0000     -10.344907      -281.4992
  40   2.0000     -10.342981      -281.4468
  41   2.0000     -10.334829      -281.2250
  42   2.0000     -10.334128      -281.2059
  43   2.0000     -10.332836      -281.1708
  44   2.0000     -10.332709      -281.1673
  45   2.0000     -10.332348      -281.1575
  46   2.0000     -10.328650      -281.0568
  47   2.0000     -10.326565      -281.0001
  48   2.0000     -10.326426      -280.9963
  49   2.0000     -10.325641      -280.9750
  50   2.0000     -10.325502      -280.9712
  51   2.0000     -10.324733      -280.9503
  52   2.0000     -10.322327      -280.8848
  53   2.0000     -10.320694      -280.8404
  54   2.0000     -10.320438      -280.8334
  55   2.0000     -10.316024      -280.7133
  56   2.0000     -10.312865      -280.6273
  57   2.0000     -10.310863      -280.5729
  58   2.0000     -10.309910      -280.5469
  59   2.0000     -10.309142      -280.5260
  60   2.0000     -10.307451      -280.4800
  61   2.0000     -10.307431      -280.4795
  62   2.0000     -10.307217      -280.4736
  63   2.0000     -10.307143      -280.4716
  64   2.0000     -10.305776      -280.4344
  65   2.0000     -10.304962      -280.4123
  66   2.0000     -10.301925      -280.3296
  67   2.0000     -10.301443      -280.3165
  68   2.0000     -10.301335      -280.3136
  69   2.0000     -10.299965      -280.2763
  70   2.0000     -10.298112      -280.2259
  71   2.0000     -10.297747      -280.2159
  72   2.0000     -10.296327      -280.1773
  73   2.0000     -10.296320      -280.1771
  74   2.0000     -10.295566      -280.1566
  75   2.0000     -10.295358      -280.1509
  76   2.0000     -10.294639      -280.1314
  77   2.0000     -10.294203      -280.1195
  78   2.0000     -10.292569      -280.0750
  79   2.0000     -10.290602      -280.0215
  80   2.0000     -10.282671      -279.8057
  81   2.0000     -10.280829      -279.7556
  82   2.0000      -8.792142      -239.2463
  83   2.0000      -8.782960      -238.9965
  84   2.0000      -8.077964      -219.8126
  85   2.0000      -8.071289      -219.6309
  86   2.0000      -8.062243      -219.3848
  87   2.0000      -8.058713      -219.2887
  88   2.0000      -8.058325      -219.2782
  89   2.0000      -8.056707      -219.2341
  90   2.0000      -7.993531      -217.5150
  91   2.0000      -7.985024      -217.2835
  92   2.0000      -6.628440      -180.3690
  93   2.0000      -6.619090      -180.1146
  94   2.0000      -6.613878      -179.9728
  95   2.0000      -6.613678      -179.9673
  96   2.0000      -6.604928      -179.7292
  97   2.0000      -6.604455      -179.7164
  98   2.0000      -6.047627      -164.5643
  99   2.0000      -6.043760      -164.4591
 100   2.0000      -6.040984      -164.3835
 101   2.0000      -6.039070      -164.3314
 102   2.0000      -6.036696      -164.2668
 103   2.0000      -6.032501      -164.1527
 104   2.0000      -6.032082      -164.1413
 105   2.0000      -6.028361      -164.0400
 106   2.0000      -6.027988      -164.0299
 107   2.0000      -6.027743      -164.0232
 108   2.0000      -6.026367      -163.9858
 109   2.0000      -6.024303      -163.9296
 110   2.0000      -6.023819      -163.9164
 111   2.0000      -6.023429      -163.9058
 112   2.0000      -6.022156      -163.8712
 113   2.0000      -6.019717      -163.8048
 114   2.0000      -6.019296      -163.7934
 115   2.0000      -6.017920      -163.7559
 116   2.0000      -5.963422      -162.2730
 117   2.0000      -5.959888      -162.1768
 118   2.0000      -5.954939      -162.0421
 119   2.0000      -5.953478      -162.0024
 120   2.0000      -5.951345      -161.9443
 121   2.0000      -5.944884      -161.7685
 122   2.0000      -2.744323       -74.6768
 123   2.0000      -2.740230       -74.5655
 124   2.0000      -2.740060       -74.5608
 125   2.0000      -2.734997       -74.4231
 126   2.0000      -2.731093       -74.3168
 127   2.0000      -2.730755       -74.3076
 128   2.0000      -2.728487       -74.2459
 129   2.0000      -2.728483       -74.2458
 130   2.0000      -2.719478       -74.0008
 131   2.0000      -2.719459       -74.0003
 132   2.0000      -1.295860       -35.2621
 133   2.0000      -1.287425       -35.0326
 134   2.0000      -1.186372       -32.2828
 135   2.0000      -1.177942       -32.0534
 136   2.0000      -1.134159       -30.8620
 137   2.0000      -1.129378       -30.7319
 138   2.0000      -1.024984       -27.8912
 139   2.0000      -1.019950       -27.7542
 140   2.0000      -1.016306       -27.6551
 141   2.0000      -1.014009       -27.5926
 142   2.0000      -1.013390       -27.5757
 143   2.0000      -1.006213       -27.3804
 144   2.0000      -1.003192       -27.2982
 145   2.0000      -0.998414       -27.1682
 146   2.0000      -0.992954       -27.0197
 147   2.0000      -0.990652       -26.9570
 148   2.0000      -0.986445       -26.8425
 149   2.0000      -0.981329       -26.7033
 150   2.0000      -0.946274       -25.7494
 151   2.0000      -0.937123       -25.5004
 152   2.0000      -0.933500       -25.4018
 153   2.0000      -0.929646       -25.2969
 154   2.0000      -0.916438       -24.9375
 155   2.0000      -0.909584       -24.7510
 156   2.0000      -0.907421       -24.6922
 157   2.0000      -0.904119       -24.6023
 158   2.0000      -0.899928       -24.4883
 159   2.0000      -0.897434       -24.4204
 160   2.0000      -0.886714       -24.1287
 161   2.0000      -0.885572       -24.0977
 162   2.0000      -0.876371       -23.8473
 163   2.0000      -0.874003       -23.7828
 164   2.0000      -0.869476       -23.6596
 165   2.0000      -0.859178       -23.3794
 166   2.0000      -0.852134       -23.1877
 167   2.0000      -0.839393       -22.8411
 168   2.0000      -0.832322       -22.6486
 169   2.0000      -0.829184       -22.5632
 170   2.0000      -0.821747       -22.3609
 171   2.0000      -0.817838       -22.2545
 172   2.0000      -0.816392       -22.2152
 173   2.0000      -0.811536       -22.0830
 174   2.0000      -0.799399       -21.7527
 175   2.0000      -0.781936       -21.2776
 176   2.0000      -0.773677       -21.0528
 177   2.0000      -0.763125       -20.7657
 178   2.0000      -0.760936       -20.7061
 179   2.0000      -0.752360       -20.4728
 180   2.0000      -0.741914       -20.1885
 181   2.0000      -0.735835       -20.0231
 182   2.0000      -0.728784       -19.8312
 183   2.0000      -0.725065       -19.7300
 184   2.0000      -0.717005       -19.5107
 185   2.0000      -0.709033       -19.2938
 186   2.0000      -0.704064       -19.1586
 187   2.0000      -0.694514       -18.8987
 188   2.0000      -0.688965       -18.7477
 189   2.0000      -0.687279       -18.7018
 190   2.0000      -0.685018       -18.6403
 191   2.0000      -0.683338       -18.5946
 192   2.0000      -0.668675       -18.1956
 193   2.0000      -0.663908       -18.0659
 194   2.0000      -0.661800       -18.0085
 195   2.0000      -0.655925       -17.8486
 196   2.0000      -0.648178       -17.6378
 197   2.0000      -0.645384       -17.5618
 198   2.0000      -0.637410       -17.3448
 199   2.0000      -0.635354       -17.2889
 200   2.0000      -0.631409       -17.1815
 201   2.0000      -0.626404       -17.0453
 202   2.0000      -0.625124       -17.0105
 203   2.0000      -0.623469       -16.9655
 204   2.0000      -0.618113       -16.8197
 205   2.0000      -0.617207       -16.7951
 206   2.0000      -0.605411       -16.4741
 207   2.0000      -0.603372       -16.4186
 208   2.0000      -0.599161       -16.3040
 209   2.0000      -0.596882       -16.2420
 210   2.0000      -0.590298       -16.0628
 211   2.0000      -0.583868       -15.8879
 212   2.0000      -0.576681       -15.6923
 213   2.0000      -0.571823       -15.5601
 214   2.0000      -0.561705       -15.2848
 215   2.0000      -0.555133       -15.1059
 216   2.0000      -0.550152       -14.9704
 217   2.0000      -0.547201       -14.8901
 218   2.0000      -0.543787       -14.7972
 219   2.0000      -0.540207       -14.6998
 220   2.0000      -0.536650       -14.6030
 221   2.0000      -0.535974       -14.5846
 222   2.0000      -0.533932       -14.5290
 223   2.0000      -0.533107       -14.5066
 224   2.0000      -0.530769       -14.4430
 225   2.0000      -0.521746       -14.1974
 226   2.0000      -0.519770       -14.1437
 227   2.0000      -0.518399       -14.1064
 228   2.0000      -0.516805       -14.0630
 229   2.0000      -0.514168       -13.9912
 230   2.0000      -0.512217       -13.9381
 231   2.0000      -0.511249       -13.9118
 232   2.0000      -0.508850       -13.8465
 233   2.0000      -0.507136       -13.7999
 234   2.0000      -0.505582       -13.7576
 235   2.0000      -0.503933       -13.7127
 236   2.0000      -0.503188       -13.6924
 237   2.0000      -0.502306       -13.6684
 238   2.0000      -0.501075       -13.6350
 239   2.0000      -0.498351       -13.5608
 240   2.0000      -0.497033       -13.5249
 241   2.0000      -0.495619       -13.4865
 242   2.0000      -0.494975       -13.4689
 243   2.0000      -0.492703       -13.4071
 244   2.0000      -0.487526       -13.2663
 245   2.0000      -0.485859       -13.2209
 246   2.0000      -0.483477       -13.1561
 247   2.0000      -0.481562       -13.1040
 248   2.0000      -0.480390       -13.0721
 249   2.0000      -0.479452       -13.0466
 250   2.0000      -0.476323       -12.9614
 251   2.0000      -0.473077       -12.8731
 252   2.0000      -0.471064       -12.8183
 253   2.0000      -0.470116       -12.7925
 254   2.0000      -0.466100       -12.6832
 255   2.0000      -0.462871       -12.5954
 256   2.0000      -0.459239       -12.4965
 257   2.0000      -0.457525       -12.4499
 258   2.0000      -0.452753       -12.3200
 259   2.0000      -0.452518       -12.3137
 260   2.0000      -0.449102       -12.2207
 261   2.0000      -0.446877       -12.1601
 262   2.0000      -0.445061       -12.1107
 263   2.0000      -0.443074       -12.0567
 264   2.0000      -0.440693       -11.9919
 265   2.0000      -0.440380       -11.9834
 266   2.0000      -0.438251       -11.9254
 267   2.0000      -0.435856       -11.8602
 268   2.0000      -0.435638       -11.8543
 269   2.0000      -0.434228       -11.8159
 270   2.0000      -0.428249       -11.6532
 271   2.0000      -0.427482       -11.6324
 272   2.0000      -0.423001       -11.5105
 273   2.0000      -0.420906       -11.4534
 274   2.0000      -0.419859       -11.4250
 275   2.0000      -0.416234       -11.3263
 276   2.0000      -0.411313       -11.1924
 277   2.0000      -0.410019       -11.1572
 278   2.0000      -0.405593       -11.0367
 279   2.0000      -0.402168       -10.9436
 280   2.0000      -0.399957       -10.8834
 281   2.0000      -0.396247       -10.7824
 282   2.0000      -0.387529       -10.5452
 283   2.0000      -0.381879       -10.3915
 284   2.0000      -0.375630       -10.2214
 285   2.0000      -0.374301       -10.1852
 286   2.0000      -0.371939       -10.1210
 287   2.0000      -0.367012        -9.9869
 288   2.0000      -0.363787        -9.8991
 289   2.0000      -0.358694        -9.7606
 290   2.0000      -0.355401        -9.6709
 291   2.0000      -0.353161        -9.6100
 292   2.0000      -0.344853        -9.3839
 293   2.0000      -0.338689        -9.2162
 294   2.0000      -0.335232        -9.1221
 295   2.0000      -0.331666        -9.0251
 296   2.0000      -0.319779        -8.7016
 297   2.0000      -0.315570        -8.5871
 298   2.0000      -0.307875        -8.3777
 299   2.0000      -0.304722        -8.2919
 300   2.0000      -0.300937        -8.1889
 301   2.0000      -0.298602        -8.1254
 302   2.0000      -0.294966        -8.0264
 303   2.0000      -0.293599        -7.9892
 304   2.0000      -0.289384        -7.8745
 305   2.0000      -0.281289        -7.6543
 306   2.0000      -0.268133        -7.2963
 307   2.0000      -0.222236        -6.0473
 308   0.0000      -0.120775        -3.2865
 309   0.0000      -0.096398        -2.6231
 310   0.0000      -0.077456        -2.1077
 311   0.0000      -0.061654        -1.6777
 312   0.0000      -0.053595        -1.4584

MULLIKEN ATOMIC CHARGES
-----------------------
   0 C :    0.319171
   1 C :   -0.346913
   2 C :   -0.185598
   3 N :    0.149981
   4 C :   -0.202823
   5 N :    0.160414
   6 C :    0.009009
   7 C :   -0.007470
   8 C :   -0.061174
   9 C :    0.117264
  10 C :   -0.070397
  11 C :   -0.022277
  12 S :    0.199147
  13 C :   -0.142972
  14 C :    0.052883
  15 Br:    0.016884
  16 C :    0.179338
  17 O :   -0.181563
  18 C :   -0.091880
  19 C :   -0.029353
  20 C :   -0.151942
  21 S :    0.181467
  22 C :   -0.156825
  23 C :    0.203525
  24 C :    0.191776
  25 O :   -0.162477
  26 C :    0.234902
  27 S :   -0.147976
  28 O :   -0.172391
  29 C :    0.016144
  30 C :   -0.003637
  31 C :    0.013009
  32 C :   -0.027634
  33 C :    0.041561
  34 C :    0.029923
  35 C :   -0.041538
  36 S :    0.096802
  37 C :   -0.038984
  38 C :    0.039818
  39 C :    0.028593
  40 C :   -0.032362
  41 S :    0.109774
  42 C :    0.051044
  43 C :   -0.197978
  44 S :    0.143626
  45 C :   -0.168768
  46 C :    0.195753
  47 C :    0.188182
  48 O :   -0.182697
  49 C :    0.232234
  50 S :   -0.136304
  51 O :   -0.169462
  52 C :    0.056210
  53 C :   -0.009227
  54 C :    0.040773
  55 C :   -0.123681
  56 C :    0.287689
  57 C :   -0.363216
  58 C :   -0.155865
  59 N :    0.144041
  60 C :   -0.203988
  61 N :    0.165846
  62 C :    0.002589
  63 C :    0.003716
  64 C :    0.128244
  65 O :   -0.147546
  66 C :   -0.070118
  67 C :    0.113433
  68 C :   -0.089595
  69 C :   -0.025627
  70 S :    0.189231
  71 C :   -0.124924
  72 C :    0.040873
  73 Br:    0.025318
  74 H :   -0.018380
  75 H :   -0.008667
  76 H :   -0.001020
  77 H :    0.029360
  78 H :    0.005152
  79 H :    0.036283
  80 H :   -0.004595
  81 H :   -0.003713
  82 H :   -0.006725
  83 H :   -0.006670
  84 H :   -0.005445
  85 H :   -0.013759
  86 H :    0.033240
  87 H :    0.002689
  88 H :    0.025861
  89 H :   -0.010154
  90 H :   -0.002865
  91 H :   -0.003595
Sum of atomic charges:   -0.0000000

LOEWDIN ATOMIC CHARGES
----------------------
   0 C :    0.075715
   1 C :   -0.140416
   2 C :   -0.017693
   3 N :   -0.053779
   4 C :   -0.024893
   5 N :   -0.047574
   6 C :   -0.020963
   7 C :   -0.053779
   8 C :    0.027868
   9 C :   -0.028545
  10 C :   -0.135526
  11 C :   -0.008439
  12 S :    0.448992
  13 C :   -0.271382
  14 C :   -0.067459
  15 Br:    0.137884
  16 C :    0.087853
  17 O :   -0.163054
  18 C :   -0.096304
  19 C :    0.050287
  20 C :   -0.200697
  21 S :    0.507464
  22 C :   -0.172582
  23 C :   -0.019135
  24 C :    0.018554
  25 O :   -0.003897
  26 C :   -0.063595
  27 S :    0.013943
  28 O :   -0.014686
  29 C :   -0.033892
  30 C :   -0.018530
  31 C :   -0.043060
  32 C :   -0.137973
  33 C :   -0.024591
  34 C :   -0.027511
  35 C :   -0.165582
  36 S :    0.404111
  37 C :   -0.183502
  38 C :   -0.021753
  39 C :   -0.036188
  40 C :   -0.131443
  41 S :    0.416832
  42 C :   -0.093520
  43 C :   -0.162868
  44 S :    0.444444
  45 C :   -0.198171
  46 C :    0.018171
  47 C :   -0.026625
  48 O :   -0.016810
  49 C :   -0.065816
  50 S :    0.025688
  51 O :   -0.008489
  52 C :    0.028298
  53 C :   -0.059247
  54 C :    0.065368
  55 C :   -0.100341
  56 C :    0.069625
  57 C :   -0.153765
  58 C :   -0.018741
  59 N :   -0.060878
  60 C :   -0.010679
  61 N :   -0.056890
  62 C :   -0.018640
  63 C :   -0.052476
  64 C :    0.082412
  65 O :   -0.145501
  66 C :    0.022485
  67 C :   -0.033343
  68 C :   -0.143552
  69 C :   -0.013039
  70 S :    0.434651
  71 C :   -0.271563
  72 C :   -0.070483
  73 Br:    0.138214
  74 H :    0.036928
  75 H :    0.040489
  76 H :    0.037499
  77 H :    0.054923
  78 H :    0.040123
  79 H :    0.019919
  80 H :    0.037073
  81 H :    0.037217
  82 H :    0.034708
  83 H :    0.034842
  84 H :    0.035476
  85 H :    0.037479
  86 H :    0.045800
  87 H :    0.029759
  88 H :    0.047574
  89 H :    0.041272
  90 H :    0.041036
  91 H :    0.038886

  Mayer bond orders larger than 0.100000
B(  0-C ,  1-C ) :   1.6332 B(  0-C ,  6-C ) :   1.0069 B(  0-C , 18-C ) :   1.0618
B(  1-C ,  2-C ) :   1.1427 B(  1-C ,  4-C ) :   1.1437 B(  2-C ,  3-N ) :   2.9719
B(  4-C ,  5-N ) :   2.9750 B(  6-C ,  7-C ) :   1.2652 B(  6-C , 11-C ) :   1.4119
B(  7-C ,  8-C ) :   1.4177 B(  7-C , 16-C ) :   0.9673 B(  8-C ,  9-C ) :   1.2457
B(  8-C , 74-H ) :   1.0149 B(  9-C , 10-C ) :   1.3025 B(  9-C , 14-C ) :   1.1606
B( 10-C , 11-C ) :   1.3265 B( 10-C , 12-S ) :   1.0968 B( 11-C , 75-H ) :   0.9800
B( 12-S , 13-C ) :   1.0945 B( 13-C , 14-C ) :   1.6123 B( 13-C , 15-Br) :   1.0189
B( 14-C , 76-H ) :   0.9952 B( 16-C , 17-O ) :   2.0976 B( 16-C , 18-C ) :   0.9795
B( 18-C , 19-C ) :   1.5269 B( 19-C , 20-C ) :   1.2609 B( 19-C , 77-H ) :   0.9442
B( 20-C , 21-S ) :   1.0652 B( 20-C , 24-C ) :   1.3919 B( 21-S , 22-C ) :   1.0632
B( 22-C , 23-C ) :   1.3862 B( 22-C , 29-C ) :   1.2091 B( 23-C , 24-C ) :   1.2965
B( 23-C , 28-O ) :   1.0814 B( 24-C , 25-O ) :   1.0996 B( 25-O , 26-C ) :   1.0864
B( 26-C , 27-S ) :   1.8036 B( 26-C , 28-O ) :   1.0991 B( 29-C , 30-C ) :   1.5528
B( 29-C , 78-H ) :   0.9941 B( 30-C , 31-C ) :   1.1902 B( 30-C , 79-H ) :   0.9671
B( 31-C , 32-C ) :   1.5163 B( 31-C , 80-H ) :   0.9870 B( 32-C , 33-C ) :   1.1628
B( 32-C , 36-S ) :   1.0483 B( 33-C , 34-C ) :   1.5626 B( 33-C , 81-H ) :   1.0000
B( 34-C , 35-C ) :   1.2084 B( 34-C , 82-H ) :   0.9957 B( 35-C , 36-S ) :   1.0714
B( 35-C , 37-C ) :   1.4587 B( 37-C , 38-C ) :   1.2101 B( 37-C , 41-S ) :   1.0471
B( 38-C , 39-C ) :   1.5612 B( 38-C , 83-H ) :   0.9945 B( 39-C , 40-C ) :   1.1684
B( 39-C , 84-H ) :   1.0006 B( 40-C , 41-S ) :   1.0715 B( 40-C , 42-C ) :   1.5313
B( 42-C , 43-C ) :   1.2204 B( 42-C , 85-H ) :   0.9430 B( 43-C , 44-S ) :   1.1021
B( 43-C , 47-C ) :   1.3914 B( 44-S , 45-C ) :   1.0475 B( 45-C , 46-C ) :   1.4402
B( 45-C , 52-C ) :   1.2609 B( 46-C , 47-C ) :   1.3015 B( 46-C , 51-O ) :   1.0956
B( 47-C , 48-O ) :   1.0476 B( 48-O , 49-C ) :   1.0965 B( 49-C , 50-S ) :   1.8091
B( 49-C , 51-O ) :   1.0859 B( 52-C , 53-C ) :   1.5470 B( 52-C , 86-H ) :   0.9544
B( 53-C , 54-C ) :   1.2173 B( 53-C , 87-H ) :   0.9653 B( 54-C , 55-C ) :   1.6053
B( 54-C , 88-H ) :   0.9299 B( 55-C , 56-C ) :   1.0506 B( 55-C , 64-C ) :   0.9508
B( 56-C , 57-C ) :   1.5964 B( 56-C , 62-C ) :   1.0210 B( 57-C , 58-C ) :   1.1339
B( 57-C , 60-C ) :   1.2026 B( 58-C , 59-N ) :   2.9434 B( 60-C , 61-N ) :   2.9208
B( 62-C , 63-C ) :   1.2728 B( 62-C , 69-C ) :   1.4130 B( 63-C , 64-C ) :   0.9226
B( 63-C , 66-C ) :   1.4281 B( 64-C , 65-O ) :   2.2524 B( 66-C , 67-C ) :   1.2487
B( 66-C , 89-H ) :   1.0162 B( 67-C , 68-C ) :   1.3083 B( 67-C , 72-C ) :   1.1636
B( 68-C , 69-C ) :   1.3263 B( 68-C , 70-S ) :   1.0872 B( 69-C , 90-H ) :   0.9815
B( 70-S , 71-C ) :   1.0874 B( 71-C , 72-C ) :   1.6180 B( 71-C , 73-Br) :   1.0199
B( 72-C , 91-H ) :   0.9995

-----------------------------------------------------------------------------
         ABSORPTION SPECTRUM VIA TRANSITION ELECTRIC DIPOLE MOMENTS
-----------------------------------------------------------------------------
State   Energy  Wavelength   fosc         T2         TX        TY        TZ
        (cm-1)    (nm)                  (au**2)     (au)      (au)      (au)
-----------------------------------------------------------------------------
   0    8694.9   1150.1   0.581106849  22.00226  -1.71480  -1.16182   4.20855
   1   14684.6    681.0   0.621421221  13.93159   2.74632  -2.50548  -0.33449
   2   18260.9    547.6   0.508288812   9.16354   2.00389  -2.23931   0.36529
   3   19888.5    502.8   1.113533689  18.43223   3.35992  -1.70047  -2.06193
   4   21943.4    455.7   0.005417828   0.08128   0.25529   0.12562   0.01821
   5   22518.8    444.1   0.221157837   3.23320  -1.28830   0.83403   0.93695
   6   22684.1    440.8   0.077495073   1.12468   0.89792  -0.55090  -0.12217
   7   23595.1    423.8   0.008060632   0.11247   0.01238  -0.32911  -0.06323
   8   23915.8    418.1   0.125161380   1.72290   0.40880   0.50113  -1.14221
   9   24285.5    411.8   0.069201113   0.93809   0.17789   0.69046  -0.65553
  10   24587.1    406.7   0.195208867   2.61378   0.66888   0.79773  -1.23693
  11   25184.4    397.1   0.284087494   3.71361   1.23021  -0.81484  -1.23944
  12   25446.6    393.0   0.015105811   0.19543   0.00128   0.35210   0.26730
  13   25855.3    386.8   0.205621442   2.61814  -0.34182  -1.36145   0.80484
  14   26138.4    382.6   0.005256553   0.06621  -0.16649  -0.07134   0.18275
  15   26418.4    378.5   0.033870289   0.42207   0.18871  -0.56955   0.24915
  16   26713.6    374.3   0.013428229   0.16549   0.29715  -0.24047   0.13915
  17   27258.4    366.9   0.060074290   0.72554  -0.01123   0.57083  -0.63212
  18   27807.3    359.6   0.080546765   0.95360   0.23428   0.83716  -0.44483
  19   28312.7    353.2   0.002557746   0.02974   0.16979  -0.02140   0.02128
  20   28900.4    346.0   0.036960326   0.42102   0.36613  -0.00013  -0.53570
  21   28984.9    345.0   0.013679117   0.15537  -0.31229  -0.19482   0.14101
  22   29222.4    342.2   0.026909871   0.30316  -0.19319   0.49703  -0.13712
  23   29354.1    340.7   0.023593563   0.26461   0.21555  -0.44480   0.14247
  24   29826.7    335.3   0.031183750   0.34419  -0.10725  -0.56481   0.11697
  25   29861.6    334.9   0.157260079   1.73373  -0.74002  -0.67087   0.85792
  26   30343.9    329.6   0.122828355   1.33261  -0.67079  -0.35136   0.87131
  27   30386.0    329.1   0.023545012   0.25509   0.28435  -0.02183  -0.41685
  28   30550.1    327.3   0.144624706   1.55850   0.77100   0.41716  -0.88884
  29   30948.0    323.1   0.087696763   0.93288  -0.13031   0.52540   0.79991
  30   31383.1    318.6   0.132949301   1.39465   0.31442   1.07982  -0.36024
  31   31549.5    317.0   0.224297779   2.34050   0.93441   0.28750  -1.17674
  32   32099.6    311.5   0.295441912   3.03003   0.42795   1.28453  -1.09402
  33   32198.4    310.6   0.253533010   2.59224   0.72758  -1.18798  -0.80720
  34   32535.8    307.4   0.027420872   0.27746   0.17030  -0.02210  -0.49796
  35   32783.9    305.0   0.040132467   0.40301  -0.23458   0.51985   0.27881
  36   33077.4    302.3   0.045751407   0.45535  -0.36919   0.32017   0.46535
  37   33174.8    301.4   0.057745649   0.57304   0.46362  -0.45981  -0.38298
  38   33229.7    300.9   0.004042399   0.04005   0.09429  -0.14734  -0.09721
  39   33447.1    299.0   0.021725612   0.21384  -0.12993   0.40890   0.17252
  40   33680.0    296.9   0.068172849   0.66637  -0.12808  -0.66636   0.45380
  41   33767.5    296.1   0.006297747   0.06140   0.01207  -0.23413   0.08023
  42   33934.7    294.7   0.065725889   0.63763  -0.09786  -0.75978   0.22538
  43   34622.1    288.8   0.046871419   0.44569   0.11692  -0.65469   0.05831
  44   34768.0    287.6   0.009100830   0.08617   0.08852  -0.22463   0.16698
  45   34826.8    287.1   0.047479477   0.44882  -0.29832  -0.52278   0.29415
  46   34942.8    286.2   0.017085774   0.16097  -0.10981   0.28405  -0.26121
  47   35144.9    284.5   0.019016364   0.17813   0.01137   0.38354  -0.17578
  48   35275.7    283.5   0.041125081   0.38380   0.34219  -0.20386  -0.47450
  49   35413.3    282.4   0.052105606   0.48439  -0.27725  -0.07136   0.63438
  50   35665.4    280.4   0.004944210   0.04564  -0.17141   0.08066  -0.09875
  51   35942.3    278.2   0.059673305   0.54658  -0.62242   0.34891   0.19347
  52   36031.6    277.5   0.030247857   0.27637  -0.15774   0.25160   0.43380
  53   36193.4    276.3   0.004120140   0.03748   0.17695   0.07750  -0.01269
  54   36301.9    275.5   0.056073404   0.50851   0.31943  -0.63517  -0.05506
  55   36370.5    274.9   0.023179997   0.20982   0.27223  -0.28187  -0.23718
  56   36691.2    272.5   0.049083758   0.44040   0.16224   0.43641  -0.47290
  57   37095.1    269.6   0.066016643   0.58589  -0.65917   0.10348   0.37507
  58   37253.6    268.4   0.129032704   1.14027  -0.85178   0.26511   0.58691
  59   37541.9    266.4   0.003520039   0.03087  -0.04613  -0.11518   0.12439
  60   37598.1    266.0   0.030840638   0.27004  -0.40840  -0.27798   0.16119
  61   37809.4    264.5   0.028245807   0.24594  -0.19174   0.44555  -0.10324
  62   38006.7    263.1   0.025077571   0.21722   0.11397  -0.38803  -0.23165
  63   38227.4    261.6   0.000750363   0.00646  -0.00911   0.05609  -0.05686
  64   38398.1    260.4   0.093192450   0.79900   0.24534  -0.80595   0.29875
  65   38704.8    258.4   0.033250822   0.28282   0.11588   0.01984  -0.51865
  66   38832.9    257.5   0.122130034   1.03538   0.27609   0.69988  -0.68507
  67   38949.9    256.7   0.044063432   0.37243  -0.46902   0.10894   0.37495
  68   39287.7    254.5   0.031041380   0.26011   0.12767   0.33339  -0.36423
  69   39453.2    253.5   0.007049794   0.05883   0.20907   0.12294   0.00055
  70   39574.1    252.7   0.043448249   0.36144  -0.21230  -0.19328   0.52821
  71   39849.7    250.9   0.027361011   0.22604   0.39546  -0.25347  -0.07350
  72   39886.4    250.7   0.047903930   0.39539   0.54193  -0.16871  -0.27061
  73   40067.4    249.6   0.005958212   0.04896  -0.16753   0.14340  -0.01808
  74   40211.4    248.7   0.015639048   0.12804   0.20014  -0.22222   0.19647
  75   40271.8    248.3   0.009509007   0.07773   0.23543  -0.14680  -0.02756

FINAL SINGLE POINT ENERGY    -11067.802590241357

DIPOLE MOMENT
-------------
                                X             Y             Z
Electronic contribution:    133.43958     -80.71803     -69.29811
Nuclear contribution   :   -135.47943      85.73056      66.19066
                        -----------------------------------------
Total Dipole Moment    :     -2.03985       5.01253      -3.10745
                        -----------------------------------------
Magnitude (a.u.)       :      6.24041
Magnitude (Debye)      :     15.86186

Rotational constants in cm-1:     0.000811     0.000357     0.000273
Rotational constants in MHz :    24.322992    10.705821     8.183426

                             ****ORCA TERMINATED NORMALLY****
TOTAL RUN TIME: 0 days 0 hours 10 minutes 56 seconds 391 msec
