                         Program Version 4.2.0 -  RELEASE  -
|  1> # ORCA input file
|  2> # SCF done       -193.798932686317          0.000744287256
|  3> ! CAM-B3LYP def2-SVP def2/J RIJCOSX Grid4 TightSCF
|  4> %maxcore 5000
|  5> %tddft
|  6>     Mode sTDDFT
|  7>     Ethresh 5.0
|  8>     maxcore 5000
|  9> end
| 10>
| 11> %pal
| 12>   nprocs 6
| 13>   end
| 14> * xyz 0 1
| 15>    C       -3.84087         1.50322         3.22822
| 16>    C       -5.04741         1.79620         3.80630
| 17>    C       -5.44860         1.34192         5.07937
| 18>    N       -5.83405         1.02904         6.11456
| 19>    C       -5.99723         2.69606         3.28477
| 20>    N       -6.79581         3.45031         2.94718
| 21>    C       -2.78962         0.69111         3.82000
| 22>    C       -1.62562         0.78130         3.01529
| 23>    C       -0.45544         0.13435         3.32953
| 24>    C       -0.43655        -0.65392         4.48450
| 25>    C       -1.60514        -0.74116         5.28143
| 26>    C       -2.78448        -0.07851         4.96962
| 27>    S       -1.36086        -1.76739         6.66154
| 28>    C        0.28178        -2.06388         6.15722
| 29>    C        0.63204        -1.42672         5.01407
| 30>   Br        1.37607        -3.18503         7.18529
| 31>    C       -1.89429         1.65455         1.86201
| 32>    O       -1.09096         2.12520         1.09309
| 33>    C       -3.35580         1.97052         1.93955
| 34>    C       -4.05839         2.63047         0.98612
| 35>    C       -3.59217         2.86422        -0.33917
| 36>    O       -4.10656         3.91778        -1.03098
| 37>    C       -2.74514         2.16971        -1.17912
| 38>    C       -1.94151         0.94227        -1.31597
| 39>    O       -1.77611         0.01867        -0.56505
| 40>    N       -1.43202         1.03238        -2.60556
| 41>    C       -1.85342         2.13832        -3.34500
| 42>    O       -1.54034         2.37366        -4.48031
| 43>    C       -2.72916         2.85883        -2.41299
| 44>    C       -3.57980         3.94347        -2.28477
| 45>    C       -3.93393         4.98219        -3.18605
| 46>    C       -4.87190         5.89800        -2.84113
| 47>    C       -5.29581         7.02199        -3.60698
| 48>    S       -4.58100         7.12981        -5.22959
| 49>    C       -5.90755         7.81668        -6.15910
| 50>    C       -6.14823         7.52097        -7.46457
| 51>    S       -7.49979         8.38979        -8.07690
| 52>    C       -7.75787         9.14330        -6.55479
| 53>    C       -6.83468         8.75250        -5.63620
| 54>    S       -6.77933         9.36158        -3.98702
| 55>    C       -6.17788         7.95251        -3.11356
| 56>    C       -6.70220         7.94011        -1.77456
| 57>    O       -6.03022         7.34318        -0.75707
| 58>    C       -7.87245         8.47312        -1.26407
| 59>    C       -9.11826         9.18637        -1.59445
| 60>    O       -9.53761         9.61324        -2.63622
| 61>    N       -9.78537         9.26260        -0.37406
| 62>    C       -9.13925         8.66666         0.70596
| 63>    O       -9.55524         8.61845         1.83160
| 64>    C       -7.90130         8.14537         0.11381
| 65>    C       -6.74542         7.44773         0.39373
| 66>    C       -6.25807         6.88554         1.60264
| 67>    C       -5.02591         6.33297         1.71160
| 68>    C       -4.49103         5.72276         2.87698
| 69>    C       -4.85939         5.82245         4.18122
| 70>    C       -5.74275         6.70404         4.92135
| 71>    C       -5.98488         8.02836         4.67273
| 72>    C       -6.72902         8.86122         5.53629
| 73>    N       -7.31222         9.57719         6.21660
| 74>    C       -5.44502         8.73419         3.57925
| 75>    N       -5.01114         9.34778         2.71196
| 76>    C       -6.12495         5.99776         6.13869
| 77>    C       -5.30247         4.85003         6.28163
| 78>    C       -4.41345         4.74947         5.11701
| 79>    O       -3.54738         3.92687         4.90376
| 80>    C       -5.41080         3.99446         7.35275
| 81>    C       -6.38947         4.27279         8.31103
| 82>    C       -7.21765         5.41103         8.14904
| 83>    C       -7.09839         6.28516         7.07534
| 84>    S       -8.36645         5.55298         9.44127
| 85>    C       -7.72889         4.10369        10.17412
| 86>    C       -6.70719         3.54027         9.48677
| 87>   Br       -8.47241         3.47611        11.77455
| 88>    H        0.41340         0.22571         2.69739
| 89>    H       -3.64767        -0.17731         5.60651
| 90>    H        1.60408        -1.49853         4.56141
| 91>    H       -5.05192         3.00785         1.19150
| 92>    H       -0.81895         0.32874        -2.99275
| 93>    H       -3.40940         4.99936        -4.12877
| 94>    H       -5.34027         5.76558        -1.87895
| 95>    H       -5.59593         6.85666        -8.09717
| 96>    H       -8.56193         9.83622        -6.41404
| 97>    H      -10.68263         9.71823        -0.28253
| 98>    H       -6.95632         6.89871         2.42542
| 99>    H       -4.40617         6.28698         0.82558
|100>    H       -3.69402         5.00475         2.70012
|101>    H       -4.77248         3.13053         7.44629
|102>    H       -7.75687         7.13329         6.98480
|103>    H       -6.20154         2.64133         9.78787
|104> *
|105>
|106>                          ****END OF INPUT****

CARTESIAN COORDINATES (ANGSTROEM)
---------------------------------
  C     -3.840870    1.503220    3.228220
  C     -5.047410    1.796200    3.806300
  C     -5.448600    1.341920    5.079370
  N     -5.834050    1.029040    6.114560
  C     -5.997230    2.696060    3.284770
  N     -6.795810    3.450310    2.947180
  C     -2.789620    0.691110    3.820000
  C     -1.625620    0.781300    3.015290
  C     -0.455440    0.134350    3.329530
  C     -0.436550   -0.653920    4.484500
  C     -1.605140   -0.741160    5.281430
  C     -2.784480   -0.078510    4.969620
  S     -1.360860   -1.767390    6.661540
  C      0.281780   -2.063880    6.157220
  C      0.632040   -1.426720    5.014070
  Br     1.376070   -3.185030    7.185290
  C     -1.894290    1.654550    1.862010
  O     -1.090960    2.125200    1.093090
  C     -3.355800    1.970520    1.939550
  C     -4.058390    2.630470    0.986120
  C     -3.592170    2.864220   -0.339170
  O     -4.106560    3.917780   -1.030980
  C     -2.745140    2.169710   -1.179120
  C     -1.941510    0.942270   -1.315970
  O     -1.776110    0.018670   -0.565050
  N     -1.432020    1.032380   -2.605560
  C     -1.853420    2.138320   -3.345000
  O     -1.540340    2.373660   -4.480310
  C     -2.729160    2.858830   -2.412990
  C     -3.579800    3.943470   -2.284770
  C     -3.933930    4.982190   -3.186050
  C     -4.871900    5.898000   -2.841130
  C     -5.295810    7.021990   -3.606980
  S     -4.581000    7.129810   -5.229590
  C     -5.907550    7.816680   -6.159100
  C     -6.148230    7.520970   -7.464570
  S     -7.499790    8.389790   -8.076900
  C     -7.757870    9.143300   -6.554790
  C     -6.834680    8.752500   -5.636200
  S     -6.779330    9.361580   -3.987020
  C     -6.177880    7.952510   -3.113560
  C     -6.702200    7.940110   -1.774560
  O     -6.030220    7.343180   -0.757070
  C     -7.872450    8.473120   -1.264070
  C     -9.118260    9.186370   -1.594450
  O     -9.537610    9.613240   -2.636220
  N     -9.785370    9.262600   -0.374060
  C     -9.139250    8.666660    0.705960
  O     -9.555240    8.618450    1.831600
  C     -7.901300    8.145370    0.113810
  C     -6.745420    7.447730    0.393730
  C     -6.258070    6.885540    1.602640
  C     -5.025910    6.332970    1.711600
  C     -4.491030    5.722760    2.876980
  C     -4.859390    5.822450    4.181220
  C     -5.742750    6.704040    4.921350
  C     -5.984880    8.028360    4.672730
  C     -6.729020    8.861220    5.536290
  N     -7.312220    9.577190    6.216600
  C     -5.445020    8.734190    3.579250
  N     -5.011140    9.347780    2.711960
  C     -6.124950    5.997760    6.138690
  C     -5.302470    4.850030    6.281630
  C     -4.413450    4.749470    5.117010
  O     -3.547380    3.926870    4.903760
  C     -5.410800    3.994460    7.352750
  C     -6.389470    4.272790    8.311030
  C     -7.217650    5.411030    8.149040
  C     -7.098390    6.285160    7.075340
  S     -8.366450    5.552980    9.441270
  C     -7.728890    4.103690   10.174120
  C     -6.707190    3.540270    9.486770
  Br    -8.472410    3.476110   11.774550
  H      0.413400    0.225710    2.697390
  H     -3.647670   -0.177310    5.606510
  H      1.604080   -1.498530    4.561410
  H     -5.051920    3.007850    1.191500
  H     -0.818950    0.328740   -2.992750
  H     -3.409400    4.999360   -4.128770
  H     -5.340270    5.765580   -1.878950
  H     -5.595930    6.856660   -8.097170
  H     -8.561930    9.836220   -6.414040
  H    -10.682630    9.718230   -0.282530
  H     -6.956320    6.898710    2.425420
  H     -4.406170    6.286980    0.825580
  H     -3.694020    5.004750    2.700120
  H     -4.772480    3.130530    7.446290
  H     -7.756870    7.133290    6.984800
  H     -6.201540    2.641330    9.787870

 Total Charge           Charge          ....    0
 Multiplicity           Mult            ....    1
 Number of Electrons    NEL             ....  584
 Basis Dimension        Dim             .... 1158

ORBITAL ENERGIES
----------------

  NO   OCC          E(Eh)            E(eV)
   0   2.0000    -482.889174    -13140.0824
   1   2.0000    -482.882805    -13139.9091
   2   2.0000     -88.979353     -2421.2513
   3   2.0000     -88.973627     -2421.0955
   4   2.0000     -88.968573     -2420.9579
   5   2.0000     -88.955943     -2420.6143
   6   2.0000     -88.953126     -2420.5376
   7   2.0000     -62.566870     -1702.5311
   8   2.0000     -62.560523     -1702.3584
   9   2.0000     -56.400824     -1534.7444
  10   2.0000     -56.398104     -1534.6704
  11   2.0000     -56.398072     -1534.6696
  12   2.0000     -56.394467     -1534.5715
  13   2.0000     -56.391759     -1534.4978
  14   2.0000     -56.391729     -1534.4970
  15   2.0000     -19.325332      -525.8690
  16   2.0000     -19.323402      -525.8165
  17   2.0000     -19.223298      -523.0925
  18   2.0000     -19.221405      -523.0410
  19   2.0000     -19.218613      -522.9651
  20   2.0000     -19.216773      -522.9150
  21   2.0000     -19.216210      -522.8997
  22   2.0000     -19.214057      -522.8411
  23   2.0000     -14.460589      -393.4926
  24   2.0000     -14.459524      -393.4637
  25   2.0000     -14.429480      -392.6461
  26   2.0000     -14.425241      -392.5308
  27   2.0000     -14.418493      -392.3471
  28   2.0000     -14.415443      -392.2641
  29   2.0000     -10.406993      -283.1887
  30   2.0000     -10.406377      -283.1719
  31   2.0000     -10.405810      -283.1565
  32   2.0000     -10.405550      -283.1494
  33   2.0000     -10.380420      -282.4656
  34   2.0000     -10.375326      -282.3270
  35   2.0000     -10.373777      -282.2848
  36   2.0000     -10.371928      -282.2345
  37   2.0000     -10.371706      -282.2285
  38   2.0000     -10.370655      -282.1999
  39   2.0000     -10.362983      -281.9911
  40   2.0000     -10.355828      -281.7964
  41   2.0000     -10.349178      -281.6154
  42   2.0000     -10.348585      -281.5993
  43   2.0000     -10.346250      -281.5358
  44   2.0000     -10.344264      -281.4817
  45   2.0000     -10.340597      -281.3819
  46   2.0000     -10.333564      -281.1906
  47   2.0000     -10.331716      -281.1403
  48   2.0000     -10.330072      -281.0956
  49   2.0000     -10.329921      -281.0914
  50   2.0000     -10.328690      -281.0579
  51   2.0000     -10.324846      -280.9534
  52   2.0000     -10.319173      -280.7990
  53   2.0000     -10.317614      -280.7566
  54   2.0000     -10.316579      -280.7284
  55   2.0000     -10.314710      -280.6775
  56   2.0000     -10.314481      -280.6713
  57   2.0000     -10.313982      -280.6577
  58   2.0000     -10.313078      -280.6331
  59   2.0000     -10.312930      -280.6291
  60   2.0000     -10.311825      -280.5990
  61   2.0000     -10.310280      -280.5570
  62   2.0000     -10.308941      -280.5205
  63   2.0000     -10.307010      -280.4680
  64   2.0000     -10.306947      -280.4663
  65   2.0000     -10.306781      -280.4618
  66   2.0000     -10.305104      -280.4161
  67   2.0000     -10.305076      -280.4154
  68   2.0000     -10.304947      -280.4119
  69   2.0000     -10.304659      -280.4040
  70   2.0000     -10.304179      -280.3910
  71   2.0000     -10.303035      -280.3598
  72   2.0000     -10.302919      -280.3567
  73   2.0000     -10.302505      -280.3454
  74   2.0000     -10.301241      -280.3110
  75   2.0000     -10.300174      -280.2820
  76   2.0000     -10.300056      -280.2788
  77   2.0000     -10.299922      -280.2751
  78   2.0000     -10.296490      -280.1817
  79   2.0000     -10.293331      -280.0958
  80   2.0000     -10.293151      -280.0909
  81   2.0000      -8.796296      -239.3594
  82   2.0000      -8.789961      -239.1870
  83   2.0000      -8.075401      -219.7428
  84   2.0000      -8.069598      -219.5849
  85   2.0000      -8.064683      -219.4512
  86   2.0000      -8.051240      -219.0854
  87   2.0000      -8.048459      -219.0097
  88   2.0000      -6.632577      -180.4816
  89   2.0000      -6.626238      -180.3091
  90   2.0000      -6.618048      -180.0862
  91   2.0000      -6.617823      -180.0801
  92   2.0000      -6.611707      -179.9137
  93   2.0000      -6.611511      -179.9084
  94   2.0000      -6.045092      -164.4953
  95   2.0000      -6.040820      -164.3791
  96   2.0000      -6.039284      -164.3373
  97   2.0000      -6.036611      -164.2645
  98   2.0000      -6.034995      -164.2206
  99   2.0000      -6.034035      -164.1944
 100   2.0000      -6.030853      -164.1079
 101   2.0000      -6.029652      -164.0752
 102   2.0000      -6.026814      -163.9979
 103   2.0000      -6.021706      -163.8589
 104   2.0000      -6.018841      -163.7810
 105   2.0000      -6.017374      -163.7411
 106   2.0000      -6.014832      -163.6719
 107   2.0000      -6.010881      -163.5644
 108   2.0000      -6.008094      -163.4885
 109   2.0000      -2.748505       -74.7906
 110   2.0000      -2.744354       -74.6777
 111   2.0000      -2.744187       -74.6731
 112   2.0000      -2.742148       -74.6176
 113   2.0000      -2.738034       -74.5057
 114   2.0000      -2.737871       -74.5013
 115   2.0000      -2.732638       -74.3589
 116   2.0000      -2.732635       -74.3588
 117   2.0000      -2.726335       -74.1873
 118   2.0000      -2.726312       -74.1867
 119   2.0000      -1.243603       -33.8402
 120   2.0000      -1.239429       -33.7266
 121   2.0000      -1.162905       -31.6442
 122   2.0000      -1.160916       -31.5901
 123   2.0000      -1.143774       -31.1237
 124   2.0000      -1.140211       -31.0267
 125   2.0000      -1.137533       -30.9539
 126   2.0000      -1.136520       -30.9263
 127   2.0000      -1.049770       -28.5657
 128   2.0000      -1.048560       -28.5328
 129   2.0000      -1.030216       -28.0336
 130   2.0000      -1.023402       -27.8482
 131   2.0000      -1.021105       -27.7857
 132   2.0000      -1.013137       -27.5689
 133   2.0000      -1.009838       -27.4791
 134   2.0000      -1.006151       -27.3788
 135   2.0000      -0.996948       -27.1283
 136   2.0000      -0.995513       -27.0893
 137   2.0000      -0.990569       -26.9547
 138   2.0000      -0.976011       -26.5586
 139   2.0000      -0.952505       -25.9190
 140   2.0000      -0.947212       -25.7749
 141   2.0000      -0.940718       -25.5982
 142   2.0000      -0.935808       -25.4646
 143   2.0000      -0.933481       -25.4013
 144   2.0000      -0.930270       -25.3139
 145   2.0000      -0.914784       -24.8925
 146   2.0000      -0.912986       -24.8436
 147   2.0000      -0.909070       -24.7370
 148   2.0000      -0.901946       -24.5432
 149   2.0000      -0.892311       -24.2810
 150   2.0000      -0.890413       -24.2294
 151   2.0000      -0.884811       -24.0769
 152   2.0000      -0.880916       -23.9710
 153   2.0000      -0.870701       -23.6930
 154   2.0000      -0.858825       -23.3698
 155   2.0000      -0.838915       -22.8280
 156   2.0000      -0.833723       -22.6868
 157   2.0000      -0.828379       -22.5413
 158   2.0000      -0.819368       -22.2961
 159   2.0000      -0.808191       -21.9920
 160   2.0000      -0.789164       -21.4742
 161   2.0000      -0.783981       -21.3332
 162   2.0000      -0.782432       -21.2910
 163   2.0000      -0.775990       -21.1158
 164   2.0000      -0.773299       -21.0425
 165   2.0000      -0.768528       -20.9127
 166   2.0000      -0.765724       -20.8364
 167   2.0000      -0.761030       -20.7087
 168   2.0000      -0.755292       -20.5525
 169   2.0000      -0.732907       -19.9434
 170   2.0000      -0.723247       -19.6805
 171   2.0000      -0.709947       -19.3186
 172   2.0000      -0.709042       -19.2940
 173   2.0000      -0.706171       -19.2159
 174   2.0000      -0.699563       -19.0361
 175   2.0000      -0.695260       -18.9190
 176   2.0000      -0.687817       -18.7165
 177   2.0000      -0.681510       -18.5448
 178   2.0000      -0.677094       -18.4247
 179   2.0000      -0.669103       -18.2072
 180   2.0000      -0.663191       -18.0464
 181   2.0000      -0.662326       -18.0228
 182   2.0000      -0.646462       -17.5911
 183   2.0000      -0.640509       -17.4291
 184   2.0000      -0.631018       -17.1709
 185   2.0000      -0.627393       -17.0722
 186   2.0000      -0.624544       -16.9947
 187   2.0000      -0.617947       -16.8152
 188   2.0000      -0.613096       -16.6832
 189   2.0000      -0.607091       -16.5198
 190   2.0000      -0.603967       -16.4348
 191   2.0000      -0.603427       -16.4201
 192   2.0000      -0.602466       -16.3939
 193   2.0000      -0.600949       -16.3526
 194   2.0000      -0.598046       -16.2737
 195   2.0000      -0.592805       -16.1311
 196   2.0000      -0.590619       -16.0716
 197   2.0000      -0.588180       -16.0052
 198   2.0000      -0.581438       -15.8217
 199   2.0000      -0.574997       -15.6465
 200   2.0000      -0.572833       -15.5876
 201   2.0000      -0.567272       -15.4363
 202   2.0000      -0.562994       -15.3198
 203   2.0000      -0.558178       -15.1888
 204   2.0000      -0.555985       -15.1291
 205   2.0000      -0.553969       -15.0743
 206   2.0000      -0.551602       -15.0099
 207   2.0000      -0.550388       -14.9768
 208   2.0000      -0.548535       -14.9264
 209   2.0000      -0.543283       -14.7835
 210   2.0000      -0.542024       -14.7492
 211   2.0000      -0.537718       -14.6321
 212   2.0000      -0.534439       -14.5428
 213   2.0000      -0.532102       -14.4792
 214   2.0000      -0.530469       -14.4348
 215   2.0000      -0.525951       -14.3118
 216   2.0000      -0.522758       -14.2250
 217   2.0000      -0.520632       -14.1671
 218   2.0000      -0.518757       -14.1161
 219   2.0000      -0.517977       -14.0949
 220   2.0000      -0.516142       -14.0449
 221   2.0000      -0.513893       -13.9837
 222   2.0000      -0.512166       -13.9368
 223   2.0000      -0.508936       -13.8489
 224   2.0000      -0.506703       -13.7881
 225   2.0000      -0.505243       -13.7484
 226   2.0000      -0.503755       -13.7079
 227   2.0000      -0.502090       -13.6626
 228   2.0000      -0.498769       -13.5722
 229   2.0000      -0.494259       -13.4495
 230   2.0000      -0.491481       -13.3739
 231   2.0000      -0.489236       -13.3128
 232   2.0000      -0.487523       -13.2662
 233   2.0000      -0.484961       -13.1965
 234   2.0000      -0.482513       -13.1298
 235   2.0000      -0.479846       -13.0573
 236   2.0000      -0.476533       -12.9671
 237   2.0000      -0.475719       -12.9450
 238   2.0000      -0.466884       -12.7046
 239   2.0000      -0.465751       -12.6737
 240   2.0000      -0.463811       -12.6209
 241   2.0000      -0.463262       -12.6060
 242   2.0000      -0.460966       -12.5435
 243   2.0000      -0.457971       -12.4620
 244   2.0000      -0.454259       -12.3610
 245   2.0000      -0.451304       -12.2806
 246   2.0000      -0.450567       -12.2605
 247   2.0000      -0.449238       -12.2244
 248   2.0000      -0.447350       -12.1730
 249   2.0000      -0.444499       -12.0954
 250   2.0000      -0.443026       -12.0553
 251   2.0000      -0.440178       -11.9779
 252   2.0000      -0.438332       -11.9276
 253   2.0000      -0.436392       -11.8748
 254   2.0000      -0.433946       -11.8083
 255   2.0000      -0.432905       -11.7799
 256   2.0000      -0.427821       -11.6416
 257   2.0000      -0.426422       -11.6035
 258   2.0000      -0.420792       -11.4503
 259   2.0000      -0.420281       -11.4364
 260   2.0000      -0.412943       -11.2367
 261   2.0000      -0.410664       -11.1747
 262   2.0000      -0.405798       -11.0423
 263   2.0000      -0.396479       -10.7887
 264   2.0000      -0.393825       -10.7165
 265   2.0000      -0.389909       -10.6100
 266   2.0000      -0.386725       -10.5233
 267   2.0000      -0.384282       -10.4568
 268   2.0000      -0.383285       -10.4297
 269   2.0000      -0.378351       -10.2955
 270   2.0000      -0.377112       -10.2617
 271   2.0000      -0.375016       -10.2047
 272   2.0000      -0.374065       -10.1788
 273   2.0000      -0.372165       -10.1271
 274   2.0000      -0.367904       -10.0112
 275   2.0000      -0.366170        -9.9640
 276   2.0000      -0.365687        -9.9508
 277   2.0000      -0.358293        -9.7497
 278   2.0000      -0.354443        -9.6449
 279   2.0000      -0.351785        -9.5726
 280   2.0000      -0.346954        -9.4411
 281   2.0000      -0.342018        -9.3068
 282   2.0000      -0.341292        -9.2870
 283   2.0000      -0.328331        -8.9343
 284   2.0000      -0.319173        -8.6851
 285   2.0000      -0.314295        -8.5524
 286   2.0000      -0.308156        -8.3854
 287   2.0000      -0.297350        -8.0913
 288   2.0000      -0.292636        -7.9630
 289   2.0000      -0.289982        -7.8908
 290   2.0000      -0.288292        -7.8448
 291   2.0000      -0.255390        -6.9495
 292   0.0000      -0.110386        -3.0038
 293   0.0000      -0.097921        -2.6646
 294   0.0000      -0.076858        -2.0914
 295   0.0000      -0.065179        -1.7736
 296   0.0000      -0.064245        -1.7482

MULLIKEN ATOMIC CHARGES
-----------------------
   0 C :    0.333324
   1 C :   -0.339402
   2 C :   -0.168940
   3 N :    0.137786
   4 C :   -0.205275
   5 N :    0.147898
   6 C :    0.030785
   7 C :    0.000765
   8 C :   -0.061748
   9 C :    0.115669
  10 C :   -0.086589
  11 C :   -0.024266
  12 S :    0.183570
  13 C :   -0.123486
  14 C :    0.043177
  15 Br:    0.027596
  16 C :    0.153236
  17 O :   -0.143016
  18 C :   -0.055500
  19 C :   -0.063628
  20 C :    0.113693
  21 O :   -0.211840
  22 C :   -0.012314
  23 C :    0.184301
  24 O :   -0.144663
  25 N :   -0.163321
  26 C :    0.167875
  27 O :   -0.131822
  28 C :   -0.049558
  29 C :    0.091045
  30 C :   -0.019981
  31 C :   -0.003993
  32 C :   -0.040160
  33 S :    0.097764
  34 C :   -0.004124
  35 C :   -0.119613
  36 S :    0.133649
  37 C :   -0.109146
  38 C :   -0.021644
  39 S :    0.171137
  40 C :   -0.063765
  41 C :    0.090964
  42 O :   -0.218392
  43 C :   -0.058657
  44 C :    0.176539
  45 O :   -0.130354
  46 N :   -0.163974
  47 C :    0.173121
  48 O :   -0.131064
  49 C :   -0.028406
  50 C :    0.079447
  51 C :    0.025301
  52 C :    0.017675
  53 C :    0.027484
  54 C :   -0.076490
  55 C :    0.256437
  56 C :   -0.323896
  57 C :   -0.176998
  58 N :    0.163142
  59 C :   -0.198724
  60 N :    0.171378
  61 C :    0.006009
  62 C :    0.008934
  63 C :    0.134295
  64 O :   -0.168918
  65 C :   -0.050792
  66 C :    0.103640
  67 C :   -0.085438
  68 C :   -0.022057
  69 S :    0.187976
  70 C :   -0.126895
  71 C :    0.050856
  72 Br:    0.024052
  73 H :   -0.006366
  74 H :   -0.008280
  75 H :   -0.001543
  76 H :    0.028242
  77 H :    0.140916
  78 H :    0.026101
  79 H :    0.025274
  80 H :    0.032462
  81 H :    0.039285
  82 H :    0.142564
  83 H :    0.039322
  84 H :    0.014164
  85 H :    0.029767
  86 H :   -0.006067
  87 H :    0.001702
  88 H :    0.000783
Sum of atomic charges:   -0.0000000

LOEWDIN ATOMIC CHARGES
----------------------
   0 C :    0.086590
   1 C :   -0.137345
   2 C :   -0.008459
   3 N :   -0.060742
   4 C :   -0.016496
   5 N :   -0.058569
   6 C :   -0.012742
   7 C :   -0.041221
   8 C :    0.028708
   9 C :   -0.028862
  10 C :   -0.141468
  11 C :   -0.008012
  12 S :    0.431055
  13 C :   -0.270231
  14 C :   -0.068661
  15 Br:    0.140362
  16 C :    0.090478
  17 O :   -0.127915
  18 C :   -0.056885
  19 C :    0.033072
  20 C :    0.047465
  21 O :    0.018367
  22 C :   -0.056971
  23 C :    0.089011
  24 O :   -0.149563
  25 N :   -0.000769
  26 C :    0.086105
  27 O :   -0.151449
  28 C :   -0.098346
  29 C :    0.084295
  30 C :   -0.047007
  31 C :   -0.010252
  32 C :   -0.163761
  33 S :    0.364506
  34 C :   -0.214913
  35 C :   -0.199424
  36 S :    0.457587
  37 C :   -0.192454
  38 C :   -0.217950
  39 S :    0.416035
  40 C :   -0.179121
  41 C :    0.046223
  42 O :    0.029297
  43 C :   -0.092719
  44 C :    0.081197
  45 O :   -0.149802
  46 N :   -0.002455
  47 C :    0.085271
  48 O :   -0.148582
  49 C :   -0.079193
  50 C :    0.070163
  51 C :    0.020085
  52 C :   -0.018448
  53 C :    0.055421
  54 C :   -0.070229
  55 C :    0.067769
  56 C :   -0.133038
  57 C :   -0.019195
  58 N :   -0.044203
  59 C :   -0.015847
  60 N :   -0.041357
  61 C :   -0.013956
  62 C :   -0.058523
  63 C :    0.090200
  64 O :   -0.153518
  65 C :    0.034282
  66 C :   -0.030650
  67 C :   -0.140123
  68 C :   -0.010213
  69 S :    0.435089
  70 C :   -0.272156
  71 C :   -0.063822
  72 Br:    0.137854
  73 H :    0.043134
  74 H :    0.039883
  75 H :    0.039848
  76 H :    0.048966
  77 H :    0.096523
  78 H :    0.039646
  79 H :    0.031461
  80 H :    0.028343
  81 H :    0.031991
  82 H :    0.097356
  83 H :    0.050932
  84 H :    0.036523
  85 H :    0.043257
  86 H :    0.039818
  87 H :    0.042230
  88 H :    0.041217

  Mayer bond orders larger than 0.100000
B(  0-C ,  1-C ) :   1.6356 B(  0-C ,  6-C ) :   1.0237 B(  0-C , 18-C ) :   1.0614
B(  1-C ,  2-C ) :   1.1534 B(  1-C ,  4-C ) :   1.1534 B(  2-C ,  3-N ) :   2.9095
B(  4-C ,  5-N ) :   2.9321 B(  6-C ,  7-C ) :   1.2714 B(  6-C , 11-C ) :   1.3952
B(  7-C ,  8-C ) :   1.4233 B(  7-C , 16-C ) :   0.9373 B(  8-C ,  9-C ) :   1.2525
B(  8-C , 73-H ) :   1.0144 B(  9-C , 10-C ) :   1.2977 B(  9-C , 14-C ) :   1.1645
B( 10-C , 11-C ) :   1.3420 B( 10-C , 12-S ) :   1.0837 B( 11-C , 74-H ) :   0.9800
B( 12-S , 13-C ) :   1.0857 B( 13-C , 14-C ) :   1.6171 B( 13-C , 15-Br) :   1.0221
B( 14-C , 75-H ) :   1.0001 B( 16-C , 17-O ) :   2.2345 B( 16-C , 18-C ) :   0.9117
B( 18-C , 19-C ) :   1.6475 B( 19-C , 20-C ) :   1.1252 B( 19-C , 76-H ) :   0.9326
B( 20-C , 21-O ) :   1.1199 B( 20-C , 22-C ) :   1.4586 B( 21-O , 29-C ) :   1.1528
B( 22-C , 23-C ) :   0.8646 B( 22-C , 28-C ) :   1.3052 B( 23-C , 24-O ) :   2.2337
B( 23-C , 25-N ) :   1.0921 B( 25-N , 26-C ) :   1.0713 B( 25-N , 77-H ) :   0.9147
B( 26-C , 27-O ) :   2.2822 B( 26-C , 28-C ) :   0.8773 B( 28-C , 29-C ) :   1.3606
B( 29-C , 30-C ) :   1.1922 B( 30-C , 31-C ) :   1.6240 B( 30-C , 78-H ) :   0.9547
B( 31-C , 32-C ) :   1.1714 B( 31-C , 79-H ) :   0.9636 B( 32-C , 33-S ) :   1.0172
B( 32-C , 40-C ) :   1.5727 B( 33-S , 34-C ) :   0.9822 B( 34-C , 35-C ) :   1.5950
B( 34-C , 38-C ) :   1.2626 B( 35-C , 36-S ) :   1.1783 B( 35-C , 80-H ) :   0.9705
B( 36-S , 37-C ) :   1.1808 B( 37-C , 38-C ) :   1.5998 B( 37-C , 81-H ) :   0.9686
B( 38-C , 39-S ) :   0.9890 B( 39-S , 40-C ) :   1.0942 B( 40-C , 41-C ) :   1.1379
B( 41-C , 42-O ) :   1.1352 B( 41-C , 43-C ) :   1.4329 B( 42-O , 50-C ) :   1.1336
B( 43-C , 44-C ) :   0.8621 B( 43-C , 49-C ) :   1.2830 B( 44-C , 45-O ) :   2.2615
B( 44-C , 46-N ) :   1.0831 B( 46-N , 47-C ) :   1.0798 B( 46-N , 82-H ) :   0.9133
B( 47-C , 48-O ) :   2.2770 B( 47-C , 49-C ) :   0.8723 B( 49-C , 50-C ) :   1.4093
B( 50-C , 51-C ) :   1.2125 B( 51-C , 52-C ) :   1.6178 B( 51-C , 83-H ) :   0.9394
B( 52-C , 53-C ) :   1.1361 B( 52-C , 84-H ) :   0.9670 B( 53-C , 54-C ) :   1.6800
B( 53-C , 85-H ) :   0.9276 B( 54-C , 55-C ) :   1.0177 B( 54-C , 63-C ) :   0.9568
B( 55-C , 56-C ) :   1.6620 B( 55-C , 61-C ) :   1.0167 B( 56-C , 57-C ) :   1.1225
B( 56-C , 59-C ) :   1.1690 B( 57-C , 58-N ) :   2.9995 B( 59-C , 60-N ) :   2.9929
B( 61-C , 62-C ) :   1.2630 B( 61-C , 68-C ) :   1.4165 B( 62-C , 63-C ) :   0.9393
B( 62-C , 65-C ) :   1.4138 B( 63-C , 64-O ) :   2.1780 B( 65-C , 66-C ) :   1.2666
B( 65-C , 86-H ) :   1.0072 B( 66-C , 67-C ) :   1.2998 B( 66-C , 71-C ) :   1.1682
B( 67-C , 68-C ) :   1.3255 B( 67-C , 69-S ) :   1.0886 B( 68-C , 87-H ) :   0.9844
B( 69-S , 70-C ) :   1.0839 B( 70-C , 71-C ) :   1.6183 B( 70-C , 72-Br) :   1.0191
B( 71-C , 88-H ) :   0.9995

-----------------------------------------------------------------------------
         ABSORPTION SPECTRUM VIA TRANSITION ELECTRIC DIPOLE MOMENTS
-----------------------------------------------------------------------------
State   Energy  Wavelength   fosc         T2         TX        TY        TZ
        (cm-1)    (nm)                  (au**2)     (au)      (au)      (au)
-----------------------------------------------------------------------------
   0   15343.2    651.8   0.139401851   2.99108  -0.68019   1.58481   0.12963
   1   19293.1    518.3   0.483066321   8.24291  -0.24662   0.64176  -2.78751
   2   22303.5    448.4   0.228977574   3.37984  -1.15940   0.64625   1.27200
   3   23070.2    433.5   0.707153666  10.09107   0.81430  -1.27594   2.79284
   4   24033.8    416.1   0.048767964   0.66802  -0.29159   0.61908   0.44692
   5   24856.6    402.3   0.198359205   2.62716  -1.02010   0.99636   0.77060
   6   24973.6    400.4   0.087960473   1.15953   0.25419   0.63694  -0.83019
   7   25595.4    390.7   0.176828695   2.27440   1.27914  -0.74987   0.27548
   8   26267.2    380.7   0.092235732   1.15601  -0.04851  -0.80434   0.71182
   9   27005.0    370.3   0.027947837   0.34071   0.43889  -0.38171   0.04881
  10   27155.3    368.3   0.004060039   0.04922  -0.15473   0.15291  -0.04355
  11   27231.5    367.2   0.131583965   1.59077   0.86857  -0.70598   0.58133
  12   27706.7    360.9   0.123058544   1.46218  -0.22185   0.86670  -0.81351
  13   27888.0    358.6   0.047306562   0.55844  -0.57282   0.29193   0.38092
  14   28422.9    351.8   0.007884931   0.09133   0.26224  -0.04762  -0.14245
  15   28705.7    348.4   0.273001308   3.13092   0.70119  -0.74467   1.44385
  16   29317.3    341.1   0.006091330   0.06840   0.04132  -0.25523  -0.03938
  17   29607.9    337.7   0.045266172   0.50332  -0.08441   0.13197   0.69194
  18   30054.6    332.7   0.034155732   0.37413  -0.51497   0.30883   0.11643
  19   30763.0    325.1   0.100915213   1.07995  -0.04525  -0.55937   0.87465
  20   30985.6    322.7   0.190433859   2.02330  -0.83836   0.88190  -0.73668
  21   31489.3    317.6   0.017526486   0.18323   0.01880  -0.35699   0.23546
  22   31865.7    313.8   0.073661116   0.76101  -0.36682   0.24745  -0.75181
  23   32115.1    311.4   0.153272978   1.57120  -1.09061   0.61277  -0.07930
  24   32326.5    309.3   0.855594322   8.71334  -0.15782   1.89031  -2.26168
  25   32351.1    309.1   0.203497387   2.07084   0.03277  -1.03326   1.00107
  26   32710.7    305.7   0.023671901   0.23824  -0.03219  -0.39440   0.28575
  27   32817.9    304.7   0.275729941   2.76598   1.56476  -0.56215  -0.03862
  28   33262.2    300.6   0.052530578   0.51992   0.67768  -0.22485  -0.10056
  29   33429.3    299.1   0.006007019   0.05916   0.05330  -0.09883  -0.21575
  30   34023.0    293.9   0.050427393   0.48794   0.04981  -0.48301  -0.50216
  31   34323.7    291.3   0.001996142   0.01915   0.06616  -0.02268  -0.11939
  32   34365.2    291.0   0.020606810   0.19741  -0.29582   0.19622   0.26720
  33   34595.9    289.1   0.006742297   0.06416  -0.11189   0.22121   0.05202
  34   34858.1    286.9   0.121360378   1.14617  -0.63982   0.71118  -0.48065
  35   35071.8    285.1   0.023416246   0.21980   0.36842   0.13214  -0.25809
  36   35257.4    283.6   0.058620847   0.54737   0.54915  -0.15114  -0.47219
  37   35736.3    279.8   0.036141185   0.33294  -0.41975   0.34938  -0.18624
  38   35746.3    279.7   0.005792133   0.05334   0.22964  -0.02145   0.01221
  39   35983.3    277.9   0.011211845   0.10258   0.02722  -0.27930  -0.15436
  40   36427.1    274.5   0.003516001   0.03178   0.10120   0.10834  -0.09897
  41   36833.6    271.5   0.005098226   0.04557   0.16228  -0.00778  -0.13847
  42   36849.4    271.4   0.021318151   0.19046   0.02278  -0.37229   0.22657
  43   37337.8    267.8   0.003332579   0.02938   0.13857  -0.06234  -0.07935
  44   37411.2    267.3   0.014811599   0.13034   0.11476  -0.25963   0.22308
  45   37510.2    266.6   0.049546550   0.43485  -0.34000   0.54880   0.13441
  46   37772.3    264.7   0.015688473   0.13674  -0.11533  -0.16369   0.31087
  47   38011.6    263.1   0.057821244   0.50078   0.03231  -0.42349   0.56603
  48   38264.4    261.3   0.325587538   2.80123  -0.86541   0.06369   1.43117
  49   38872.1    257.3   0.303093823   2.56693   1.07950  -1.17977  -0.09882
  50   39137.8    255.5   0.003864897   0.03251  -0.00794   0.17555  -0.04034
  51   39409.1    253.7   0.045545373   0.38047  -0.52704  -0.31727  -0.04510
  52   39764.3    251.5   0.057082587   0.47259  -0.25384   0.34986  -0.53456
  53   39816.7    251.2   0.085531471   0.70719  -0.20346   0.33218   0.74528
  54   39997.3    250.0   0.005341369   0.04396  -0.20482  -0.04396   0.00909
  55   40121.2    249.2   0.074697978   0.61293   0.29110  -0.38450   0.61673

FINAL SINGLE POINT ENERGY    -10056.057446787763

DIPOLE MOMENT
-------------
                                X             Y             Z
Electronic contribution:     22.13136     -79.98510     147.33130
Nuclear contribution   :    -21.44314      77.89936    -148.02826
                        -----------------------------------------
Total Dipole Moment    :      0.68822      -2.08574      -0.69696
                        -----------------------------------------
Magnitude (a.u.)       :      2.30428
Magnitude (Debye)      :      5.85702

Rotational constants in cm-1:     0.000804     0.000422     0.000289
Rotational constants in MHz :    24.094980    12.660272     8.657195

                             ****ORCA TERMINATED NORMALLY****
TOTAL RUN TIME: 0 days 0 hours 14 minutes 2 seconds 461 msec
