                         Program Version 4.2.0 -  RELEASE  -
|  1> # ORCA input file
|  2> # SCF done       -162.264560207718          0.000932649340
|  3> ! CAM-B3LYP def2-SVP def2/J RIJCOSX Grid4 TightSCF
|  4> %maxcore 5000
|  5> %tddft
|  6>     Mode sTDDFT
|  7>     Ethresh 5.0
|  8>     maxcore 5000
|  9> end
| 10>
| 11> %pal
| 12>   nprocs 6
| 13>   end
| 14> * xyz 0 1
| 15>    C        0.73640        -2.19103        -3.16863
| 16>    C        0.17638        -3.43725        -2.98552
| 17>    C        0.82559        -4.64745        -3.29435
| 18>    N        1.29600        -5.66903        -3.53084
| 19>    C       -1.10453        -3.69568        -2.46135
| 20>    N       -2.13379        -4.00093        -2.04932
| 21>    C        2.07658        -1.94653        -3.70260
| 22>    C        2.30879        -0.55021        -3.71636
| 23>    C        3.47848         0.00338        -4.17275
| 24>    C        4.47090        -0.86426        -4.64356
| 25>    C        4.23090        -2.25674        -4.62578
| 26>    C        3.04614        -2.81693        -4.16027
| 27>    S        5.58490        -3.14667        -5.25606
| 28>    C        6.44165        -1.65328        -5.53164
| 29>    C        5.75289        -0.54548        -5.17065
| 30>   Br        8.16522        -1.69791        -6.27250
| 31>    C        1.11379         0.14553        -3.19103
| 32>    O        0.98628         1.34875        -3.06100
| 33>    C        0.14154        -0.91629        -2.87731
| 34>    C       -1.14722        -0.68930        -2.42057
| 35>    C       -1.69358         0.56060        -2.17828
| 36>    C       -3.01500         0.75019        -1.79710
| 37>    C       -3.66252         1.98077        -1.58921
| 38>    C       -4.99455         1.86533        -1.28375
| 39>    C       -5.44352         0.53771        -1.22963
| 40>    S       -4.13770        -0.56959        -1.56009
| 41>    C       -6.74417         0.08137        -0.99985
| 42>    C       -7.91033         0.84333        -0.85258
| 43>    C       -9.04821         0.08388        -0.72026
| 44>    C       -8.81636        -1.29673        -0.73825
| 45>    S       -7.11001        -1.62038        -0.92833
| 46>    C       -9.77539        -2.30752        -0.65635
| 47>    C       -9.49590        -3.64996        -0.58909
| 48>    C      -10.46376        -4.65595        -0.58433
| 49>    C      -10.24836        -6.03128        -0.42146
| 50>    C      -11.39284        -6.78712        -0.49053
| 51>    C      -12.54963        -6.03159        -0.73171
| 52>    S      -12.16244        -4.33413        -0.83235
| 53>    C      -13.85276        -6.48377        -0.93213
| 54>    C      -14.33127        -7.80576        -0.85043
| 55>    C      -15.65493        -7.92137        -1.16154
| 56>    C      -16.27750        -6.69475        -1.50203
| 57>    S      -15.13018        -5.38526        -1.37632
| 58>    C      -17.56674        -6.57044        -1.97026
| 59>    C      -18.24138        -5.39410        -2.32926
| 60>    O      -19.36128        -5.54337        -3.10867
| 61>    C      -18.06268        -4.03200        -2.09321
| 62>    C      -17.30532        -3.02880        -1.35034
| 63>    O      -16.40058        -3.12563        -0.55643
| 64>    N      -17.89541        -1.81771        -1.71639
| 65>    C      -18.99219        -1.92408        -2.56450
| 66>    O      -19.65036        -1.00212        -2.97579
| 67>    C      -19.10415        -3.36486        -2.78718
| 68>    C      -19.88135        -4.32400        -3.40148
| 69>    C      -21.02886        -4.15305        -4.22144
| 70>    C      -21.73160        -5.14845        -4.79617
| 71>    C      -22.88675        -4.91267        -5.63865
| 72>    C      -23.58165        -5.92390        -6.18997
| 73>    C      -23.25042        -3.56201        -5.86156
| 74>    C      -23.49666        -2.38875        -6.00923
| 75>    C      -23.78655        -1.02362        -6.18407
| 76>    C      -23.06764        -0.05861        -5.61641
| 77>    H        3.62387         1.07231        -4.17095
| 78>    H        2.91320        -3.88563        -4.17049
| 79>    H        6.12995         0.45588        -5.27175
| 80>    H       -1.79093        -1.54552        -2.26023
| 81>    H       -1.07966         1.43912        -2.31505
| 82>    H       -3.13774         2.91492        -1.68026
| 83>    H       -5.64572         2.70081        -1.09996
| 84>    H       -7.90095         1.91802        -0.86275
| 85>    H      -10.03766         0.49111        -0.61019
| 86>    H      -10.81156        -1.99245        -0.64556
| 87>    H       -8.46189        -3.96664        -0.53525
| 88>    H       -9.26537        -6.43480        -0.25480
| 89>    H      -11.41594        -7.85687        -0.38856
| 90>    H      -13.70103        -8.62956        -0.56803
| 91>    H      -16.20230        -8.84714        -1.16110
| 92>    H      -18.11504        -7.48514        -2.15253
| 93>    H      -17.57483        -0.93449        -1.34648
| 94>    H      -21.31887        -3.12282        -4.37423
| 95>    H      -21.44270        -6.17903        -4.64200
| 96>    H      -23.30319        -6.95014        -6.02189
| 97>    H      -24.43783        -5.74249        -6.81583
| 98>    H      -24.63834        -0.79737        -6.81421
| 99>    H      -22.21956        -0.27583        -4.98799
|100>    H      -23.30786         0.98016        -5.76514
|101> *
|102>
|103>                          ****END OF INPUT****

CARTESIAN COORDINATES (ANGSTROEM)
---------------------------------
  C      0.736400   -2.191030   -3.168630
  C      0.176380   -3.437250   -2.985520
  C      0.825590   -4.647450   -3.294350
  N      1.296000   -5.669030   -3.530840
  C     -1.104530   -3.695680   -2.461350
  N     -2.133790   -4.000930   -2.049320
  C      2.076580   -1.946530   -3.702600
  C      2.308790   -0.550210   -3.716360
  C      3.478480    0.003380   -4.172750
  C      4.470900   -0.864260   -4.643560
  C      4.230900   -2.256740   -4.625780
  C      3.046140   -2.816930   -4.160270
  S      5.584900   -3.146670   -5.256060
  C      6.441650   -1.653280   -5.531640
  C      5.752890   -0.545480   -5.170650
  Br     8.165220   -1.697910   -6.272500
  C      1.113790    0.145530   -3.191030
  O      0.986280    1.348750   -3.061000
  C      0.141540   -0.916290   -2.877310
  C     -1.147220   -0.689300   -2.420570
  C     -1.693580    0.560600   -2.178280
  C     -3.015000    0.750190   -1.797100
  C     -3.662520    1.980770   -1.589210
  C     -4.994550    1.865330   -1.283750
  C     -5.443520    0.537710   -1.229630
  S     -4.137700   -0.569590   -1.560090
  C     -6.744170    0.081370   -0.999850
  C     -7.910330    0.843330   -0.852580
  C     -9.048210    0.083880   -0.720260
  C     -8.816360   -1.296730   -0.738250
  S     -7.110010   -1.620380   -0.928330
  C     -9.775390   -2.307520   -0.656350
  C     -9.495900   -3.649960   -0.589090
  C    -10.463760   -4.655950   -0.584330
  C    -10.248360   -6.031280   -0.421460
  C    -11.392840   -6.787120   -0.490530
  C    -12.549630   -6.031590   -0.731710
  S    -12.162440   -4.334130   -0.832350
  C    -13.852760   -6.483770   -0.932130
  C    -14.331270   -7.805760   -0.850430
  C    -15.654930   -7.921370   -1.161540
  C    -16.277500   -6.694750   -1.502030
  S    -15.130180   -5.385260   -1.376320
  C    -17.566740   -6.570440   -1.970260
  C    -18.241380   -5.394100   -2.329260
  O    -19.361280   -5.543370   -3.108670
  C    -18.062680   -4.032000   -2.093210
  C    -17.305320   -3.028800   -1.350340
  O    -16.400580   -3.125630   -0.556430
  N    -17.895410   -1.817710   -1.716390
  C    -18.992190   -1.924080   -2.564500
  O    -19.650360   -1.002120   -2.975790
  C    -19.104150   -3.364860   -2.787180
  C    -19.881350   -4.324000   -3.401480
  C    -21.028860   -4.153050   -4.221440
  C    -21.731600   -5.148450   -4.796170
  C    -22.886750   -4.912670   -5.638650
  C    -23.581650   -5.923900   -6.189970
  C    -23.250420   -3.562010   -5.861560
  C    -23.496660   -2.388750   -6.009230
  C    -23.786550   -1.023620   -6.184070
  C    -23.067640   -0.058610   -5.616410
  H      3.623870    1.072310   -4.170950
  H      2.913200   -3.885630   -4.170490
  H      6.129950    0.455880   -5.271750
  H     -1.790930   -1.545520   -2.260230
  H     -1.079660    1.439120   -2.315050
  H     -3.137740    2.914920   -1.680260
  H     -5.645720    2.700810   -1.099960
  H     -7.900950    1.918020   -0.862750
  H    -10.037660    0.491110   -0.610190
  H    -10.811560   -1.992450   -0.645560
  H     -8.461890   -3.966640   -0.535250
  H     -9.265370   -6.434800   -0.254800
  H    -11.415940   -7.856870   -0.388560
  H    -13.701030   -8.629560   -0.568030
  H    -16.202300   -8.847140   -1.161100
  H    -18.115040   -7.485140   -2.152530
  H    -17.574830   -0.934490   -1.346480
  H    -21.318870   -3.122820   -4.374230
  H    -21.442700   -6.179030   -4.642000
  H    -23.303190   -6.950140   -6.021890
  H    -24.437830   -5.742490   -6.815830
  H    -24.638340   -0.797370   -6.814210
  H    -22.219560   -0.275830   -4.987990
  H    -23.307860    0.980160   -5.765140

 Total Charge           Charge          ....    0
 Multiplicity           Mult            ....    1
 Number of Electrons    NEL             ....  486
 Basis Dimension        Dim             .... 1026

ORBITAL ENERGIES
----------------

  NO   OCC          E(Eh)            E(eV)
   0   2.0000    -482.871989    -13139.6148
   1   2.0000     -88.964889     -2420.8577
   2   2.0000     -88.962129     -2420.7826
   3   2.0000     -88.960914     -2420.7495
   4   2.0000     -88.958519     -2420.6844
   5   2.0000     -88.953450     -2420.5464
   6   2.0000     -62.549712     -1702.0642
   7   2.0000     -56.383644     -1534.2769
   8   2.0000     -56.380962     -1534.2040
   9   2.0000     -56.380922     -1534.2029
  10   2.0000     -19.310432      -525.4636
  11   2.0000     -19.210825      -522.7531
  12   2.0000     -19.210102      -522.7335
  13   2.0000     -19.191152      -522.2178
  14   2.0000     -14.454519      -393.3275
  15   2.0000     -14.392360      -391.6360
  16   2.0000     -14.389902      -391.5692
  17   2.0000     -10.400785      -283.0198
  18   2.0000     -10.399195      -282.9765
  19   2.0000     -10.367458      -282.1129
  20   2.0000     -10.362080      -281.9665
  21   2.0000     -10.342237      -281.4266
  22   2.0000     -10.341303      -281.4011
  23   2.0000     -10.330391      -281.1042
  24   2.0000     -10.330151      -281.0977
  25   2.0000     -10.329594      -281.0826
  26   2.0000     -10.329230      -281.0726
  27   2.0000     -10.327646      -281.0295
  28   2.0000     -10.318767      -280.7879
  29   2.0000     -10.317111      -280.7429
  30   2.0000     -10.315382      -280.6958
  31   2.0000     -10.314682      -280.6768
  32   2.0000     -10.312002      -280.6038
  33   2.0000     -10.306139      -280.4443
  34   2.0000     -10.305530      -280.4277
  35   2.0000     -10.305003      -280.4134
  36   2.0000     -10.303981      -280.3856
  37   2.0000     -10.303669      -280.3771
  38   2.0000     -10.303376      -280.3691
  39   2.0000     -10.301993      -280.3315
  40   2.0000     -10.299904      -280.2746
  41   2.0000     -10.299313      -280.2586
  42   2.0000     -10.296891      -280.1926
  43   2.0000     -10.296638      -280.1858
  44   2.0000     -10.296409      -280.1795
  45   2.0000     -10.296035      -280.1694
  46   2.0000     -10.294838      -280.1368
  47   2.0000     -10.294706      -280.1332
  48   2.0000     -10.294599      -280.1303
  49   2.0000     -10.290174      -280.0099
  50   2.0000     -10.289978      -280.0045
  51   2.0000     -10.289108      -279.9809
  52   2.0000     -10.288048      -279.9520
  53   2.0000     -10.286966      -279.9226
  54   2.0000     -10.286217      -279.9022
  55   2.0000     -10.284208      -279.8475
  56   2.0000     -10.283651      -279.8324
  57   2.0000     -10.283097      -279.8173
  58   2.0000     -10.280914      -279.7579
  59   2.0000     -10.280537      -279.7476
  60   2.0000     -10.274156      -279.5740
  61   2.0000     -10.271474      -279.5010
  62   2.0000     -10.269898      -279.4581
  63   2.0000     -10.267122      -279.3826
  64   2.0000     -10.266360      -279.3619
  65   2.0000     -10.265013      -279.3252
  66   2.0000      -8.779138      -238.8925
  67   2.0000      -8.061291      -219.3589
  68   2.0000      -8.058444      -219.2814
  69   2.0000      -8.056906      -219.2396
  70   2.0000      -8.054552      -219.1755
  71   2.0000      -8.049409      -219.0356
  72   2.0000      -6.615375      -180.0135
  73   2.0000      -6.600893      -179.6194
  74   2.0000      -6.600736      -179.6152
  75   2.0000      -6.030831      -164.1073
  76   2.0000      -6.027953      -164.0289
  77   2.0000      -6.026808      -163.9978
  78   2.0000      -6.026523      -163.9900
  79   2.0000      -6.024254      -163.9283
  80   2.0000      -6.023908      -163.9189
  81   2.0000      -6.022522      -163.8812
  82   2.0000      -6.022324      -163.8758
  83   2.0000      -6.019989      -163.8122
  84   2.0000      -6.019773      -163.8064
  85   2.0000      -6.018920      -163.7832
  86   2.0000      -6.017979      -163.7575
  87   2.0000      -6.015747      -163.6968
  88   2.0000      -6.014898      -163.6737
  89   2.0000      -6.010775      -163.5615
  90   2.0000      -2.731207       -74.3199
  91   2.0000      -2.727188       -74.2106
  92   2.0000      -2.727115       -74.2086
  93   2.0000      -2.715581       -73.8947
  94   2.0000      -2.715549       -73.8938
  95   2.0000      -1.225027       -33.3347
  96   2.0000      -1.155356       -31.4388
  97   2.0000      -1.134294       -30.8657
  98   2.0000      -1.104348       -30.0508
  99   2.0000      -1.042747       -28.3746
 100   2.0000      -1.014737       -27.6124
 101   2.0000      -1.007867       -27.4255
 102   2.0000      -1.002400       -27.2767
 103   2.0000      -0.993019       -27.0214
 104   2.0000      -0.991157       -26.9707
 105   2.0000      -0.983701       -26.7679
 106   2.0000      -0.970645       -26.4126
 107   2.0000      -0.966562       -26.3015
 108   2.0000      -0.942127       -25.6366
 109   2.0000      -0.927435       -25.2368
 110   2.0000      -0.923618       -25.1329
 111   2.0000      -0.921608       -25.0782
 112   2.0000      -0.915504       -24.9121
 113   2.0000      -0.898064       -24.4376
 114   2.0000      -0.889909       -24.2157
 115   2.0000      -0.887681       -24.1550
 116   2.0000      -0.882714       -24.0199
 117   2.0000      -0.869795       -23.6683
 118   2.0000      -0.865890       -23.5621
 119   2.0000      -0.863928       -23.5087
 120   2.0000      -0.855680       -23.2842
 121   2.0000      -0.854199       -23.2439
 122   2.0000      -0.840025       -22.8583
 123   2.0000      -0.834679       -22.7128
 124   2.0000      -0.830903       -22.6100
 125   2.0000      -0.820676       -22.3317
 126   2.0000      -0.809998       -22.0412
 127   2.0000      -0.808634       -22.0041
 128   2.0000      -0.801368       -21.8063
 129   2.0000      -0.783383       -21.3169
 130   2.0000      -0.769391       -20.9362
 131   2.0000      -0.767736       -20.8912
 132   2.0000      -0.756182       -20.5768
 133   2.0000      -0.740023       -20.1370
 134   2.0000      -0.734992       -20.0001
 135   2.0000      -0.723064       -19.6756
 136   2.0000      -0.711409       -19.3584
 137   2.0000      -0.705439       -19.1960
 138   2.0000      -0.700583       -19.0638
 139   2.0000      -0.693781       -18.8787
 140   2.0000      -0.689147       -18.7526
 141   2.0000      -0.675911       -18.3925
 142   2.0000      -0.668528       -18.1916
 143   2.0000      -0.664545       -18.0832
 144   2.0000      -0.657250       -17.8847
 145   2.0000      -0.653373       -17.7792
 146   2.0000      -0.644907       -17.5488
 147   2.0000      -0.639891       -17.4123
 148   2.0000      -0.636798       -17.3281
 149   2.0000      -0.630704       -17.1623
 150   2.0000      -0.625373       -17.0173
 151   2.0000      -0.619258       -16.8509
 152   2.0000      -0.611708       -16.6454
 153   2.0000      -0.610664       -16.6170
 154   2.0000      -0.606443       -16.5021
 155   2.0000      -0.602550       -16.3962
 156   2.0000      -0.602345       -16.3906
 157   2.0000      -0.596014       -16.2184
 158   2.0000      -0.584388       -15.9020
 159   2.0000      -0.581146       -15.8138
 160   2.0000      -0.579074       -15.7574
 161   2.0000      -0.575101       -15.6493
 162   2.0000      -0.572895       -15.5893
 163   2.0000      -0.569898       -15.5077
 164   2.0000      -0.563116       -15.3232
 165   2.0000      -0.555858       -15.1257
 166   2.0000      -0.545874       -14.8540
 167   2.0000      -0.544447       -14.8152
 168   2.0000      -0.540972       -14.7206
 169   2.0000      -0.531761       -14.4699
 170   2.0000      -0.528095       -14.3702
 171   2.0000      -0.525678       -14.3044
 172   2.0000      -0.521938       -14.2027
 173   2.0000      -0.519213       -14.1285
 174   2.0000      -0.517260       -14.0754
 175   2.0000      -0.516691       -14.0599
 176   2.0000      -0.514689       -14.0054
 177   2.0000      -0.513838       -13.9822
 178   2.0000      -0.511655       -13.9228
 179   2.0000      -0.508804       -13.8453
 180   2.0000      -0.507766       -13.8170
 181   2.0000      -0.505396       -13.7525
 182   2.0000      -0.503372       -13.6975
 183   2.0000      -0.502954       -13.6861
 184   2.0000      -0.495290       -13.4775
 185   2.0000      -0.489823       -13.3288
 186   2.0000      -0.487938       -13.2775
 187   2.0000      -0.487650       -13.2696
 188   2.0000      -0.486698       -13.2437
 189   2.0000      -0.484041       -13.1714
 190   2.0000      -0.480797       -13.0831
 191   2.0000      -0.477202       -12.9853
 192   2.0000      -0.474753       -12.9187
 193   2.0000      -0.473344       -12.8803
 194   2.0000      -0.472929       -12.8690
 195   2.0000      -0.469350       -12.7717
 196   2.0000      -0.465970       -12.6797
 197   2.0000      -0.464982       -12.6528
 198   2.0000      -0.458776       -12.4839
 199   2.0000      -0.457022       -12.4362
 200   2.0000      -0.453670       -12.3450
 201   2.0000      -0.451478       -12.2853
 202   2.0000      -0.449071       -12.2199
 203   2.0000      -0.446298       -12.1444
 204   2.0000      -0.440285       -11.9808
 205   2.0000      -0.439196       -11.9511
 206   2.0000      -0.431774       -11.7492
 207   2.0000      -0.430163       -11.7053
 208   2.0000      -0.427368       -11.6293
 209   2.0000      -0.426878       -11.6159
 210   2.0000      -0.421960       -11.4821
 211   2.0000      -0.419878       -11.4255
 212   2.0000      -0.415611       -11.3093
 213   2.0000      -0.412793       -11.2327
 214   2.0000      -0.406535       -11.0624
 215   2.0000      -0.404895       -11.0178
 216   2.0000      -0.403320       -10.9749
 217   2.0000      -0.400878       -10.9085
 218   2.0000      -0.393645       -10.7116
 219   2.0000      -0.384796       -10.4708
 220   2.0000      -0.381725       -10.3873
 221   2.0000      -0.379844       -10.3361
 222   2.0000      -0.371663       -10.1135
 223   2.0000      -0.369965       -10.0673
 224   2.0000      -0.363883        -9.9018
 225   2.0000      -0.361796        -9.8450
 226   2.0000      -0.360267        -9.8034
 227   2.0000      -0.353719        -9.6252
 228   2.0000      -0.349354        -9.5064
 229   2.0000      -0.345426        -9.3995
 230   2.0000      -0.344222        -9.3667
 231   2.0000      -0.343225        -9.3396
 232   2.0000      -0.335845        -9.1388
 233   2.0000      -0.329804        -8.9744
 234   2.0000      -0.324738        -8.8366
 235   2.0000      -0.311714        -8.4822
 236   2.0000      -0.306793        -8.3483
 237   2.0000      -0.296632        -8.0718
 238   2.0000      -0.292132        -7.9493
 239   2.0000      -0.278357        -7.5745
 240   2.0000      -0.273553        -7.4438
 241   2.0000      -0.246985        -6.7208
 242   2.0000      -0.202692        -5.5155
 243   0.0000      -0.127864        -3.4794
 244   0.0000      -0.077041        -2.0964
 245   0.0000      -0.053357        -1.4519
 246   0.0000      -0.048337        -1.3153
 247   0.0000      -0.034152        -0.9293

MULLIKEN ATOMIC CHARGES
-----------------------
   0 C :    0.327381
   1 C :   -0.372749
   2 C :   -0.189026
   3 N :    0.129637
   4 C :   -0.192229
   5 N :    0.128420
   6 C :    0.016042
   7 C :   -0.003682
   8 C :   -0.084779
   9 C :    0.121927
  10 C :   -0.089324
  11 C :   -0.034322
  12 S :    0.176060
  13 C :   -0.121314
  14 C :    0.031003
  15 Br:    0.009253
  16 C :    0.134766
  17 O :   -0.170998
  18 C :   -0.093791
  19 C :   -0.041499
  20 C :   -0.020496
  21 C :    0.001585
  22 C :    0.020490
  23 C :    0.037419
  24 C :   -0.051875
  25 S :    0.112928
  26 C :   -0.026690
  27 C :    0.008419
  28 C :    0.041214
  29 C :   -0.040983
  30 S :    0.120602
  31 C :    0.009232
  32 C :   -0.011929
  33 C :   -0.022558
  34 C :    0.030648
  35 C :    0.024402
  36 C :   -0.046557
  37 S :    0.109826
  38 C :   -0.043069
  39 C :    0.034581
  40 C :    0.032953
  41 C :   -0.022581
  42 S :    0.157240
  43 C :   -0.046069
  44 C :    0.129725
  45 O :   -0.217352
  46 C :   -0.066055
  47 C :    0.160672
  48 O :   -0.157572
  49 N :   -0.160234
  50 C :    0.168847
  51 O :   -0.149998
  52 C :   -0.050583
  53 C :    0.108238
  54 C :   -0.001158
  55 C :    0.006617
  56 C :   -0.007315
  57 C :   -0.004089
  58 C :    0.024554
  59 C :   -0.051987
  60 C :   -0.086843
  61 C :   -0.007665
  62 H :   -0.016988
  63 H :   -0.011417
  64 H :   -0.008012
  65 H :    0.011134
  66 H :    0.014252
  67 H :   -0.003660
  68 H :   -0.009371
  69 H :   -0.007294
  70 H :   -0.005527
  71 H :    0.006009
  72 H :    0.008542
  73 H :    0.000116
  74 H :   -0.003856
  75 H :   -0.006624
  76 H :   -0.004612
  77 H :   -0.000677
  78 H :    0.135946
  79 H :    0.021071
  80 H :   -0.011900
  81 H :    0.020635
  82 H :    0.031902
  83 H :    0.030198
  84 H :    0.050518
  85 H :    0.032302
Sum of atomic charges:   -0.0000000

LOEWDIN ATOMIC CHARGES
----------------------
   0 C :    0.071198
   1 C :   -0.163216
   2 C :   -0.019010
   3 N :   -0.076001
   4 C :   -0.020735
   5 N :   -0.074709
   6 C :   -0.016467
   7 C :   -0.047817
   8 C :    0.014773
   9 C :   -0.037564
  10 C :   -0.146482
  11 C :   -0.015956
  12 S :    0.424319
  13 C :   -0.276569
  14 C :   -0.071247
  15 Br:    0.125887
  16 C :    0.080621
  17 O :   -0.163053
  18 C :   -0.112084
  19 C :    0.041319
  20 C :   -0.071276
  21 C :   -0.109159
  22 C :   -0.046981
  23 C :   -0.014713
  24 C :   -0.195586
  25 S :    0.418471
  26 C :   -0.150442
  27 C :   -0.045044
  28 C :   -0.019454
  29 C :   -0.160307
  30 S :    0.414330
  31 C :   -0.029805
  32 C :   -0.061910
  33 C :   -0.132088
  34 C :   -0.033151
  35 C :   -0.023487
  36 C :   -0.174938
  37 S :    0.407013
  38 C :   -0.169341
  39 C :   -0.028737
  40 C :   -0.026779
  41 C :   -0.134461
  42 S :    0.452842
  43 C :   -0.075420
  44 C :    0.064938
  45 O :    0.007302
  46 C :   -0.111734
  47 C :    0.076505
  48 O :   -0.172369
  49 N :   -0.004258
  50 C :    0.084115
  51 O :   -0.167958
  52 C :   -0.096691
  53 C :    0.072867
  54 C :   -0.037216
  55 C :    0.016309
  56 C :   -0.043260
  57 C :   -0.003392
  58 C :   -0.035630
  59 C :   -0.025609
  60 C :   -0.047056
  61 C :   -0.002499
  62 H :    0.037926
  63 H :    0.039448
  64 H :    0.036831
  65 H :    0.030352
  66 H :    0.037773
  67 H :    0.037268
  68 H :    0.033585
  69 H :    0.033782
  70 H :    0.036702
  71 H :    0.032832
  72 H :    0.033945
  73 H :    0.038866
  74 H :    0.035424
  75 H :    0.034557
  76 H :    0.035978
  77 H :    0.044819
  78 H :    0.093448
  79 H :    0.049823
  80 H :    0.032696
  81 H :    0.025442
  82 H :    0.032315
  83 H :    0.042652
  84 H :    0.034225
  85 H :    0.028168

  Mayer bond orders larger than 0.100000
B(  0-C ,  1-C ) :   1.5624 B(  0-C ,  6-C ) :   0.9827 B(  0-C , 18-C ) :   1.1346
B(  1-C ,  2-C ) :   1.1544 B(  1-C ,  4-C ) :   1.1584 B(  2-C ,  3-N ) :   2.9579
B(  4-C ,  5-N ) :   2.9554 B(  6-C ,  7-C ) :   1.2805 B(  6-C , 11-C ) :   1.4210
B(  7-C ,  8-C ) :   1.4307 B(  7-C , 16-C ) :   0.9337 B(  8-C ,  9-C ) :   1.2337
B(  8-C , 62-H ) :   1.0177 B(  9-C , 10-C ) :   1.3210 B(  9-C , 14-C ) :   1.1572
B( 10-C , 11-C ) :   1.3137 B( 10-C , 12-S ) :   1.0822 B( 11-C , 63-H ) :   0.9813
B( 12-S , 13-C ) :   1.0846 B( 13-C , 14-C ) :   1.6212 B( 13-C , 15-Br) :   1.0099
B( 14-C , 64-H ) :   1.0014 B( 16-C , 17-O ) :   2.1783 B( 16-C , 18-C ) :   0.9744
B( 18-C , 19-C ) :   1.4338 B( 19-C , 20-C ) :   1.3049 B( 19-C , 65-H ) :   0.9444
B( 20-C , 21-C ) :   1.3617 B( 20-C , 66-H ) :   0.9782 B( 21-C , 22-C ) :   1.2245
B( 21-C , 25-S ) :   1.0915 B( 22-C , 23-C ) :   1.4816 B( 22-C , 67-H ) :   1.0027
B( 23-C , 24-C ) :   1.2725 B( 23-C , 68-H ) :   0.9955 B( 24-C , 25-S ) :   1.0619
B( 24-C , 26-C ) :   1.3703 B( 26-C , 27-C ) :   1.2694 B( 26-C , 30-S ) :   1.0962
B( 27-C , 28-C ) :   1.4840 B( 27-C , 69-H ) :   0.9963 B( 28-C , 29-C ) :   1.2369
B( 28-C , 70-H ) :   1.0014 B( 29-C , 30-S ) :   1.0550 B( 29-C , 31-C ) :   1.4288
B( 31-C , 32-C ) :   1.3025 B( 31-C , 71-H ) :   0.9728 B( 32-C , 33-C ) :   1.4260
B( 32-C , 72-H ) :   0.9747 B( 33-C , 34-C ) :   1.2244 B( 33-C , 37-S ) :   1.0733
B( 34-C , 35-C ) :   1.5027 B( 34-C , 73-H ) :   1.0022 B( 35-C , 36-C ) :   1.2492
B( 35-C , 74-H ) :   0.9956 B( 36-C , 37-S ) :   1.0658 B( 36-C , 38-C ) :   1.4191
B( 38-C , 39-C ) :   1.2124 B( 38-C , 42-S ) :   1.0880 B( 39-C , 40-C ) :   1.5637
B( 39-C , 75-H ) :   0.9937 B( 40-C , 41-C ) :   1.1576 B( 40-C , 76-H ) :   1.0002
B( 41-C , 42-S ) :   1.0766 B( 41-C , 43-C ) :   1.5187 B( 43-C , 44-C ) :   1.2082
B( 43-C , 77-H ) :   0.9528 B( 44-C , 45-O ) :   1.1120 B( 44-C , 46-C ) :   1.3747
B( 45-O , 53-C ) :   1.1601 B( 46-C , 47-C ) :   0.8943 B( 46-C , 52-C ) :   1.2674
B( 47-C , 48-O ) :   2.2004 B( 47-C , 49-N ) :   1.0815 B( 49-N , 50-C ) :   1.0822
B( 49-N , 78-H ) :   0.9155 B( 50-C , 51-O ) :   2.2449 B( 50-C , 52-C ) :   0.8864
B( 52-C , 53-C ) :   1.4151 B( 53-C , 54-C ) :   1.1572 B( 54-C , 55-C ) :   1.6642
B( 54-C , 79-H ) :   0.9432 B( 55-C , 56-C ) :   1.0604 B( 55-C , 80-H ) :   1.0007
B( 56-C , 57-C ) :   1.8677 B( 56-C , 58-C ) :   0.8790 B( 57-C , 81-H ) :   0.9498
B( 57-C , 82-H ) :   0.9480 B( 58-C , 59-C ) :   2.4242 B( 59-C , 60-C ) :   1.0034
B( 60-C , 61-C ) :   1.9389 B( 60-C , 83-H ) :   0.9613 B( 61-C , 84-H ) :   0.9624
B( 61-C , 85-H ) :   0.9565

-----------------------------------------------------------------------------
         ABSORPTION SPECTRUM VIA TRANSITION ELECTRIC DIPOLE MOMENTS
-----------------------------------------------------------------------------
State   Energy  Wavelength   fosc         T2         TX        TY        TZ
        (cm-1)    (nm)                  (au**2)     (au)      (au)      (au)
-----------------------------------------------------------------------------
   0    5127.6   1950.2   0.943262776  60.56115   7.49493   2.06751  -0.33554
   1   12999.3    769.3   0.012047591   0.30511   0.50361  -0.01224   0.22658
   2   15650.7    638.9   0.193600034   4.07238   0.08102   0.92164   1.79343
   3   19737.5    506.6   0.000973574   0.01624   0.11087   0.03948   0.04887
   4   21103.5    473.9   0.304908685   4.75655   0.63933  -2.06771   0.26907
   5   22052.8    453.5   0.101554362   1.51604   0.89948  -0.30881   0.78205
   6   22320.7    448.0   0.121869485   1.79748   0.64019   1.17056  -0.13200
   7   23456.4    426.3   0.338522337   4.75118   1.58011  -1.49952   0.07678
   8   25108.4    398.3   0.522631392   6.85255   1.19565  -2.32859  -0.02495
   9   25431.0    393.2   0.057377654   0.74277  -0.77360  -0.16106   0.34406
  10   25640.4    390.0   0.009388724   0.12055  -0.24170   0.24176   0.06069
  11   26535.1    376.9   0.005663445   0.07026  -0.18686  -0.12776   0.13793
  12   27000.5    370.4   0.079798754   0.97297  -0.57511   0.80114  -0.01975
  13   27091.3    369.1   0.010588400   0.12867   0.29547   0.20190  -0.02454
  14   28288.6    353.5   0.095302567   1.10909   0.78632  -0.68565  -0.14381
  15   29245.7    341.9   0.017474737   0.19671   0.30364  -0.17469  -0.27202
  16   30535.1    327.5   0.014699784   0.15848   0.18930   0.23236   0.26203
  17   30703.6    325.7   0.224337032   2.40540  -1.38401  -0.67949   0.16796
  18   30865.7    324.0   0.119691792   1.27663  -1.04400   0.00213  -0.43207
  19   31269.4    319.8   0.135789858   1.42963  -0.71172  -0.52007  -0.80784
  20   31639.1    316.1   0.227552474   2.36774   1.42951   0.07049  -0.56504
  21   32141.0    311.1   0.002235950   0.02290  -0.14044   0.00997   0.05550
  22   32180.3    310.7   0.020430103   0.20900   0.14964  -0.25975   0.34517
  23   32330.3    309.3   0.207073349   2.10858   1.26631  -0.06032  -0.70809
  24   32802.0    304.9   0.005551961   0.05572   0.08742   0.17634  -0.13031
  25   32932.7    303.7   0.034821959   0.34810   0.44199   0.36378  -0.14286
  26   33145.6    301.7   0.020755473   0.20615  -0.02629   0.28019  -0.35630
  27   33449.3    299.0   0.011721449   0.11536   0.32612   0.00981   0.09441
  28   34046.7    293.7   0.087458601   0.84567   0.57188   0.70511  -0.14643
  29   34288.6    291.6   0.013268210   0.12739   0.11952   0.16431   0.29344
  30   34517.6    289.7   0.040365983   0.38499   0.32354   0.46381   0.25533
  31   34632.8    288.7   0.051839205   0.49277  -0.26744  -0.63715  -0.12367
  32   35939.1    278.2   0.069132266   0.63327   0.38573   0.67555  -0.16767
  33   36241.0    275.9   0.081971611   0.74463   0.54946   0.54510  -0.38156
  34   36499.9    274.0   0.013122799   0.11836  -0.22615   0.21094  -0.15074
  35   36809.3    271.7   0.247283063   2.21163  -1.09833  -1.00051   0.06539
  36   37146.9    269.2   0.001430573   0.01268  -0.07212  -0.05062  -0.07010
  37   37391.3    267.4   0.018378153   0.16181  -0.30629  -0.20417  -0.16221
  38   37529.4    266.5   0.127497934   1.11843   0.76826  -0.00963   0.72671
  39   37653.2    265.6   0.043592198   0.38114   0.38541  -0.17245   0.45040
  40   37971.8    263.4   0.009463424   0.08205  -0.01565  -0.25723   0.12503
  41   38390.4    260.5   0.045844016   0.39313  -0.12145  -0.60997  -0.07947
  42   38668.6    258.6   0.012010690   0.10226  -0.17719  -0.05254  -0.26096
  43   38894.2    257.1   0.007429243   0.06288   0.24083   0.05926  -0.03708
  44   39080.7    255.9   0.046084536   0.38821   0.59004   0.18769  -0.06954
  45   39526.7    253.0   0.086581040   0.72112   0.44411   0.71489   0.11326
  46   39943.3    250.4   0.032570566   0.26845   0.42849  -0.28377   0.06573
  47   40100.5    249.4   0.045819901   0.37617   0.24563  -0.55636  -0.07934

FINAL SINGLE POINT ENERGY     -6907.973078819239

DIPOLE MOMENT
-------------
                                X             Y             Z
Electronic contribution:    236.35372       7.18542     -31.41065
Nuclear contribution   :   -241.40870      -7.16521      31.92957
                        -----------------------------------------
Total Dipole Moment    :     -5.05498       0.02021       0.51892
                        -----------------------------------------
Magnitude (a.u.)       :      5.08158
Magnitude (Debye)      :     12.91636

Rotational constants in cm-1:     0.002145     0.000168     0.000166
Rotational constants in MHz :    64.294887     5.025725     4.966456

                             ****ORCA TERMINATED NORMALLY****
TOTAL RUN TIME: 0 days 0 hours 7 minutes 39 seconds 147 msec
