                         Program Version 4.2.0 -  RELEASE  -
|  1> # ORCA input file
|  2> # SCF done       -196.633746136028          0.000975420408
|  3> ! CAM-B3LYP def2-SVP def2/J RIJCOSX Grid4 TightSCF
|  4> %maxcore 5000
|  5> %tddft
|  6>     Mode sTDDFT
|  7>     Ethresh 5.0
|  8>     maxcore 5000
|  9> end
| 10>
| 11> %pal
| 12>   nprocs 6
| 13>   end
| 14> * xyz 0 1
| 15>    C      -15.50119         5.86517        -2.04007
| 16>    C      -16.58061         5.20857        -1.50933
| 17>    C      -17.89982         5.33309        -1.99074
| 18>    N      -18.99044         5.39596        -2.34222
| 19>    C      -16.49760         4.33116        -0.40952
| 20>    N      -16.46297         3.60957         0.48229
| 21>    C      -15.53085         6.79233        -3.16936
| 22>    C      -14.22372         7.30854        -3.37334
| 23>    C      -13.92893         8.23816        -4.34169
| 24>    C      -14.96842         8.64966        -5.17929
| 25>    C      -16.25831         8.09020        -5.00887
| 26>    C      -16.56330         7.17967        -4.00197
| 27>    S      -17.36413         8.67831        -6.21073
| 28>    C      -16.09702         9.65689        -6.90748
| 29>    C      -14.90844         9.56087        -6.26652
| 30>   Br      -16.45357        10.65943        -8.44582
| 31>    C      -13.31321         6.67094        -2.42643
| 32>    O      -12.09365         6.82502        -2.35488
| 33>    C      -14.12717         5.77697        -1.59530
| 34>    C      -13.55473         5.00096        -0.61278
| 35>    N      -12.22665         5.05860        -0.45796
| 36>    C      -11.39565         4.38911         0.37086
| 37>    S      -11.92008         3.49247         1.75503
| 38>    C      -10.25748         3.15675         2.13213
| 39>    N       -9.99303         2.38211         3.27112
| 40>    O       -8.82898         2.15125         3.53660
| 41>    O      -10.95708         2.00148         3.90965
| 42>    C       -9.36299         3.69468         1.24607
| 43>    C       -9.99617         4.40449         0.20898
| 44>    C       -9.39157         5.03271        -0.92340
| 45>    C       -8.08543         5.28363        -1.16872
| 46>    C       -7.69920         5.96144        -2.35819
| 47>    S       -8.92613         6.54925        -3.43810
| 48>    C       -7.74267         7.28964        -4.46730
| 49>    C       -6.44255         7.07786        -3.96960
| 50>    C       -6.41689         6.32242        -2.77925
| 51>    C       -5.23373         5.91901        -2.01201
| 52>    C       -4.99092         4.66828        -1.64827
| 53>    O       -5.43371         7.57893        -4.71337
| 54>    C       -4.08979         7.41426        -4.32090
| 55>    C       -8.10621         8.02116        -5.60593
| 56>    C       -9.41041         8.12090        -6.02965
| 57>    C       -9.93858         8.88697        -7.06811
| 58>    C      -11.22253         8.68682        -7.62982
| 59>    C      -12.18315         7.69787        -7.36686
| 60>    C      -13.32310         7.65867        -8.12517
| 61>    C      -13.52810         8.57728        -9.17160
| 62>    C      -12.61747         9.56527        -9.44157
| 63>    C      -11.45547         9.65506        -8.65935
| 64>    C      -10.32654        10.50455        -8.76055
| 65>    C       -9.35659        10.04628        -7.75521
| 66>    C       -8.25767        10.72738        -7.40413
| 67>    C      -10.08824        11.56067        -9.62803
| 68>    C      -10.96475        12.36324       -10.34087
| 69>    C      -10.46072        13.06759       -11.53939
| 70>    O       -9.31614        13.08290       -11.94425
| 71>    C      -11.64082        13.72189       -12.14501
| 72>    C      -11.74651        14.40475       -13.32017
| 73>    C      -13.00922        14.91153       -13.70764
| 74>    C      -14.13947        14.68560       -12.87112
| 75>    C      -15.39677        15.17944       -13.26974
| 76>    C      -15.52526        15.87167       -14.44148
| 77>    C      -14.40691        16.09813       -15.26582
| 78>    C      -13.17399        15.62798       -14.90811
| 79>    F      -14.56084        16.78022       -16.41119
| 80>    F      -16.72366        16.34274       -14.81798
| 81>    C      -13.99536        13.97878       -11.65334
| 82>    C      -12.76014        13.51853       -11.29106
| 83>    C      -12.31475        12.77366       -10.11067
| 84>    C      -13.02553        12.72366        -8.92880
| 85>    C      -12.60284        12.11171        -7.74200
| 86>    N      -12.35665        11.63280        -6.72421
| 87>    C      -14.24425        13.40066        -8.72915
| 88>    N      -15.22112        13.95535        -8.48774
| 89>    H      -12.93239         8.63335        -4.45947
| 90>    H      -17.56564         6.79806        -3.90079
| 91>    H      -14.02278        10.10973        -6.53383
| 92>    H      -14.11857         4.33370         0.02601
| 93>    H      -11.78810         5.73658        -1.12048
| 94>    H       -8.30145         3.56141         1.34416
| 95>    H      -10.07832         5.34852        -1.69723
| 96>    H       -7.30697         5.01333        -0.47139
| 97>    H       -4.55748         6.70931        -1.71500
| 98>    H       -5.63517         3.85607        -1.94187
| 99>    H       -4.12592         4.41016        -1.06233
|100>    H       -3.84189         8.06271        -3.47639
|101>    H       -3.49865         7.71622        -5.18488
|102>    H       -3.86588         6.37507        -4.06997
|103>    H       -7.29448         8.47261        -6.15513
|104>    H      -10.12576         7.50089        -5.49922
|105>    H      -12.01849         6.96876        -6.58756
|106>    H      -14.07092         6.90143        -7.93966
|107>    H      -14.42122         8.49409        -9.77287
|108>    H      -12.77916        10.24559       -10.26302
|109>    H       -7.64255        10.44549        -6.56938
|110>    H       -7.95692        11.61219        -7.93969
|111>    H       -9.04580        11.77845        -9.84669
|112>    H      -10.88261        14.55654       -13.94918
|113>    H      -16.26278        15.01782       -12.64712
|114>    H      -12.32717        15.80908       -15.55142
|115>    H      -14.86997        13.81213       -11.04500
|116> *
|117>
|118>                          ****END OF INPUT****

CARTESIAN COORDINATES (ANGSTROEM)
---------------------------------
  C    -15.501190    5.865170   -2.040070
  C    -16.580610    5.208570   -1.509330
  C    -17.899820    5.333090   -1.990740
  N    -18.990440    5.395960   -2.342220
  C    -16.497600    4.331160   -0.409520
  N    -16.462970    3.609570    0.482290
  C    -15.530850    6.792330   -3.169360
  C    -14.223720    7.308540   -3.373340
  C    -13.928930    8.238160   -4.341690
  C    -14.968420    8.649660   -5.179290
  C    -16.258310    8.090200   -5.008870
  C    -16.563300    7.179670   -4.001970
  S    -17.364130    8.678310   -6.210730
  C    -16.097020    9.656890   -6.907480
  C    -14.908440    9.560870   -6.266520
  Br   -16.453570   10.659430   -8.445820
  C    -13.313210    6.670940   -2.426430
  O    -12.093650    6.825020   -2.354880
  C    -14.127170    5.776970   -1.595300
  C    -13.554730    5.000960   -0.612780
  N    -12.226650    5.058600   -0.457960
  C    -11.395650    4.389110    0.370860
  S    -11.920080    3.492470    1.755030
  C    -10.257480    3.156750    2.132130
  N     -9.993030    2.382110    3.271120
  O     -8.828980    2.151250    3.536600
  O    -10.957080    2.001480    3.909650
  C     -9.362990    3.694680    1.246070
  C     -9.996170    4.404490    0.208980
  C     -9.391570    5.032710   -0.923400
  C     -8.085430    5.283630   -1.168720
  C     -7.699200    5.961440   -2.358190
  S     -8.926130    6.549250   -3.438100
  C     -7.742670    7.289640   -4.467300
  C     -6.442550    7.077860   -3.969600
  C     -6.416890    6.322420   -2.779250
  C     -5.233730    5.919010   -2.012010
  C     -4.990920    4.668280   -1.648270
  O     -5.433710    7.578930   -4.713370
  C     -4.089790    7.414260   -4.320900
  C     -8.106210    8.021160   -5.605930
  C     -9.410410    8.120900   -6.029650
  C     -9.938580    8.886970   -7.068110
  C    -11.222530    8.686820   -7.629820
  C    -12.183150    7.697870   -7.366860
  C    -13.323100    7.658670   -8.125170
  C    -13.528100    8.577280   -9.171600
  C    -12.617470    9.565270   -9.441570
  C    -11.455470    9.655060   -8.659350
  C    -10.326540   10.504550   -8.760550
  C     -9.356590   10.046280   -7.755210
  C     -8.257670   10.727380   -7.404130
  C    -10.088240   11.560670   -9.628030
  C    -10.964750   12.363240  -10.340870
  C    -10.460720   13.067590  -11.539390
  O     -9.316140   13.082900  -11.944250
  C    -11.640820   13.721890  -12.145010
  C    -11.746510   14.404750  -13.320170
  C    -13.009220   14.911530  -13.707640
  C    -14.139470   14.685600  -12.871120
  C    -15.396770   15.179440  -13.269740
  C    -15.525260   15.871670  -14.441480
  C    -14.406910   16.098130  -15.265820
  C    -13.173990   15.627980  -14.908110
  F    -14.560840   16.780220  -16.411190
  F    -16.723660   16.342740  -14.817980
  C    -13.995360   13.978780  -11.653340
  C    -12.760140   13.518530  -11.291060
  C    -12.314750   12.773660  -10.110670
  C    -13.025530   12.723660   -8.928800
  C    -12.602840   12.111710   -7.742000
  N    -12.356650   11.632800   -6.724210
  C    -14.244250   13.400660   -8.729150
  N    -15.221120   13.955350   -8.487740
  H    -12.932390    8.633350   -4.459470
  H    -17.565640    6.798060   -3.900790
  H    -14.022780   10.109730   -6.533830
  H    -14.118570    4.333700    0.026010
  H    -11.788100    5.736580   -1.120480
  H     -8.301450    3.561410    1.344160
  H    -10.078320    5.348520   -1.697230
  H     -7.306970    5.013330   -0.471390
  H     -4.557480    6.709310   -1.715000
  H     -5.635170    3.856070   -1.941870
  H     -4.125920    4.410160   -1.062330
  H     -3.841890    8.062710   -3.476390
  H     -3.498650    7.716220   -5.184880
  H     -3.865880    6.375070   -4.069970
  H     -7.294480    8.472610   -6.155130
  H    -10.125760    7.500890   -5.499220
  H    -12.018490    6.968760   -6.587560
  H    -14.070920    6.901430   -7.939660
  H    -14.421220    8.494090   -9.772870
  H    -12.779160   10.245590  -10.263020
  H     -7.642550   10.445490   -6.569380
  H     -7.956920   11.612190   -7.939690
  H     -9.045800   11.778450   -9.846690
  H    -10.882610   14.556540  -13.949180
  H    -16.262780   15.017820  -12.647120
  H    -12.327170   15.809080  -15.551420
  H    -14.869970   13.812130  -11.045000

 Total Charge           Charge          ....    0
 Multiplicity           Mult            ....    1
 Number of Electrons    NEL             ....  552
 Basis Dimension        Dim             .... 1201

ORBITAL ENERGIES
----------------

  NO   OCC          E(Eh)            E(eV)
   0   2.0000    -482.880689    -13139.8516
   1   2.0000     -89.003414     -2421.9060
   2   2.0000     -88.975243     -2421.1394
   3   2.0000     -88.974674     -2421.1240
   4   2.0000     -62.557862     -1702.2860
   5   2.0000     -56.391844     -1534.5001
   6   2.0000     -56.389108     -1534.4256
   7   2.0000     -56.389042     -1534.4238
   8   2.0000     -24.786014      -674.4617
   9   2.0000     -24.785338      -674.4433
  10   2.0000     -19.282065      -524.6917
  11   2.0000     -19.249931      -523.8173
  12   2.0000     -19.249143      -523.7958
  13   2.0000     -19.244165      -523.6603
  14   2.0000     -19.192770      -522.2618
  15   2.0000     -14.661427      -398.9577
  16   2.0000     -14.502322      -394.6283
  17   2.0000     -14.425928      -392.5495
  18   2.0000     -14.420394      -392.3989
  19   2.0000     -14.400774      -391.8650
  20   2.0000     -14.393662      -391.6715
  21   2.0000     -10.388997      -282.6990
  22   2.0000     -10.386005      -282.6176
  23   2.0000     -10.379980      -282.4536
  24   2.0000     -10.372951      -282.2623
  25   2.0000     -10.367360      -282.1102
  26   2.0000     -10.366999      -282.1004
  27   2.0000     -10.360258      -281.9170
  28   2.0000     -10.353754      -281.7400
  29   2.0000     -10.353264      -281.7266
  30   2.0000     -10.349143      -281.6145
  31   2.0000     -10.348953      -281.6093
  32   2.0000     -10.344075      -281.4766
  33   2.0000     -10.338188      -281.3164
  34   2.0000     -10.328299      -281.0473
  35   2.0000     -10.328281      -281.0468
  36   2.0000     -10.325718      -280.9771
  37   2.0000     -10.323222      -280.9092
  38   2.0000     -10.320459      -280.8340
  39   2.0000     -10.320134      -280.8251
  40   2.0000     -10.318222      -280.7731
  41   2.0000     -10.317178      -280.7447
  42   2.0000     -10.316912      -280.7375
  43   2.0000     -10.315369      -280.6954
  44   2.0000     -10.315213      -280.6912
  45   2.0000     -10.313562      -280.6463
  46   2.0000     -10.313532      -280.6455
  47   2.0000     -10.311407      -280.5876
  48   2.0000     -10.310471      -280.5622
  49   2.0000     -10.309559      -280.5374
  50   2.0000     -10.308921      -280.5200
  51   2.0000     -10.308094      -280.4975
  52   2.0000     -10.307898      -280.4922
  53   2.0000     -10.307532      -280.4822
  54   2.0000     -10.306930      -280.4658
  55   2.0000     -10.302718      -280.3512
  56   2.0000     -10.301155      -280.3087
  57   2.0000     -10.299376      -280.2603
  58   2.0000     -10.297313      -280.2041
  59   2.0000     -10.295983      -280.1679
  60   2.0000     -10.294968      -280.1403
  61   2.0000     -10.294625      -280.1310
  62   2.0000     -10.294587      -280.1299
  63   2.0000     -10.294232      -280.1203
  64   2.0000     -10.291734      -280.0523
  65   2.0000     -10.291595      -280.0485
  66   2.0000     -10.289486      -279.9912
  67   2.0000     -10.288337      -279.9599
  68   2.0000     -10.287775      -279.9446
  69   2.0000     -10.287108      -279.9264
  70   2.0000     -10.286799      -279.9180
  71   2.0000     -10.285687      -279.8878
  72   2.0000     -10.285064      -279.8708
  73   2.0000     -10.284657      -279.8598
  74   2.0000     -10.280759      -279.7537
  75   2.0000     -10.277697      -279.6703
  76   2.0000     -10.275438      -279.6089
  77   2.0000     -10.269080      -279.4359
  78   2.0000      -8.787180      -239.1113
  79   2.0000      -8.098670      -220.3760
  80   2.0000      -8.070685      -219.6145
  81   2.0000      -8.070663      -219.6139
  82   2.0000      -6.623483      -180.2341
  83   2.0000      -6.608980      -179.8395
  84   2.0000      -6.608631      -179.8300
  85   2.0000      -6.068261      -165.1258
  86   2.0000      -6.063899      -165.0071
  87   2.0000      -6.060223      -164.9071
  88   2.0000      -6.040342      -164.3661
  89   2.0000      -6.039917      -164.3545
  90   2.0000      -6.036078      -164.2500
  91   2.0000      -6.036052      -164.2493
  92   2.0000      -6.032464      -164.1517
  93   2.0000      -6.031947      -164.1376
  94   2.0000      -2.739363       -74.5419
  95   2.0000      -2.735310       -74.4316
  96   2.0000      -2.735097       -74.4258
  97   2.0000      -2.723546       -74.1115
  98   2.0000      -2.723529       -74.1110
  99   2.0000      -1.331493       -36.2318
 100   2.0000      -1.307902       -35.5898
 101   2.0000      -1.293155       -35.1885
 102   2.0000      -1.185348       -32.2550
 103   2.0000      -1.160095       -31.5678
 104   2.0000      -1.150757       -31.3137
 105   2.0000      -1.112511       -30.2730
 106   2.0000      -1.107011       -30.1233
 107   2.0000      -1.029983       -28.0273
 108   2.0000      -1.022820       -27.8323
 109   2.0000      -1.017420       -27.6854
 110   2.0000      -1.013803       -27.5870
 111   2.0000      -1.005715       -27.3669
 112   2.0000      -1.002178       -27.2707
 113   2.0000      -0.997525       -27.1440
 114   2.0000      -0.995950       -27.1012
 115   2.0000      -0.988717       -26.9044
 116   2.0000      -0.976786       -26.5797
 117   2.0000      -0.963537       -26.2192
 118   2.0000      -0.947960       -25.7953
 119   2.0000      -0.945202       -25.7203
 120   2.0000      -0.938117       -25.5275
 121   2.0000      -0.929114       -25.2825
 122   2.0000      -0.916543       -24.9404
 123   2.0000      -0.914630       -24.8884
 124   2.0000      -0.911061       -24.7912
 125   2.0000      -0.901765       -24.5383
 126   2.0000      -0.891501       -24.2590
 127   2.0000      -0.888870       -24.1874
 128   2.0000      -0.884348       -24.0643
 129   2.0000      -0.881165       -23.9777
 130   2.0000      -0.875113       -23.8130
 131   2.0000      -0.868729       -23.6393
 132   2.0000      -0.861227       -23.4352
 133   2.0000      -0.858588       -23.3634
 134   2.0000      -0.854597       -23.2548
 135   2.0000      -0.846439       -23.0328
 136   2.0000      -0.831429       -22.6243
 137   2.0000      -0.829951       -22.5841
 138   2.0000      -0.824893       -22.4465
 139   2.0000      -0.807410       -21.9708
 140   2.0000      -0.805945       -21.9309
 141   2.0000      -0.792963       -21.5776
 142   2.0000      -0.782359       -21.2891
 143   2.0000      -0.769628       -20.9426
 144   2.0000      -0.767021       -20.8717
 145   2.0000      -0.755900       -20.5691
 146   2.0000      -0.748774       -20.3752
 147   2.0000      -0.745510       -20.2864
 148   2.0000      -0.734143       -19.9771
 149   2.0000      -0.724947       -19.7268
 150   2.0000      -0.714467       -19.4416
 151   2.0000      -0.710721       -19.3397
 152   2.0000      -0.701947       -19.1009
 153   2.0000      -0.697776       -18.9874
 154   2.0000      -0.695437       -18.9238
 155   2.0000      -0.691150       -18.8071
 156   2.0000      -0.679962       -18.5027
 157   2.0000      -0.676571       -18.4104
 158   2.0000      -0.674024       -18.3411
 159   2.0000      -0.666196       -18.1281
 160   2.0000      -0.663483       -18.0543
 161   2.0000      -0.659904       -17.9569
 162   2.0000      -0.656506       -17.8644
 163   2.0000      -0.649582       -17.6760
 164   2.0000      -0.643220       -17.5029
 165   2.0000      -0.642857       -17.4930
 166   2.0000      -0.640428       -17.4269
 167   2.0000      -0.638988       -17.3877
 168   2.0000      -0.630685       -17.1618
 169   2.0000      -0.627471       -17.0744
 170   2.0000      -0.625353       -17.0167
 171   2.0000      -0.624299       -16.9880
 172   2.0000      -0.615625       -16.7520
 173   2.0000      -0.612419       -16.6648
 174   2.0000      -0.599994       -16.3267
 175   2.0000      -0.597888       -16.2694
 176   2.0000      -0.596758       -16.2386
 177   2.0000      -0.592739       -16.1293
 178   2.0000      -0.586439       -15.9578
 179   2.0000      -0.585621       -15.9356
 180   2.0000      -0.581862       -15.8333
 181   2.0000      -0.579008       -15.7556
 182   2.0000      -0.572786       -15.5863
 183   2.0000      -0.572061       -15.5666
 184   2.0000      -0.569031       -15.4841
 185   2.0000      -0.566844       -15.4246
 186   2.0000      -0.565628       -15.3915
 187   2.0000      -0.564601       -15.3636
 188   2.0000      -0.557279       -15.1643
 189   2.0000      -0.554704       -15.0943
 190   2.0000      -0.550556       -14.9814
 191   2.0000      -0.549654       -14.9569
 192   2.0000      -0.546271       -14.8648
 193   2.0000      -0.545240       -14.8367
 194   2.0000      -0.541236       -14.7278
 195   2.0000      -0.540174       -14.6989
 196   2.0000      -0.536642       -14.6028
 197   2.0000      -0.534846       -14.5539
 198   2.0000      -0.532318       -14.4851
 199   2.0000      -0.529928       -14.4201
 200   2.0000      -0.525247       -14.2927
 201   2.0000      -0.521524       -14.1914
 202   2.0000      -0.519867       -14.1463
 203   2.0000      -0.515109       -14.0168
 204   2.0000      -0.514521       -14.0008
 205   2.0000      -0.513133       -13.9631
 206   2.0000      -0.511947       -13.9308
 207   2.0000      -0.510397       -13.8886
 208   2.0000      -0.508837       -13.8462
 209   2.0000      -0.507077       -13.7983
 210   2.0000      -0.506160       -13.7733
 211   2.0000      -0.503693       -13.7062
 212   2.0000      -0.502488       -13.6734
 213   2.0000      -0.497622       -13.5410
 214   2.0000      -0.495768       -13.4905
 215   2.0000      -0.494992       -13.4694
 216   2.0000      -0.484816       -13.1925
 217   2.0000      -0.483042       -13.1443
 218   2.0000      -0.481345       -13.0981
 219   2.0000      -0.479864       -13.0578
 220   2.0000      -0.478742       -13.0272
 221   2.0000      -0.468922       -12.7600
 222   2.0000      -0.467618       -12.7245
 223   2.0000      -0.465323       -12.6621
 224   2.0000      -0.464155       -12.6303
 225   2.0000      -0.460545       -12.5321
 226   2.0000      -0.457910       -12.4604
 227   2.0000      -0.457267       -12.4429
 228   2.0000      -0.455137       -12.3849
 229   2.0000      -0.452381       -12.3099
 230   2.0000      -0.451247       -12.2791
 231   2.0000      -0.450316       -12.2537
 232   2.0000      -0.448151       -12.1948
 233   2.0000      -0.445382       -12.1195
 234   2.0000      -0.442615       -12.0442
 235   2.0000      -0.439270       -11.9531
 236   2.0000      -0.436312       -11.8727
 237   2.0000      -0.435179       -11.8418
 238   2.0000      -0.434256       -11.8167
 239   2.0000      -0.433826       -11.8050
 240   2.0000      -0.432586       -11.7713
 241   2.0000      -0.427726       -11.6390
 242   2.0000      -0.424388       -11.5482
 243   2.0000      -0.423124       -11.5138
 244   2.0000      -0.419027       -11.4023
 245   2.0000      -0.417665       -11.3652
 246   2.0000      -0.417135       -11.3508
 247   2.0000      -0.414466       -11.2782
 248   2.0000      -0.411252       -11.1907
 249   2.0000      -0.408345       -11.1116
 250   2.0000      -0.402424       -10.9505
 251   2.0000      -0.396745       -10.7960
 252   2.0000      -0.394510       -10.7352
 253   2.0000      -0.388987       -10.5849
 254   2.0000      -0.388550       -10.5730
 255   2.0000      -0.384784       -10.4705
 256   2.0000      -0.378528       -10.3003
 257   2.0000      -0.378159       -10.2902
 258   2.0000      -0.375315       -10.2128
 259   2.0000      -0.369880       -10.0649
 260   2.0000      -0.367341        -9.9958
 261   2.0000      -0.365141        -9.9360
 262   2.0000      -0.360292        -9.8040
 263   2.0000      -0.351719        -9.5708
 264   2.0000      -0.337540        -9.1849
 265   2.0000      -0.334307        -9.0970
 266   2.0000      -0.325349        -8.8532
 267   2.0000      -0.319588        -8.6964
 268   2.0000      -0.318376        -8.6635
 269   2.0000      -0.314412        -8.5556
 270   2.0000      -0.301287        -8.1984
 271   2.0000      -0.299619        -8.1531
 272   2.0000      -0.293623        -7.9899
 273   2.0000      -0.285791        -7.7768
 274   2.0000      -0.273720        -7.4483
 275   2.0000      -0.228636        -6.2215
 276   0.0000      -0.119994        -3.2652
 277   0.0000      -0.095572        -2.6007
 278   0.0000      -0.077435        -2.1071
 279   0.0000      -0.061961        -1.6860
 280   0.0000      -0.058762        -1.5990

MULLIKEN ATOMIC CHARGES
-----------------------
   0 C :    0.320781
   1 C :   -0.338713
   2 C :   -0.185649
   3 N :    0.156438
   4 C :   -0.197589
   5 N :    0.145228
   6 C :    0.013301
   7 C :    0.001828
   8 C :   -0.069445
   9 C :    0.092853
  10 C :   -0.091878
  11 C :   -0.024330
  12 S :    0.183705
  13 C :   -0.142650
  14 C :    0.107061
  15 Br:    0.043114
  16 C :    0.166517
  17 O :   -0.233528
  18 C :   -0.134838
  19 C :    0.044584
  20 N :   -0.022842
  21 C :   -0.105658
  22 S :    0.202616
  23 C :   -0.008232
  24 N :    0.274606
  25 O :   -0.244914
  26 O :   -0.253970
  27 C :    0.010338
  28 C :    0.134903
  29 C :   -0.054602
  30 C :    0.017268
  31 C :   -0.087063
  32 S :    0.104054
  33 C :   -0.136677
  34 C :    0.221368
  35 C :    0.011709
  36 C :   -0.073806
  37 C :   -0.014428
  38 O :   -0.302970
  39 C :    0.172538
  40 C :    0.039668
  41 C :   -0.093378
  42 C :    0.160361
  43 C :    0.048487
  44 C :   -0.044459
  45 C :    0.050484
  46 C :    0.032395
  47 C :   -0.014857
  48 C :    0.028512
  49 C :    0.105577
  50 C :    0.011817
  51 C :   -0.013484
  52 C :   -0.056963
  53 C :   -0.164239
  54 C :    0.127246
  55 O :   -0.166438
  56 C :    0.034053
  57 C :   -0.099502
  58 C :    0.115086
  59 C :    0.111928
  60 C :   -0.111610
  61 C :    0.237537
  62 C :    0.235996
  63 C :   -0.108411
  64 F :   -0.177375
  65 F :   -0.177133
  66 C :   -0.090398
  67 C :    0.027835
  68 C :    0.283790
  69 C :   -0.385974
  70 C :   -0.115315
  71 N :    0.090795
  72 C :   -0.210102
  73 N :    0.143171
  74 H :   -0.002600
  75 H :   -0.005178
  76 H :   -0.029179
  77 H :    0.041351
  78 H :    0.189200
  79 H :    0.013515
  80 H :    0.010145
  81 H :   -0.001358
  82 H :    0.021282
  83 H :    0.037417
  84 H :    0.035582
  85 H :    0.031350
  86 H :    0.044301
  87 H :    0.047623
  88 H :    0.009258
  89 H :    0.002693
  90 H :   -0.023084
  91 H :   -0.009878
  92 H :   -0.001389
  93 H :   -0.013211
  94 H :    0.029255
  95 H :    0.042361
  96 H :    0.010220
  97 H :   -0.016869
  98 H :    0.000526
  99 H :   -0.005496
 100 H :   -0.013965
Sum of atomic charges:   -0.0000000

LOEWDIN ATOMIC CHARGES
----------------------
   0 C :    0.078860
   1 C :   -0.146169
   2 C :   -0.020432
   3 N :   -0.049153
   4 C :   -0.019284
   5 N :   -0.054273
   6 C :   -0.021840
   7 C :   -0.058038
   8 C :    0.030037
   9 C :   -0.030509
  10 C :   -0.143648
  11 C :   -0.006793
  12 S :    0.430793
  13 C :   -0.274255
  14 C :   -0.054690
  15 Br:    0.163456
  16 C :    0.100662
  17 O :   -0.177917
  18 C :   -0.141195
  19 C :    0.113685
  20 N :    0.073282
  21 C :   -0.109587
  22 S :    0.479730
  23 C :   -0.199017
  24 N :    0.272817
  25 O :   -0.211566
  26 O :   -0.219989
  27 C :    0.004390
  28 C :   -0.089820
  29 C :   -0.021222
  30 C :   -0.037156
  31 C :   -0.128163
  32 S :    0.464725
  33 C :   -0.209086
  34 C :    0.051673
  35 C :   -0.095997
  36 C :   -0.025942
  37 C :   -0.031572
  38 O :   -0.088357
  39 C :    0.082829
  40 C :    0.016717
  41 C :   -0.051882
  42 C :    0.050505
  43 C :   -0.028919
  44 C :   -0.002682
  45 C :   -0.025958
  46 C :    0.015213
  47 C :   -0.022564
  48 C :    0.028691
  49 C :   -0.065554
  50 C :   -0.004800
  51 C :    0.054069
  52 C :    0.050870
  53 C :   -0.131764
  54 C :    0.076183
  55 O :   -0.167079
  56 C :   -0.049283
  57 C :    0.021047
  58 C :   -0.012319
  59 C :   -0.008429
  60 C :   -0.033142
  61 C :    0.062557
  62 C :    0.062147
  63 C :   -0.035319
  64 F :   -0.055250
  65 F :   -0.054573
  66 C :    0.005192
  67 C :   -0.017427
  68 C :    0.059555
  69 C :   -0.176193
  70 C :    0.005012
  71 N :   -0.093912
  72 C :   -0.027733
  73 N :   -0.081996
  74 H :    0.044142
  75 H :    0.041858
  76 H :    0.038425
  77 H :    0.039064
  78 H :    0.077492
  79 H :    0.046714
  80 H :    0.017580
  81 H :    0.034796
  82 H :    0.031890
  83 H :    0.027900
  84 H :    0.029970
  85 H :    0.018567
  86 H :    0.033036
  87 H :    0.024424
  88 H :    0.037904
  89 H :    0.023709
  90 H :    0.028367
  91 H :    0.030773
  92 H :    0.031449
  93 H :    0.034186
  94 H :    0.029762
  95 H :    0.036726
  96 H :    0.038028
  97 H :    0.037386
  98 H :    0.044913
  99 H :    0.042653
 100 H :    0.036038

  Mayer bond orders larger than 0.100000
B(  0-C ,  1-C ) :   1.6358 B(  0-C ,  6-C ) :   1.0095 B(  0-C , 18-C ) :   1.0843
B(  1-C ,  2-C ) :   1.1417 B(  1-C ,  4-C ) :   1.1469 B(  2-C ,  3-N ) :   2.9733
B(  4-C ,  5-N ) :   2.9591 B(  6-C ,  7-C ) :   1.2663 B(  6-C , 11-C ) :   1.4177
B(  7-C ,  8-C ) :   1.3944 B(  7-C , 16-C ) :   1.0029 B(  8-C ,  9-C ) :   1.2545
B(  8-C , 74-H ) :   1.0214 B(  9-C , 10-C ) :   1.2944 B(  9-C , 14-C ) :   1.1838
B( 10-C , 11-C ) :   1.3179 B( 10-C , 12-S ) :   1.0935 B( 11-C , 75-H ) :   0.9827
B( 12-S , 13-C ) :   1.0743 B( 13-C , 14-C ) :   1.5991 B( 13-C , 15-Br) :   1.0376
B( 14-C , 76-H ) :   0.9781 B( 16-C , 17-O ) :   1.9692 B( 16-C , 18-C ) :   1.0088
B( 17-O , 78-H ) :   0.1748 B( 18-C , 19-C ) :   1.4650 B( 19-C , 20-N ) :   1.3255
B( 19-C , 77-H ) :   0.9369 B( 20-N , 21-C ) :   1.2012 B( 20-N , 78-H ) :   0.8016
B( 21-C , 22-S ) :   1.1404 B( 21-C , 28-C ) :   1.3523 B( 22-S , 23-C ) :   1.0855
B( 23-C , 24-N ) :   0.9613 B( 23-C , 27-C ) :   1.5035 B( 24-N , 25-O ) :   1.5387
B( 24-N , 26-O ) :   1.5175 B( 25-O , 26-O ) :   0.2634 B( 27-C , 28-C ) :   1.2216
B( 27-C , 79-H ) :   1.0026 B( 28-C , 29-C ) :   1.0951 B( 29-C , 30-C ) :   1.6708
B( 29-C , 80-H ) :   0.9480 B( 30-C , 31-C ) :   1.1724 B( 30-C , 81-H ) :   0.9723
B( 31-C , 32-S ) :   1.1389 B( 31-C , 35-C ) :   1.4333 B( 32-S , 33-C ) :   1.0789
B( 33-C , 34-C ) :   1.3605 B( 33-C , 40-C ) :   1.2638 B( 34-C , 35-C ) :   1.2399
B( 34-C , 38-O ) :   1.2189 B( 35-C , 36-C ) :   1.0015 B( 36-C , 37-C ) :   1.9752
B( 36-C , 82-H ) :   0.9507 B( 37-C , 83-H ) :   0.9649 B( 37-C , 84-H ) :   0.9530
B( 38-O , 39-C ) :   0.9337 B( 39-C , 85-H ) :   0.9745 B( 39-C , 86-H ) :   0.9753
B( 39-C , 87-H ) :   0.9615 B( 40-C , 41-C ) :   1.4515 B( 40-C , 88-H ) :   0.9753
B( 41-C , 42-C ) :   1.2831 B( 41-C , 89-H ) :   0.9522 B( 42-C , 43-C ) :   1.2639
B( 42-C , 50-C ) :   1.0191 B( 43-C , 44-C ) :   1.2190 B( 43-C , 48-C ) :   1.2056
B( 44-C , 45-C ) :   1.5171 B( 44-C , 90-H ) :   0.9903 B( 45-C , 46-C ) :   1.2248
B( 45-C , 91-H ) :   0.9822 B( 46-C , 47-C ) :   1.4947 B( 46-C , 92-H ) :   0.9860
B( 47-C , 48-C ) :   1.2409 B( 47-C , 93-H ) :   0.9968 B( 48-C , 49-C ) :   1.2226
B( 49-C , 50-C ) :   1.0249 B( 49-C , 52-C ) :   1.3288 B( 50-C , 51-C ) :   1.8742
B( 51-C , 94-H ) :   0.9383 B( 51-C , 95-H ) :   0.9266 B( 52-C , 53-C ) :   1.3982
B( 52-C , 96-H ) :   0.9361 B( 53-C , 54-C ) :   0.9788 B( 53-C , 68-C ) :   1.1655
B( 54-C , 55-O ) :   2.2383 B( 54-C , 56-C ) :   0.9083 B( 56-C , 57-C ) :   1.4851
B( 56-C , 67-C ) :   1.2237 B( 57-C , 58-C ) :   1.1742 B( 57-C , 97-H ) :   1.0168
B( 58-C , 59-C ) :   1.2668 B( 58-C , 63-C ) :   1.1988 B( 59-C , 60-C ) :   1.1932
B( 59-C , 66-C ) :   1.2037 B( 60-C , 61-C ) :   1.4352 B( 60-C , 63-C ) :   0.1097
B( 60-C , 98-H ) :   1.0068 B( 61-C , 62-C ) :   1.2020 B( 61-C , 65-F ) :   1.1282
B( 62-C , 63-C ) :   1.4359 B( 62-C , 64-F ) :   1.1279 B( 63-C , 99-H ) :   1.0065
B( 66-C , 67-C ) :   1.4725 B( 66-C ,100-H ) :   0.9933 B( 67-C , 68-C ) :   0.9666
B( 68-C , 69-C ) :   1.5359 B( 69-C , 70-C ) :   1.2003 B( 69-C , 72-C ) :   1.1600
B( 70-C , 71-N ) :   2.8400 B( 72-C , 73-N ) :   2.9619

-----------------------------------------------------------------------------
         ABSORPTION SPECTRUM VIA TRANSITION ELECTRIC DIPOLE MOMENTS
-----------------------------------------------------------------------------
State   Energy  Wavelength   fosc         T2         TX        TY        TZ
        (cm-1)    (nm)                  (au**2)     (au)      (au)      (au)
-----------------------------------------------------------------------------
   0    7669.8   1303.8   0.394908092  16.95072   1.20657  -2.65943   2.90213
   1   16785.3    595.8   0.084036558   1.64822   1.25429  -0.03469  -0.27160
   2   17918.7    558.1   0.154446216   2.83757   0.11441   0.79943  -1.47831
   3   19484.4    513.2   0.152270758   2.57279   0.89105  -1.30788   0.26126
   4   19609.5    510.0   0.157259323   2.64013   0.99834  -1.18894   0.47946
   5   22038.2    453.8   0.027357022   0.40867   0.31646   0.47994  -0.27960
   6   22412.8    446.2   0.184089400   2.70401  -0.21367  -0.50260   1.55105
   7   23341.3    428.4   0.043742518   0.61696   0.76862  -0.03298   0.15839
   8   23627.7    423.2   1.087491721  15.15237  -2.69142   1.49867  -2.37962
   9   24386.9    410.1   0.057379790   0.77460   0.36176  -0.49401   0.63220
  10   24957.7    400.7   0.115538018   1.52404  -1.05148  -0.61719   0.19367
  11   25761.1    388.2   0.043144031   0.55136   0.41923  -0.43352   0.43320
  12   25909.0    386.0   0.031495662   0.40020  -0.12174   0.34794  -0.51412
  13   26911.6    371.6   0.004073327   0.04983  -0.08070   0.20806  -0.00530
  14   27171.3    368.0   0.006712132   0.08133  -0.05382   0.09966   0.26172
  15   27421.8    364.7   0.125834793   1.51071  -0.76336  -0.66938   0.69276
  16   27822.9    359.4   0.245099937   2.90012  -0.05287   1.13025  -1.27274
  17   27979.0    357.4   0.480307419   5.65148  -0.58559   1.27677  -1.91792
  18   28819.6    347.0   0.009798655   0.11193   0.32253  -0.03757   0.08059
  19   29398.1    340.2   0.111309232   1.24649   0.70476   0.67036  -0.54811
  20   29682.8    336.9   0.292431449   3.24335  -0.04885  -1.06953   1.44813
  21   30256.2    330.5   0.029283868   0.31863  -0.15875   0.08259   0.53536
  22   31194.7    320.6   0.194512795   2.05278   1.32059  -0.04895   0.55356
  23   31477.9    317.7   0.121111255   1.26665   0.03097  -0.75186   0.83689
  24   31715.4    315.3   0.270282057   2.80558  -0.43986   0.83081  -1.38631
  25   31906.6    313.4   0.027959739   0.28849   0.34973   0.20011  -0.35515
  26   32291.6    309.7   0.316798243   3.22975  -0.66650  -0.89341   1.40974
  27   32446.0    308.2   0.019141989   0.19422  -0.07436  -0.19356  -0.38888
  28   32984.6    303.2   0.422581869   4.21769   0.53830   1.18144  -1.59127
  29   33149.3    301.7   0.113714731   1.12932  -0.84110  -0.64456   0.08007
  30   33484.5    298.6   0.022303271   0.21928  -0.17076   0.34153  -0.27107
  31   33734.1    296.4   0.077150194   0.75291   0.69525  -0.33384   0.39761
  32   33925.2    294.8   0.028116510   0.27284  -0.26210   0.04790  -0.44928
  33   34324.0    291.3   0.003653127   0.03504  -0.14566   0.01994  -0.11586
  34   34534.1    289.6   0.139014164   1.32521   1.06159   0.44066  -0.06371
  35   34741.6    287.8   0.131406006   1.24521  -1.02631  -0.33311   0.28448
  36   35374.7    282.7   0.036247465   0.33733  -0.29298   0.23493  -0.44306
  37   35476.6    281.9   0.024476907   0.22714   0.09451  -0.19498   0.42449
  38   35803.2    279.3   0.022404740   0.20601   0.08800   0.30041  -0.32867
  39   36190.3    276.3   0.060700903   0.55218   0.68044  -0.15959   0.25240
  40   36219.4    276.1   0.017186497   0.15621   0.16982  -0.16184   0.31809
  41   36296.1    275.5   0.030412102   0.27584   0.11199   0.21913  -0.46399
  42   36503.3    273.9   0.048481690   0.43724   0.59440   0.22655  -0.18056
  43   36617.4    273.1   0.049117750   0.44160  -0.44680  -0.07070  -0.48679
  44   36924.4    270.8   0.107126840   0.95512  -0.12463   0.35647  -0.90140
  45   37143.6    269.2   0.293599242   2.60224  -0.37923  -0.47932   1.49288
  46   37261.0    268.4   0.038210245   0.33760  -0.47582  -0.06331   0.32740
  47   37387.0    267.5   0.067947773   0.59832  -0.72122  -0.11529   0.25468
  48   37835.0    264.3   0.106597670   0.92753   0.91270  -0.02814   0.30615
  49   38043.3    262.9   0.043791955   0.37896  -0.56069  -0.20518   0.14998
  50   38404.9    260.4   0.024620451   0.21105   0.42052   0.16904  -0.07509
  51   38464.3    260.0   0.046740534   0.40005  -0.57231  -0.14525   0.22674
  52   38597.3    259.1   0.053003768   0.45209  -0.47683  -0.27723   0.38454
  53   38956.0    256.7   0.004407961   0.03725  -0.03900   0.17962  -0.05888
  54   39056.2    256.0   0.019286210   0.16257   0.31981   0.23535   0.07001
  55   39152.3    255.4   0.006519782   0.05482  -0.02971  -0.23182   0.01411
  56   39360.6    254.1   0.052054627   0.43538   0.63028   0.06181   0.18524
  57   39537.7    252.9   0.007749544   0.06453   0.19353  -0.08122   0.14310
  58   39695.2    251.9   0.000264113   0.00219   0.03645  -0.01087   0.02727
  59   39771.4    251.4   0.052235255   0.43238  -0.59586   0.14630  -0.23649
  60   39911.6    250.6   0.032758763   0.27021   0.07203  -0.43653   0.27288
  61   40281.4    248.3   0.007505883   0.06134  -0.13803  -0.04285   0.20113

FINAL SINGLE POINT ENERGY     -6856.702035399507

DIPOLE MOMENT
-------------
                                X             Y             Z
Electronic contribution:    -98.57330      39.40271     -42.76780
Nuclear contribution   :    103.42136     -40.95140      42.61240
                        -----------------------------------------
Total Dipole Moment    :      4.84806      -1.54869      -0.15540
                        -----------------------------------------
Magnitude (a.u.)       :      5.09179
Magnitude (Debye)      :     12.94229

Rotational constants in cm-1:     0.001371     0.000375     0.000300
Rotational constants in MHz :    41.101753    11.228814     8.997988

                             ****ORCA TERMINATED NORMALLY****
TOTAL RUN TIME: 0 days 0 hours 13 minutes 20 seconds 180 msec
