                         Program Version 4.2.0 -  RELEASE  -
|  1> # ORCA input file
|  2> # SCF done       -199.372317745840          0.000429247693
|  3> ! CAM-B3LYP def2-SVP def2/J RIJCOSX Grid4 TightSCF
|  4> %maxcore 5000
|  5> %tddft
|  6>     Mode sTDDFT
|  7>     Ethresh 5.0
|  8>     maxcore 5000
|  9> end
| 10>
| 11> %pal
| 12>   nprocs 6
| 13>   end
| 14> * xyz 0 1
| 15>    C       -2.50204         1.05626         0.24449
| 16>    C       -2.49424         0.20804         1.32042
| 17>    C       -1.33601        -0.40854         1.83701
| 18>    N       -0.42673        -0.93580         2.29772
| 19>    C       -3.64917        -0.16185         2.04006
| 20>    N       -4.56656        -0.48934         2.64705
| 21>    C       -1.33793         1.45510        -0.54187
| 22>    C       -1.75953         2.31423        -1.59074
| 23>    C       -0.88327         2.85775        -2.49936
| 24>    C        0.47301         2.54253        -2.36765
| 25>    C        0.88429         1.68531        -1.31871
| 26>    C       -0.00206         1.13358        -0.40077
| 27>    S        2.60127         1.43048        -1.33694
| 28>    C        2.74457         2.46509        -2.73300
| 29>    C        1.56645         2.97543        -3.16568
| 30>   Br        4.43286         2.77396        -3.48793
| 31>    C       -3.21237         2.49430        -1.50027
| 32>    O       -3.93420         3.16234        -2.23467
| 33>    C       -3.65033         1.71406        -0.33800
| 34>    C       -4.96222         1.69821         0.06244
| 35>    N       -5.88586         2.38539        -0.62212
| 36>    C       -7.20435         2.48971        -0.32287
| 37>    S       -7.87181         1.72931         1.08701
| 38>    C       -9.42595         2.37319         0.66815
| 39>    N      -10.50306         2.07264         1.52088
| 40>    O      -11.59324         2.51986         1.23036
| 41>    O      -10.24997         1.38092         2.48931
| 42>    C       -9.42744         3.11903        -0.47586
| 43>    C       -8.15066         3.20270        -1.07418
| 44>    C       -7.84815         3.89929        -2.29090
| 45>    C       -8.75073         4.60637        -3.00611
| 46>    C       -8.45544         5.26630        -4.22786
| 47>    O       -7.21675         5.23120        -4.79343
| 48>    C       -9.28619         6.00104        -5.05101
| 49>    C      -10.65602         6.50552        -5.20547
| 50>    O      -11.62480         6.38640        -4.50321
| 51>    N      -10.61037         7.19973        -6.41144
| 52>    C       -9.37367         7.19974        -7.05327
| 53>    O       -9.13938         7.74004        -8.10517
| 54>    C       -8.51679         6.41946        -6.15976
| 55>    C       -7.23250         5.92287        -5.96845
| 56>    C       -6.06500         6.02220        -6.75133
| 57>    C       -6.06362         6.66626        -7.95828
| 58>    C       -4.94590         6.79125        -8.78999
| 59>    C       -4.98893         7.40166       -10.02426
| 60>    C       -3.91440         7.57054       -10.93128
| 61>    C       -4.26036         8.19269       -12.09277
| 62>    C       -5.62823         8.54412       -12.16151
| 63>    S       -6.45895         8.07304       -10.70216
| 64>    C       -6.29019         9.16022       -13.21220
| 65>    C       -5.75387         9.57054       -14.45213
| 66>    C       -6.67495        10.12749       -15.28912
| 67>    C       -7.98210        10.18327       -14.75190
| 68>    S       -7.99887         9.51719       -13.13693
| 69>    C       -9.10211        10.69229       -15.37930
| 70>    C      -10.37067        10.69385       -14.80624
| 71>    C      -11.54041        11.20001       -15.32657
| 72>    C      -11.81070        12.06203       -16.44555
| 73>    C      -10.97469        13.01143       -16.98620
| 74>    C      -11.32879        13.84735       -18.06319
| 75>    N      -11.55300        14.53998       -18.95154
| 76>    C       -9.70855        13.34862       -16.46886
| 77>    N       -8.68997        13.70042       -16.07114
| 78>    C      -13.22739        11.91091       -16.77950
| 79>    C      -13.85287        11.14450       -15.76452
| 80>    C      -12.83362        10.72370       -14.78057
| 81>    O      -13.00439        10.08616       -13.76474
| 82>    C      -15.19552        10.85853       -15.77618
| 83>    C      -15.95618        11.34004       -16.84770
| 84>    C      -15.31983        12.09089       -17.86343
| 85>    C      -13.96187        12.38958       -17.84625
| 86>    S      -16.44167        12.57335       -19.09953
| 87>    C      -17.73381        11.77364       -18.24408
| 88>    C      -17.34720        11.17497       -17.09298
| 89>   Br      -19.46978        11.80146       -18.95425
| 90>    H       -1.23162         3.50848        -3.28593
| 91>    H        0.36017         0.48759         0.38127
| 92>    H        1.47254         3.63101        -4.01192
| 93>    H       -5.29734         1.14718         0.93158
| 94>    H       -5.50588         2.89122        -1.44221
| 95>    H      -10.32116         3.57728        -0.85702
| 96>    H       -6.83414         3.84670        -2.66310
| 97>    H       -9.77747         4.70922        -2.69038
| 98>    H      -11.41721         7.66867        -6.79833
| 99>    H       -5.17124         5.55570        -6.36275
|100>    H       -6.98923         7.10744        -8.30604
|101>    H       -3.99764         6.38489        -8.46283
|102>    H       -2.92241         7.22646       -10.69743
|103>    H       -3.57530         8.40356       -12.89383
|104>    H       -4.71468         9.44350       -14.69599
|105>    H       -6.45794        10.50509       -16.27224
|106>    H       -8.96185        11.07405       -16.37988
|107>    H      -10.49100        10.15742       -13.86904
|108>    H      -15.64647        10.28010       -14.98524
|109>    H      -13.52176        12.96165       -18.64608
|110>    H      -18.01304        10.63761       -16.44267
|111> *
|112>
|113>                          ****END OF INPUT****

CARTESIAN COORDINATES (ANGSTROEM)
---------------------------------
  C     -2.502040    1.056260    0.244490
  C     -2.494240    0.208040    1.320420
  C     -1.336010   -0.408540    1.837010
  N     -0.426730   -0.935800    2.297720
  C     -3.649170   -0.161850    2.040060
  N     -4.566560   -0.489340    2.647050
  C     -1.337930    1.455100   -0.541870
  C     -1.759530    2.314230   -1.590740
  C     -0.883270    2.857750   -2.499360
  C      0.473010    2.542530   -2.367650
  C      0.884290    1.685310   -1.318710
  C     -0.002060    1.133580   -0.400770
  S      2.601270    1.430480   -1.336940
  C      2.744570    2.465090   -2.733000
  C      1.566450    2.975430   -3.165680
  Br     4.432860    2.773960   -3.487930
  C     -3.212370    2.494300   -1.500270
  O     -3.934200    3.162340   -2.234670
  C     -3.650330    1.714060   -0.338000
  C     -4.962220    1.698210    0.062440
  N     -5.885860    2.385390   -0.622120
  C     -7.204350    2.489710   -0.322870
  S     -7.871810    1.729310    1.087010
  C     -9.425950    2.373190    0.668150
  N    -10.503060    2.072640    1.520880
  O    -11.593240    2.519860    1.230360
  O    -10.249970    1.380920    2.489310
  C     -9.427440    3.119030   -0.475860
  C     -8.150660    3.202700   -1.074180
  C     -7.848150    3.899290   -2.290900
  C     -8.750730    4.606370   -3.006110
  C     -8.455440    5.266300   -4.227860
  O     -7.216750    5.231200   -4.793430
  C     -9.286190    6.001040   -5.051010
  C    -10.656020    6.505520   -5.205470
  O    -11.624800    6.386400   -4.503210
  N    -10.610370    7.199730   -6.411440
  C     -9.373670    7.199740   -7.053270
  O     -9.139380    7.740040   -8.105170
  C     -8.516790    6.419460   -6.159760
  C     -7.232500    5.922870   -5.968450
  C     -6.065000    6.022200   -6.751330
  C     -6.063620    6.666260   -7.958280
  C     -4.945900    6.791250   -8.789990
  C     -4.988930    7.401660  -10.024260
  C     -3.914400    7.570540  -10.931280
  C     -4.260360    8.192690  -12.092770
  C     -5.628230    8.544120  -12.161510
  S     -6.458950    8.073040  -10.702160
  C     -6.290190    9.160220  -13.212200
  C     -5.753870    9.570540  -14.452130
  C     -6.674950   10.127490  -15.289120
  C     -7.982100   10.183270  -14.751900
  S     -7.998870    9.517190  -13.136930
  C     -9.102110   10.692290  -15.379300
  C    -10.370670   10.693850  -14.806240
  C    -11.540410   11.200010  -15.326570
  C    -11.810700   12.062030  -16.445550
  C    -10.974690   13.011430  -16.986200
  C    -11.328790   13.847350  -18.063190
  N    -11.553000   14.539980  -18.951540
  C     -9.708550   13.348620  -16.468860
  N     -8.689970   13.700420  -16.071140
  C    -13.227390   11.910910  -16.779500
  C    -13.852870   11.144500  -15.764520
  C    -12.833620   10.723700  -14.780570
  O    -13.004390   10.086160  -13.764740
  C    -15.195520   10.858530  -15.776180
  C    -15.956180   11.340040  -16.847700
  C    -15.319830   12.090890  -17.863430
  C    -13.961870   12.389580  -17.846250
  S    -16.441670   12.573350  -19.099530
  C    -17.733810   11.773640  -18.244080
  C    -17.347200   11.174970  -17.092980
  Br   -19.469780   11.801460  -18.954250
  H     -1.231620    3.508480   -3.285930
  H      0.360170    0.487590    0.381270
  H      1.472540    3.631010   -4.011920
  H     -5.297340    1.147180    0.931580
  H     -5.505880    2.891220   -1.442210
  H    -10.321160    3.577280   -0.857020
  H     -6.834140    3.846700   -2.663100
  H     -9.777470    4.709220   -2.690380
  H    -11.417210    7.668670   -6.798330
  H     -5.171240    5.555700   -6.362750
  H     -6.989230    7.107440   -8.306040
  H     -3.997640    6.384890   -8.462830
  H     -2.922410    7.226460  -10.697430
  H     -3.575300    8.403560  -12.893830
  H     -4.714680    9.443500  -14.695990
  H     -6.457940   10.505090  -16.272240
  H     -8.961850   11.074050  -16.379880
  H    -10.491000   10.157420  -13.869040
  H    -15.646470   10.280100  -14.985240
  H    -13.521760   12.961650  -18.646080
  H    -18.013040   10.637610  -16.442670

 Total Charge           Charge          ....    0
 Multiplicity           Mult            ....    1
 Number of Electrons    NEL             ....  600
 Basis Dimension        Dim             .... 1211

ORBITAL ENERGIES
----------------

  NO   OCC          E(Eh)            E(eV)
   0   2.0000    -482.896243    -13140.2748
   1   2.0000    -482.879734    -13139.8256
   2   2.0000     -88.999561     -2421.8012
   3   2.0000     -88.988198     -2421.4920
   4   2.0000     -88.968427     -2420.9540
   5   2.0000     -88.966824     -2420.9104
   6   2.0000     -88.964958     -2420.8596
   7   2.0000     -62.573958     -1702.7240
   8   2.0000     -62.557479     -1702.2755
   9   2.0000     -56.407920     -1534.9375
  10   2.0000     -56.405183     -1534.8630
  11   2.0000     -56.405151     -1534.8622
  12   2.0000     -56.391422     -1534.4886
  13   2.0000     -56.388719     -1534.4151
  14   2.0000     -56.388681     -1534.4140
  15   2.0000     -19.319500      -525.7103
  16   2.0000     -19.247216      -523.7434
  17   2.0000     -19.246907      -523.7350
  18   2.0000     -19.244951      -523.6817
  19   2.0000     -19.219631      -522.9927
  20   2.0000     -19.216294      -522.9019
  21   2.0000     -19.202799      -522.5347
  22   2.0000     -14.658848      -398.8875
  23   2.0000     -14.507277      -394.7631
  24   2.0000     -14.460165      -393.4811
  25   2.0000     -14.429124      -392.6364
  26   2.0000     -14.424672      -392.5153
  27   2.0000     -14.405838      -392.0028
  28   2.0000     -14.403867      -391.9492
  29   2.0000     -10.407264      -283.1961
  30   2.0000     -10.405410      -283.1456
  31   2.0000     -10.391475      -282.7664
  32   2.0000     -10.383589      -282.5518
  33   2.0000     -10.380503      -282.4679
  34   2.0000     -10.371318      -282.2179
  35   2.0000     -10.370903      -282.2066
  36   2.0000     -10.368946      -282.1534
  37   2.0000     -10.357110      -281.8313
  38   2.0000     -10.356799      -281.8228
  39   2.0000     -10.353495      -281.7329
  40   2.0000     -10.353127      -281.7229
  41   2.0000     -10.351690      -281.6838
  42   2.0000     -10.338874      -281.3351
  43   2.0000     -10.338218      -281.3172
  44   2.0000     -10.332575      -281.1637
  45   2.0000     -10.331440      -281.1328
  46   2.0000     -10.331367      -281.1308
  47   2.0000     -10.331225      -281.1269
  48   2.0000     -10.330881      -281.1176
  49   2.0000     -10.330379      -281.1039
  50   2.0000     -10.327566      -281.0274
  51   2.0000     -10.322730      -280.8958
  52   2.0000     -10.321410      -280.8599
  53   2.0000     -10.321008      -280.8489
  54   2.0000     -10.319049      -280.7956
  55   2.0000     -10.318821      -280.7894
  56   2.0000     -10.317571      -280.7554
  57   2.0000     -10.317506      -280.7536
  58   2.0000     -10.313317      -280.6396
  59   2.0000     -10.310915      -280.5743
  60   2.0000     -10.310497      -280.5629
  61   2.0000     -10.310010      -280.5496
  62   2.0000     -10.309597      -280.5384
  63   2.0000     -10.309450      -280.5344
  64   2.0000     -10.309258      -280.5292
  65   2.0000     -10.309083      -280.5244
  66   2.0000     -10.307720      -280.4873
  67   2.0000     -10.307181      -280.4726
  68   2.0000     -10.304640      -280.4035
  69   2.0000     -10.304634      -280.4033
  70   2.0000     -10.304429      -280.3978
  71   2.0000     -10.301184      -280.3095
  72   2.0000     -10.299595      -280.2662
  73   2.0000     -10.299444      -280.2621
  74   2.0000     -10.299118      -280.2532
  75   2.0000     -10.297821      -280.2180
  76   2.0000     -10.296759      -280.1891
  77   2.0000     -10.296465      -280.1811
  78   2.0000     -10.292596      -280.0758
  79   2.0000     -10.289959      -280.0040
  80   2.0000     -10.288229      -279.9569
  81   2.0000     -10.283331      -279.8237
  82   2.0000     -10.283076      -279.8167
  83   2.0000      -8.803393      -239.5525
  84   2.0000      -8.786926      -239.1044
  85   2.0000      -8.094739      -220.2690
  86   2.0000      -8.084175      -219.9816
  87   2.0000      -8.064450      -219.4448
  88   2.0000      -8.062899      -219.4026
  89   2.0000      -8.061343      -219.3603
  90   2.0000      -6.639745      -180.6766
  91   2.0000      -6.625098      -180.2781
  92   2.0000      -6.624902      -180.2728
  93   2.0000      -6.623214      -180.2268
  94   2.0000      -6.608652      -179.8306
  95   2.0000      -6.608490      -179.8262
  96   2.0000      -6.064390      -165.0204
  97   2.0000      -6.059994      -164.9008
  98   2.0000      -6.056226      -164.7983
  99   2.0000      -6.053836      -164.7333
 100   2.0000      -6.049556      -164.6168
 101   2.0000      -6.045443      -164.5049
 102   2.0000      -6.034141      -164.1973
 103   2.0000      -6.032563      -164.1544
 104   2.0000      -6.030932      -164.1100
 105   2.0000      -6.029874      -164.0812
 106   2.0000      -6.028491      -164.0436
 107   2.0000      -6.026934      -164.0012
 108   2.0000      -6.025659      -163.9665
 109   2.0000      -6.023915      -163.9191
 110   2.0000      -6.022414      -163.8782
 111   2.0000      -2.755611       -74.9840
 112   2.0000      -2.751502       -74.8722
 113   2.0000      -2.751330       -74.8675
 114   2.0000      -2.739707       -74.5512
 115   2.0000      -2.739695       -74.5509
 116   2.0000      -2.739035       -74.5329
 117   2.0000      -2.735024       -74.4238
 118   2.0000      -2.734891       -74.4202
 119   2.0000      -2.723321       -74.1053
 120   2.0000      -2.723288       -74.1044
 121   2.0000      -1.329745       -36.1842
 122   2.0000      -1.233693       -33.5705
 123   2.0000      -1.162066       -31.6214
 124   2.0000      -1.159428       -31.5496
 125   2.0000      -1.149310       -31.2743
 126   2.0000      -1.141703       -31.0673
 127   2.0000      -1.117516       -30.4092
 128   2.0000      -1.114890       -30.3377
 129   2.0000      -1.049182       -28.5497
 130   2.0000      -1.036544       -28.2058
 131   2.0000      -1.025905       -27.9163
 132   2.0000      -1.020452       -27.7679
 133   2.0000      -1.017937       -27.6995
 134   2.0000      -1.014041       -27.5935
 135   2.0000      -1.006406       -27.3857
 136   2.0000      -1.003952       -27.3189
 137   2.0000      -1.002696       -27.2847
 138   2.0000      -0.995609       -27.0919
 139   2.0000      -0.983731       -26.7687
 140   2.0000      -0.979770       -26.6609
 141   2.0000      -0.955247       -25.9936
 142   2.0000      -0.948858       -25.8197
 143   2.0000      -0.938034       -25.5252
 144   2.0000      -0.935176       -25.4474
 145   2.0000      -0.927322       -25.2337
 146   2.0000      -0.922020       -25.0894
 147   2.0000      -0.918859       -25.0034
 148   2.0000      -0.911744       -24.8098
 149   2.0000      -0.900402       -24.5012
 150   2.0000      -0.899606       -24.4795
 151   2.0000      -0.899402       -24.4740
 152   2.0000      -0.890261       -24.2252
 153   2.0000      -0.879669       -23.9370
 154   2.0000      -0.877487       -23.8776
 155   2.0000      -0.868457       -23.6319
 156   2.0000      -0.865560       -23.5531
 157   2.0000      -0.862011       -23.4565
 158   2.0000      -0.844442       -22.9784
 159   2.0000      -0.843154       -22.9434
 160   2.0000      -0.842073       -22.9140
 161   2.0000      -0.825115       -22.4525
 162   2.0000      -0.820691       -22.3321
 163   2.0000      -0.808438       -21.9987
 164   2.0000      -0.798868       -21.7383
 165   2.0000      -0.779968       -21.2240
 166   2.0000      -0.776694       -21.1349
 167   2.0000      -0.774790       -21.0831
 168   2.0000      -0.767201       -20.8766
 169   2.0000      -0.761412       -20.7191
 170   2.0000      -0.751617       -20.4525
 171   2.0000      -0.746094       -20.3023
 172   2.0000      -0.738094       -20.0846
 173   2.0000      -0.727028       -19.7834
 174   2.0000      -0.716438       -19.4953
 175   2.0000      -0.707840       -19.2613
 176   2.0000      -0.704496       -19.1703
 177   2.0000      -0.702785       -19.1238
 178   2.0000      -0.692738       -18.8504
 179   2.0000      -0.687467       -18.7069
 180   2.0000      -0.680518       -18.5178
 181   2.0000      -0.675604       -18.3841
 182   2.0000      -0.670880       -18.2556
 183   2.0000      -0.664258       -18.0754
 184   2.0000      -0.660870       -17.9832
 185   2.0000      -0.652651       -17.7595
 186   2.0000      -0.646001       -17.5786
 187   2.0000      -0.643686       -17.5156
 188   2.0000      -0.641918       -17.4675
 189   2.0000      -0.640866       -17.4389
 190   2.0000      -0.640423       -17.4268
 191   2.0000      -0.633314       -17.2334
 192   2.0000      -0.632403       -17.2086
 193   2.0000      -0.624467       -16.9926
 194   2.0000      -0.616509       -16.7761
 195   2.0000      -0.614266       -16.7150
 196   2.0000      -0.608225       -16.5507
 197   2.0000      -0.606621       -16.5070
 198   2.0000      -0.604835       -16.4584
 199   2.0000      -0.600373       -16.3370
 200   2.0000      -0.592882       -16.1331
 201   2.0000      -0.591716       -16.1014
 202   2.0000      -0.591297       -16.0900
 203   2.0000      -0.587145       -15.9770
 204   2.0000      -0.583957       -15.8903
 205   2.0000      -0.575790       -15.6681
 206   2.0000      -0.571843       -15.5606
 207   2.0000      -0.570053       -15.5119
 208   2.0000      -0.565224       -15.3805
 209   2.0000      -0.560420       -15.2498
 210   2.0000      -0.559587       -15.2271
 211   2.0000      -0.556123       -15.1329
 212   2.0000      -0.550580       -14.9821
 213   2.0000      -0.550305       -14.9745
 214   2.0000      -0.549512       -14.9530
 215   2.0000      -0.546629       -14.8745
 216   2.0000      -0.543588       -14.7918
 217   2.0000      -0.538443       -14.6518
 218   2.0000      -0.536904       -14.6099
 219   2.0000      -0.533957       -14.5297
 220   2.0000      -0.532017       -14.4769
 221   2.0000      -0.528699       -14.3866
 222   2.0000      -0.524665       -14.2769
 223   2.0000      -0.524021       -14.2593
 224   2.0000      -0.521486       -14.1904
 225   2.0000      -0.518273       -14.1029
 226   2.0000      -0.516749       -14.0615
 227   2.0000      -0.512702       -13.9513
 228   2.0000      -0.510581       -13.8936
 229   2.0000      -0.510319       -13.8865
 230   2.0000      -0.508885       -13.8475
 231   2.0000      -0.506764       -13.7897
 232   2.0000      -0.500451       -13.6180
 233   2.0000      -0.499235       -13.5849
 234   2.0000      -0.494456       -13.4548
 235   2.0000      -0.490560       -13.3488
 236   2.0000      -0.489674       -13.3247
 237   2.0000      -0.489610       -13.3230
 238   2.0000      -0.488027       -13.2799
 239   2.0000      -0.487551       -13.2669
 240   2.0000      -0.485273       -13.2050
 241   2.0000      -0.482759       -13.1365
 242   2.0000      -0.480963       -13.0877
 243   2.0000      -0.478781       -13.0283
 244   2.0000      -0.473703       -12.8901
 245   2.0000      -0.472317       -12.8524
 246   2.0000      -0.468595       -12.7511
 247   2.0000      -0.462678       -12.5901
 248   2.0000      -0.462115       -12.5748
 249   2.0000      -0.462083       -12.5739
 250   2.0000      -0.459316       -12.4986
 251   2.0000      -0.454428       -12.3656
 252   2.0000      -0.454346       -12.3634
 253   2.0000      -0.451957       -12.2984
 254   2.0000      -0.451384       -12.2828
 255   2.0000      -0.445327       -12.1180
 256   2.0000      -0.440767       -11.9939
 257   2.0000      -0.438811       -11.9407
 258   2.0000      -0.438635       -11.9359
 259   2.0000      -0.438423       -11.9301
 260   2.0000      -0.438100       -11.9213
 261   2.0000      -0.433986       -11.8094
 262   2.0000      -0.431681       -11.7466
 263   2.0000      -0.428844       -11.6694
 264   2.0000      -0.424840       -11.5605
 265   2.0000      -0.421599       -11.4723
 266   2.0000      -0.419007       -11.4018
 267   2.0000      -0.418058       -11.3759
 268   2.0000      -0.413009       -11.2385
 269   2.0000      -0.411154       -11.1881
 270   2.0000      -0.401528       -10.9261
 271   2.0000      -0.399924       -10.8825
 272   2.0000      -0.394951       -10.7472
 273   2.0000      -0.393753       -10.7146
 274   2.0000      -0.387338       -10.5400
 275   2.0000      -0.385611       -10.4930
 276   2.0000      -0.384932       -10.4745
 277   2.0000      -0.383564       -10.4373
 278   2.0000      -0.380310       -10.3488
 279   2.0000      -0.376189       -10.2366
 280   2.0000      -0.375663       -10.2223
 281   2.0000      -0.373335       -10.1589
 282   2.0000      -0.369375       -10.0512
 283   2.0000      -0.368418       -10.0252
 284   2.0000      -0.367598       -10.0028
 285   2.0000      -0.359120        -9.7722
 286   2.0000      -0.354326        -9.6417
 287   2.0000      -0.352569        -9.5939
 288   2.0000      -0.351866        -9.5747
 289   2.0000      -0.343837        -9.3563
 290   2.0000      -0.338761        -9.2182
 291   2.0000      -0.330841        -9.0027
 292   2.0000      -0.326615        -8.8876
 293   2.0000      -0.315464        -8.5842
 294   2.0000      -0.307309        -8.3623
 295   2.0000      -0.306636        -8.3440
 296   2.0000      -0.295351        -8.0369
 297   2.0000      -0.286218        -7.7884
 298   2.0000      -0.270233        -7.3534
 299   2.0000      -0.229680        -6.2499
 300   0.0000      -0.119237        -3.2446
 301   0.0000      -0.098841        -2.6896
 302   0.0000      -0.080541        -2.1916
 303   0.0000      -0.070879        -1.9287
 304   0.0000      -0.060193        -1.6379

MULLIKEN ATOMIC CHARGES
-----------------------
   0 C :    0.327483
   1 C :   -0.339386
   2 C :   -0.186082
   3 N :    0.157452
   4 C :   -0.196473
   5 N :    0.147526
   6 C :    0.008883
   7 C :   -0.008118
   8 C :   -0.068089
   9 C :    0.118670
  10 C :   -0.092382
  11 C :   -0.018611
  12 S :    0.196374
  13 C :   -0.123711
  14 C :    0.037369
  15 Br:    0.030836
  16 C :    0.169198
  17 O :   -0.220826
  18 C :   -0.127141
  19 C :    0.021668
  20 N :   -0.008031
  21 C :   -0.113862
  22 S :    0.178642
  23 C :    0.015168
  24 N :    0.272544
  25 O :   -0.237944
  26 O :   -0.252312
  27 C :    0.007572
  28 C :    0.135269
  29 C :   -0.029873
  30 C :   -0.026414
  31 C :    0.086436
  32 O :   -0.213227
  33 C :   -0.028892
  34 C :    0.168536
  35 O :   -0.140255
  36 N :   -0.162422
  37 C :    0.192650
  38 O :   -0.156075
  39 C :   -0.085056
  40 C :    0.147060
  41 C :   -0.015405
  42 C :   -0.007369
  43 C :    0.004776
  44 C :   -0.024840
  45 C :    0.045939
  46 C :    0.029127
  47 C :   -0.033712
  48 S :    0.122068
  49 C :   -0.055531
  50 C :    0.038162
  51 C :    0.042924
  52 C :   -0.020766
  53 S :    0.120913
  54 C :    0.002044
  55 C :    0.018374
  56 C :   -0.119860
  57 C :    0.285582
  58 C :   -0.343478
  59 C :   -0.181598
  60 N :    0.138082
  61 C :   -0.217599
  62 N :    0.163134
  63 C :    0.005300
  64 C :   -0.002287
  65 C :    0.135140
  66 O :   -0.152597
  67 C :   -0.076883
  68 C :    0.113006
  69 C :   -0.087784
  70 C :   -0.025111
  71 S :    0.180533
  72 C :   -0.126265
  73 C :    0.040662
  74 Br:    0.017547
  75 H :   -0.013072
  76 H :   -0.002946
  77 H :   -0.003736
  78 H :    0.049803
  79 H :    0.182446
  80 H :    0.021197
  81 H :    0.004975
  82 H :    0.011889
  83 H :    0.142272
  84 H :   -0.012233
  85 H :    0.038153
  86 H :   -0.011066
  87 H :   -0.004171
  88 H :   -0.003350
  89 H :   -0.004007
  90 H :    0.003937
  91 H :    0.009725
  92 H :    0.017781
  93 H :   -0.012402
  94 H :   -0.006566
  95 H :   -0.005017
Sum of atomic charges:   -0.0000000

LOEWDIN ATOMIC CHARGES
----------------------
   0 C :    0.077999
   1 C :   -0.144952
   2 C :   -0.020364
   3 N :   -0.049579
   4 C :   -0.020844
   5 N :   -0.049218
   6 C :   -0.017726
   7 C :   -0.052323
   8 C :    0.023826
   9 C :   -0.033510
  10 C :   -0.143124
  11 C :   -0.006298
  12 S :    0.441204
  13 C :   -0.270547
  14 C :   -0.070768
  15 Br:    0.141908
  16 C :    0.096528
  17 O :   -0.178181
  18 C :   -0.143935
  19 C :    0.111184
  20 N :    0.078354
  21 C :   -0.109281
  22 S :    0.477425
  23 C :   -0.195763
  24 N :    0.272277
  25 O :   -0.204501
  26 O :   -0.218842
  27 C :    0.006422
  28 C :   -0.088336
  29 C :   -0.008788
  30 C :   -0.032242
  31 C :    0.064869
  32 O :    0.010741
  33 C :   -0.091993
  34 C :    0.084580
  35 O :   -0.156671
  36 N :   -0.001942
  37 C :    0.088278
  38 O :   -0.160522
  39 C :   -0.103243
  40 C :    0.070476
  41 C :   -0.040338
  42 C :    0.000799
  43 C :   -0.043638
  44 C :   -0.137055
  45 C :   -0.021126
  46 C :   -0.026480
  47 C :   -0.157798
  48 S :    0.417387
  49 C :   -0.182205
  50 C :   -0.010448
  51 C :   -0.029490
  52 C :   -0.103707
  53 S :    0.410922
  54 C :   -0.062292
  55 C :    0.050471
  56 C :   -0.100641
  57 C :    0.068727
  58 C :   -0.150706
  59 C :   -0.019930
  60 N :   -0.061696
  61 C :   -0.024691
  62 N :   -0.059849
  63 C :   -0.016394
  64 C :   -0.051123
  65 C :    0.078885
  66 O :   -0.152306
  67 C :    0.019464
  68 C :   -0.035864
  69 C :   -0.144638
  70 C :   -0.015386
  71 S :    0.428541
  72 C :   -0.274387
  73 C :   -0.070334
  74 Br:    0.131991
  75 H :    0.040411
  76 H :    0.042773
  77 H :    0.038575
  78 H :    0.036183
  79 H :    0.086311
  80 H :    0.048578
  81 H :    0.034149
  82 H :    0.045337
  83 H :    0.097285
  84 H :    0.037307
  85 H :    0.029173
  86 H :    0.034339
  87 H :    0.037031
  88 H :    0.035543
  89 H :    0.035900
  90 H :    0.041081
  91 H :    0.038611
  92 H :    0.036021
  93 H :    0.040089
  94 H :    0.040009
  95 H :    0.038052

  Mayer bond orders larger than 0.100000
B(  0-C ,  1-C ) :   1.6334 B(  0-C ,  6-C ) :   1.0035 B(  0-C , 18-C ) :   1.0957
B(  1-C ,  2-C ) :   1.1406 B(  1-C ,  4-C ) :   1.1471 B(  2-C ,  3-N ) :   2.9709
B(  4-C ,  5-N ) :   2.9537 B(  6-C ,  7-C ) :   1.2732 B(  6-C , 11-C ) :   1.4239
B(  7-C ,  8-C ) :   1.4216 B(  7-C , 16-C ) :   0.9817 B(  8-C ,  9-C ) :   1.2433
B(  8-C , 75-H ) :   1.0178 B(  9-C , 10-C ) :   1.3074 B(  9-C , 14-C ) :   1.1635
B( 10-C , 11-C ) :   1.3206 B( 10-C , 12-S ) :   1.0926 B( 11-C , 76-H ) :   0.9798
B( 12-S , 13-C ) :   1.0891 B( 13-C , 14-C ) :   1.6154 B( 13-C , 15-Br) :   1.0229
B( 14-C , 77-H ) :   1.0007 B( 16-C , 17-O ) :   2.0418 B( 16-C , 18-C ) :   1.0008
B( 17-O , 79-H ) :   0.1387 B( 18-C , 19-C ) :   1.4651 B( 19-C , 20-N ) :   1.3313
B( 19-C , 78-H ) :   0.9290 B( 20-N , 21-C ) :   1.1963 B( 20-N , 79-H ) :   0.8268
B( 21-C , 22-S ) :   1.1392 B( 21-C , 28-C ) :   1.3736 B( 22-S , 23-C ) :   1.0817
B( 23-C , 24-N ) :   0.9542 B( 23-C , 27-C ) :   1.5196 B( 24-N , 25-O ) :   1.5422
B( 24-N , 26-O ) :   1.5192 B( 25-O , 26-O ) :   0.2660 B( 27-C , 28-C ) :   1.2091
B( 27-C , 80-H ) :   0.9993 B( 28-C , 29-C ) :   1.0535 B( 29-C , 30-C ) :   1.6626
B( 29-C , 81-H ) :   0.9853 B( 30-C , 31-C ) :   1.1700 B( 30-C , 82-H ) :   0.9580
B( 31-C , 32-O ) :   1.1417 B( 31-C , 33-C ) :   1.3990 B( 32-O , 40-C ) :   1.1309
B( 33-C , 34-C ) :   0.8763 B( 33-C , 39-C ) :   1.2826 B( 34-C , 35-O ) :   2.2639
B( 34-C , 36-N ) :   1.0797 B( 36-N , 37-C ) :   1.1004 B( 36-N , 83-H ) :   0.9144
B( 37-C , 38-O ) :   2.1582 B( 37-C , 39-C ) :   0.8911 B( 39-C , 40-C ) :   1.3975
B( 40-C , 41-C ) :   1.1765 B( 41-C , 42-C ) :   1.5641 B( 41-C , 84-H ) :   0.9792
B( 42-C , 43-C ) :   1.1828 B( 42-C , 85-H ) :   0.9483 B( 43-C , 44-C ) :   1.5306
B( 43-C , 86-H ) :   0.9849 B( 44-C , 45-C ) :   1.1459 B( 44-C , 48-S ) :   1.0521
B( 45-C , 46-C ) :   1.5808 B( 45-C , 87-H ) :   1.0000 B( 46-C , 47-C ) :   1.1934
B( 46-C , 88-H ) :   0.9949 B( 47-C , 48-S ) :   1.0738 B( 47-C , 49-C ) :   1.4713
B( 49-C , 50-C ) :   1.2080 B( 49-C , 53-S ) :   1.0525 B( 50-C , 51-C ) :   1.5570
B( 50-C , 89-H ) :   0.9944 B( 51-C , 52-C ) :   1.1722 B( 51-C , 90-H ) :   1.0002
B( 52-C , 53-S ) :   1.0790 B( 52-C , 54-C ) :   1.5144 B( 54-C , 55-C ) :   1.2064
B( 54-C , 91-H ) :   0.9614 B( 55-C , 56-C ) :   1.5496 B( 55-C , 92-H ) :   0.9394
B( 56-C , 57-C ) :   1.0779 B( 56-C , 65-C ) :   0.9599 B( 57-C , 58-C ) :   1.6062
B( 57-C , 63-C ) :   1.0055 B( 58-C , 59-C ) :   1.1327 B( 58-C , 61-C ) :   1.1660
B( 59-C , 60-N ) :   2.9770 B( 61-C , 62-N ) :   3.0113 B( 63-C , 64-C ) :   1.2758
B( 63-C , 70-C ) :   1.4209 B( 64-C , 65-C ) :   0.9198 B( 64-C , 67-C ) :   1.4306
B( 65-C , 66-O ) :   2.2469 B( 67-C , 68-C ) :   1.2450 B( 67-C , 93-H ) :   1.0166
B( 68-C , 69-C ) :   1.3157 B( 68-C , 73-C ) :   1.1619 B( 69-C , 70-C ) :   1.3198
B( 69-C , 71-S ) :   1.0824 B( 70-C , 94-H ) :   0.9818 B( 71-S , 72-C ) :   1.0868
B( 72-C , 73-C ) :   1.6194 B( 72-C , 74-Br) :   1.0152 B( 73-C , 95-H ) :   1.0005

-----------------------------------------------------------------------------
         ABSORPTION SPECTRUM VIA TRANSITION ELECTRIC DIPOLE MOMENTS
-----------------------------------------------------------------------------
State   Energy  Wavelength   fosc         T2         TX        TY        TZ
        (cm-1)    (nm)                  (au**2)     (au)      (au)      (au)
-----------------------------------------------------------------------------
   0   10943.0    913.8   1.610087295  48.43845   2.66728  -3.26760   5.53596
   1   18624.2    536.9   0.127431488   2.25255  -0.83454   0.75647  -0.99189
   2   19745.1    506.5   0.023531453   0.39234  -0.42356   0.33347  -0.31896
   3   20865.2    479.3   0.380035356   5.99622   2.16381  -0.09039  -1.14280
   4   22544.7    443.6   0.023177577   0.33845  -0.56469   0.13453  -0.03850
   5   23490.7    425.7   0.051839897   0.72651  -0.52333   0.17951  -0.64839
   6   23679.1    422.3   0.596646866   8.29522   2.74589  -0.80046  -0.33851
   7   24551.7    407.3   0.336449337   4.51142   1.71374   0.75827  -0.99978
   8   24916.9    401.3   0.413859414   5.46807  -2.03082   0.77227  -0.86454
   9   26281.3    380.5   0.237918299   2.98027  -1.71036   0.14975   0.18029
  10   26782.2    373.4   0.108039448   1.32804   1.12736  -0.10037  -0.21687
  11   27159.0    368.2   0.068709514   0.83287  -0.86075   0.01620   0.30284
  12   27910.6    358.3   0.010681754   0.12599  -0.33241  -0.11578   0.04574
  13   28774.4    347.5   0.008426049   0.09640  -0.06887  -0.26397   0.14825
  14   29224.1    342.2   0.144970568   1.63311   1.12791   0.22483  -0.55711
  15   29580.2    338.1   0.460336875   5.12330   1.92198   0.42435  -1.11769
  16   30010.8    333.2   0.063883450   0.70079   0.36239  -0.43322   0.61789
  17   30256.2    330.5   0.340174221   3.70137   1.75648   0.34182  -0.70661
  18   30379.4    329.2   0.012147657   0.13164  -0.18993  -0.08101   0.29834
  19   30874.5    323.9   0.139949207   1.49227   0.19565   0.57904  -1.05769
  20   31403.7    318.4   0.204930212   2.14833  -0.07537  -0.81754   1.21420
  21   31716.2    315.3   0.183873424   1.90859   1.35804   0.13736   0.21320
  22   32287.3    309.7   0.399246136   4.07084  -1.91130  -0.57174  -0.30149
  23   32921.3    303.8   0.013604107   0.13604   0.33326   0.03332  -0.15450
  24   33027.5    302.8   0.007931507   0.07906   0.26337  -0.02020   0.09636
  25   33292.0    300.4   0.091033898   0.90020  -0.42981  -0.33620   0.77616
  26   33755.0    296.3   0.015611170   0.15226  -0.19692  -0.22275   0.25270
  27   33781.1    296.0   0.244655470   2.38428   0.98487   0.73561  -0.93445
  28   33999.3    294.1   0.322297914   3.12078   0.54398   0.90511  -1.41621
  29   34032.5    293.8   0.000832606   0.00805  -0.04157  -0.07708   0.01963
  30   34767.3    287.6   0.046792256   0.44308   0.62711  -0.18840   0.11965
  31   35113.5    284.8   0.036613520   0.34328  -0.53480  -0.21890   0.09667
  32   35404.5    282.4   0.049394938   0.45930  -0.27377   0.42149  -0.45464
  33   35517.9    281.5   0.011660376   0.10808  -0.21883  -0.22556   0.09651
  34   35796.6    279.4   0.041637891   0.38293  -0.35028   0.22361  -0.45851
  35   35973.7    278.0   0.134309618   1.22913  -0.66685  -0.63437   0.61808
  36   36194.8    276.3   0.000234778   0.00214   0.03825   0.02325  -0.01148
  37   36476.5    274.1   0.015921475   0.14370   0.12420  -0.21005   0.29008
  38   36677.0    272.7   0.000168654   0.00151  -0.02530   0.00973   0.02791
  39   36996.9    270.3   0.028950704   0.25761  -0.48703   0.11416   0.08593
  40   37095.4    269.6   0.063715339   0.56546   0.72893   0.17466   0.06005
  41   37538.0    266.4   0.151502452   1.32869   0.48314   0.72744  -0.75240
  42   37724.9    265.1   0.100818357   0.87981   0.89229  -0.27060   0.10199
  43   38362.5    260.7   0.023637268   0.20285  -0.17264   0.20624  -0.36126
  44   38392.3    260.5   0.026491372   0.22716   0.40822   0.17522  -0.17267
  45   38579.9    259.2   0.079201260   0.67584  -0.76698  -0.05640   0.29052
  46   39176.4    255.3   0.054478964   0.45780  -0.10229  -0.49475   0.45007
  47   39546.8    252.9   0.069613786   0.57951  -0.25908   0.43649  -0.56732
  48   39815.1    251.2   0.054871506   0.45371   0.64660   0.18275   0.04707
  49   39978.4    250.1   0.008170789   0.06728  -0.18158  -0.14244   0.11842
  50   40183.9    248.9   0.047716814   0.39093   0.17521  -0.33044   0.50104
  51   40319.3    248.0   0.035723054   0.29168  -0.30621   0.34881  -0.27613

FINAL SINGLE POINT ENERGY    -10114.617436839406

DIPOLE MOMENT
-------------
                                X             Y             Z
Electronic contribution:     -4.20905       9.28914     -52.05964
Nuclear contribution   :      8.13415     -10.42548      50.64391
                        -----------------------------------------
Total Dipole Moment    :      3.92509      -1.13634      -1.41573
                        -----------------------------------------
Magnitude (a.u.)       :      4.32457
Magnitude (Debye)      :     10.99219

Rotational constants in cm-1:     0.000872     0.000145     0.000125
Rotational constants in MHz :    26.136999     4.343818     3.759552

                             ****ORCA TERMINATED NORMALLY****
TOTAL RUN TIME: 0 days 0 hours 10 minutes 10 seconds 365 msec
