                         Program Version 4.2.0 -  RELEASE  -
|  1> # ORCA input file
|  2> # SCF done       -179.123444069992          0.000479389085
|  3> ! CAM-B3LYP def2-SVP def2/J RIJCOSX Grid4 TightSCF
|  4> %maxcore 5000
|  5> %tddft
|  6>     Mode sTDDFT
|  7>     Ethresh 5.0
|  8>     maxcore 5000
|  9> end
| 10>
| 11> %pal
| 12>   nprocs 6
| 13>   end
| 14> * xyz 0 1
| 15>    C       -2.54123         5.07830         2.52153
| 16>    C       -1.52946         4.41937         1.86435
| 17>    C       -0.42670         3.82093         2.50421
| 18>    N        0.48341         3.29119         2.96362
| 19>    C       -1.41001         4.31066         0.46513
| 20>    N       -1.21646         4.20623        -0.66264
| 21>    C       -2.58893         5.34293         3.95604
| 22>    C       -3.65462         6.23898         4.22083
| 23>    C       -3.94495         6.69301         5.48261
| 24>    C       -3.15759         6.22478         6.54074
| 25>    C       -2.09780         5.32726         6.26845
| 26>    C       -1.79489         4.87910         4.98832
| 27>    S       -1.25239         4.87815         7.71876
| 28>    C       -2.32052         5.88630         8.65865
| 29>    C       -3.26146         6.52767         7.92582
| 30>   Br       -2.09185         5.99547        10.51655
| 31>    C       -4.33417         6.56820         2.95314
| 32>    O       -5.10124         7.47964         2.74930
| 33>    C       -3.72686         5.66217         1.93762
| 34>    C       -4.21420         5.45183         0.67973
| 35>    C       -5.52117         5.77155         0.25960
| 36>    O       -5.77597         5.78730        -1.08070
| 37>    C       -6.71818         5.99581         0.92688
| 38>    C       -7.37494         5.92726         2.24298
| 39>    O       -6.95527         5.59945         3.32342
| 40>    N       -8.70257         6.21611         1.96208
| 41>    C       -9.00293         6.36672         0.60338
| 42>    O      -10.10317         6.57372         0.16256
| 43>    C       -7.71070         6.18217        -0.05209
| 44>    C       -7.09721         6.04400        -1.30108
| 45>    C       -7.61590         6.03394        -2.59780
| 46>    C       -6.86648         5.54301        -3.64633
| 47>    C       -7.25959         5.42022        -4.96863
| 48>    C       -6.47592         4.74141        -5.89635
| 49>    C       -6.68310         4.57351        -7.27504
| 50>    C       -5.71495         3.82340        -7.89963
| 51>    C       -4.72131         3.35678        -7.03055
| 52>    S       -5.02232         3.90460        -5.40335
| 53>    C       -3.60521         2.55793        -7.28686
| 54>    C       -3.10386         2.08221        -8.50651
| 55>    C       -1.95392         1.34552        -8.37243
| 56>    C       -1.51574         1.20279        -7.04397
| 57>    S       -2.60697         2.02943        -5.95940
| 58>    C       -0.37643         0.54353        -6.60890
| 59>    C        0.03398         0.38467        -5.29703
| 60>    S       -0.87666         0.89121        -3.86724
| 61>    C        0.33810         0.33622        -2.72591
| 62>    C        1.41971        -0.22066        -3.45288
| 63>    C        1.22709        -0.19789        -4.84719
| 64>    O        2.26574        -0.74983        -5.48942
| 65>    C        3.13201        -1.13388        -4.51197
| 66>    N        4.33326        -1.76260        -4.89649
| 67>    O        5.08126        -2.09848        -3.99490
| 68>    O        4.53811        -1.92638        -6.08169
| 69>    C        2.67039        -0.83720        -3.24912
| 70>    C        0.22783         0.43558        -1.35648
| 71>    C       -0.86390         0.88639        -0.62400
| 72>    C       -0.90994         0.97495         0.78035
| 73>    C       -2.11102         1.40381         1.27183
| 74>    C       -3.06836         1.66807         0.27060
| 75>    S       -2.39166         1.36019        -1.31448
| 76>    C       -4.36659         2.11293         0.45258
| 77>    C       -5.00032         2.39298         1.69189
| 78>    C       -6.29110         2.78790         1.58117
| 79>    C       -6.77220         2.84993         0.23412
| 80>    S       -5.46318         2.40019        -0.87255
| 81>    C       -8.00272         3.18721        -0.18592
| 82>    H       -4.76128         7.37722         5.64920
| 83>    H       -0.97382         4.19917         4.83176
| 84>    H       -3.99991         7.18768         8.34285
| 85>    H       -3.59974         4.97125        -0.07106
| 86>    H       -9.40884         6.27354         2.68188
| 87>    H       -8.63792         6.35410        -2.72562
| 88>    H       -5.87800         5.17512        -3.39613
| 89>    H       -8.19846         5.84095        -5.29979
| 90>    H       -7.52774         5.00917        -7.77874
| 91>    H       -5.71144         3.59786        -8.95105
| 92>    H       -3.57810         2.29784        -9.44686
| 93>    H       -1.41626         0.90720        -9.19445
| 94>    H        0.27244         0.11903        -7.36430
| 95>    H        3.18314        -1.04601        -2.33320
| 96>    H        1.08677         0.11343        -0.78202
| 97>    H       -0.05888         0.73479         1.39225
| 98>    H       -2.32571         1.51391         2.31970
| 99>    H       -4.48285         2.28795         2.62852
|100>    H       -6.92529         3.03951         2.41169
|101>    H       -8.77953         3.42196         0.52004
|102>    H       -8.26168         3.20280        -1.22892
|103> *
|104>
|105>                          ****END OF INPUT****

CARTESIAN COORDINATES (ANGSTROEM)
---------------------------------
  C     -2.541230    5.078300    2.521530
  C     -1.529460    4.419370    1.864350
  C     -0.426700    3.820930    2.504210
  N      0.483410    3.291190    2.963620
  C     -1.410010    4.310660    0.465130
  N     -1.216460    4.206230   -0.662640
  C     -2.588930    5.342930    3.956040
  C     -3.654620    6.238980    4.220830
  C     -3.944950    6.693010    5.482610
  C     -3.157590    6.224780    6.540740
  C     -2.097800    5.327260    6.268450
  C     -1.794890    4.879100    4.988320
  S     -1.252390    4.878150    7.718760
  C     -2.320520    5.886300    8.658650
  C     -3.261460    6.527670    7.925820
  Br    -2.091850    5.995470   10.516550
  C     -4.334170    6.568200    2.953140
  O     -5.101240    7.479640    2.749300
  C     -3.726860    5.662170    1.937620
  C     -4.214200    5.451830    0.679730
  C     -5.521170    5.771550    0.259600
  O     -5.775970    5.787300   -1.080700
  C     -6.718180    5.995810    0.926880
  C     -7.374940    5.927260    2.242980
  O     -6.955270    5.599450    3.323420
  N     -8.702570    6.216110    1.962080
  C     -9.002930    6.366720    0.603380
  O    -10.103170    6.573720    0.162560
  C     -7.710700    6.182170   -0.052090
  C     -7.097210    6.044000   -1.301080
  C     -7.615900    6.033940   -2.597800
  C     -6.866480    5.543010   -3.646330
  C     -7.259590    5.420220   -4.968630
  C     -6.475920    4.741410   -5.896350
  C     -6.683100    4.573510   -7.275040
  C     -5.714950    3.823400   -7.899630
  C     -4.721310    3.356780   -7.030550
  S     -5.022320    3.904600   -5.403350
  C     -3.605210    2.557930   -7.286860
  C     -3.103860    2.082210   -8.506510
  C     -1.953920    1.345520   -8.372430
  C     -1.515740    1.202790   -7.043970
  S     -2.606970    2.029430   -5.959400
  C     -0.376430    0.543530   -6.608900
  C      0.033980    0.384670   -5.297030
  S     -0.876660    0.891210   -3.867240
  C      0.338100    0.336220   -2.725910
  C      1.419710   -0.220660   -3.452880
  C      1.227090   -0.197890   -4.847190
  O      2.265740   -0.749830   -5.489420
  C      3.132010   -1.133880   -4.511970
  N      4.333260   -1.762600   -4.896490
  O      5.081260   -2.098480   -3.994900
  O      4.538110   -1.926380   -6.081690
  C      2.670390   -0.837200   -3.249120
  C      0.227830    0.435580   -1.356480
  C     -0.863900    0.886390   -0.624000
  C     -0.909940    0.974950    0.780350
  C     -2.111020    1.403810    1.271830
  C     -3.068360    1.668070    0.270600
  S     -2.391660    1.360190   -1.314480
  C     -4.366590    2.112930    0.452580
  C     -5.000320    2.392980    1.691890
  C     -6.291100    2.787900    1.581170
  C     -6.772200    2.849930    0.234120
  S     -5.463180    2.400190   -0.872550
  C     -8.002720    3.187210   -0.185920
  H     -4.761280    7.377220    5.649200
  H     -0.973820    4.199170    4.831760
  H     -3.999910    7.187680    8.342850
  H     -3.599740    4.971250   -0.071060
  H     -9.408840    6.273540    2.681880
  H     -8.637920    6.354100   -2.725620
  H     -5.878000    5.175120   -3.396130
  H     -8.198460    5.840950   -5.299790
  H     -7.527740    5.009170   -7.778740
  H     -5.711440    3.597860   -8.951050
  H     -3.578100    2.297840   -9.446860
  H     -1.416260    0.907200   -9.194450
  H      0.272440    0.119030   -7.364300
  H      3.183140   -1.046010   -2.333200
  H      1.086770    0.113430   -0.782020
  H     -0.058880    0.734790    1.392250
  H     -2.325710    1.513910    2.319700
  H     -4.482850    2.287950    2.628520
  H     -6.925290    3.039510    2.411690
  H     -8.779530    3.421960    0.520040
  H     -8.261680    3.202800   -1.228920

 Total Charge           Charge          ....    0
 Multiplicity           Mult            ....    1
 Number of Electrons    NEL             ....  530
 Basis Dimension        Dim             .... 1085

ORBITAL ENERGIES
----------------

  NO   OCC          E(Eh)            E(eV)
   0   2.0000    -482.884741    -13139.9618
   1   2.0000     -88.974259     -2421.1127
   2   2.0000     -88.974208     -2421.1113
   3   2.0000     -88.964074     -2420.8355
   4   2.0000     -88.962427     -2420.7907
   5   2.0000     -88.960831     -2420.7473
   6   2.0000     -88.951389     -2420.4904
   7   2.0000     -62.562467     -1702.4113
   8   2.0000     -56.396415     -1534.6245
   9   2.0000     -56.393704     -1534.5507
  10   2.0000     -56.393669     -1534.5497
  11   2.0000     -19.320339      -525.7331
  12   2.0000     -19.297767      -525.1189
  13   2.0000     -19.239237      -523.5262
  14   2.0000     -19.237138      -523.4691
  15   2.0000     -19.215773      -522.8878
  16   2.0000     -19.209266      -522.7107
  17   2.0000     -19.208555      -522.6913
  18   2.0000     -14.652084      -398.7035
  19   2.0000     -14.454074      -393.3154
  20   2.0000     -14.416085      -392.2816
  21   2.0000     -14.412948      -392.1963
  22   2.0000     -10.402398      -283.0637
  23   2.0000     -10.396937      -282.9150
  24   2.0000     -10.384273      -282.5704
  25   2.0000     -10.361965      -281.9634
  26   2.0000     -10.359549      -281.8977
  27   2.0000     -10.358489      -281.8688
  28   2.0000     -10.357452      -281.8406
  29   2.0000     -10.354195      -281.7520
  30   2.0000     -10.339733      -281.3584
  31   2.0000     -10.338551      -281.3263
  32   2.0000     -10.336021      -281.2574
  33   2.0000     -10.333544      -281.1900
  34   2.0000     -10.326020      -280.9853
  35   2.0000     -10.324705      -280.9495
  36   2.0000     -10.323823      -280.9255
  37   2.0000     -10.322738      -280.8960
  38   2.0000     -10.322214      -280.8817
  39   2.0000     -10.321262      -280.8558
  40   2.0000     -10.320588      -280.8375
  41   2.0000     -10.316419      -280.7240
  42   2.0000     -10.315865      -280.7089
  43   2.0000     -10.314122      -280.6615
  44   2.0000     -10.313986      -280.6578
  45   2.0000     -10.312729      -280.6236
  46   2.0000     -10.310283      -280.5571
  47   2.0000     -10.309224      -280.5283
  48   2.0000     -10.306743      -280.4607
  49   2.0000     -10.305235      -280.4197
  50   2.0000     -10.304031      -280.3869
  51   2.0000     -10.302072      -280.3336
  52   2.0000     -10.301363      -280.3143
  53   2.0000     -10.300626      -280.2943
  54   2.0000     -10.299694      -280.2689
  55   2.0000     -10.298438      -280.2348
  56   2.0000     -10.297348      -280.2051
  57   2.0000     -10.297054      -280.1971
  58   2.0000     -10.296463      -280.1810
  59   2.0000     -10.296185      -280.1734
  60   2.0000     -10.295090      -280.1436
  61   2.0000     -10.292710      -280.0789
  62   2.0000     -10.292576      -280.0752
  63   2.0000     -10.290070      -280.0070
  64   2.0000     -10.288736      -279.9707
  65   2.0000     -10.288573      -279.9663
  66   2.0000     -10.286181      -279.9012
  67   2.0000     -10.285616      -279.8858
  68   2.0000     -10.280637      -279.7504
  69   2.0000     -10.273001      -279.5426
  70   2.0000     -10.272698      -279.5343
  71   2.0000      -8.791904      -239.2399
  72   2.0000      -8.070224      -219.6020
  73   2.0000      -8.068521      -219.5556
  74   2.0000      -8.059433      -219.3083
  75   2.0000      -8.058524      -219.2836
  76   2.0000      -8.056885      -219.2390
  77   2.0000      -8.047668      -218.9882
  78   2.0000      -6.628192      -180.3623
  79   2.0000      -6.613636      -179.9662
  80   2.0000      -6.613459      -179.9614
  81   2.0000      -6.039940      -164.3551
  82   2.0000      -6.038165      -164.3068
  83   2.0000      -6.035636      -164.2380
  84   2.0000      -6.033961      -164.1924
  85   2.0000      -6.031457      -164.1243
  86   2.0000      -6.029978      -164.0841
  87   2.0000      -6.029092      -164.0599
  88   2.0000      -6.028171      -164.0349
  89   2.0000      -6.026452      -163.9881
  90   2.0000      -6.024867      -163.9450
  91   2.0000      -6.024241      -163.9279
  92   2.0000      -6.022241      -163.8735
  93   2.0000      -6.020780      -163.8338
  94   2.0000      -6.019471      -163.7981
  95   2.0000      -6.018291      -163.7660
  96   2.0000      -6.017167      -163.7354
  97   2.0000      -6.013133      -163.6257
  98   2.0000      -6.009061      -163.5148
  99   2.0000      -2.744060       -74.6697
 100   2.0000      -2.739991       -74.5589
 101   2.0000      -2.739834       -74.5547
 102   2.0000      -2.728274       -74.2401
 103   2.0000      -2.728259       -74.2397
 104   2.0000      -1.322190       -35.9786
 105   2.0000      -1.239243       -33.7215
 106   2.0000      -1.216232       -33.0954
 107   2.0000      -1.157097       -31.4862
 108   2.0000      -1.138260       -30.9736
 109   2.0000      -1.136195       -30.9174
 110   2.0000      -1.124742       -30.6058
 111   2.0000      -1.042480       -28.3673
 112   2.0000      -1.021684       -27.8014
 113   2.0000      -1.014347       -27.6018
 114   2.0000      -1.010475       -27.4964
 115   2.0000      -1.006866       -27.3982
 116   2.0000      -0.999547       -27.1991
 117   2.0000      -0.993959       -27.0470
 118   2.0000      -0.988695       -26.9038
 119   2.0000      -0.984847       -26.7990
 120   2.0000      -0.979600       -26.6563
 121   2.0000      -0.942983       -25.6599
 122   2.0000      -0.940065       -25.5805
 123   2.0000      -0.925899       -25.1950
 124   2.0000      -0.921168       -25.0663
 125   2.0000      -0.913323       -24.8528
 126   2.0000      -0.906936       -24.6790
 127   2.0000      -0.905513       -24.6403
 128   2.0000      -0.900003       -24.4903
 129   2.0000      -0.887063       -24.1382
 130   2.0000      -0.883930       -24.0530
 131   2.0000      -0.880025       -23.9467
 132   2.0000      -0.869439       -23.6586
 133   2.0000      -0.860528       -23.4162
 134   2.0000      -0.854966       -23.2648
 135   2.0000      -0.851414       -23.1681
 136   2.0000      -0.839053       -22.8318
 137   2.0000      -0.834862       -22.7177
 138   2.0000      -0.827595       -22.5200
 139   2.0000      -0.825664       -22.4675
 140   2.0000      -0.816469       -22.2172
 141   2.0000      -0.803779       -21.8719
 142   2.0000      -0.792021       -21.5520
 143   2.0000      -0.779864       -21.2212
 144   2.0000      -0.771128       -20.9835
 145   2.0000      -0.764091       -20.7920
 146   2.0000      -0.758677       -20.6447
 147   2.0000      -0.754752       -20.5378
 148   2.0000      -0.742626       -20.2079
 149   2.0000      -0.730638       -19.8817
 150   2.0000      -0.713706       -19.4209
 151   2.0000      -0.707032       -19.2393
 152   2.0000      -0.699646       -19.0383
 153   2.0000      -0.697125       -18.9697
 154   2.0000      -0.688755       -18.7420
 155   2.0000      -0.686926       -18.6922
 156   2.0000      -0.680897       -18.5282
 157   2.0000      -0.672994       -18.3131
 158   2.0000      -0.664702       -18.0875
 159   2.0000      -0.653992       -17.7960
 160   2.0000      -0.651833       -17.7373
 161   2.0000      -0.648332       -17.6420
 162   2.0000      -0.643073       -17.4989
 163   2.0000      -0.638186       -17.3659
 164   2.0000      -0.632662       -17.2156
 165   2.0000      -0.629798       -17.1377
 166   2.0000      -0.624732       -16.9998
 167   2.0000      -0.623819       -16.9750
 168   2.0000      -0.620436       -16.8829
 169   2.0000      -0.617997       -16.8165
 170   2.0000      -0.614326       -16.7166
 171   2.0000      -0.607855       -16.5406
 172   2.0000      -0.602686       -16.3999
 173   2.0000      -0.601934       -16.3794
 174   2.0000      -0.594516       -16.1776
 175   2.0000      -0.591593       -16.0981
 176   2.0000      -0.589012       -16.0278
 177   2.0000      -0.582476       -15.8500
 178   2.0000      -0.581939       -15.8354
 179   2.0000      -0.579083       -15.7576
 180   2.0000      -0.573388       -15.6027
 181   2.0000      -0.566628       -15.4187
 182   2.0000      -0.564154       -15.3514
 183   2.0000      -0.557837       -15.1795
 184   2.0000      -0.555091       -15.1048
 185   2.0000      -0.548889       -14.9360
 186   2.0000      -0.546254       -14.8643
 187   2.0000      -0.543353       -14.7854
 188   2.0000      -0.538737       -14.6598
 189   2.0000      -0.534369       -14.5409
 190   2.0000      -0.531331       -14.4582
 191   2.0000      -0.528697       -14.3866
 192   2.0000      -0.525704       -14.3051
 193   2.0000      -0.523864       -14.2551
 194   2.0000      -0.520207       -14.1555
 195   2.0000      -0.518686       -14.1142
 196   2.0000      -0.517613       -14.0850
 197   2.0000      -0.514676       -14.0050
 198   2.0000      -0.509704       -13.8698
 199   2.0000      -0.507278       -13.8037
 200   2.0000      -0.506102       -13.7717
 201   2.0000      -0.505588       -13.7578
 202   2.0000      -0.502550       -13.6751
 203   2.0000      -0.500205       -13.6113
 204   2.0000      -0.497820       -13.5464
 205   2.0000      -0.493622       -13.4321
 206   2.0000      -0.491673       -13.3791
 207   2.0000      -0.491581       -13.3766
 208   2.0000      -0.489079       -13.3085
 209   2.0000      -0.488185       -13.2842
 210   2.0000      -0.484230       -13.1766
 211   2.0000      -0.481615       -13.1054
 212   2.0000      -0.479407       -13.0453
 213   2.0000      -0.474343       -12.9075
 214   2.0000      -0.472534       -12.8583
 215   2.0000      -0.471456       -12.8290
 216   2.0000      -0.464580       -12.6419
 217   2.0000      -0.463302       -12.6071
 218   2.0000      -0.461645       -12.5620
 219   2.0000      -0.457075       -12.4376
 220   2.0000      -0.453635       -12.3440
 221   2.0000      -0.450481       -12.2582
 222   2.0000      -0.450121       -12.2484
 223   2.0000      -0.445672       -12.1274
 224   2.0000      -0.443639       -12.0720
 225   2.0000      -0.442512       -12.0414
 226   2.0000      -0.441828       -12.0227
 227   2.0000      -0.438069       -11.9205
 228   2.0000      -0.433184       -11.7875
 229   2.0000      -0.431329       -11.7371
 230   2.0000      -0.425498       -11.5784
 231   2.0000      -0.423119       -11.5136
 232   2.0000      -0.421909       -11.4807
 233   2.0000      -0.417981       -11.3739
 234   2.0000      -0.410520       -11.1708
 235   2.0000      -0.408433       -11.1140
 236   2.0000      -0.407304       -11.0833
 237   2.0000      -0.399791       -10.8789
 238   2.0000      -0.394317       -10.7299
 239   2.0000      -0.389350       -10.5947
 240   2.0000      -0.385610       -10.4930
 241   2.0000      -0.383688       -10.4407
 242   2.0000      -0.380262       -10.3475
 243   2.0000      -0.375334       -10.2134
 244   2.0000      -0.374205       -10.1826
 245   2.0000      -0.371408       -10.1065
 246   2.0000      -0.369881       -10.0650
 247   2.0000      -0.367709       -10.0059
 248   2.0000      -0.360219        -9.8021
 249   2.0000      -0.358177        -9.7465
 250   2.0000      -0.351066        -9.5530
 251   2.0000      -0.349577        -9.5125
 252   2.0000      -0.345074        -9.3899
 253   2.0000      -0.344367        -9.3707
 254   2.0000      -0.335230        -9.1221
 255   2.0000      -0.330664        -8.9978
 256   2.0000      -0.329313        -8.9611
 257   2.0000      -0.323611        -8.8059
 258   2.0000      -0.315592        -8.5877
 259   2.0000      -0.312653        -8.5077
 260   2.0000      -0.296926        -8.0798
 261   2.0000      -0.292355        -7.9554
 262   2.0000      -0.273353        -7.4383
 263   2.0000      -0.233794        -6.3619
 264   2.0000      -0.202676        -5.5151
 265   0.0000      -0.114277        -3.1096
 266   0.0000      -0.095077        -2.5872
 267   0.0000      -0.078417        -2.1338
 268   0.0000      -0.056760        -1.5445
 269   0.0000      -0.049319        -1.3420

MULLIKEN ATOMIC CHARGES
-----------------------
   0 C :    0.298636
   1 C :   -0.377415
   2 C :   -0.198395
   3 N :    0.146398
   4 C :   -0.188996
   5 N :    0.157123
   6 C :    0.019817
   7 C :    0.007166
   8 C :   -0.068210
   9 C :    0.114356
  10 C :   -0.085906
  11 C :   -0.040278
  12 S :    0.179618
  13 C :   -0.124185
  14 C :    0.039410
  15 Br:    0.021743
  16 C :    0.145992
  17 O :   -0.148271
  18 C :   -0.083794
  19 C :   -0.027311
  20 C :    0.130257
  21 O :   -0.219848
  22 C :   -0.011140
  23 C :    0.165702
  24 O :   -0.162117
  25 N :   -0.159822
  26 C :    0.149632
  27 O :   -0.140038
  28 C :   -0.061729
  29 C :    0.125139
  30 C :   -0.077712
  31 C :    0.028146
  32 C :   -0.017292
  33 C :   -0.006862
  34 C :    0.012474
  35 C :    0.036301
  36 C :   -0.061973
  37 S :    0.082387
  38 C :   -0.007231
  39 C :    0.010253
  40 C :    0.046798
  41 C :   -0.053923
  42 S :    0.087569
  43 C :    0.022761
  44 C :   -0.160647
  45 S :    0.096901
  46 C :   -0.048102
  47 C :    0.107361
  48 C :    0.205351
  49 O :   -0.167801
  50 C :    0.220425
  51 N :    0.278982
  52 O :   -0.257260
  53 O :   -0.239624
  54 C :   -0.083940
  55 C :   -0.025484
  56 C :   -0.016981
  57 C :    0.029891
  58 C :    0.034701
  59 C :   -0.054752
  60 S :    0.122224
  61 C :   -0.081183
  62 C :    0.036291
  63 C :    0.069247
  64 C :   -0.122251
  65 S :    0.125466
  66 C :    0.034236
  67 H :   -0.007938
  68 H :   -0.010159
  69 H :   -0.002647
  70 H :    0.023444
  71 H :    0.136111
  72 H :    0.000179
  73 H :    0.022327
  74 H :   -0.015871
  75 H :   -0.013649
  76 H :   -0.011662
  77 H :   -0.013045
  78 H :   -0.006379
  79 H :    0.012564
  80 H :    0.013525
  81 H :   -0.007563
  82 H :    0.001808
  83 H :   -0.000271
  84 H :   -0.004821
  85 H :    0.009070
  86 H :    0.030932
  87 H :    0.035763
Sum of atomic charges:   -0.0000000

LOEWDIN ATOMIC CHARGES
----------------------
   0 C :    0.069193
   1 C :   -0.153889
   2 C :   -0.016972
   3 N :   -0.071975
   4 C :   -0.022439
   5 N :   -0.062617
   6 C :   -0.020739
   7 C :   -0.042678
   8 C :    0.025593
   9 C :   -0.033086
  10 C :   -0.144842
  11 C :   -0.018659
  12 S :    0.427538
  13 C :   -0.272935
  14 C :   -0.069486
  15 Br:    0.135345
  16 C :    0.085573
  17 O :   -0.133599
  18 C :   -0.080864
  19 C :    0.038275
  20 C :    0.039594
  21 O :    0.007270
  22 C :   -0.050570
  23 C :    0.087977
  24 O :   -0.159068
  25 N :   -0.004559
  26 C :    0.081483
  27 O :   -0.160322
  28 C :   -0.109725
  29 C :    0.089650
  30 C :   -0.089416
  31 C :    0.006667
  32 C :   -0.086935
  33 C :   -0.120990
  34 C :   -0.061300
  35 C :   -0.019508
  36 C :   -0.203444
  37 S :    0.404435
  38 C :   -0.151861
  39 C :   -0.056978
  40 C :   -0.015846
  41 C :   -0.182459
  42 S :    0.407138
  43 C :   -0.027825
  44 C :   -0.208808
  45 S :    0.428736
  46 C :   -0.134916
  47 C :   -0.088035
  48 C :    0.040811
  49 O :    0.021711
  50 C :    0.012700
  51 N :    0.271851
  52 O :   -0.217668
  53 O :   -0.201101
  54 C :   -0.001521
  55 C :   -0.083926
  56 C :   -0.126418
  57 C :   -0.036452
  58 C :   -0.021064
  59 C :   -0.194728
  60 S :    0.424528
  61 C :   -0.151694
  62 C :   -0.034240
  63 C :   -0.008928
  64 C :   -0.154282
  65 S :    0.393190
  66 C :   -0.035485
  67 H :    0.042299
  68 H :    0.038604
  69 H :    0.039101
  70 H :    0.047565
  71 H :    0.093090
  72 H :    0.039818
  73 H :    0.022212
  74 H :    0.031915
  75 H :    0.032529
  76 H :    0.032940
  77 H :    0.032529
  78 H :    0.036178
  79 H :    0.050785
  80 H :    0.047329
  81 H :    0.043942
  82 H :    0.039081
  83 H :    0.034435
  84 H :    0.035517
  85 H :    0.038882
  86 H :    0.033041
  87 H :    0.033801

  Mayer bond orders larger than 0.100000
B(  0-C ,  1-C ) :   1.5949 B(  0-C ,  6-C ) :   1.0038 B(  0-C , 18-C ) :   1.1101
B(  1-C ,  2-C ) :   1.1530 B(  1-C ,  4-C ) :   1.1521 B(  2-C ,  3-N ) :   2.9450
B(  4-C ,  5-N ) :   2.9347 B(  6-C ,  7-C ) :   1.2741 B(  6-C , 11-C ) :   1.4045
B(  7-C ,  8-C ) :   1.4342 B(  7-C , 16-C ) :   0.9186 B(  8-C ,  9-C ) :   1.2426
B(  8-C , 67-H ) :   1.0158 B(  9-C , 10-C ) :   1.3090 B(  9-C , 14-C ) :   1.1620
B( 10-C , 11-C ) :   1.3298 B( 10-C , 12-S ) :   1.0827 B( 11-C , 68-H ) :   0.9826
B( 12-S , 13-C ) :   1.0849 B( 13-C , 14-C ) :   1.6196 B( 13-C , 15-Br) :   1.0176
B( 14-C , 69-H ) :   1.0006 B( 16-C , 17-O ) :   2.2381 B( 16-C , 18-C ) :   0.9277
B( 18-C , 19-C ) :   1.5378 B( 19-C , 20-C ) :   1.2440 B( 19-C , 70-H ) :   0.9172
B( 20-C , 21-O ) :   1.1010 B( 20-C , 22-C ) :   1.3639 B( 21-O , 29-C ) :   1.1396
B( 22-C , 23-C ) :   0.8760 B( 22-C , 28-C ) :   1.3586 B( 23-C , 24-O ) :   2.1798
B( 23-C , 25-N ) :   1.1075 B( 25-N , 26-C ) :   1.0508 B( 25-N , 71-H ) :   0.9163
B( 26-C , 27-O ) :   2.2736 B( 26-C , 28-C ) :   0.9006 B( 28-C , 29-C ) :   1.2179
B( 29-C , 30-C ) :   1.3328 B( 30-C , 31-C ) :   1.4008 B( 30-C , 72-H ) :   0.9740
B( 31-C , 32-C ) :   1.3161 B( 31-C , 73-H ) :   0.9680 B( 32-C , 33-C ) :   1.3646
B( 32-C , 74-H ) :   0.9893 B( 33-C , 34-C ) :   1.2617 B( 33-C , 37-S ) :   1.0906
B( 34-C , 35-C ) :   1.4475 B( 34-C , 75-H ) :   1.0000 B( 35-C , 36-C ) :   1.3151
B( 35-C , 76-H ) :   0.9951 B( 36-C , 37-S ) :   1.0621 B( 36-C , 38-C ) :   1.3349
B( 38-C , 39-C ) :   1.2930 B( 38-C , 42-S ) :   1.1041 B( 39-C , 40-C ) :   1.4649
B( 39-C , 77-H ) :   0.9960 B( 40-C , 41-C ) :   1.2515 B( 40-C , 78-H ) :   1.0003
B( 41-C , 42-S ) :   1.0520 B( 41-C , 43-C ) :   1.3810 B( 43-C , 44-C ) :   1.3636
B( 43-C , 79-H ) :   0.9750 B( 44-C , 45-S ) :   1.0296 B( 44-C , 48-C ) :   1.2934
B( 45-S , 46-C ) :   1.0949 B( 46-C , 47-C ) :   1.1939 B( 46-C , 55-C ) :   1.3938
B( 47-C , 48-C ) :   1.3157 B( 47-C , 54-C ) :   1.1390 B( 48-C , 49-O ) :   1.1733
B( 49-O , 50-C ) :   1.1130 B( 50-C , 51-N ) :   0.9337 B( 50-C , 54-C ) :   1.5255
B( 51-N , 52-O ) :   1.5220 B( 51-N , 53-O ) :   1.5024 B( 52-O , 53-O ) :   0.2723
B( 54-C , 80-H ) :   1.0227 B( 55-C , 56-C ) :   1.3881 B( 55-C , 81-H ) :   0.9658
B( 56-C , 57-C ) :   1.2204 B( 56-C , 60-S ) :   1.0961 B( 57-C , 58-C ) :   1.5070
B( 57-C , 82-H ) :   1.0026 B( 58-C , 59-C ) :   1.2231 B( 58-C , 83-H ) :   0.9860
B( 59-C , 60-S ) :   1.0651 B( 59-C , 61-C ) :   1.4570 B( 61-C , 62-C ) :   1.1858
B( 61-C , 65-S ) :   1.0941 B( 62-C , 63-C ) :   1.6133 B( 62-C , 84-H ) :   0.9954
B( 63-C , 64-C ) :   1.0862 B( 63-C , 85-H ) :   0.9869 B( 64-C , 65-S ) :   1.0041
B( 64-C , 66-C ) :   1.8478 B( 66-C , 86-H ) :   0.9389 B( 66-C , 87-H ) :   0.9308

-----------------------------------------------------------------------------
         ABSORPTION SPECTRUM VIA TRANSITION ELECTRIC DIPOLE MOMENTS
-----------------------------------------------------------------------------
State   Energy  Wavelength   fosc         T2         TX        TY        TZ
        (cm-1)    (nm)                  (au**2)     (au)      (au)      (au)
-----------------------------------------------------------------------------
   0    4843.9   2064.5   0.053050450   3.60554   0.44629  -1.82792  -0.25511
   1    8918.9   1121.2   0.036287081   1.33942  -0.49780   0.61043  -0.84793
   2   10955.4    912.8   0.282907746   8.50141  -0.82625   0.06401  -2.79547
   3   13924.7    718.1   0.658616210  15.57118   1.18251  -1.18461  -3.57345
   4   16520.0    605.3   0.985503636  19.63917   3.53380  -2.10605  -1.64803
   5   17964.3    556.7   0.002894539   0.05305   0.10820   0.10537  -0.17388
   6   19532.1    512.0   0.446785974   7.53052  -2.50501   0.62519   0.92983
   7   19882.2    503.0   0.297927762   4.93312  -0.75549   0.42825  -2.04425
   8   21165.1    472.5   0.278229029   4.32771   1.89692  -0.72725  -0.44777
   9   22798.1    438.6   0.720384219  10.40258   2.96234  -1.21852   0.37725
  10   23320.0    428.8   0.169809118   2.39722  -0.60864  -0.14619  -1.41612
  11   24120.9    414.6   0.348949465   4.76261   0.95230  -0.22520   1.95065
  12   24615.3    406.3   0.302702517   4.04843   1.03597  -0.14188   1.71903
  13   24844.6    402.5   0.062306895   0.82562   0.58976  -0.45225  -0.52275
  14   25987.9    384.8   0.079145074   1.00260   0.08118  -0.01698  -0.99786
  15   26707.0    374.4   0.263938008   3.25351  -1.13324   0.31438  -1.36764
  16   27164.5    368.1   0.055741511   0.67554  -0.39299   0.46654   0.55086
  17   27847.0    359.1   0.003199568   0.03783  -0.16791  -0.03551  -0.09149
  18   27979.9    357.4   0.021213093   0.24959   0.38051   0.05139   0.31963
  19   28169.5    355.0   0.013902745   0.16248  -0.22035   0.23798  -0.23935
  20   28251.7    354.0   0.000934730   0.01089  -0.01729  -0.05401   0.08761
  21   28692.3    348.5   0.004619682   0.05301   0.08071   0.01547   0.21506
  22   28804.5    347.2   0.088668698   1.01341  -0.51885   0.32187   0.80038
  23   29229.6    342.1   0.040573098   0.45697  -0.12993   0.35856   0.55814
  24   30151.5    331.7   0.028132157   0.30716  -0.49047   0.25459  -0.04225
  25   30266.1    330.4   0.030759845   0.33458   0.23617  -0.42417  -0.31446
  26   30766.6    325.0   0.055362104   0.59239  -0.29896  -0.33118  -0.62716
  27   31020.0    322.4   0.120154609   1.27519   0.15347  -0.16878  -1.10596
  28   31713.1    315.3   0.001678395   0.01742  -0.11556  -0.01955  -0.06071
  29   31861.4    313.9   0.004138459   0.04276  -0.13048  -0.15425   0.04408
  30   31985.8    312.6   0.162550522   1.67304  -0.32752  -0.26100  -1.22378
  31   32279.3    309.8   0.031986845   0.32623   0.45125  -0.33832  -0.09023
  32   32571.6    307.0   0.035486109   0.35867  -0.49758   0.25185  -0.21830
  33   32586.5    306.9   0.006899223   0.06970  -0.06361  -0.16996  -0.19175
  34   32965.0    303.4   0.007929129   0.07919  -0.10311   0.11228  -0.23653
  35   33228.6    300.9   0.027543042   0.27288   0.15144   0.19284   0.46126
  36   33580.7    297.8   0.242940071   2.38169  -0.83318   0.52580   1.18787
  37   33901.8    295.0   0.048474258   0.47072   0.15768   0.19342   0.63910
  38   34189.3    292.5   0.021332221   0.20541  -0.43734   0.08356  -0.08461
  39   34311.4    291.4   0.027775993   0.26651  -0.44891   0.03029   0.25311
  40   34491.7    289.9   0.017697359   0.16892   0.36360   0.00398   0.19156
  41   34696.9    288.2   0.008608832   0.08168  -0.20105   0.01560   0.20253
  42   34740.5    287.8   0.014330421   0.13580  -0.22323   0.16971   0.23909
  43   34894.1    286.6   0.060730741   0.57297   0.36530  -0.21588  -0.62684
  44   35065.1    285.2   0.000597109   0.00561  -0.04384   0.05140   0.03228
  45   35414.3    282.4   0.123873867   1.15153  -0.26488   0.40400   0.95820
  46   35524.2    281.5   0.029383751   0.27231   0.42563  -0.17257  -0.24771
  47   35815.7    279.2   0.027509462   0.25286   0.25657  -0.42573   0.07611
  48   36155.7    276.6   0.037485640   0.34132   0.57492  -0.10361  -0.00719
  49   36640.4    272.9   0.007822098   0.07028  -0.14579   0.19903  -0.09701
  50   36805.3    271.7   0.017425939   0.15587  -0.28925   0.15182   0.22171
  51   37151.9    269.2   0.002283739   0.02024  -0.01398   0.02949  -0.13846
  52   37578.3    266.1   0.025042213   0.21939   0.20859  -0.16702   0.38469
  53   37700.9    265.2   0.004056447   0.03542   0.05791   0.04653   0.17292
  54   37842.8    264.3   0.056911905   0.49510   0.57147  -0.29907  -0.28121
  55   38176.1    261.9   0.005060638   0.04364   0.18822   0.06491  -0.06325
  56   38303.6    261.1   0.058352058   0.50152  -0.61387   0.30684  -0.17474
  57   38458.8    260.0   0.013052634   0.11173   0.09629  -0.06831  -0.31272
  58   38587.0    259.2   0.086368135   0.73687   0.73102  -0.43560   0.11284
  59   38694.9    258.4   0.043112738   0.36680   0.44858  -0.35039   0.20688
  60   38847.9    257.4   0.009511790   0.08061  -0.01817  -0.08933  -0.26888
  61   38905.0    257.0   0.020728184   0.17540  -0.34798   0.22503   0.06062
  62   39378.9    253.9   0.043093493   0.36027  -0.45927   0.35902   0.14296
  63   39637.7    252.3   0.023661049   0.19652   0.27739   0.00634   0.34574
  64   39873.6    250.8   0.005963987   0.04924  -0.16805   0.01669   0.14395
  65   40302.6    248.1   0.018973104   0.15498   0.21063  -0.15765  -0.29285

FINAL SINGLE POINT ENERGY     -7584.318925825030

DIPOLE MOMENT
-------------
                                X             Y             Z
Electronic contribution:     31.00602      23.65593     123.21507
Nuclear contribution   :    -33.38474     -23.90983    -122.84900
                        -----------------------------------------
Total Dipole Moment    :     -2.37872      -0.25390       0.36607
                        -----------------------------------------
Magnitude (a.u.)       :      2.42008
Magnitude (Debye)      :      6.15135

Rotational constants in cm-1:     0.001157     0.000518     0.000375
Rotational constants in MHz :    34.696784    15.539250    11.232641

                             ****ORCA TERMINATED NORMALLY****
TOTAL RUN TIME: 0 days 0 hours 11 minutes 18 seconds 824 msec
