                         Program Version 4.2.0 -  RELEASE  -
|  1> # ORCA input file
|  2> # SCF done       -183.674282824249          0.000384937073
|  3> ! CAM-B3LYP def2-SVP def2/J RIJCOSX Grid4 TightSCF
|  4> %maxcore 5000
|  5> %tddft
|  6>     Mode sTDDFT
|  7>     Ethresh 5.0
|  8>     maxcore 5000
|  9> end
| 10>
| 11> %pal
| 12>   nprocs 6
| 13>   end
| 14> * xyz 0 1
| 15>    C       -6.21685        -3.10707        -5.18762
| 16>    C       -6.08657        -3.23865        -6.54832
| 17>    C       -6.61661        -4.31065        -7.29531
| 18>    N       -7.02662        -5.15145        -7.96128
| 19>    C       -5.42006        -2.32709        -7.39183
| 20>    N       -4.89619        -1.63064        -8.14057
| 21>    C       -6.88465        -4.05328        -4.30258
| 22>    C       -6.81961        -3.56573        -2.97362
| 23>    C       -7.35899        -4.24221        -1.90736
| 24>    C       -7.98403        -5.46762        -2.16110
| 25>    C       -8.04537        -5.94784        -3.49149
| 26>    C       -7.50717        -5.25912        -4.57118
| 27>    S       -8.86520        -7.47714        -3.58115
| 28>    C       -9.10891        -7.45225        -1.85468
| 29>    C       -8.60398        -6.35596        -1.24054
| 30>   Br      -10.00914        -8.87362        -1.02738
| 31>    C       -6.11673        -2.27077        -2.95849
| 32>    O       -6.04684        -1.49540        -2.03325
| 33>    C       -5.67351        -2.04447        -4.36577
| 34>    C       -4.98052        -0.94938        -4.78510
| 35>    C       -4.24510        -0.10020        -3.92068
| 36>    O       -3.96521         1.17362        -4.32113
| 37>    C       -3.60603        -0.32334        -2.71558
| 38>    C       -3.26114        -1.35024        -1.72036
| 39>    O       -3.50257        -2.52749        -1.67711
| 40>    N       -2.47912        -0.65897        -0.80031
| 41>    C       -2.22647         0.67722        -1.11009
| 42>    O       -1.55818         1.42790        -0.44945
| 43>    C       -2.94184         0.87584        -2.37338
| 44>    C       -3.19196         1.78300        -3.38797
| 45>    C       -2.75249         3.12526        -3.55520
| 46>    C       -3.03938         3.85743        -4.65188
| 47>    C       -2.63372         5.23198        -4.82207
| 48>    C       -2.63440         6.07818        -3.74721
| 49>    S       -2.22863         7.70072        -4.11003
| 50>    C       -1.98147         7.26473        -5.77420
| 51>    C       -2.23522         5.91010        -6.03671
| 52>    C       -2.01788         5.42064        -7.34681
| 53>    C       -2.28834         3.96620        -7.62975
| 54>    C       -3.75174         3.73554        -8.01930
| 55>    C       -1.57817         6.27309        -8.35269
| 56>    C       -1.37285         5.75587        -9.75260
| 57>    C        0.05203         5.22964        -9.95143
| 58>    C       -1.31129         7.63601        -8.07644
| 59>    C       -0.86130         8.71520        -8.93347
| 60>    C       -0.82684         9.90640        -8.26018
| 61>    S       -1.26743         9.81858        -6.60639
| 62>    C       -1.55207         8.11483        -6.77842
| 63>    C       -0.41468         8.65205       -10.30278
| 64>    C       -0.52469         9.67704       -11.18390
| 65>    C       -0.01054         9.62524       -12.49643
| 66>    C       -0.08928        10.64906       -13.40073
| 67>    C        0.41413        10.65635       -14.72742
| 68>    C        0.20852        11.82000       -15.39925
| 69>    C       -0.46945        12.80814       -14.64592
| 70>    S       -0.84347        12.20026       -13.04752
| 71>    C       -0.81115        14.08367       -15.04173
| 72>    C       -0.56583        14.69769       -16.29331
| 73>    C       -1.01684        15.97585       -16.37693
| 74>    C       -1.64818        16.45570       -15.19624
| 75>    S       -1.64442        15.19624       -13.97232
| 76>    C       -2.17487        17.70563       -15.03145
| 77>    C       -2.80931        18.23927       -13.88911
| 78>    C       -3.31843        19.51582       -13.76853
| 79>    C       -3.89811        19.77007       -12.51154
| 80>    S       -4.60347        21.34025       -12.15635
| 81>    C       -5.22152        21.10586       -10.46726
| 82>    C       -3.83230        18.69173       -11.67385
| 83>    S       -3.05834        17.34405       -12.41068
| 84>    H       -7.29058        -3.84244        -0.90816
| 85>    H       -7.58303        -5.66645        -5.56550
| 86>    H       -8.66510        -6.17904        -0.18225
| 87>    H       -4.94524        -0.68357        -5.83294
| 88>    H       -2.09674        -1.10300         0.02253
| 89>    H       -2.13723         3.50822        -2.75500
| 90>    H       -3.64478         3.40207        -5.42007
| 91>    H       -2.91897         5.82830        -2.74363
| 92>    H       -2.04032         3.38360        -6.74157
| 93>    H       -1.64773         3.60203        -8.43025
| 94>    H       -4.42669         4.16824        -7.28401
| 95>    H       -3.95753         2.67078        -8.10393
| 96>    H       -3.97146         4.20383        -8.97615
| 97>    H       -1.57754         6.56072       -10.45891
| 98>    H       -2.08078         4.95867        -9.97257
| 99>    H        0.78864         5.97593        -9.66192
|100>    H        0.21396         4.96018       -10.99308
|101>    H        0.22640         4.34798        -9.33909
|102>    H       -0.50320        10.85046        -8.65250
|103>    H        0.09386         7.75947       -10.62996
|104>    H       -1.04432        10.58303       -10.90107
|105>    H        0.48962         8.71906       -12.81361
|106>    H        0.91366         9.79610       -15.13735
|107>    H        0.52483        11.99865       -16.41123
|108>    H       -0.06481        14.17954       -17.09118
|109>    H       -0.92047        16.60142       -17.24681
|110>    H       -2.10115        18.38079       -15.87470
|111>    H       -3.27858        20.24822       -14.55382
|112>    H       -5.68715        22.04529       -10.18649
|113>    H       -4.39359        20.88760        -9.79917
|114>    H       -5.95775        20.30756       -10.45389
|115>    H       -4.18660        18.59317       -10.66842
|116> *
|117>
|118>                          ****END OF INPUT****

CARTESIAN COORDINATES (ANGSTROEM)
---------------------------------
  C     -6.216850   -3.107070   -5.187620
  C     -6.086570   -3.238650   -6.548320
  C     -6.616610   -4.310650   -7.295310
  N     -7.026620   -5.151450   -7.961280
  C     -5.420060   -2.327090   -7.391830
  N     -4.896190   -1.630640   -8.140570
  C     -6.884650   -4.053280   -4.302580
  C     -6.819610   -3.565730   -2.973620
  C     -7.358990   -4.242210   -1.907360
  C     -7.984030   -5.467620   -2.161100
  C     -8.045370   -5.947840   -3.491490
  C     -7.507170   -5.259120   -4.571180
  S     -8.865200   -7.477140   -3.581150
  C     -9.108910   -7.452250   -1.854680
  C     -8.603980   -6.355960   -1.240540
  Br   -10.009140   -8.873620   -1.027380
  C     -6.116730   -2.270770   -2.958490
  O     -6.046840   -1.495400   -2.033250
  C     -5.673510   -2.044470   -4.365770
  C     -4.980520   -0.949380   -4.785100
  C     -4.245100   -0.100200   -3.920680
  O     -3.965210    1.173620   -4.321130
  C     -3.606030   -0.323340   -2.715580
  C     -3.261140   -1.350240   -1.720360
  O     -3.502570   -2.527490   -1.677110
  N     -2.479120   -0.658970   -0.800310
  C     -2.226470    0.677220   -1.110090
  O     -1.558180    1.427900   -0.449450
  C     -2.941840    0.875840   -2.373380
  C     -3.191960    1.783000   -3.387970
  C     -2.752490    3.125260   -3.555200
  C     -3.039380    3.857430   -4.651880
  C     -2.633720    5.231980   -4.822070
  C     -2.634400    6.078180   -3.747210
  S     -2.228630    7.700720   -4.110030
  C     -1.981470    7.264730   -5.774200
  C     -2.235220    5.910100   -6.036710
  C     -2.017880    5.420640   -7.346810
  C     -2.288340    3.966200   -7.629750
  C     -3.751740    3.735540   -8.019300
  C     -1.578170    6.273090   -8.352690
  C     -1.372850    5.755870   -9.752600
  C      0.052030    5.229640   -9.951430
  C     -1.311290    7.636010   -8.076440
  C     -0.861300    8.715200   -8.933470
  C     -0.826840    9.906400   -8.260180
  S     -1.267430    9.818580   -6.606390
  C     -1.552070    8.114830   -6.778420
  C     -0.414680    8.652050  -10.302780
  C     -0.524690    9.677040  -11.183900
  C     -0.010540    9.625240  -12.496430
  C     -0.089280   10.649060  -13.400730
  C      0.414130   10.656350  -14.727420
  C      0.208520   11.820000  -15.399250
  C     -0.469450   12.808140  -14.645920
  S     -0.843470   12.200260  -13.047520
  C     -0.811150   14.083670  -15.041730
  C     -0.565830   14.697690  -16.293310
  C     -1.016840   15.975850  -16.376930
  C     -1.648180   16.455700  -15.196240
  S     -1.644420   15.196240  -13.972320
  C     -2.174870   17.705630  -15.031450
  C     -2.809310   18.239270  -13.889110
  C     -3.318430   19.515820  -13.768530
  C     -3.898110   19.770070  -12.511540
  S     -4.603470   21.340250  -12.156350
  C     -5.221520   21.105860  -10.467260
  C     -3.832300   18.691730  -11.673850
  S     -3.058340   17.344050  -12.410680
  H     -7.290580   -3.842440   -0.908160
  H     -7.583030   -5.666450   -5.565500
  H     -8.665100   -6.179040   -0.182250
  H     -4.945240   -0.683570   -5.832940
  H     -2.096740   -1.103000    0.022530
  H     -2.137230    3.508220   -2.755000
  H     -3.644780    3.402070   -5.420070
  H     -2.918970    5.828300   -2.743630
  H     -2.040320    3.383600   -6.741570
  H     -1.647730    3.602030   -8.430250
  H     -4.426690    4.168240   -7.284010
  H     -3.957530    2.670780   -8.103930
  H     -3.971460    4.203830   -8.976150
  H     -1.577540    6.560720  -10.458910
  H     -2.080780    4.958670   -9.972570
  H      0.788640    5.975930   -9.661920
  H      0.213960    4.960180  -10.993080
  H      0.226400    4.347980   -9.339090
  H     -0.503200   10.850460   -8.652500
  H      0.093860    7.759470  -10.629960
  H     -1.044320   10.583030  -10.901070
  H      0.489620    8.719060  -12.813610
  H      0.913660    9.796100  -15.137350
  H      0.524830   11.998650  -16.411230
  H     -0.064810   14.179540  -17.091180
  H     -0.920470   16.601420  -17.246810
  H     -2.101150   18.380790  -15.874700
  H     -3.278580   20.248220  -14.553820
  H     -5.687150   22.045290  -10.186490
  H     -4.393590   20.887600   -9.799170
  H     -5.957750   20.307560  -10.453890
  H     -4.186600   18.593170  -10.668420

 Total Charge           Charge          ....    0
 Multiplicity           Mult            ....    1
 Number of Electrons    NEL             ....  556
 Basis Dimension        Dim             .... 1172

ORBITAL ENERGIES
----------------

  NO   OCC          E(Eh)            E(eV)
   0   2.0000    -482.886443    -13140.0081
   1   2.0000     -88.976417     -2421.1714
   2   2.0000     -88.958718     -2420.6898
   3   2.0000     -88.951958     -2420.5058
   4   2.0000     -88.944492     -2420.3027
   5   2.0000     -88.939145     -2420.1572
   6   2.0000     -88.937907     -2420.1235
   7   2.0000     -88.916550     -2419.5423
   8   2.0000     -62.564183     -1702.4580
   9   2.0000     -56.398135     -1534.6713
  10   2.0000     -56.395412     -1534.5972
  11   2.0000     -56.395383     -1534.5964
  12   2.0000     -19.318323      -525.6783
  13   2.0000     -19.217161      -522.9255
  14   2.0000     -19.215654      -522.8845
  15   2.0000     -19.213328      -522.8212
  16   2.0000     -14.457179      -393.3999
  17   2.0000     -14.420666      -392.4063
  18   2.0000     -14.418163      -392.3382
  19   2.0000     -10.403722      -283.0997
  20   2.0000     -10.402772      -283.0738
  21   2.0000     -10.372031      -282.2373
  22   2.0000     -10.369697      -282.1738
  23   2.0000     -10.364598      -282.0351
  24   2.0000     -10.360172      -281.9146
  25   2.0000     -10.346468      -281.5417
  26   2.0000     -10.345607      -281.5183
  27   2.0000     -10.326939      -281.0103
  28   2.0000     -10.325982      -280.9843
  29   2.0000     -10.323221      -280.9091
  30   2.0000     -10.320841      -280.8444
  31   2.0000     -10.310341      -280.5586
  32   2.0000     -10.308991      -280.5219
  33   2.0000     -10.308206      -280.5006
  34   2.0000     -10.307148      -280.4717
  35   2.0000     -10.305077      -280.4154
  36   2.0000     -10.304288      -280.3939
  37   2.0000     -10.303859      -280.3823
  38   2.0000     -10.303443      -280.3709
  39   2.0000     -10.302388      -280.3422
  40   2.0000     -10.301577      -280.3202
  41   2.0000     -10.301502      -280.3181
  42   2.0000     -10.301344      -280.3138
  43   2.0000     -10.301117      -280.3077
  44   2.0000     -10.299181      -280.2550
  45   2.0000     -10.297489      -280.2089
  46   2.0000     -10.294935      -280.1394
  47   2.0000     -10.294378      -280.1243
  48   2.0000     -10.293672      -280.1050
  49   2.0000     -10.293390      -280.0974
  50   2.0000     -10.292597      -280.0758
  51   2.0000     -10.290585      -280.0211
  52   2.0000     -10.289005      -279.9780
  53   2.0000     -10.288819      -279.9730
  54   2.0000     -10.283459      -279.8272
  55   2.0000     -10.282868      -279.8111
  56   2.0000     -10.281298      -279.7684
  57   2.0000     -10.281226      -279.7664
  58   2.0000     -10.280494      -279.7465
  59   2.0000     -10.280149      -279.7371
  60   2.0000     -10.279960      -279.7319
  61   2.0000     -10.279379      -279.7161
  62   2.0000     -10.278891      -279.7028
  63   2.0000     -10.276337      -279.6333
  64   2.0000     -10.275915      -279.6219
  65   2.0000     -10.274903      -279.5943
  66   2.0000     -10.273778      -279.5637
  67   2.0000     -10.271553      -279.5032
  68   2.0000     -10.267003      -279.3794
  69   2.0000     -10.264897      -279.3220
  70   2.0000     -10.264835      -279.3204
  71   2.0000     -10.259159      -279.1659
  72   2.0000     -10.258805      -279.1563
  73   2.0000      -8.793633      -239.2869
  74   2.0000      -8.072455      -219.6627
  75   2.0000      -8.054866      -219.1840
  76   2.0000      -8.048236      -219.0036
  77   2.0000      -8.039997      -218.7794
  78   2.0000      -8.035080      -218.6456
  79   2.0000      -8.034224      -218.6224
  80   2.0000      -8.012188      -218.0227
  81   2.0000      -6.629951      -180.4101
  82   2.0000      -6.615365      -180.0132
  83   2.0000      -6.615144      -180.0072
  84   2.0000      -6.042144      -164.4151
  85   2.0000      -6.037874      -164.2989
  86   2.0000      -6.033656      -164.1841
  87   2.0000      -6.024324      -163.9302
  88   2.0000      -6.020058      -163.8141
  89   2.0000      -6.017708      -163.7502
  90   2.0000      -6.016665      -163.7218
  91   2.0000      -6.013486      -163.6353
  92   2.0000      -6.009940      -163.5388
  93   2.0000      -6.009375      -163.5234
  94   2.0000      -6.005111      -163.4074
  95   2.0000      -6.004900      -163.4016
  96   2.0000      -6.003946      -163.3757
  97   2.0000      -6.002069      -163.3246
  98   2.0000      -6.000817      -163.2905
  99   2.0000      -6.000069      -163.2702
 100   2.0000      -5.995903      -163.1568
 101   2.0000      -5.995022      -163.1328
 102   2.0000      -5.982736      -162.7985
 103   2.0000      -5.978630      -162.6868
 104   2.0000      -5.971656      -162.4970
 105   2.0000      -2.745827       -74.7178
 106   2.0000      -2.741727       -74.6062
 107   2.0000      -2.741562       -74.6017
 108   2.0000      -2.729976       -74.2864
 109   2.0000      -2.729965       -74.2861
 110   2.0000      -1.234150       -33.5829
 111   2.0000      -1.159214       -31.5438
 112   2.0000      -1.139711       -31.0131
 113   2.0000      -1.132012       -30.8036
 114   2.0000      -1.046170       -28.4677
 115   2.0000      -1.025162       -27.8961
 116   2.0000      -1.016013       -27.6471
 117   2.0000      -1.005117       -27.3506
 118   2.0000      -0.997679       -27.1482
 119   2.0000      -0.992449       -27.0059
 120   2.0000      -0.989714       -26.9315
 121   2.0000      -0.976989       -26.5852
 122   2.0000      -0.975089       -26.5335
 123   2.0000      -0.964437       -26.2437
 124   2.0000      -0.948789       -25.8179
 125   2.0000      -0.934018       -25.4159
 126   2.0000      -0.929755       -25.2999
 127   2.0000      -0.927877       -25.2488
 128   2.0000      -0.910707       -24.7816
 129   2.0000      -0.909387       -24.7457
 130   2.0000      -0.904007       -24.5993
 131   2.0000      -0.894291       -24.3349
 132   2.0000      -0.887228       -24.1427
 133   2.0000      -0.880761       -23.9667
 134   2.0000      -0.876042       -23.8383
 135   2.0000      -0.867169       -23.5969
 136   2.0000      -0.862595       -23.4724
 137   2.0000      -0.851248       -23.1636
 138   2.0000      -0.846222       -23.0269
 139   2.0000      -0.841138       -22.8885
 140   2.0000      -0.830763       -22.6062
 141   2.0000      -0.825307       -22.4577
 142   2.0000      -0.820395       -22.3241
 143   2.0000      -0.817402       -22.2426
 144   2.0000      -0.812076       -22.0977
 145   2.0000      -0.802912       -21.8484
 146   2.0000      -0.791221       -21.5302
 147   2.0000      -0.783929       -21.3318
 148   2.0000      -0.779667       -21.2158
 149   2.0000      -0.769832       -20.9482
 150   2.0000      -0.764290       -20.7974
 151   2.0000      -0.758950       -20.6521
 152   2.0000      -0.754480       -20.5305
 153   2.0000      -0.728060       -19.8115
 154   2.0000      -0.724389       -19.7116
 155   2.0000      -0.722796       -19.6683
 156   2.0000      -0.717200       -19.5160
 157   2.0000      -0.705614       -19.2007
 158   2.0000      -0.704724       -19.1765
 159   2.0000      -0.695777       -18.9330
 160   2.0000      -0.692343       -18.8396
 161   2.0000      -0.690784       -18.7972
 162   2.0000      -0.686641       -18.6845
 163   2.0000      -0.675490       -18.3810
 164   2.0000      -0.661993       -18.0138
 165   2.0000      -0.658709       -17.9244
 166   2.0000      -0.650158       -17.6917
 167   2.0000      -0.647852       -17.6289
 168   2.0000      -0.633298       -17.2329
 169   2.0000      -0.631020       -17.1709
 170   2.0000      -0.625141       -17.0110
 171   2.0000      -0.623649       -16.9704
 172   2.0000      -0.619156       -16.8481
 173   2.0000      -0.615300       -16.7432
 174   2.0000      -0.613572       -16.6962
 175   2.0000      -0.609570       -16.5872
 176   2.0000      -0.608295       -16.5525
 177   2.0000      -0.599217       -16.3055
 178   2.0000      -0.595866       -16.2143
 179   2.0000      -0.589891       -16.0518
 180   2.0000      -0.588539       -16.0150
 181   2.0000      -0.584334       -15.9005
 182   2.0000      -0.581862       -15.8333
 183   2.0000      -0.576321       -15.6825
 184   2.0000      -0.566988       -15.4285
 185   2.0000      -0.565684       -15.3931
 186   2.0000      -0.555546       -15.1172
 187   2.0000      -0.552981       -15.0474
 188   2.0000      -0.549147       -14.9431
 189   2.0000      -0.546467       -14.8701
 190   2.0000      -0.543705       -14.7950
 191   2.0000      -0.539602       -14.6833
 192   2.0000      -0.537502       -14.6262
 193   2.0000      -0.534438       -14.5428
 194   2.0000      -0.529486       -14.4080
 195   2.0000      -0.527423       -14.3519
 196   2.0000      -0.526064       -14.3149
 197   2.0000      -0.525234       -14.2923
 198   2.0000      -0.519803       -14.1446
 199   2.0000      -0.517228       -14.0745
 200   2.0000      -0.513525       -13.9737
 201   2.0000      -0.513017       -13.9599
 202   2.0000      -0.510357       -13.8875
 203   2.0000      -0.509848       -13.8737
 204   2.0000      -0.508966       -13.8497
 205   2.0000      -0.508451       -13.8356
 206   2.0000      -0.502131       -13.6637
 207   2.0000      -0.496688       -13.5156
 208   2.0000      -0.495852       -13.4928
 209   2.0000      -0.495095       -13.4722
 210   2.0000      -0.493153       -13.4194
 211   2.0000      -0.492396       -13.3988
 212   2.0000      -0.487332       -13.2610
 213   2.0000      -0.484908       -13.1950
 214   2.0000      -0.483143       -13.1470
 215   2.0000      -0.482174       -13.1206
 216   2.0000      -0.480354       -13.0711
 217   2.0000      -0.478767       -13.0279
 218   2.0000      -0.478010       -13.0073
 219   2.0000      -0.474035       -12.8991
 220   2.0000      -0.472885       -12.8679
 221   2.0000      -0.469587       -12.7781
 222   2.0000      -0.466396       -12.6913
 223   2.0000      -0.460469       -12.5300
 224   2.0000      -0.459747       -12.5103
 225   2.0000      -0.458021       -12.4634
 226   2.0000      -0.454520       -12.3681
 227   2.0000      -0.453602       -12.3431
 228   2.0000      -0.452781       -12.3208
 229   2.0000      -0.451143       -12.2762
 230   2.0000      -0.447749       -12.1839
 231   2.0000      -0.447191       -12.1687
 232   2.0000      -0.446517       -12.1503
 233   2.0000      -0.444419       -12.0933
 234   2.0000      -0.440829       -11.9956
 235   2.0000      -0.437949       -11.9172
 236   2.0000      -0.436826       -11.8866
 237   2.0000      -0.432835       -11.7780
 238   2.0000      -0.431280       -11.7357
 239   2.0000      -0.430453       -11.7132
 240   2.0000      -0.428066       -11.6483
 241   2.0000      -0.424557       -11.5528
 242   2.0000      -0.422735       -11.5032
 243   2.0000      -0.420940       -11.4544
 244   2.0000      -0.416640       -11.3374
 245   2.0000      -0.413128       -11.2418
 246   2.0000      -0.411742       -11.2041
 247   2.0000      -0.408594       -11.1184
 248   2.0000      -0.407454       -11.0874
 249   2.0000      -0.401127       -10.9152
 250   2.0000      -0.392065       -10.6686
 251   2.0000      -0.390847       -10.6355
 252   2.0000      -0.389409       -10.5964
 253   2.0000      -0.386335       -10.5127
 254   2.0000      -0.381764       -10.3883
 255   2.0000      -0.375809       -10.2263
 256   2.0000      -0.375309       -10.2127
 257   2.0000      -0.374666       -10.1952
 258   2.0000      -0.373711       -10.1692
 259   2.0000      -0.372678       -10.1411
 260   2.0000      -0.362819        -9.8728
 261   2.0000      -0.357697        -9.7334
 262   2.0000      -0.348957        -9.4956
 263   2.0000      -0.348438        -9.4815
 264   2.0000      -0.340658        -9.2698
 265   2.0000      -0.339229        -9.2309
 266   2.0000      -0.330983        -9.0065
 267   2.0000      -0.327771        -8.9191
 268   2.0000      -0.320223        -8.7137
 269   2.0000      -0.317385        -8.6365
 270   2.0000      -0.316000        -8.5988
 271   2.0000      -0.295943        -8.0530
 272   2.0000      -0.289904        -7.8887
 273   2.0000      -0.285715        -7.7747
 274   2.0000      -0.264904        -7.2084
 275   2.0000      -0.260708        -7.0942
 276   2.0000      -0.254811        -6.9338
 277   2.0000      -0.204646        -5.5687
 278   0.0000      -0.102572        -2.7911
 279   0.0000      -0.069752        -1.8981
 280   0.0000      -0.063881        -1.7383
 281   0.0000      -0.048448        -1.3183
 282   0.0000      -0.017478        -0.4756

MULLIKEN ATOMIC CHARGES
-----------------------
   0 C :    0.309249
   1 C :   -0.348264
   2 C :   -0.182691
   3 N :    0.150883
   4 C :   -0.189127
   5 N :    0.153774
   6 C :    0.022770
   7 C :   -0.008542
   8 C :   -0.065029
   9 C :    0.118364
  10 C :   -0.087185
  11 C :   -0.025890
  12 S :    0.187222
  13 C :   -0.122531
  14 C :    0.038393
  15 Br:    0.026198
  16 C :    0.155055
  17 O :   -0.145358
  18 C :   -0.074266
  19 C :   -0.035720
  20 C :    0.118837
  21 O :   -0.203229
  22 C :   -0.017355
  23 C :    0.183910
  24 O :   -0.143493
  25 N :   -0.163230
  26 C :    0.168628
  27 O :   -0.139257
  28 C :   -0.049681
  29 C :    0.096720
  30 C :   -0.045108
  31 C :    0.001293
  32 C :    0.067066
  33 C :   -0.108988
  34 S :    0.143069
  35 C :   -0.148584
  36 C :    0.123933
  37 C :   -0.120430
  38 C :    0.013295
  39 C :    0.037885
  40 C :   -0.118633
  41 C :    0.016643
  42 C :    0.040453
  43 C :    0.113997
  44 C :    0.087249
  45 C :   -0.120598
  46 S :    0.130523
  47 C :   -0.150262
  48 C :   -0.034708
  49 C :    0.001286
  50 C :   -0.022989
  51 C :   -0.014219
  52 C :    0.036663
  53 C :    0.025274
  54 C :   -0.048272
  55 S :    0.066408
  56 C :   -0.040138
  57 C :    0.028461
  58 C :    0.034849
  59 C :   -0.034315
  60 S :    0.065031
  61 C :    0.005749
  62 C :   -0.079775
  63 C :   -0.000397
  64 C :    0.032514
  65 S :   -0.029811
  66 C :   -0.089090
  67 C :   -0.142001
  68 S :    0.104379
  69 H :   -0.008713
  70 H :   -0.006206
  71 H :   -0.001586
  72 H :    0.031070
  73 H :    0.140160
  74 H :    0.014189
  75 H :    0.019791
  76 H :    0.027485
  77 H :    0.010304
  78 H :    0.001950
  79 H :    0.015259
  80 H :    0.028825
  81 H :    0.010194
  82 H :    0.015162
  83 H :    0.000249
  84 H :    0.018988
  85 H :    0.017046
  86 H :    0.008640
  87 H :    0.023970
  88 H :   -0.011559
  89 H :   -0.001599
  90 H :   -0.019870
  91 H :   -0.015312
  92 H :   -0.015429
  93 H :   -0.016350
  94 H :   -0.014025
  95 H :   -0.014756
  96 H :   -0.018752
  97 H :    0.060405
  98 H :    0.064287
  99 H :    0.064968
 100 H :    0.014357
Sum of atomic charges:   -0.0000000

LOEWDIN ATOMIC CHARGES
----------------------
   0 C :    0.075266
   1 C :   -0.136994
   2 C :   -0.018131
   3 N :   -0.050297
   4 C :   -0.019312
   5 N :   -0.051658
   6 C :   -0.019900
   7 C :   -0.044261
   8 C :    0.026697
   9 C :   -0.030192
  10 C :   -0.142611
  11 C :   -0.009557
  12 S :    0.433244
  13 C :   -0.270332
  14 C :   -0.069807
  15 Br:    0.138746
  16 C :    0.088383
  17 O :   -0.132130
  18 C :   -0.070268
  19 C :    0.046108
  20 C :    0.044959
  21 O :    0.019859
  22 C :   -0.050438
  23 C :    0.089795
  24 O :   -0.148858
  25 N :   -0.001162
  26 C :    0.086336
  27 O :   -0.156647
  28 C :   -0.104750
  29 C :    0.089022
  30 C :   -0.053731
  31 C :    0.027791
  32 C :   -0.068717
  33 C :   -0.156041
  34 S :    0.428534
  35 C :   -0.177090
  36 C :   -0.041978
  37 C :   -0.020865
  38 C :   -0.032408
  39 C :   -0.051009
  40 C :   -0.016734
  41 C :   -0.032660
  42 C :   -0.051319
  43 C :   -0.039241
  44 C :   -0.062018
  45 C :   -0.164521
  46 S :    0.417240
  47 C :   -0.177895
  48 C :   -0.021739
  49 C :   -0.030622
  50 C :   -0.057866
  51 C :   -0.145662
  52 C :   -0.034026
  53 C :   -0.032396
  54 C :   -0.177782
  55 S :    0.360794
  56 C :   -0.180106
  57 C :   -0.037050
  58 C :   -0.032286
  59 C :   -0.152705
  60 S :    0.362126
  61 C :   -0.070108
  62 C :   -0.168046
  63 C :   -0.076743
  64 C :   -0.194277
  65 S :    0.276821
  66 C :   -0.154842
  67 C :   -0.234712
  68 S :    0.424621
  69 H :    0.042375
  70 H :    0.041082
  71 H :    0.039521
  72 H :    0.051204
  73 H :    0.095961
  74 H :    0.044747
  75 H :    0.036440
  76 H :    0.026145
  77 H :    0.028364
  78 H :    0.027567
  79 H :    0.021278
  80 H :    0.029054
  81 H :    0.025740
  82 H :    0.030439
  83 H :    0.026709
  84 H :    0.022698
  85 H :    0.025108
  86 H :    0.024220
  87 H :    0.023921
  88 H :    0.028978
  89 H :    0.021520
  90 H :    0.031074
  91 H :    0.032538
  92 H :    0.031142
  93 H :    0.030726
  94 H :    0.032568
  95 H :    0.039110
  96 H :    0.027300
  97 H :    0.032978
  98 H :    0.024871
  99 H :    0.025368
 100 H :    0.017413

  Mayer bond orders larger than 0.100000
B(  0-C ,  1-C ) :   1.6309 B(  0-C ,  6-C ) :   1.0112 B(  0-C , 18-C ) :   1.0802
B(  1-C ,  2-C ) :   1.1420 B(  1-C ,  4-C ) :   1.1456 B(  2-C ,  3-N ) :   2.9676
B(  4-C ,  5-N ) :   2.9718 B(  6-C ,  7-C ) :   1.2739 B(  6-C , 11-C ) :   1.4002
B(  7-C ,  8-C ) :   1.4244 B(  7-C , 16-C ) :   0.9374 B(  8-C ,  9-C ) :   1.2467
B(  8-C , 69-H ) :   1.0165 B(  9-C , 10-C ) :   1.3031 B(  9-C , 14-C ) :   1.1623
B( 10-C , 11-C ) :   1.3355 B( 10-C , 12-S ) :   1.0856 B( 11-C , 70-H ) :   0.9802
B( 12-S , 13-C ) :   1.0861 B( 13-C , 14-C ) :   1.6173 B( 13-C , 15-Br) :   1.0210
B( 14-C , 71-H ) :   1.0010 B( 16-C , 17-O ) :   2.2290 B( 16-C , 18-C ) :   0.9240
B( 18-C , 19-C ) :   1.6083 B( 19-C , 20-C ) :   1.1604 B( 19-C , 72-H ) :   0.9334
B( 20-C , 21-O ) :   1.1157 B( 20-C , 22-C ) :   1.4412 B( 21-O , 29-C ) :   1.1736
B( 22-C , 23-C ) :   0.8655 B( 22-C , 28-C ) :   1.3097 B( 23-C , 24-O ) :   2.2343
B( 23-C , 25-N ) :   1.0918 B( 25-N , 26-C ) :   1.0731 B( 25-N , 73-H ) :   0.9149
B( 26-C , 27-O ) :   2.2719 B( 26-C , 28-C ) :   0.8804 B( 28-C , 29-C ) :   1.3617
B( 29-C , 30-C ) :   1.1675 B( 30-C , 31-C ) :   1.6859 B( 30-C , 74-H ) :   0.9638
B( 31-C , 32-C ) :   1.0105 B( 31-C , 75-H ) :   0.9613 B( 32-C , 33-C ) :   1.5914
B( 32-C , 36-C ) :   1.1437 B( 33-C , 34-S ) :   1.1369 B( 33-C , 76-H ) :   0.9640
B( 34-S , 35-C ) :   1.0730 B( 35-C , 36-C ) :   1.3732 B( 35-C , 47-C ) :   1.3819
B( 36-C , 37-C ) :   1.2668 B( 37-C , 38-C ) :   1.0581 B( 37-C , 40-C ) :   1.5166
B( 38-C , 39-C ) :   1.1122 B( 38-C , 77-H ) :   0.9209 B( 38-C , 78-H ) :   0.9088
B( 39-C , 79-H ) :   0.9584 B( 39-C , 80-H ) :   0.9661 B( 39-C , 81-H ) :   0.9559
B( 40-C , 41-C ) :   1.0589 B( 40-C , 43-C ) :   1.2665 B( 41-C , 42-C ) :   1.1105
B( 41-C , 82-H ) :   0.9212 B( 41-C , 83-H ) :   0.9105 B( 42-C , 84-H ) :   0.9579
B( 42-C , 85-H ) :   0.9668 B( 42-C , 86-H ) :   0.9564 B( 43-C , 44-C ) :   1.1394
B( 43-C , 47-C ) :   1.3708 B( 44-C , 45-C ) :   1.5988 B( 44-C , 48-C ) :   1.0179
B( 45-C , 46-S ) :   1.1183 B( 45-C , 87-H ) :   0.9607 B( 46-S , 47-C ) :   1.0791
B( 48-C , 49-C ) :   1.7021 B( 48-C , 88-H ) :   0.9667 B( 49-C , 50-C ) :   1.1261
B( 49-C , 89-H ) :   0.9749 B( 50-C , 51-C ) :   1.5879 B( 50-C , 90-H ) :   0.9824
B( 51-C , 52-C ) :   1.1325 B( 51-C , 55-S ) :   1.0241 B( 52-C , 53-C ) :   1.6017
B( 52-C , 91-H ) :   0.9987 B( 53-C , 54-C ) :   1.1797 B( 53-C , 92-H ) :   0.9930
B( 54-C , 55-S ) :   1.0405 B( 54-C , 56-C ) :   1.5312 B( 56-C , 57-C ) :   1.1747
B( 56-C , 60-S ) :   1.0361 B( 57-C , 58-C ) :   1.6085 B( 57-C , 93-H ) :   0.9920
B( 58-C , 59-C ) :   1.1303 B( 58-C , 94-H ) :   0.9989 B( 59-C , 60-S ) :   1.0283
B( 59-C , 61-C ) :   1.5959 B( 61-C , 62-C ) :   1.1687 B( 61-C , 95-H ) :   0.9679
B( 62-C , 63-C ) :   1.4868 B( 62-C , 68-S ) :   1.1227 B( 63-C , 64-C ) :   1.2601
B( 63-C , 96-H ) :   1.0012 B( 64-C , 65-S ) :   0.9884 B( 64-C , 67-C ) :   1.5461
B( 65-S , 66-C ) :   1.0246 B( 66-C , 97-H ) :   0.9730 B( 66-C , 98-H ) :   0.9665
B( 66-C , 99-H ) :   0.9664 B( 67-C , 68-S ) :   1.1293 B( 67-C ,100-H ) :   0.9721

-----------------------------------------------------------------------------
         ABSORPTION SPECTRUM VIA TRANSITION ELECTRIC DIPOLE MOMENTS
-----------------------------------------------------------------------------
State   Energy  Wavelength   fosc         T2         TX        TY        TZ
        (cm-1)    (nm)                  (au**2)     (au)      (au)      (au)
-----------------------------------------------------------------------------
   0   15738.4    635.4   0.037165416   0.77742   0.13212  -0.79463   0.35851
   1   16124.0    620.2   1.482161335  30.26212   0.98916  -5.07283   1.88416
   2   19206.7    520.7   0.674558662  11.56224  -1.87085  -2.77480  -0.60222
   3   24525.9    407.7   0.013859712   0.18604   0.05990   0.16565  -0.39371
   4   24784.6    403.5   0.045434433   0.60350   0.12804   0.38010  -0.66531
   5   25072.3    398.8   0.047723466   0.62663  -0.03371  -0.41111   0.67564
   6   25289.1    395.4   0.065388750   0.85123   0.20890   0.60902  -0.66082
   7   25580.3    390.9   0.068336018   0.87947   0.53857   0.52778  -0.55754
   8   26248.3    381.0   0.002799455   0.03511  -0.05710  -0.17304   0.04369
   9   27131.1    368.6   0.369690444   4.48587   0.44985   0.20844  -2.05914
  10   27168.6    368.1   0.007005241   0.08489  -0.28794  -0.03556  -0.02663
  11   28184.9    354.8   0.028214834   0.32956  -0.03075  -0.08501  -0.56691
  12   28622.2    349.4   0.101084357   1.16267  -0.88465  -0.52955  -0.31565
  13   29075.1    343.9   0.652074150   7.38332  -1.30542  -0.25132   2.36981
  14   29242.3    342.0   0.008169494   0.09197   0.17381   0.15884   0.19113
  15   29671.5    337.0   0.787499617   8.73747   0.25887   2.94275  -0.10342
  16   30500.9    327.9   0.012339486   0.13319   0.05108   0.21839  -0.28790
  17   31156.9    321.0   0.016884376   0.17840   0.12717  -0.33689  -0.22077
  18   31491.6    317.5   0.006675692   0.06979   0.03924  -0.16419   0.20320
  19   32280.0    309.8   0.000598256   0.00610   0.04122   0.06188   0.02396
  20   32381.0    308.8   0.001716188   0.01745  -0.10720  -0.04958   0.05913
  21   32436.5    308.3   0.550686197   5.58915  -1.01026  -1.18284   1.78028
  22   32855.3    304.4   0.057621982   0.57738  -0.32234  -0.20722   0.65615
  23   33317.7    300.1   0.040705666   0.40221  -0.25234  -0.36439   0.45360
  24   33646.8    297.2   0.001151820   0.01127   0.02655   0.07974  -0.06486
  25   34972.9    285.9   0.074305565   0.69946  -0.19512  -0.32230   0.74667
  26   35113.9    284.8   0.032981317   0.30922   0.26955  -0.44013   0.20699
  27   35265.8    283.6   0.001524271   0.01423  -0.09989   0.00866  -0.06462
  28   35533.3    281.4   0.068451180   0.63419  -0.38967  -0.14468   0.67928
  29   35748.8    279.7   0.080472412   0.74107  -0.23713  -0.81555   0.14045
  30   36354.5    275.1   0.031195238   0.28249   0.43995  -0.09572   0.28243
  31   36415.5    274.6   0.069497435   0.62829   0.18106  -0.62874  -0.44743
  32   36952.3    270.6   0.276911948   2.46704   0.45311   0.65683   1.35289
  33   37151.6    269.2   0.176023274   1.55980   0.29524   0.62731  -1.03881
  34   37741.7    265.0   0.010104853   0.08814   0.05135   0.11144  -0.27035
  35   37991.4    263.2   0.044260698   0.38354  -0.28048  -0.04822   0.55004
  36   38099.0    262.5   0.038885247   0.33601  -0.02170  -0.22477  -0.53387
  37   38258.9    261.4   0.025964778   0.22342  -0.05278   0.14845   0.44565
  38   38738.8    258.1   0.047762780   0.40590   0.06232   0.31897   0.54797
  39   38787.8    257.8   0.013273517   0.11266   0.05023  -0.06227   0.32597
  40   38879.5    257.2   0.020003347   0.16938  -0.01023  -0.01151   0.41127
  41   39113.7    255.7   0.049542007   0.41699  -0.09319  -0.48843  -0.41199
  42   39666.8    252.1   0.035087866   0.29121  -0.27784  -0.46214   0.02113
  43   40023.4    249.9   0.013949940   0.11475   0.14641  -0.03625  -0.30331
  44   40321.4    248.0   0.010424635   0.08511   0.00866  -0.24159   0.16331

FINAL SINGLE POINT ENERGY     -7899.342000726072

DIPOLE MOMENT
-------------
                                X             Y             Z
Electronic contribution:    -93.98088    -214.93026     115.48734
Nuclear contribution   :     94.09985     215.38626    -114.94348
                        -----------------------------------------
Total Dipole Moment    :      0.11897       0.45600       0.54385
                        -----------------------------------------
Magnitude (a.u.)       :      0.71963
Magnitude (Debye)      :      1.82915

Rotational constants in cm-1:     0.001580     0.000146     0.000144
Rotational constants in MHz :    47.362676     4.372341     4.314282

                             ****ORCA TERMINATED NORMALLY****
TOTAL RUN TIME: 0 days 0 hours 10 minutes 7 seconds 707 msec
