                         Program Version 4.2.0 -  RELEASE  -
|  1> # ORCA input file
|  2> # SCF done       -189.983524898447          0.000881326904
|  3> ! CAM-B3LYP def2-SVP def2/J RIJCOSX Grid4 TightSCF
|  4> %maxcore 5000
|  5> %tddft
|  6>     Mode sTDDFT
|  7>     Ethresh 5.0
|  8>     maxcore 5000
|  9> end
| 10>
| 11> %pal
| 12>   nprocs 6
| 13>   end
| 14> * xyz 0 1
| 15>    C       -5.23967         1.84913        -5.38045
| 16>    C       -4.48663         0.70870        -5.27847
| 17>    C       -3.78958         0.12280        -6.35700
| 18>    N       -3.20231        -0.40283        -7.19129
| 19>    C       -4.30378        -0.05700        -4.10737
| 20>    N       -4.10788        -0.73609        -3.20202
| 21>    C       -5.44763         2.61595        -6.60405
| 22>    C       -6.33610         3.68529        -6.32856
| 23>    C       -6.72786         4.59282        -7.28264
| 24>    C       -6.21552         4.44022        -8.57498
| 25>    C       -5.32788         3.36998        -8.84302
| 26>    C       -4.93409         2.45174        -7.87735
| 27>    S       -4.81190         3.36829       -10.50144
| 28>    C       -5.78088         4.78495       -10.80888
| 29>    C       -6.45756         5.23779        -9.72620
| 30>   Br       -5.80590         5.53305       -12.52784
| 31>    C       -6.72479         3.63714        -4.91032
| 32>    O       -7.48933         4.39533        -4.34332
| 33>    C       -5.99597         2.50137        -4.32397
| 34>    C       -5.99188         2.15921        -3.00037
| 35>    C       -6.68544         2.72865        -1.91384
| 36>    S       -7.84976         4.02716        -1.94898
| 37>    C       -8.07431         3.94051        -0.23558
| 38>    C       -7.26942         2.93987         0.33677
| 39>    C       -6.50554         2.26633        -0.61288
| 40>    C       -7.22818         2.59322         1.69932
| 41>    N       -7.16849         2.27208         2.79913
| 42>    C       -8.98483         4.83407         0.38200
| 43>    C       -9.13019         4.99890         1.72153
| 44>    C      -10.06865         5.89383         2.29037
| 45>    O      -10.09604         6.04092         3.64139
| 46>    C      -11.05403         6.70311         1.74814
| 47>    C      -11.68129         7.14119         0.49655
| 48>    O      -11.44462         6.84995        -0.64810
| 49>    N      -12.66918         8.02427         0.91558
| 50>    C      -12.75472         8.21396         2.29729
| 51>    O      -13.54213         8.93774         2.84811
| 52>    C      -11.69873         7.34963         2.82656
| 53>    C      -11.07601         6.92013         3.99121
| 54>    C      -11.29699         7.25378         5.34247
| 55>    C      -10.50104         6.78678         6.35151
| 56>    C      -10.67567         7.08809         7.70649
| 57>    C       -9.81782         6.65951         8.69433
| 58>    C       -9.92362         6.89623        10.08604
| 59>    C       -8.90923         6.36009        10.82173
| 60>    C       -7.94315         5.67902        10.04732
| 61>    S       -8.37244         5.72446         8.35772
| 62>    C       -6.78551         5.05478        10.48343
| 63>    C       -6.30855         4.93315        11.80661
| 64>    C       -5.12120         4.26910        11.90079
| 65>    C       -4.59954         3.84118        10.65776
| 66>    S       -5.68195         4.29231         9.36348
| 67>    C       -3.42093         3.15153        10.45313
| 68>    C       -2.94966         2.80259         9.19037
| 69>    C       -1.83230         2.06824         8.86359
| 70>    C       -0.96185         1.22566         9.63815
| 71>    C       -1.27091         0.55194        10.79728
| 72>    C       -0.37162        -0.29003        11.48048
| 73>    N        0.32430        -0.96786        12.09329
| 74>    C       -2.54711         0.52533        11.39306
| 75>    N       -3.57322         0.42216        11.89930
| 76>    C        0.25967         1.02482         8.85752
| 77>    C        0.06391         1.56421         7.56158
| 78>    C       -1.27372         2.18806         7.49539
| 79>    O       -1.79228         2.72795         6.54295
| 80>    C        1.02031         1.49415         6.57920
| 81>    C        2.23335         0.87069         6.89244
| 82>    C        2.42484         0.34852         8.19287
| 83>    C        1.45339         0.41300         9.18563
| 84>    S        3.99793        -0.36848         8.36828
| 85>    C        4.36976         0.03347         6.71266
| 86>    C        3.37021         0.67333         6.06124
| 87>   Br        6.04364        -0.42711         6.00225
| 88>    H       -7.40642         5.39504        -7.03867
| 89>    H       -4.25391         1.65689        -8.13317
| 90>    H       -7.10041         6.09889        -9.73733
| 91>    H       -5.35635         1.33252        -2.70646
| 92>    H       -5.83454         1.46028        -0.36980
| 93>    H       -9.58932         5.42955        -0.29098
| 94>    H       -8.52304         4.45130         2.42701
| 95>    H      -13.28124         8.49729         0.26598
| 96>    H      -12.12487         7.91868         5.53839
| 97>    H       -9.67002         6.14444         6.08748
| 98>    H      -11.52312         7.69243         8.00099
| 99>    H      -10.74606         7.45330        10.49854
|100>    H       -8.82872         6.44073        11.89061
|101>    H       -6.84635         5.33322        12.64707
|102>    H       -4.60449         4.06912        12.82229
|103>    H       -2.84074         2.91248        11.33219
|104>    H       -3.47146         3.22469         8.33546
|105>    H        0.83926         1.90580         5.59874
|106>    H        1.64876         0.00381        10.16286
|107>    H        3.42944         0.99374         5.03711
|108> *
|109>
|110>                          ****END OF INPUT****

CARTESIAN COORDINATES (ANGSTROEM)
---------------------------------
  C     -5.239670    1.849130   -5.380450
  C     -4.486630    0.708700   -5.278470
  C     -3.789580    0.122800   -6.357000
  N     -3.202310   -0.402830   -7.191290
  C     -4.303780   -0.057000   -4.107370
  N     -4.107880   -0.736090   -3.202020
  C     -5.447630    2.615950   -6.604050
  C     -6.336100    3.685290   -6.328560
  C     -6.727860    4.592820   -7.282640
  C     -6.215520    4.440220   -8.574980
  C     -5.327880    3.369980   -8.843020
  C     -4.934090    2.451740   -7.877350
  S     -4.811900    3.368290  -10.501440
  C     -5.780880    4.784950  -10.808880
  C     -6.457560    5.237790   -9.726200
  Br    -5.805900    5.533050  -12.527840
  C     -6.724790    3.637140   -4.910320
  O     -7.489330    4.395330   -4.343320
  C     -5.995970    2.501370   -4.323970
  C     -5.991880    2.159210   -3.000370
  C     -6.685440    2.728650   -1.913840
  S     -7.849760    4.027160   -1.948980
  C     -8.074310    3.940510   -0.235580
  C     -7.269420    2.939870    0.336770
  C     -6.505540    2.266330   -0.612880
  C     -7.228180    2.593220    1.699320
  N     -7.168490    2.272080    2.799130
  C     -8.984830    4.834070    0.382000
  C     -9.130190    4.998900    1.721530
  C    -10.068650    5.893830    2.290370
  O    -10.096040    6.040920    3.641390
  C    -11.054030    6.703110    1.748140
  C    -11.681290    7.141190    0.496550
  O    -11.444620    6.849950   -0.648100
  N    -12.669180    8.024270    0.915580
  C    -12.754720    8.213960    2.297290
  O    -13.542130    8.937740    2.848110
  C    -11.698730    7.349630    2.826560
  C    -11.076010    6.920130    3.991210
  C    -11.296990    7.253780    5.342470
  C    -10.501040    6.786780    6.351510
  C    -10.675670    7.088090    7.706490
  C     -9.817820    6.659510    8.694330
  C     -9.923620    6.896230   10.086040
  C     -8.909230    6.360090   10.821730
  C     -7.943150    5.679020   10.047320
  S     -8.372440    5.724460    8.357720
  C     -6.785510    5.054780   10.483430
  C     -6.308550    4.933150   11.806610
  C     -5.121200    4.269100   11.900790
  C     -4.599540    3.841180   10.657760
  S     -5.681950    4.292310    9.363480
  C     -3.420930    3.151530   10.453130
  C     -2.949660    2.802590    9.190370
  C     -1.832300    2.068240    8.863590
  C     -0.961850    1.225660    9.638150
  C     -1.270910    0.551940   10.797280
  C     -0.371620   -0.290030   11.480480
  N      0.324300   -0.967860   12.093290
  C     -2.547110    0.525330   11.393060
  N     -3.573220    0.422160   11.899300
  C      0.259670    1.024820    8.857520
  C      0.063910    1.564210    7.561580
  C     -1.273720    2.188060    7.495390
  O     -1.792280    2.727950    6.542950
  C      1.020310    1.494150    6.579200
  C      2.233350    0.870690    6.892440
  C      2.424840    0.348520    8.192870
  C      1.453390    0.413000    9.185630
  S      3.997930   -0.368480    8.368280
  C      4.369760    0.033470    6.712660
  C      3.370210    0.673330    6.061240
  Br     6.043640   -0.427110    6.002250
  H     -7.406420    5.395040   -7.038670
  H     -4.253910    1.656890   -8.133170
  H     -7.100410    6.098890   -9.737330
  H     -5.356350    1.332520   -2.706460
  H     -5.834540    1.460280   -0.369800
  H     -9.589320    5.429550   -0.290980
  H     -8.523040    4.451300    2.427010
  H    -13.281240    8.497290    0.265980
  H    -12.124870    7.918680    5.538390
  H     -9.670020    6.144440    6.087480
  H    -11.523120    7.692430    8.000990
  H    -10.746060    7.453300   10.498540
  H     -8.828720    6.440730   11.890610
  H     -6.846350    5.333220   12.647070
  H     -4.604490    4.069120   12.822290
  H     -2.840740    2.912480   11.332190
  H     -3.471460    3.224690    8.335460
  H      0.839260    1.905800    5.598740
  H      1.648760    0.003810   10.162860
  H      3.429440    0.993740    5.037110

 Total Charge           Charge          ....    0
 Multiplicity           Mult            ....    1
 Number of Electrons    NEL             ....  582
 Basis Dimension        Dim             .... 1178

ORBITAL ENERGIES
----------------

  NO   OCC          E(Eh)            E(eV)
   0   2.0000    -482.889867    -13140.1013
   1   2.0000    -482.878606    -13139.7949
   2   2.0000     -88.982758     -2421.3439
   3   2.0000     -88.980975     -2421.2954
   4   2.0000     -88.967596     -2420.9314
   5   2.0000     -88.967073     -2420.9171
   6   2.0000     -88.964503     -2420.8472
   7   2.0000     -62.567609     -1702.5512
   8   2.0000     -62.556304     -1702.2436
   9   2.0000     -56.401566     -1534.7646
  10   2.0000     -56.398836     -1534.6903
  11   2.0000     -56.398805     -1534.6895
  12   2.0000     -56.390246     -1534.4566
  13   2.0000     -56.387547     -1534.3832
  14   2.0000     -56.387511     -1534.3822
  15   2.0000     -19.319008      -525.6969
  16   2.0000     -19.231038      -523.3031
  17   2.0000     -19.221763      -523.0508
  18   2.0000     -19.217352      -522.9307
  19   2.0000     -19.201505      -522.4995
  20   2.0000     -14.461908      -393.5285
  21   2.0000     -14.423617      -392.4866
  22   2.0000     -14.420619      -392.4050
  23   2.0000     -14.414913      -392.2497
  24   2.0000     -14.404705      -391.9719
  25   2.0000     -14.402841      -391.9212
  26   2.0000     -10.409402      -283.2542
  27   2.0000     -10.406734      -283.1816
  28   2.0000     -10.378847      -282.4228
  29   2.0000     -10.371555      -282.2244
  30   2.0000     -10.370404      -282.1930
  31   2.0000     -10.364212      -282.0245
  32   2.0000     -10.352038      -281.6933
  33   2.0000     -10.350496      -281.6513
  34   2.0000     -10.349710      -281.6299
  35   2.0000     -10.349054      -281.6121
  36   2.0000     -10.338508      -281.3251
  37   2.0000     -10.335739      -281.2498
  38   2.0000     -10.333034      -281.1762
  39   2.0000     -10.331828      -281.1433
  40   2.0000     -10.331773      -281.1418
  41   2.0000     -10.331538      -281.1354
  42   2.0000     -10.330398      -281.1044
  43   2.0000     -10.330243      -281.1002
  44   2.0000     -10.329797      -281.0881
  45   2.0000     -10.329580      -281.0822
  46   2.0000     -10.326080      -280.9869
  47   2.0000     -10.324473      -280.9432
  48   2.0000     -10.323386      -280.9136
  49   2.0000     -10.316161      -280.7170
  50   2.0000     -10.315605      -280.7019
  51   2.0000     -10.315147      -280.6894
  52   2.0000     -10.314711      -280.6775
  53   2.0000     -10.313853      -280.6542
  54   2.0000     -10.311882      -280.6006
  55   2.0000     -10.310648      -280.5670
  56   2.0000     -10.309527      -280.5365
  57   2.0000     -10.309161      -280.5265
  58   2.0000     -10.309047      -280.5234
  59   2.0000     -10.308191      -280.5001
  60   2.0000     -10.308116      -280.4981
  61   2.0000     -10.307800      -280.4895
  62   2.0000     -10.307693      -280.4866
  63   2.0000     -10.306199      -280.4459
  64   2.0000     -10.304623      -280.4031
  65   2.0000     -10.304445      -280.3982
  66   2.0000     -10.303887      -280.3830
  67   2.0000     -10.303605      -280.3753
  68   2.0000     -10.301914      -280.3293
  69   2.0000     -10.300923      -280.3024
  70   2.0000     -10.299732      -280.2700
  71   2.0000     -10.299579      -280.2658
  72   2.0000     -10.299143      -280.2539
  73   2.0000     -10.298241      -280.2294
  74   2.0000     -10.297744      -280.2159
  75   2.0000     -10.295297      -280.1493
  76   2.0000     -10.291122      -280.0357
  77   2.0000     -10.288551      -279.9657
  78   2.0000     -10.287930      -279.9488
  79   2.0000     -10.282487      -279.8007
  80   2.0000     -10.281652      -279.7780
  81   2.0000      -8.797063      -239.3803
  82   2.0000      -8.785725      -239.0717
  83   2.0000      -8.077013      -219.7867
  84   2.0000      -8.075993      -219.7589
  85   2.0000      -8.064093      -219.4351
  86   2.0000      -8.063080      -219.4076
  87   2.0000      -8.060904      -219.3483
  88   2.0000      -6.633418      -180.5045
  89   2.0000      -6.621969      -180.1929
  90   2.0000      -6.618778      -180.1061
  91   2.0000      -6.618561      -180.1002
  92   2.0000      -6.607479      -179.7987
  93   2.0000      -6.607301      -179.7938
  94   2.0000      -6.046682      -164.5386
  95   2.0000      -6.045313      -164.5013
  96   2.0000      -6.042417      -164.4225
  97   2.0000      -6.040702      -164.3758
  98   2.0000      -6.038477      -164.3153
  99   2.0000      -6.038234      -164.3087
 100   2.0000      -6.033736      -164.1863
 101   2.0000      -6.032776      -164.1602
 102   2.0000      -6.030521      -164.0988
 103   2.0000      -6.029730      -164.0773
 104   2.0000      -6.028507      -164.0440
 105   2.0000      -6.026483      -163.9889
 106   2.0000      -6.025045      -163.9498
 107   2.0000      -6.024293      -163.9294
 108   2.0000      -6.021967      -163.8661
 109   2.0000      -2.749223       -74.8102
 110   2.0000      -2.745201       -74.7007
 111   2.0000      -2.745036       -74.6962
 112   2.0000      -2.737871       -74.5012
 113   2.0000      -2.733760       -74.3894
 114   2.0000      -2.733649       -74.3864
 115   2.0000      -2.733399       -74.3796
 116   2.0000      -2.733364       -74.3786
 117   2.0000      -2.722111       -74.0724
 118   2.0000      -2.722107       -74.0723
 119   2.0000      -1.235367       -33.6160
 120   2.0000      -1.163699       -31.6659
 121   2.0000      -1.146807       -31.2062
 122   2.0000      -1.143086       -31.1050
 123   2.0000      -1.116208       -30.3736
 124   2.0000      -1.050713       -28.5914
 125   2.0000      -1.029800       -28.0223
 126   2.0000      -1.021093       -27.7853
 127   2.0000      -1.019252       -27.7353
 128   2.0000      -1.018049       -27.7025
 129   2.0000      -1.012737       -27.5580
 130   2.0000      -1.002815       -27.2880
 131   2.0000      -1.000823       -27.2338
 132   2.0000      -0.997439       -27.1417
 133   2.0000      -0.995469       -27.0881
 134   2.0000      -0.993577       -27.0366
 135   2.0000      -0.982602       -26.7380
 136   2.0000      -0.978472       -26.6256
 137   2.0000      -0.951222       -25.8841
 138   2.0000      -0.946836       -25.7647
 139   2.0000      -0.935691       -25.4615
 140   2.0000      -0.933855       -25.4115
 141   2.0000      -0.926610       -25.2143
 142   2.0000      -0.916437       -24.9375
 143   2.0000      -0.914890       -24.8954
 144   2.0000      -0.908458       -24.7204
 145   2.0000      -0.898470       -24.4486
 146   2.0000      -0.892915       -24.2975
 147   2.0000      -0.892204       -24.2781
 148   2.0000      -0.880753       -23.9665
 149   2.0000      -0.877240       -23.8709
 150   2.0000      -0.876166       -23.8417
 151   2.0000      -0.868357       -23.6292
 152   2.0000      -0.867202       -23.5978
 153   2.0000      -0.849856       -23.1258
 154   2.0000      -0.843242       -22.9458
 155   2.0000      -0.836648       -22.7663
 156   2.0000      -0.833829       -22.6896
 157   2.0000      -0.820634       -22.3306
 158   2.0000      -0.818047       -22.2602
 159   2.0000      -0.798493       -21.7281
 160   2.0000      -0.784322       -21.3425
 161   2.0000      -0.776530       -21.1305
 162   2.0000      -0.772383       -21.0176
 163   2.0000      -0.767864       -20.8946
 164   2.0000      -0.764626       -20.8065
 165   2.0000      -0.752628       -20.4800
 166   2.0000      -0.743165       -20.2225
 167   2.0000      -0.728899       -19.8344
 168   2.0000      -0.721251       -19.6263
 169   2.0000      -0.714283       -19.4366
 170   2.0000      -0.708398       -19.2765
 171   2.0000      -0.699227       -19.0269
 172   2.0000      -0.692306       -18.8386
 173   2.0000      -0.691302       -18.8113
 174   2.0000      -0.687869       -18.7179
 175   2.0000      -0.682657       -18.5760
 176   2.0000      -0.678081       -18.4515
 177   2.0000      -0.666332       -18.1318
 178   2.0000      -0.663710       -18.0605
 179   2.0000      -0.657377       -17.8881
 180   2.0000      -0.652073       -17.7438
 181   2.0000      -0.644945       -17.5499
 182   2.0000      -0.641154       -17.4467
 183   2.0000      -0.633555       -17.2399
 184   2.0000      -0.631221       -17.1764
 185   2.0000      -0.624240       -16.9864
 186   2.0000      -0.623649       -16.9704
 187   2.0000      -0.617222       -16.7955
 188   2.0000      -0.612907       -16.6780
 189   2.0000      -0.607165       -16.5218
 190   2.0000      -0.603433       -16.4202
 191   2.0000      -0.598835       -16.2951
 192   2.0000      -0.593368       -16.1464
 193   2.0000      -0.592941       -16.1348
 194   2.0000      -0.590988       -16.0816
 195   2.0000      -0.585555       -15.9338
 196   2.0000      -0.578924       -15.7533
 197   2.0000      -0.575356       -15.6562
 198   2.0000      -0.566882       -15.4256
 199   2.0000      -0.563729       -15.3398
 200   2.0000      -0.560234       -15.2447
 201   2.0000      -0.554945       -15.1008
 202   2.0000      -0.551651       -15.0112
 203   2.0000      -0.550560       -14.9815
 204   2.0000      -0.549320       -14.9477
 205   2.0000      -0.546222       -14.8635
 206   2.0000      -0.541602       -14.7377
 207   2.0000      -0.536766       -14.6061
 208   2.0000      -0.533776       -14.5248
 209   2.0000      -0.530882       -14.4460
 210   2.0000      -0.527487       -14.3536
 211   2.0000      -0.526241       -14.3197
 212   2.0000      -0.523664       -14.2496
 213   2.0000      -0.522854       -14.2276
 214   2.0000      -0.521359       -14.1869
 215   2.0000      -0.519142       -14.1266
 216   2.0000      -0.518216       -14.1014
 217   2.0000      -0.516256       -14.0481
 218   2.0000      -0.513293       -13.9674
 219   2.0000      -0.510680       -13.8963
 220   2.0000      -0.509356       -13.8603
 221   2.0000      -0.504988       -13.7414
 222   2.0000      -0.502598       -13.6764
 223   2.0000      -0.501463       -13.6455
 224   2.0000      -0.498809       -13.5733
 225   2.0000      -0.495322       -13.4784
 226   2.0000      -0.493775       -13.4363
 227   2.0000      -0.490919       -13.3586
 228   2.0000      -0.489375       -13.3166
 229   2.0000      -0.487632       -13.2691
 230   2.0000      -0.487033       -13.2528
 231   2.0000      -0.481906       -13.1133
 232   2.0000      -0.481531       -13.1031
 233   2.0000      -0.480605       -13.0779
 234   2.0000      -0.479929       -13.0595
 235   2.0000      -0.473624       -12.8880
 236   2.0000      -0.469722       -12.7818
 237   2.0000      -0.465428       -12.6649
 238   2.0000      -0.461244       -12.5511
 239   2.0000      -0.456830       -12.4310
 240   2.0000      -0.455234       -12.3875
 241   2.0000      -0.453925       -12.3519
 242   2.0000      -0.450292       -12.2531
 243   2.0000      -0.449613       -12.2346
 244   2.0000      -0.448549       -12.2056
 245   2.0000      -0.446511       -12.1502
 246   2.0000      -0.445327       -12.1180
 247   2.0000      -0.443907       -12.0793
 248   2.0000      -0.440454       -11.9854
 249   2.0000      -0.438234       -11.9250
 250   2.0000      -0.437916       -11.9163
 251   2.0000      -0.437074       -11.8934
 252   2.0000      -0.434186       -11.8148
 253   2.0000      -0.432990       -11.7822
 254   2.0000      -0.432664       -11.7734
 255   2.0000      -0.429317       -11.6823
 256   2.0000      -0.424996       -11.5647
 257   2.0000      -0.422594       -11.4994
 258   2.0000      -0.418128       -11.3778
 259   2.0000      -0.416057       -11.3215
 260   2.0000      -0.414296       -11.2736
 261   2.0000      -0.412341       -11.2204
 262   2.0000      -0.409913       -11.1543
 263   2.0000      -0.409803       -11.1513
 264   2.0000      -0.398752       -10.8506
 265   2.0000      -0.396021       -10.7763
 266   2.0000      -0.393418       -10.7054
 267   2.0000      -0.389057       -10.5868
 268   2.0000      -0.382818       -10.4170
 269   2.0000      -0.379250       -10.3199
 270   2.0000      -0.377836       -10.2814
 271   2.0000      -0.377242       -10.2653
 272   2.0000      -0.370906       -10.0929
 273   2.0000      -0.368069       -10.0157
 274   2.0000      -0.367739       -10.0067
 275   2.0000      -0.359149        -9.7729
 276   2.0000      -0.354528        -9.6472
 277   2.0000      -0.354106        -9.6357
 278   2.0000      -0.347134        -9.4460
 279   2.0000      -0.346181        -9.4201
 280   2.0000      -0.341325        -9.2879
 281   2.0000      -0.339526        -9.2390
 282   2.0000      -0.327454        -8.9105
 283   2.0000      -0.322229        -8.7683
 284   2.0000      -0.319186        -8.6855
 285   2.0000      -0.305971        -8.3259
 286   2.0000      -0.300812        -8.1855
 287   2.0000      -0.296299        -8.0627
 288   2.0000      -0.284962        -7.7542
 289   2.0000      -0.270019        -7.3476
 290   2.0000      -0.229389        -6.2420
 291   0.0000      -0.120255        -3.2723
 292   0.0000      -0.104269        -2.8373
 293   0.0000      -0.074798        -2.0354
 294   0.0000      -0.068160        -1.8547
 295   0.0000      -0.058208        -1.5839

MULLIKEN ATOMIC CHARGES
-----------------------
   0 C :    0.324430
   1 C :   -0.349879
   2 C :   -0.185666
   3 N :    0.155809
   4 C :   -0.187288
   5 N :    0.149285
   6 C :    0.012889
   7 C :   -0.015220
   8 C :   -0.070467
   9 C :    0.120572
  10 C :   -0.091128
  11 C :   -0.021239
  12 S :    0.191632
  13 C :   -0.123134
  14 C :    0.038165
  15 Br:    0.028481
  16 C :    0.167982
  17 O :   -0.174245
  18 C :   -0.087144
  19 C :   -0.014297
  20 C :   -0.055532
  21 S :    0.231643
  22 C :   -0.051378
  23 C :   -0.048505
  24 C :    0.007661
  25 C :   -0.171834
  26 N :    0.130949
  27 C :    0.033386
  28 C :    0.002780
  29 C :    0.123453
  30 O :   -0.203717
  31 C :   -0.077524
  32 C :    0.187825
  33 O :   -0.149518
  34 N :   -0.163595
  35 C :    0.162122
  36 O :   -0.138722
  37 C :   -0.022047
  38 C :    0.094779
  39 C :   -0.035504
  40 C :    0.024662
  41 C :   -0.000775
  42 C :   -0.020257
  43 C :    0.046582
  44 C :    0.028469
  45 C :   -0.035612
  46 S :    0.106031
  47 C :   -0.055788
  48 C :    0.040929
  49 C :    0.041850
  50 C :   -0.018967
  51 S :    0.117056
  52 C :    0.001706
  53 C :    0.015995
  54 C :   -0.122166
  55 C :    0.292178
  56 C :   -0.345639
  57 C :   -0.178943
  58 N :    0.141006
  59 C :   -0.219812
  60 N :    0.160349
  61 C :    0.003311
  62 C :   -0.004537
  63 C :    0.137329
  64 O :   -0.149206
  65 C :   -0.073930
  66 C :    0.113479
  67 C :   -0.089019
  68 C :   -0.023862
  69 S :    0.180811
  70 C :   -0.124837
  71 C :    0.040385
  72 Br:    0.017562
  73 H :   -0.007081
  74 H :   -0.004626
  75 H :   -0.001251
  76 H :    0.013769
  77 H :    0.020697
  78 H :    0.010113
  79 H :    0.011709
  80 H :    0.140122
  81 H :    0.014992
  82 H :    0.024839
  83 H :   -0.001739
  84 H :   -0.000261
  85 H :   -0.001452
  86 H :   -0.003464
  87 H :    0.005041
  88 H :    0.011045
  89 H :    0.020229
  90 H :   -0.013129
  91 H :   -0.006337
  92 H :   -0.005813
Sum of atomic charges:   -0.0000000

LOEWDIN ATOMIC CHARGES
----------------------
   0 C :    0.076338
   1 C :   -0.137948
   2 C :   -0.018211
   3 N :   -0.049390
   4 C :   -0.021649
   5 N :   -0.048167
   6 C :   -0.020349
   7 C :   -0.051786
   8 C :    0.024529
   9 C :   -0.031643
  10 C :   -0.142749
  11 C :   -0.008117
  12 S :    0.436762
  13 C :   -0.270380
  14 C :   -0.069777
  15 Br:    0.140489
  16 C :    0.086169
  17 O :   -0.161392
  18 C :   -0.101580
  19 C :    0.058267
  20 C :   -0.187313
  21 S :    0.545016
  22 C :   -0.134889
  23 C :   -0.111187
  24 C :    0.016324
  25 C :   -0.030362
  26 N :   -0.050384
  27 C :   -0.019966
  28 C :   -0.014305
  29 C :    0.066764
  30 O :    0.019217
  31 C :   -0.091938
  32 C :    0.087357
  33 O :   -0.158231
  34 N :   -0.003727
  35 C :    0.085206
  36 O :   -0.156572
  37 C :   -0.094774
  38 C :    0.070949
  39 C :   -0.034195
  40 C :   -0.006194
  41 C :   -0.041034
  42 C :   -0.137205
  43 C :   -0.019654
  44 C :   -0.026111
  45 C :   -0.157502
  46 S :    0.399679
  47 C :   -0.181499
  48 C :   -0.010224
  49 C :   -0.028418
  50 C :   -0.103723
  51 S :    0.409369
  52 C :   -0.060578
  53 C :    0.050272
  54 C :   -0.099600
  55 C :    0.068300
  56 C :   -0.149748
  57 C :   -0.019684
  58 N :   -0.061399
  59 C :   -0.024168
  60 N :   -0.059624
  61 C :   -0.016606
  62 C :   -0.051085
  63 C :    0.078874
  64 O :   -0.150262
  65 C :    0.020119
  66 C :   -0.035685
  67 C :   -0.144454
  68 C :   -0.015211
  69 S :    0.428303
  70 C :   -0.274125
  71 C :   -0.070194
  72 Br:    0.132045
  73 H :    0.042355
  74 H :    0.041780
  75 H :    0.039636
  76 H :    0.052232
  77 H :    0.048229
  78 H :    0.036894
  79 H :    0.046953
  80 H :    0.095964
  81 H :    0.046832
  82 H :    0.029528
  83 H :    0.038220
  84 H :    0.038688
  85 H :    0.036417
  86 H :    0.036237
  87 H :    0.041424
  88 H :    0.038938
  89 H :    0.036123
  90 H :    0.040114
  91 H :    0.040028
  92 H :    0.038030

  Mayer bond orders larger than 0.100000
B(  0-C ,  1-C ) :   1.6309 B(  0-C ,  6-C ) :   1.0033 B(  0-C , 18-C ) :   1.0690
B(  1-C ,  2-C ) :   1.1424 B(  1-C ,  4-C ) :   1.1454 B(  2-C ,  3-N ) :   2.9700
B(  4-C ,  5-N ) :   2.9591 B(  6-C ,  7-C ) :   1.2732 B(  6-C , 11-C ) :   1.4097
B(  7-C ,  8-C ) :   1.4187 B(  7-C , 16-C ) :   0.9607 B(  8-C ,  9-C ) :   1.2441
B(  8-C , 73-H ) :   1.0180 B(  9-C , 10-C ) :   1.3027 B(  9-C , 14-C ) :   1.1636
B( 10-C , 11-C ) :   1.3302 B( 10-C , 12-S ) :   1.0895 B( 11-C , 74-H ) :   0.9801
B( 12-S , 13-C ) :   1.0873 B( 13-C , 14-C ) :   1.6157 B( 13-C , 15-Br) :   1.0216
B( 14-C , 75-H ) :   1.0010 B( 16-C , 17-O ) :   2.1368 B( 16-C , 18-C ) :   0.9676
B( 18-C , 19-C ) :   1.5385 B( 19-C , 20-C ) :   1.2260 B( 19-C , 76-H ) :   0.9395
B( 20-C , 21-S ) :   1.0973 B( 20-C , 24-C ) :   1.3657 B( 21-S , 22-C ) :   1.1469
B( 22-C , 23-C ) :   1.3728 B( 22-C , 27-C ) :   1.1697 B( 23-C , 24-C ) :   1.3441
B( 23-C , 25-C ) :   1.0976 B( 24-C , 77-H ) :   1.0140 B( 25-C , 26-N ) :   2.9825
B( 27-C , 28-C ) :   1.6227 B( 27-C , 78-H ) :   0.9332 B( 28-C , 29-C ) :   1.1833
B( 28-C , 79-H ) :   0.9474 B( 29-C , 30-O ) :   1.1451 B( 29-C , 31-C ) :   1.4097
B( 30-O , 38-C ) :   1.1456 B( 31-C , 32-C ) :   0.8813 B( 31-C , 37-C ) :   1.2940
B( 32-C , 33-O ) :   2.1834 B( 32-C , 34-N ) :   1.1050 B( 34-N , 35-C ) :   1.0682
B( 34-N , 80-H ) :   0.9145 B( 35-C , 36-O ) :   2.2711 B( 35-C , 37-C ) :   0.8845
B( 37-C , 38-C ) :   1.3601 B( 38-C , 39-C ) :   1.1952 B( 39-C , 40-C ) :   1.5687
B( 39-C , 81-H ) :   0.9707 B( 40-C , 41-C ) :   1.1599 B( 40-C , 82-H ) :   0.9779
B( 41-C , 42-C ) :   1.5375 B( 41-C , 83-H ) :   0.9864 B( 42-C , 43-C ) :   1.1510
B( 42-C , 46-S ) :   1.0416 B( 43-C , 44-C ) :   1.5788 B( 43-C , 84-H ) :   0.9998
B( 44-C , 45-C ) :   1.1972 B( 44-C , 85-H ) :   0.9947 B( 45-C , 46-S ) :   1.0715
B( 45-C , 47-C ) :   1.4731 B( 47-C , 48-C ) :   1.2082 B( 47-C , 51-S ) :   1.0527
B( 48-C , 49-C ) :   1.5585 B( 48-C , 86-H ) :   0.9945 B( 49-C , 50-C ) :   1.1696
B( 49-C , 87-H ) :   1.0007 B( 50-C , 51-S ) :   1.0786 B( 50-C , 52-C ) :   1.5182
B( 52-C , 53-C ) :   1.2019 B( 52-C , 88-H ) :   0.9622 B( 53-C , 54-C ) :   1.5519
B( 53-C , 89-H ) :   0.9373 B( 54-C , 55-C ) :   1.0779 B( 54-C , 63-C ) :   0.9589
B( 55-C , 56-C ) :   1.6044 B( 55-C , 61-C ) :   1.0032 B( 56-C , 57-C ) :   1.1332
B( 56-C , 59-C ) :   1.1675 B( 57-C , 58-N ) :   2.9763 B( 59-C , 60-N ) :   3.0083
B( 61-C , 62-C ) :   1.2764 B( 61-C , 68-C ) :   1.4216 B( 62-C , 63-C ) :   0.9213
B( 62-C , 65-C ) :   1.4318 B( 63-C , 64-O ) :   2.2494 B( 65-C , 66-C ) :   1.2456
B( 65-C , 90-H ) :   1.0158 B( 66-C , 67-C ) :   1.3159 B( 66-C , 71-C ) :   1.1605
B( 67-C , 68-C ) :   1.3202 B( 67-C , 69-S ) :   1.0831 B( 68-C , 91-H ) :   0.9804
B( 69-S , 70-C ) :   1.0861 B( 70-C , 71-C ) :   1.6209 B( 70-C , 72-Br) :   1.0152
B( 71-C , 92-H ) :   0.9999

-----------------------------------------------------------------------------
         ABSORPTION SPECTRUM VIA TRANSITION ELECTRIC DIPOLE MOMENTS
-----------------------------------------------------------------------------
State   Energy  Wavelength   fosc         T2         TX        TY        TZ
        (cm-1)    (nm)                  (au**2)     (au)      (au)      (au)
-----------------------------------------------------------------------------
   0   10714.9    933.3   1.158624767  35.59824   4.11119  -1.97656   3.84572
   1   16411.5    609.3   0.842839667  16.90721  -2.84976   2.12897   2.06242
   2   19603.8    510.1   0.915530822  15.37476  -2.30853   1.80358   2.60625
   3   21064.6    474.7   0.414961325   6.48530   0.74852  -0.94499  -2.24321
   4   23006.1    434.7   0.228376540   3.26801  -1.10652   0.58762   1.30320
   5   23420.9    427.0   0.022369473   0.31443  -0.47653  -0.22998  -0.18563
   6   24139.9    414.3   0.076984409   1.04989   0.91577  -0.45803  -0.03830
   7   24711.4    404.7   0.143913128   1.91725   0.71243  -0.03281  -1.18685
   8   26120.3    382.8   0.123063815   1.55106   0.37346   0.05480  -1.18684
   9   26372.3    379.2   0.008323696   0.10391   0.11949  -0.26212  -0.14463
  10   26902.9    371.7   0.248301685   3.03848   0.20274  -0.64483   1.60673
  11   27104.1    368.9   0.064890000   0.78817  -0.37032   0.79440  -0.14125
  12   27691.5    361.1   0.009934726   0.11811   0.22170  -0.00563  -0.26254
  13   28696.7    348.5   0.009677467   0.11102   0.22255  -0.12143   0.21622
  14   28886.7    346.2   0.007260500   0.08275  -0.23867   0.15841  -0.02626
  15   29456.7    339.5   0.050261957   0.56174  -0.20312  -0.08194   0.71677
  16   29757.6    336.0   0.029493343   0.32629   0.33085   0.09634  -0.45557
  17   29983.9    333.5   0.109542547   1.20273  -0.73801   0.32034   0.74529
  18   30520.0    327.7   0.117059221   1.26269  -0.04998  -0.07087  -1.12034
  19   31325.7    319.2   0.069288043   0.72817  -0.46532   0.58412  -0.41286
  20   31387.9    318.6   0.208040802   2.18204   0.74973   0.21443  -1.25458
  21   31593.1    316.5   0.040881833   0.42600   0.38619  -0.48412  -0.20613
  22   31785.8    314.6   0.092953380   0.96274   0.06917   0.31481  -0.92674
  23   32289.6    309.7   0.394468026   4.02183   1.71662  -0.14046  -1.02728
  24   32352.6    309.1   0.446077341   4.53917  -0.74630   1.50624  -1.30899
  25   32943.6    303.5   0.010793507   0.10786   0.31885  -0.02047  -0.07599
  26   33369.1    299.7   0.024015186   0.23693  -0.09085   0.09261   0.46915
  27   33468.2    298.8   0.082730487   0.81378   0.20995  -0.52331   0.70417
  28   33932.1    294.7   0.304183003   2.95121  -0.53085   1.01399  -1.28110
  29   34231.4    292.1   0.054911400   0.52810   0.30038  -0.49852   0.43514
  30   34705.1    288.1   0.003141854   0.02980   0.08260  -0.15051  -0.01805
  31   35061.9    285.2   0.041336869   0.38813  -0.51138   0.04984   0.35234
  32   35195.7    284.1   0.135417237   1.26666   0.14465   0.34577  -1.06122
  33   35568.9    281.1   0.025973630   0.24040   0.15506  -0.26279   0.38380
  34   35600.9    280.9   0.020189897   0.18670  -0.26142   0.08827   0.33252
  35   35635.1    280.6   0.061873826   0.57162   0.63722  -0.09560  -0.39551
  36   36052.2    277.4   0.018375632   0.16780   0.35445  -0.19057  -0.07646
  37   36087.6    277.1   0.003094372   0.02823  -0.15097   0.07220   0.01494
  38   36594.0    273.3   0.022750953   0.20468  -0.16760   0.05065   0.41716
  39   36753.7    272.1   0.003280488   0.02938  -0.00933  -0.12086  -0.12121
  40   37234.6    268.6   0.048004288   0.42443   0.22715  -0.59247   0.14771
  41   37347.4    267.8   0.060764051   0.53563   0.09706  -0.14208   0.71135
  42   37643.6    265.6   0.139192507   1.21731  -0.29486   0.02301   1.06294
  43   37938.8    263.6   0.048456203   0.42048  -0.31471  -0.23531   0.51581
  44   38101.9    262.5   0.146442416   1.26531   0.52227  -0.60761   0.78953
  45   38250.8    261.4   0.018541467   0.15958   0.25907  -0.30132   0.04080
  46   38796.7    257.8   0.002063757   0.01751  -0.02658  -0.04861   0.12018
  47   39036.5    256.2   0.047404009   0.39978   0.40577  -0.47343  -0.10484
  48   39217.6    255.0   0.032858508   0.27583   0.16501  -0.19766   0.45775
  49   39464.2    253.4   0.135935337   1.13398  -0.01024   0.51683  -0.93100
  50   39585.7    252.6   0.255331450   2.12345   0.49774  -0.12318  -1.36401
  51   40017.5    249.9   0.019349584   0.15918   0.11550  -0.17333  -0.34029
  52   40204.6    248.7   0.010699955   0.08762  -0.21605   0.08748   0.18244

FINAL SINGLE POINT ENERGY     -9947.159680688097

DIPOLE MOMENT
-------------
                                X             Y             Z
Electronic contribution:    117.77391     -30.59889    -138.18117
Nuclear contribution   :   -119.92079      34.99555     137.38092
                        -----------------------------------------
Total Dipole Moment    :     -2.14688       4.39666      -0.80025
                        -----------------------------------------
Magnitude (a.u.)       :      4.95783
Magnitude (Debye)      :     12.60180

Rotational constants in cm-1:     0.000512     0.000234     0.000165
Rotational constants in MHz :    15.337390     7.005339     4.953961

                             ****ORCA TERMINATED NORMALLY****
TOTAL RUN TIME: 0 days 0 hours 10 minutes 16 seconds 619 msec
