                         Program Version 4.2.0 -  RELEASE  -
|  1> # ORCA input file
|  2> # SCF done       -164.772979097984          0.000845922233
|  3> ! CAM-B3LYP def2-SVP def2/J RIJCOSX Grid4 TightSCF
|  4> %maxcore 5000
|  5> %tddft
|  6>     Mode sTDDFT
|  7>     Ethresh 5.0
|  8>     maxcore 5000
|  9> end
| 10>
| 11> %pal
| 12>   nprocs 6
| 13>   end
| 14> * xyz 0 1
| 15>    C       -5.59794        -2.49159        -7.70275
| 16>    C       -5.29205        -2.66145        -6.36920
| 17>    C       -3.98179        -2.75436        -5.86425
| 18>    N       -2.94178        -2.83472        -5.38062
| 19>    C       -6.21661        -2.76406        -5.31300
| 20>    N       -6.88613        -2.85917        -4.38222
| 21>    C       -4.61244        -2.38982        -8.77943
| 22>    C       -5.29899        -2.21351       -10.00446
| 23>    C       -4.64967        -2.08518       -11.20618
| 24>    C       -3.25061        -2.13354       -11.20115
| 25>    C       -2.57404        -2.31101        -9.97389
| 26>    C       -3.23269        -2.44084        -8.75615
| 27>    S       -0.84919        -2.34161       -10.19327
| 28>    C       -1.06146        -2.11966       -11.90968
| 29>    C       -2.35358        -2.02605       -12.29997
| 30>   Br        0.44621        -2.02751       -13.02400
| 31>    C       -6.75700        -2.19925        -9.74490
| 32>    O       -7.63101        -2.06463       -10.58105
| 33>    C       -6.90199        -2.37898        -8.29258
| 34>    C       -8.11287        -2.43543        -7.62376
| 35>    C       -9.36494        -2.32739        -8.20866
| 36>    C      -10.53615        -2.41535        -7.47371
| 37>    C      -11.85867        -2.33798        -7.95840
| 38>    C      -12.81865        -2.48160        -6.99563
| 39>    C      -12.29560        -2.67649        -5.70392
| 40>    S      -10.54327        -2.66391        -5.74522
| 41>    C      -12.96992        -2.87463        -4.51176
| 42>    C      -14.35930        -2.95765        -4.27585
| 43>    C      -14.68652        -3.19163        -2.97572
| 44>    C      -13.57749        -3.30234        -2.09455
| 45>    S      -12.08889        -3.08861        -3.02396
| 46>    C      -13.70169        -3.50608        -0.74806
| 47>    N      -12.76145        -3.64807         0.20772
| 48>    C      -13.09503        -3.58218         1.55595
| 49>    C      -14.22446        -3.04366         2.10833
| 50>    S      -14.18009        -3.05598         3.82201
| 51>    C      -12.62668        -3.79352         3.82305
| 52>    C      -12.17494        -4.03145         2.55940
| 53>    N      -10.99395        -4.67237         2.22851
| 54>    C      -10.77127        -4.91228         0.81825
| 55>    C      -11.34116        -3.78637        -0.04918
| 56>    N       -9.87668        -4.45472         3.02353
| 57>    C       -9.62412        -5.36924         4.01412
| 58>    S      -10.31142        -6.94481         3.87153
| 59>    C       -9.47943        -7.41188         5.32334
| 60>    N       -9.65813        -8.70902         5.78894
| 61>    O       -9.06818        -9.03663         6.80681
| 62>    O      -10.40006        -9.43437         5.14156
| 63>    C       -8.72830        -6.39949         5.86560
| 64>    C       -8.79379        -5.20542         5.12385
| 65>    C       -8.14553        -3.95943         5.44539
| 66>    C       -7.22356        -3.81156         6.41398
| 67>    N       -6.62467        -2.64657         6.79664
| 68>    C       -7.00963        -1.37752         6.37377
| 69>    C       -8.27001        -0.93202         6.10391
| 70>    S       -8.28794         0.72332         5.63819
| 71>    C       -6.57707         0.83670         5.82315
| 72>    C       -6.02658        -0.34028         6.22661
| 73>    N       -4.70217        -0.56210         6.55099
| 74>    C       -4.29769        -1.94518         6.66140
| 75>    C       -5.35851        -2.66760         7.49805
| 76>    H       -5.20154        -1.95279       -12.12365
| 77>    H       -2.66925        -2.57465        -7.84806
| 78>    H       -2.66438        -1.88661       -13.31919
| 79>    H       -8.09011        -2.58204        -6.55039
| 80>    H       -9.44138        -2.17683        -9.27533
| 81>    H      -12.06236        -2.18320        -9.00295
| 82>    H      -13.87678        -2.45212        -7.18600
| 83>    H      -15.07512        -2.84424        -5.06942
| 84>    H      -15.69551        -3.28774        -2.61533
| 85>    H      -14.71516        -3.55955        -0.37232
| 86>    H      -15.06832        -2.60685         1.61518
| 87>    H      -12.14616        -4.02470         4.75159
| 88>    H      -11.25726        -5.85652         0.54788
| 89>    H       -9.69921        -5.01031         0.64836
| 90>    H      -11.17583        -4.03201        -1.09495
| 91>    H      -10.83285        -2.84123         0.17573
| 92>    H       -9.66036        -3.48720         3.25319
| 93>    H       -8.17361        -6.53414         6.77529
| 94>    H       -8.42181        -3.10248         4.85048
| 95>    H       -6.87714        -4.67396         6.96595
| 96>    H       -9.19529        -1.46418         6.18216
| 97>    H       -6.08370         1.76641         5.62845
| 98>    H       -4.03755         0.06553         6.12491
| 99>    H       -3.32880        -1.98696         7.16339
|100>    H       -4.20975        -2.44174         5.68157
|101>    H       -5.46222        -2.14459         8.45591
|102>    H       -5.05890        -3.69895         7.68272
|103> *
|104>
|105>                          ****END OF INPUT****

CARTESIAN COORDINATES (ANGSTROEM)
---------------------------------
  C     -5.597940   -2.491590   -7.702750
  C     -5.292050   -2.661450   -6.369200
  C     -3.981790   -2.754360   -5.864250
  N     -2.941780   -2.834720   -5.380620
  C     -6.216610   -2.764060   -5.313000
  N     -6.886130   -2.859170   -4.382220
  C     -4.612440   -2.389820   -8.779430
  C     -5.298990   -2.213510  -10.004460
  C     -4.649670   -2.085180  -11.206180
  C     -3.250610   -2.133540  -11.201150
  C     -2.574040   -2.311010   -9.973890
  C     -3.232690   -2.440840   -8.756150
  S     -0.849190   -2.341610  -10.193270
  C     -1.061460   -2.119660  -11.909680
  C     -2.353580   -2.026050  -12.299970
  Br     0.446210   -2.027510  -13.024000
  C     -6.757000   -2.199250   -9.744900
  O     -7.631010   -2.064630  -10.581050
  C     -6.901990   -2.378980   -8.292580
  C     -8.112870   -2.435430   -7.623760
  C     -9.364940   -2.327390   -8.208660
  C    -10.536150   -2.415350   -7.473710
  C    -11.858670   -2.337980   -7.958400
  C    -12.818650   -2.481600   -6.995630
  C    -12.295600   -2.676490   -5.703920
  S    -10.543270   -2.663910   -5.745220
  C    -12.969920   -2.874630   -4.511760
  C    -14.359300   -2.957650   -4.275850
  C    -14.686520   -3.191630   -2.975720
  C    -13.577490   -3.302340   -2.094550
  S    -12.088890   -3.088610   -3.023960
  C    -13.701690   -3.506080   -0.748060
  N    -12.761450   -3.648070    0.207720
  C    -13.095030   -3.582180    1.555950
  C    -14.224460   -3.043660    2.108330
  S    -14.180090   -3.055980    3.822010
  C    -12.626680   -3.793520    3.823050
  C    -12.174940   -4.031450    2.559400
  N    -10.993950   -4.672370    2.228510
  C    -10.771270   -4.912280    0.818250
  C    -11.341160   -3.786370   -0.049180
  N     -9.876680   -4.454720    3.023530
  C     -9.624120   -5.369240    4.014120
  S    -10.311420   -6.944810    3.871530
  C     -9.479430   -7.411880    5.323340
  N     -9.658130   -8.709020    5.788940
  O     -9.068180   -9.036630    6.806810
  O    -10.400060   -9.434370    5.141560
  C     -8.728300   -6.399490    5.865600
  C     -8.793790   -5.205420    5.123850
  C     -8.145530   -3.959430    5.445390
  C     -7.223560   -3.811560    6.413980
  N     -6.624670   -2.646570    6.796640
  C     -7.009630   -1.377520    6.373770
  C     -8.270010   -0.932020    6.103910
  S     -8.287940    0.723320    5.638190
  C     -6.577070    0.836700    5.823150
  C     -6.026580   -0.340280    6.226610
  N     -4.702170   -0.562100    6.550990
  C     -4.297690   -1.945180    6.661400
  C     -5.358510   -2.667600    7.498050
  H     -5.201540   -1.952790  -12.123650
  H     -2.669250   -2.574650   -7.848060
  H     -2.664380   -1.886610  -13.319190
  H     -8.090110   -2.582040   -6.550390
  H     -9.441380   -2.176830   -9.275330
  H    -12.062360   -2.183200   -9.002950
  H    -13.876780   -2.452120   -7.186000
  H    -15.075120   -2.844240   -5.069420
  H    -15.695510   -3.287740   -2.615330
  H    -14.715160   -3.559550   -0.372320
  H    -15.068320   -2.606850    1.615180
  H    -12.146160   -4.024700    4.751590
  H    -11.257260   -5.856520    0.547880
  H     -9.699210   -5.010310    0.648360
  H    -11.175830   -4.032010   -1.094950
  H    -10.832850   -2.841230    0.175730
  H     -9.660360   -3.487200    3.253190
  H     -8.173610   -6.534140    6.775290
  H     -8.421810   -3.102480    4.850480
  H     -6.877140   -4.673960    6.965950
  H     -9.195290   -1.464180    6.182160
  H     -6.083700    1.766410    5.628450
  H     -4.037550    0.065530    6.124910
  H     -3.328800   -1.986960    7.163390
  H     -4.209750   -2.441740    5.681570
  H     -5.462220   -2.144590    8.455910
  H     -5.058900   -3.698950    7.682720

 Total Charge           Charge          ....    0
 Multiplicity           Mult            ....    1
 Number of Electrons    NEL             ....  496
 Basis Dimension        Dim             .... 1031

ORBITAL ENERGIES
----------------

  NO   OCC          E(Eh)            E(eV)
   0   2.0000    -482.872125    -13139.6185
   1   2.0000     -88.973088     -2421.0808
   2   2.0000     -88.969540     -2420.9843
   3   2.0000     -88.968952     -2420.9683
   4   2.0000     -88.958402     -2420.6812
   5   2.0000     -88.951691     -2420.4986
   6   2.0000     -88.946360     -2420.3535
   7   2.0000     -62.549828     -1702.0674
   8   2.0000     -56.383758     -1534.2801
   9   2.0000     -56.381082     -1534.2072
  10   2.0000     -56.381040     -1534.2061
  11   2.0000     -19.220633      -523.0200
  12   2.0000     -19.219854      -522.9988
  13   2.0000     -19.189227      -522.1654
  14   2.0000     -14.632239      -398.1635
  15   2.0000     -14.495057      -394.4305
  16   2.0000     -14.484506      -394.1434
  17   2.0000     -14.481778      -394.0692
  18   2.0000     -14.447931      -393.1482
  19   2.0000     -14.421143      -392.4193
  20   2.0000     -14.392984      -391.6530
  21   2.0000     -14.389499      -391.5582
  22   2.0000     -10.360666      -281.9281
  23   2.0000     -10.348475      -281.5963
  24   2.0000     -10.342237      -281.4266
  25   2.0000     -10.340137      -281.3694
  26   2.0000     -10.339768      -281.3594
  27   2.0000     -10.339472      -281.3513
  28   2.0000     -10.336865      -281.2804
  29   2.0000     -10.334058      -281.2040
  30   2.0000     -10.330393      -281.1043
  31   2.0000     -10.323933      -280.9285
  32   2.0000     -10.323261      -280.9102
  33   2.0000     -10.318668      -280.7852
  34   2.0000     -10.317060      -280.7415
  35   2.0000     -10.315318      -280.6941
  36   2.0000     -10.314134      -280.6619
  37   2.0000     -10.312647      -280.6214
  38   2.0000     -10.312542      -280.6185
  39   2.0000     -10.311897      -280.6010
  40   2.0000     -10.310609      -280.5659
  41   2.0000     -10.310482      -280.5625
  42   2.0000     -10.310446      -280.5615
  43   2.0000     -10.308471      -280.5078
  44   2.0000     -10.305626      -280.4303
  45   2.0000     -10.304626      -280.4031
  46   2.0000     -10.299270      -280.2574
  47   2.0000     -10.298271      -280.2302
  48   2.0000     -10.297976      -280.2222
  49   2.0000     -10.294801      -280.1358
  50   2.0000     -10.294482      -280.1271
  51   2.0000     -10.287560      -279.9387
  52   2.0000     -10.286828      -279.9188
  53   2.0000     -10.286096      -279.8989
  54   2.0000     -10.286086      -279.8986
  55   2.0000     -10.285277      -279.8766
  56   2.0000     -10.283819      -279.8369
  57   2.0000     -10.281890      -279.7845
  58   2.0000     -10.280721      -279.7526
  59   2.0000     -10.279847      -279.7289
  60   2.0000     -10.276647      -279.6418
  61   2.0000     -10.269085      -279.4360
  62   2.0000     -10.265232      -279.3312
  63   2.0000     -10.262681      -279.2618
  64   2.0000     -10.260811      -279.2109
  65   2.0000      -8.779240      -238.8953
  66   2.0000      -8.068900      -219.5659
  67   2.0000      -8.065235      -219.4662
  68   2.0000      -8.064272      -219.4400
  69   2.0000      -8.054387      -219.1710
  70   2.0000      -8.047586      -218.9859
  71   2.0000      -8.042150      -218.8380
  72   2.0000      -6.615442      -180.0153
  73   2.0000      -6.601006      -179.6225
  74   2.0000      -6.600857      -179.6184
  75   2.0000      -6.038334      -164.3114
  76   2.0000      -6.035016      -164.2211
  77   2.0000      -6.033982      -164.1930
  78   2.0000      -6.033904      -164.1909
  79   2.0000      -6.030942      -164.1103
  80   2.0000      -6.030846      -164.1077
  81   2.0000      -6.029631      -164.0746
  82   2.0000      -6.026213      -163.9816
  83   2.0000      -6.025691      -163.9674
  84   2.0000      -6.024076      -163.9234
  85   2.0000      -6.019837      -163.8081
  86   2.0000      -6.017158      -163.7352
  87   2.0000      -6.015599      -163.6928
  88   2.0000      -6.013155      -163.6263
  89   2.0000      -6.011655      -163.5854
  90   2.0000      -6.008848      -163.5091
  91   2.0000      -6.007432      -163.4705
  92   2.0000      -6.003994      -163.3770
  93   2.0000      -2.731355       -74.3240
  94   2.0000      -2.727251       -74.2123
  95   2.0000      -2.727161       -74.2098
  96   2.0000      -2.715686       -73.8976
  97   2.0000      -2.715663       -73.8969
  98   2.0000      -1.299753       -35.3681
  99   2.0000      -1.142431       -31.0871
 100   2.0000      -1.118211       -30.4281
 101   2.0000      -1.105459       -30.0811
 102   2.0000      -1.102254       -29.9938
 103   2.0000      -1.077954       -29.3326
 104   2.0000      -1.018823       -27.7236
 105   2.0000      -1.015741       -27.6397
 106   2.0000      -1.008233       -27.4354
 107   2.0000      -1.002006       -27.2660
 108   2.0000      -0.993696       -27.0399
 109   2.0000      -0.991150       -26.9706
 110   2.0000      -0.982740       -26.7417
 111   2.0000      -0.970635       -26.4123
 112   2.0000      -0.965917       -26.2839
 113   2.0000      -0.962473       -26.1902
 114   2.0000      -0.961755       -26.1707
 115   2.0000      -0.922883       -25.1129
 116   2.0000      -0.908266       -24.7152
 117   2.0000      -0.899207       -24.4687
 118   2.0000      -0.889699       -24.2099
 119   2.0000      -0.886197       -24.1146
 120   2.0000      -0.880323       -23.9548
 121   2.0000      -0.868046       -23.6207
 122   2.0000      -0.865617       -23.5546
 123   2.0000      -0.863120       -23.4867
 124   2.0000      -0.857907       -23.3448
 125   2.0000      -0.851919       -23.1819
 126   2.0000      -0.841032       -22.8857
 127   2.0000      -0.837932       -22.8013
 128   2.0000      -0.834583       -22.7102
 129   2.0000      -0.830775       -22.6065
 130   2.0000      -0.812944       -22.1213
 131   2.0000      -0.812017       -22.0961
 132   2.0000      -0.808956       -22.0128
 133   2.0000      -0.786635       -21.4054
 134   2.0000      -0.779718       -21.2172
 135   2.0000      -0.763315       -20.7709
 136   2.0000      -0.750161       -20.4129
 137   2.0000      -0.743110       -20.2210
 138   2.0000      -0.735754       -20.0209
 139   2.0000      -0.727606       -19.7992
 140   2.0000      -0.719123       -19.5683
 141   2.0000      -0.710976       -19.3467
 142   2.0000      -0.704716       -19.1763
 143   2.0000      -0.694199       -18.8901
 144   2.0000      -0.687265       -18.7014
 145   2.0000      -0.676711       -18.4142
 146   2.0000      -0.673674       -18.3316
 147   2.0000      -0.668136       -18.1809
 148   2.0000      -0.666256       -18.1298
 149   2.0000      -0.662446       -18.0261
 150   2.0000      -0.651355       -17.7243
 151   2.0000      -0.642466       -17.4824
 152   2.0000      -0.637109       -17.3366
 153   2.0000      -0.633859       -17.2482
 154   2.0000      -0.629131       -17.1195
 155   2.0000      -0.624354       -16.9895
 156   2.0000      -0.622006       -16.9256
 157   2.0000      -0.616025       -16.7629
 158   2.0000      -0.613554       -16.6957
 159   2.0000      -0.611722       -16.6458
 160   2.0000      -0.606608       -16.5066
 161   2.0000      -0.602624       -16.3982
 162   2.0000      -0.601810       -16.3761
 163   2.0000      -0.595437       -16.2027
 164   2.0000      -0.585987       -15.9455
 165   2.0000      -0.579101       -15.7582
 166   2.0000      -0.578477       -15.7411
 167   2.0000      -0.575865       -15.6701
 168   2.0000      -0.573472       -15.6050
 169   2.0000      -0.571468       -15.5504
 170   2.0000      -0.560888       -15.2625
 171   2.0000      -0.558638       -15.2013
 172   2.0000      -0.552160       -15.0250
 173   2.0000      -0.549142       -14.9429
 174   2.0000      -0.539179       -14.6718
 175   2.0000      -0.536183       -14.5903
 176   2.0000      -0.535174       -14.5628
 177   2.0000      -0.528832       -14.3902
 178   2.0000      -0.524288       -14.2666
 179   2.0000      -0.517375       -14.0785
 180   2.0000      -0.516463       -14.0537
 181   2.0000      -0.511367       -13.9150
 182   2.0000      -0.510348       -13.8873
 183   2.0000      -0.508963       -13.8496
 184   2.0000      -0.508610       -13.8400
 185   2.0000      -0.505599       -13.7581
 186   2.0000      -0.503374       -13.6975
 187   2.0000      -0.501481       -13.6460
 188   2.0000      -0.498836       -13.5740
 189   2.0000      -0.495269       -13.4769
 190   2.0000      -0.492368       -13.3980
 191   2.0000      -0.489452       -13.3187
 192   2.0000      -0.488350       -13.2887
 193   2.0000      -0.486038       -13.2258
 194   2.0000      -0.482910       -13.1406
 195   2.0000      -0.477229       -12.9861
 196   2.0000      -0.476672       -12.9709
 197   2.0000      -0.474885       -12.9223
 198   2.0000      -0.474105       -12.9010
 199   2.0000      -0.472815       -12.8659
 200   2.0000      -0.469219       -12.7681
 201   2.0000      -0.467428       -12.7194
 202   2.0000      -0.465712       -12.6727
 203   2.0000      -0.453569       -12.3422
 204   2.0000      -0.450994       -12.2722
 205   2.0000      -0.447948       -12.1893
 206   2.0000      -0.446698       -12.1553
 207   2.0000      -0.445388       -12.1196
 208   2.0000      -0.443191       -12.0598
 209   2.0000      -0.439232       -11.9521
 210   2.0000      -0.437759       -11.9120
 211   2.0000      -0.435127       -11.8404
 212   2.0000      -0.428886       -11.6706
 213   2.0000      -0.427994       -11.6463
 214   2.0000      -0.421876       -11.4798
 215   2.0000      -0.420726       -11.4485
 216   2.0000      -0.419918       -11.4266
 217   2.0000      -0.418283       -11.3821
 218   2.0000      -0.408181       -11.1072
 219   2.0000      -0.406472       -11.0607
 220   2.0000      -0.405342       -11.0299
 221   2.0000      -0.403872       -10.9899
 222   2.0000      -0.400926       -10.9098
 223   2.0000      -0.394352       -10.7309
 224   2.0000      -0.387798       -10.5525
 225   2.0000      -0.384570       -10.4647
 226   2.0000      -0.376839       -10.2543
 227   2.0000      -0.370753       -10.0887
 228   2.0000      -0.369821       -10.0633
 229   2.0000      -0.365231        -9.9384
 230   2.0000      -0.361772        -9.8443
 231   2.0000      -0.361706        -9.8425
 232   2.0000      -0.358008        -9.7419
 233   2.0000      -0.353940        -9.6312
 234   2.0000      -0.349210        -9.5025
 235   2.0000      -0.341672        -9.2974
 236   2.0000      -0.330180        -8.9846
 237   2.0000      -0.317355        -8.6357
 238   2.0000      -0.314742        -8.5646
 239   2.0000      -0.310207        -8.4411
 240   2.0000      -0.297625        -8.0988
 241   2.0000      -0.296209        -8.0603
 242   2.0000      -0.287119        -7.8129
 243   2.0000      -0.281089        -7.6488
 244   2.0000      -0.272930        -7.4268
 245   2.0000      -0.263812        -7.1787
 246   2.0000      -0.234501        -6.3811
 247   2.0000      -0.218324        -5.9409
 248   0.0000      -0.094907        -2.5826
 249   0.0000      -0.047620        -1.2958
 250   0.0000      -0.039604        -1.0777
 251   0.0000      -0.026505        -0.7212
 252   0.0000      -0.000462        -0.0126

MULLIKEN ATOMIC CHARGES
-----------------------
   0 C :    0.333059
   1 C :   -0.372530
   2 C :   -0.194519
   3 N :    0.126895
   4 C :   -0.191545
   5 N :    0.119145
   6 C :    0.008905
   7 C :   -0.007311
   8 C :   -0.079915
   9 C :    0.116371
  10 C :   -0.090583
  11 C :   -0.026696
  12 S :    0.173871
  13 C :   -0.124858
  14 C :    0.036191
  15 Br:    0.008965
  16 C :    0.131337
  17 O :   -0.170489
  18 C :   -0.093047
  19 C :   -0.042755
  20 C :   -0.028263
  21 C :    0.009218
  22 C :    0.016500
  23 C :    0.045380
  24 C :   -0.062112
  25 S :    0.092797
  26 C :   -0.017808
  27 C :    0.016190
  28 C :    0.044496
  29 C :   -0.066469
  30 S :    0.086205
  31 C :    0.076046
  32 N :   -0.187100
  33 C :    0.154474
  34 C :   -0.205269
  35 S :    0.140886
  36 C :   -0.197771
  37 C :    0.174640
  38 N :   -0.236991
  39 C :    0.168681
  40 C :    0.100924
  41 N :   -0.040739
  42 C :   -0.113724
  43 S :    0.174088
  44 C :   -0.025006
  45 N :    0.280977
  46 O :   -0.267129
  47 O :   -0.278489
  48 C :   -0.009153
  49 C :    0.136952
  50 C :   -0.087401
  51 C :    0.086567
  52 N :   -0.204050
  53 C :    0.140873
  54 C :   -0.196720
  55 S :    0.093121
  56 C :   -0.211044
  57 C :    0.125035
  58 N :   -0.159416
  59 C :    0.135140
  60 C :    0.130597
  61 H :   -0.018539
  62 H :   -0.012636
  63 H :   -0.008032
  64 H :    0.011601
  65 H :    0.011277
  66 H :   -0.004991
  67 H :   -0.009179
  68 H :   -0.007811
  69 H :   -0.003314
  70 H :    0.021057
  71 H :    0.020781
  72 H :    0.026066
  73 H :    0.034979
  74 H :    0.045551
  75 H :    0.062897
  76 H :    0.042380
  77 H :    0.127968
  78 H :   -0.001684
  79 H :   -0.032691
  80 H :   -0.004831
  81 H :    0.012553
  82 H :   -0.002613
  83 H :    0.115374
  84 H :    0.012662
  85 H :    0.013284
  86 H :    0.030535
  87 H :    0.021736
Sum of atomic charges:   -0.0000000

LOEWDIN ATOMIC CHARGES
----------------------
   0 C :    0.074245
   1 C :   -0.168313
   2 C :   -0.019380
   3 N :   -0.079674
   4 C :   -0.019763
   5 N :   -0.082507
   6 C :   -0.017416
   7 C :   -0.047134
   8 C :    0.014484
   9 C :   -0.037772
  10 C :   -0.147203
  11 C :   -0.015600
  12 S :    0.423029
  13 C :   -0.276644
  14 C :   -0.071328
  15 Br:    0.125210
  16 C :    0.080039
  17 O :   -0.164646
  18 C :   -0.121265
  19 C :    0.047632
  20 C :   -0.086065
  21 C :   -0.099310
  22 C :   -0.056258
  23 C :   -0.005703
  24 C :   -0.214414
  25 S :    0.406331
  26 C :   -0.137129
  27 C :   -0.060717
  28 C :   -0.000522
  29 C :   -0.215913
  30 S :    0.399197
  31 C :    0.046759
  32 N :    0.017495
  33 C :   -0.037220
  34 C :   -0.222443
  35 S :    0.461057
  36 C :   -0.222060
  37 C :   -0.041157
  38 N :   -0.030087
  39 C :    0.034076
  40 C :    0.035372
  41 N :    0.026781
  42 C :   -0.125271
  43 S :    0.454743
  44 C :   -0.221520
  45 N :    0.274600
  46 O :   -0.233020
  47 O :   -0.244068
  48 C :   -0.006232
  49 C :   -0.100394
  50 C :   -0.120313
  51 C :    0.036192
  52 N :   -0.018106
  53 C :   -0.034531
  54 C :   -0.222639
  55 S :    0.418069
  56 C :   -0.246127
  57 C :   -0.025125
  58 N :   -0.054811
  59 C :    0.028917
  60 C :    0.047539
  61 H :    0.037517
  62 H :    0.039113
  63 H :    0.036715
  64 H :    0.029091
  65 H :    0.036993
  66 H :    0.036525
  67 H :    0.033713
  68 H :    0.034392
  69 H :    0.036050
  70 H :    0.041985
  71 H :    0.022885
  72 H :    0.027285
  73 H :    0.029131
  74 H :    0.042806
  75 H :    0.022757
  76 H :    0.031664
  77 H :    0.070291
  78 H :    0.037817
  79 H :    0.017606
  80 H :    0.024132
  81 H :    0.019656
  82 H :    0.017789
  83 H :    0.075302
  84 H :    0.026787
  85 H :    0.012804
  86 H :    0.027105
  87 H :    0.030117

  Mayer bond orders larger than 0.100000
B(  0-C ,  1-C ) :   1.5568 B(  0-C ,  6-C ) :   0.9833 B(  0-C , 18-C ) :   1.1403
B(  1-C ,  2-C ) :   1.1544 B(  1-C ,  4-C ) :   1.1585 B(  2-C ,  3-N ) :   2.9583
B(  4-C ,  5-N ) :   2.9553 B(  6-C ,  7-C ) :   1.2798 B(  6-C , 11-C ) :   1.4248
B(  7-C ,  8-C ) :   1.4347 B(  7-C , 16-C ) :   0.9314 B(  8-C ,  9-C ) :   1.2365
B(  8-C , 61-H ) :   1.0165 B(  9-C , 10-C ) :   1.3224 B(  9-C , 14-C ) :   1.1574
B( 10-C , 11-C ) :   1.3158 B( 10-C , 12-S ) :   1.0796 B( 11-C , 62-H ) :   0.9797
B( 12-S , 13-C ) :   1.0850 B( 13-C , 14-C ) :   1.6228 B( 13-C , 15-Br) :   1.0101
B( 14-C , 63-H ) :   1.0005 B( 16-C , 17-O ) :   2.1852 B( 16-C , 18-C ) :   0.9768
B( 18-C , 19-C ) :   1.4322 B( 19-C , 20-C ) :   1.3081 B( 19-C , 64-H ) :   0.9404
B( 20-C , 21-C ) :   1.3701 B( 20-C , 65-H ) :   0.9808 B( 21-C , 22-C ) :   1.2071
B( 21-C , 25-S ) :   1.1009 B( 22-C , 23-C ) :   1.5084 B( 22-C , 66-H ) :   1.0018
B( 23-C , 24-C ) :   1.2450 B( 23-C , 67-H ) :   0.9951 B( 24-C , 25-S ) :   1.0357
B( 24-C , 26-C ) :   1.4391 B( 26-C , 27-C ) :   1.2100 B( 26-C , 30-S ) :   1.0894
B( 27-C , 28-C ) :   1.5746 B( 27-C , 68-H ) :   0.9943 B( 28-C , 29-C ) :   1.1721
B( 28-C , 69-H ) :   0.9957 B( 29-C , 30-S ) :   0.9918 B( 29-C , 31-C ) :   1.5489
B( 31-C , 32-N ) :   1.2194 B( 31-C , 70-H ) :   0.9552 B( 32-N , 33-C ) :   1.0286
B( 32-N , 40-C ) :   0.9474 B( 33-C , 34-C ) :   1.4986 B( 33-C , 37-C ) :   1.2593
B( 34-C , 35-S ) :   1.1731 B( 34-C , 71-H ) :   0.9751 B( 35-S , 36-C ) :   1.1523
B( 36-C , 37-C ) :   1.5223 B( 36-C , 72-H ) :   0.9764 B( 37-C , 38-N ) :   1.0409
B( 38-N , 39-C ) :   0.9696 B( 38-N , 41-N ) :   1.0021 B( 39-C , 40-C ) :   1.0855
B( 39-C , 73-H ) :   0.9454 B( 39-C , 74-H ) :   0.9394 B( 40-C , 75-H ) :   0.9287
B( 40-C , 76-H ) :   0.9372 B( 41-N , 42-C ) :   1.1649 B( 41-N , 77-H ) :   0.9231
B( 42-C , 43-S ) :   1.1345 B( 42-C , 49-C ) :   1.3965 B( 43-S , 44-C ) :   1.0678
B( 44-C , 45-N ) :   0.9916 B( 44-C , 48-C ) :   1.4703 B( 45-N , 46-O ) :   1.5184
B( 45-N , 47-O ) :   1.5002 B( 46-O , 47-O ) :   0.2483 B( 48-C , 49-C ) :   1.2343
B( 48-C , 78-H ) :   0.9975 B( 49-C , 50-C ) :   1.0704 B( 50-C , 51-C ) :   1.7117
B( 50-C , 79-H ) :   0.9583 B( 51-C , 52-N ) :   1.1284 B( 51-C , 80-H ) :   0.9612
B( 52-N , 53-C ) :   1.0330 B( 52-N , 60-C ) :   0.9800 B( 53-C , 54-C ) :   1.5213
B( 53-C , 57-C ) :   1.2489 B( 54-C , 55-S ) :   1.1574 B( 54-C , 81-H ) :   0.9744
B( 55-S , 56-C ) :   1.1230 B( 56-C , 57-C ) :   1.5169 B( 56-C , 82-H ) :   0.9797
B( 57-C , 58-N ) :   1.1473 B( 58-N , 59-C ) :   1.0225 B( 58-N , 83-H ) :   0.9254
B( 59-C , 60-C ) :   1.0788 B( 59-C , 84-H ) :   0.9441 B( 59-C , 85-H ) :   0.9400
B( 60-C , 86-H ) :   0.9427 B( 60-C , 87-H ) :   0.9455

-----------------------------------------------------------------------------
         ABSORPTION SPECTRUM VIA TRANSITION ELECTRIC DIPOLE MOMENTS
-----------------------------------------------------------------------------
State   Energy  Wavelength   fosc         T2         TX        TY        TZ
        (cm-1)    (nm)                  (au**2)     (au)      (au)      (au)
-----------------------------------------------------------------------------
   0   12517.0    798.9   1.278259105  33.61985   4.30438   0.47639  -3.85554
   1   20743.5    482.1   0.001709173   0.02713   0.13026  -0.00878   0.10041
   2   21923.6    456.1   0.192904462   2.89672  -0.26038   0.24568  -1.66390
   3   24699.3    404.9   0.337463883   4.49798  -0.22027   1.39995  -1.57785
   4   24855.6    402.3   0.122720687   1.62543   0.19237   0.66268   1.07205
   5   26163.0    382.2   0.261982395   3.29655   0.08592   0.14058  -1.80815
   6   27388.3    365.1   0.387043716   4.65233   1.82140  -0.07328   1.15302
   7   28006.5    357.1   0.000721227   0.00848   0.07592  -0.00981   0.05116
   8   28200.8    354.6   0.017700860   0.20664   0.35907  -0.01054   0.27856
   9   29285.6    341.5   0.019331104   0.21731   0.36756  -0.01934   0.28607
  10   29537.8    338.5   0.000270806   0.00302  -0.01621   0.03442  -0.03964
  11   29598.3    337.9   0.007290530   0.08109  -0.28147   0.02355  -0.03622
  12   32033.9    312.2   0.000092554   0.00095  -0.02569  -0.01525   0.00767
  13   32065.2    311.9   0.025069632   0.25739  -0.44577   0.02863  -0.24054
  14   32135.6    311.2   0.006507792   0.06667  -0.23533   0.04978  -0.09386
  15   32473.6    307.9   0.379447329   3.84678   1.42341   0.14980  -1.34098
  16   32853.4    304.4   0.008780480   0.08799   0.10257   0.03192  -0.27649
  17   32934.9    303.6   0.000761200   0.00761  -0.04551   0.05044  -0.05471
  18   33199.5    301.2   0.136624201   1.35479   0.60600   0.24521  -0.96303
  19   33312.5    300.2   0.000104917   0.00104  -0.02078  -0.02430  -0.00381
  20   33484.1    298.6   0.524033856   5.15224   0.57835   2.07676   0.71049
  21   34372.4    290.9   0.253984607   2.43261   0.72800   0.08737  -1.37659
  22   34910.1    286.5   0.054854663   0.51730   0.07068  -0.70024   0.14821
  23   35037.1    285.4   0.041144580   0.38660   0.11723  -0.53386   0.29639
  24   35687.6    280.2   0.014215996   0.13114  -0.28017   0.22744   0.03027
  25   36078.4    277.2   0.005417023   0.04943   0.09886  -0.19905  -0.00614
  26   36195.1    276.3   0.002398791   0.02182   0.01053   0.11663   0.09002
  27   36780.0    271.9   0.213167298   1.90803   0.79908  -0.25081   1.09845
  28   37805.8    264.5   0.090363348   0.78688   0.29591   0.78894  -0.27730
  29   38073.9    262.6   0.037913680   0.32783   0.38185   0.10426  -0.41370
  30   38088.6    262.5   0.045938632   0.39706  -0.42198  -0.15168   0.44270
  31   38465.9    260.0   0.046446950   0.39752   0.28179   0.53037  -0.19189
  32   38724.7    258.2   0.004553687   0.03871   0.19585   0.01080  -0.01549
  33   39022.5    256.3   0.007100986   0.05991  -0.23719   0.00665  -0.06002
  34   39322.2    254.3   0.019810587   0.16586  -0.22652   0.03789  -0.33632
  35   39400.3    253.8   0.235318882   1.96622   0.84968  -0.10872   1.11016

FINAL SINGLE POINT ENERGY     -7277.765107424378

DIPOLE MOMENT
-------------
                                X             Y             Z
Electronic contribution:    100.30166       6.23754    -158.22446
Nuclear contribution   :   -103.20186      -3.95937     159.77740
                        -----------------------------------------
Total Dipole Moment    :     -2.90020       2.27816       1.55293
                        -----------------------------------------
Magnitude (a.u.)       :      4.00160
Magnitude (Debye)      :     10.17126

Rotational constants in cm-1:     0.001094     0.000296     0.000257
Rotational constants in MHz :    32.797861     8.870180     7.699790

                             ****ORCA TERMINATED NORMALLY****
TOTAL RUN TIME: 0 days 0 hours 8 minutes 31 seconds 429 msec
