                         Program Version 4.2.0 -  RELEASE  -
|  1> # ORCA input file
|  2> # SCF done       -192.832685825945          0.000681734434
|  3> ! CAM-B3LYP def2-SVP def2/J RIJCOSX Grid4 TightSCF
|  4> %maxcore 5000
|  5> %tddft
|  6>     Mode sTDDFT
|  7>     Ethresh 5.0
|  8>     maxcore 5000
|  9> end
| 10>
| 11> %pal
| 12>   nprocs 6
| 13>   end
| 14> * xyz 0 1
| 15>    C      -11.28591         2.24851       -12.52190
| 16>    C      -12.01111         2.11388       -11.36718
| 17>    C      -13.09217         1.22021       -11.21096
| 18>    N      -13.97579         0.51358       -11.01972
| 19>    C      -11.79900         2.85476       -10.18537
| 20>    N      -11.69250         3.42319        -9.19341
| 21>    C      -11.52782         1.53765       -13.76961
| 22>    C      -10.63927         2.02964       -14.75809
| 23>    C      -10.62672         1.55481       -16.04702
| 24>    C      -11.53199         0.54283       -16.37825
| 25>    C      -12.41178         0.05117       -15.38271
| 26>    C      -12.42683         0.53347       -14.08042
| 27>    S      -13.43720        -1.20547       -16.00194
| 28>    C      -12.68406        -1.05556       -17.56719
| 29>    C      -11.71319        -0.11268       -17.62568
| 30>   Br      -13.24802        -2.15763       -18.97318
| 31>    C       -9.75969         3.04753       -14.16475
| 32>    O       -8.80016         3.56843       -14.68936
| 33>    C      -10.19032         3.17599       -12.74773
| 34>    C       -9.54352         3.91557       -11.80735
| 35>    C       -8.57995         4.92589       -12.05201
| 36>    O       -7.74789         5.24634       -11.01548
| 37>    C       -8.30421         5.78235       -13.10412
| 38>    C       -8.76305         6.25489       -14.42340
| 39>    O       -9.70929         5.95143       -15.09589
| 40>    N       -7.85994         7.27092       -14.73747
| 41>    C       -6.94347         7.58062       -13.73840
| 42>    O       -6.12707         8.46684       -13.79580
| 43>    C       -7.24372         6.61683       -12.68309
| 44>    C       -6.92751         6.25762       -11.38122
| 45>    C       -5.98328         6.82130       -10.48700
| 46>    C       -5.90121         6.51957        -9.16866
| 47>    C       -4.97348         7.19800        -8.32515
| 48>    C       -4.84141         7.10136        -6.98868
| 49>    C       -5.65883         6.20655        -6.11529
| 50>    C       -3.80574         7.92609        -6.24986
| 51>    N       -2.72795         8.44350        -7.06037
| 52>    C       -2.97046         9.50174        -7.90700
| 53>    C       -2.51279         9.56632        -9.16583
| 54>    C       -2.81827        10.60431       -10.11177
| 55>    S       -3.21925        10.04620       -11.72980
| 56>    C       -3.50590        11.66806       -12.26827
| 57>    C       -3.85302        12.01058       -13.57934
| 58>    C       -3.95475        13.39110       -13.82692
| 59>    C       -4.31162        14.19239       -14.95211
| 60>    C       -4.25684        15.47873       -14.53139
| 61>    O       -3.90443        15.58349       -13.23249
| 62>    C       -3.72443        14.31941       -12.77936
| 63>    C       -3.39151        13.96145       -11.48751
| 64>    C       -3.27044        12.59781       -11.22698
| 65>    C       -2.90891        11.95447       -10.00684
| 66>    C       -4.07632        10.94586       -14.51650
| 67>    C       -3.91598        10.96716       -15.85895
| 68>    C       -4.16987         9.85254       -16.70378
| 69>    C       -4.25295         8.51855       -16.42555
| 70>    C       -3.90993         7.71352       -15.27107
| 71>    C       -2.90441         7.94861       -14.36954
| 72>    C       -2.63779         7.13105       -13.25597
| 73>    N       -2.41297         6.52255       -12.30743
| 74>    C       -1.99821         9.02068       -14.49489
| 75>    N       -1.20399         9.84247       -14.59973
| 76>    C       -4.63445         6.45181       -15.38757
| 77>    C       -5.19041         6.36680       -16.68749
| 78>    C       -4.93089         7.63222       -17.40678
| 79>    O       -5.25354         7.91187       -18.54070
| 80>    C       -5.85604         5.24964       -17.13145
| 81>    C       -6.00257         4.17970       -16.24275
| 82>    C       -5.50401         4.30458       -14.92510
| 83>    C       -4.80723         5.42219       -14.48278
| 84>    S       -5.84683         2.89111       -13.97838
| 85>    C       -6.60822         2.14857       -15.35653
| 86>    C       -6.61719         2.91803       -16.46765
| 87>   Br       -7.34365         0.43513       -15.18229
| 88>    H       -9.94238         1.95490       -16.77785
| 89>    H      -13.11195         0.12232       -13.35799
| 90>    H      -11.14553         0.10924       -18.51061
| 91>    H       -9.73575         3.73909       -10.75680
| 92>    H       -7.92756         7.79792       -15.59700
| 93>    H       -5.33555         7.56989       -10.92212
| 94>    H       -6.56388         5.77334        -8.75480
| 95>    H       -4.33712         7.88905        -8.85745
| 96>    H       -6.62493         5.98348        -6.55630
| 97>    H       -5.81430         6.66661        -5.14165
| 98>    H       -5.13203         5.26491        -5.95560
| 99>    H       -3.36893         7.31399        -5.45360
|100>    H       -4.31100         8.77380        -5.77167
|101>    H       -2.18545         7.70846        -7.50008
|102>    H       -3.57207        10.29506        -7.48433
|103>    H       -1.98530         8.71394        -9.57769
|104>    H       -4.58525        13.86041       -15.93144
|105>    H       -4.44225        16.39858       -15.05179
|106>    H       -3.23170        14.70140       -10.72078
|107>    H       -2.68090        12.49366        -9.10507
|108>    H       -4.41836        10.02665       -14.05782
|109>    H       -3.61782        11.88045       -16.35337
|110>    H       -4.39990        10.09206       -17.73910
|111>    H       -6.24896         5.20026       -18.13488
|112>    H       -4.42750         5.46863       -13.47529
|113>    H       -7.05049         2.61984       -17.40443
|114> *
|115>
|116>                          ****END OF INPUT****

CARTESIAN COORDINATES (ANGSTROEM)
---------------------------------
  C    -11.285910    2.248510  -12.521900
  C    -12.011110    2.113880  -11.367180
  C    -13.092170    1.220210  -11.210960
  N    -13.975790    0.513580  -11.019720
  C    -11.799000    2.854760  -10.185370
  N    -11.692500    3.423190   -9.193410
  C    -11.527820    1.537650  -13.769610
  C    -10.639270    2.029640  -14.758090
  C    -10.626720    1.554810  -16.047020
  C    -11.531990    0.542830  -16.378250
  C    -12.411780    0.051170  -15.382710
  C    -12.426830    0.533470  -14.080420
  S    -13.437200   -1.205470  -16.001940
  C    -12.684060   -1.055560  -17.567190
  C    -11.713190   -0.112680  -17.625680
  Br   -13.248020   -2.157630  -18.973180
  C     -9.759690    3.047530  -14.164750
  O     -8.800160    3.568430  -14.689360
  C    -10.190320    3.175990  -12.747730
  C     -9.543520    3.915570  -11.807350
  C     -8.579950    4.925890  -12.052010
  O     -7.747890    5.246340  -11.015480
  C     -8.304210    5.782350  -13.104120
  C     -8.763050    6.254890  -14.423400
  O     -9.709290    5.951430  -15.095890
  N     -7.859940    7.270920  -14.737470
  C     -6.943470    7.580620  -13.738400
  O     -6.127070    8.466840  -13.795800
  C     -7.243720    6.616830  -12.683090
  C     -6.927510    6.257620  -11.381220
  C     -5.983280    6.821300  -10.487000
  C     -5.901210    6.519570   -9.168660
  C     -4.973480    7.198000   -8.325150
  C     -4.841410    7.101360   -6.988680
  C     -5.658830    6.206550   -6.115290
  C     -3.805740    7.926090   -6.249860
  N     -2.727950    8.443500   -7.060370
  C     -2.970460    9.501740   -7.907000
  C     -2.512790    9.566320   -9.165830
  C     -2.818270   10.604310  -10.111770
  S     -3.219250   10.046200  -11.729800
  C     -3.505900   11.668060  -12.268270
  C     -3.853020   12.010580  -13.579340
  C     -3.954750   13.391100  -13.826920
  C     -4.311620   14.192390  -14.952110
  C     -4.256840   15.478730  -14.531390
  O     -3.904430   15.583490  -13.232490
  C     -3.724430   14.319410  -12.779360
  C     -3.391510   13.961450  -11.487510
  C     -3.270440   12.597810  -11.226980
  C     -2.908910   11.954470  -10.006840
  C     -4.076320   10.945860  -14.516500
  C     -3.915980   10.967160  -15.858950
  C     -4.169870    9.852540  -16.703780
  C     -4.252950    8.518550  -16.425550
  C     -3.909930    7.713520  -15.271070
  C     -2.904410    7.948610  -14.369540
  C     -2.637790    7.131050  -13.255970
  N     -2.412970    6.522550  -12.307430
  C     -1.998210    9.020680  -14.494890
  N     -1.203990    9.842470  -14.599730
  C     -4.634450    6.451810  -15.387570
  C     -5.190410    6.366800  -16.687490
  C     -4.930890    7.632220  -17.406780
  O     -5.253540    7.911870  -18.540700
  C     -5.856040    5.249640  -17.131450
  C     -6.002570    4.179700  -16.242750
  C     -5.504010    4.304580  -14.925100
  C     -4.807230    5.422190  -14.482780
  S     -5.846830    2.891110  -13.978380
  C     -6.608220    2.148570  -15.356530
  C     -6.617190    2.918030  -16.467650
  Br    -7.343650    0.435130  -15.182290
  H     -9.942380    1.954900  -16.777850
  H    -13.111950    0.122320  -13.357990
  H    -11.145530    0.109240  -18.510610
  H     -9.735750    3.739090  -10.756800
  H     -7.927560    7.797920  -15.597000
  H     -5.335550    7.569890  -10.922120
  H     -6.563880    5.773340   -8.754800
  H     -4.337120    7.889050   -8.857450
  H     -6.624930    5.983480   -6.556300
  H     -5.814300    6.666610   -5.141650
  H     -5.132030    5.264910   -5.955600
  H     -3.368930    7.313990   -5.453600
  H     -4.311000    8.773800   -5.771670
  H     -2.185450    7.708460   -7.500080
  H     -3.572070   10.295060   -7.484330
  H     -1.985300    8.713940   -9.577690
  H     -4.585250   13.860410  -15.931440
  H     -4.442250   16.398580  -15.051790
  H     -3.231700   14.701400  -10.720780
  H     -2.680900   12.493660   -9.105070
  H     -4.418360   10.026650  -14.057820
  H     -3.617820   11.880450  -16.353370
  H     -4.399900   10.092060  -17.739100
  H     -6.248960    5.200260  -18.134880
  H     -4.427500    5.468630  -13.475290
  H     -7.050490    2.619840  -17.404430

 Total Charge           Charge          ....    0
 Multiplicity           Mult            ....    1
 Number of Electrons    NEL             ....  570
 Basis Dimension        Dim             .... 1200

ORBITAL ENERGIES
----------------

  NO   OCC          E(Eh)            E(eV)
   0   2.0000    -482.888956    -13140.0765
   1   2.0000    -482.884546    -13139.9565
   2   2.0000     -88.979312     -2421.2502
   3   2.0000     -88.969420     -2420.9810
   4   2.0000     -88.939115     -2420.1564
   5   2.0000     -62.566700     -1702.5265
   6   2.0000     -62.561935     -1702.3968
   7   2.0000     -56.400652     -1534.7398
   8   2.0000     -56.397929     -1534.6657
   9   2.0000     -56.397902     -1534.6649
  10   2.0000     -56.395878     -1534.6099
  11   2.0000     -56.393221     -1534.5376
  12   2.0000     -56.393158     -1534.5358
  13   2.0000     -19.319933      -525.7221
  14   2.0000     -19.279027      -524.6090
  15   2.0000     -19.223232      -523.0907
  16   2.0000     -19.221745      -523.0503
  17   2.0000     -19.217369      -522.9312
  18   2.0000     -19.206004      -522.6219
  19   2.0000     -14.461587      -393.5198
  20   2.0000     -14.426534      -392.5660
  21   2.0000     -14.422857      -392.4659
  22   2.0000     -14.421264      -392.4226
  23   2.0000     -14.410213      -392.1218
  24   2.0000     -14.402310      -391.9068
  25   2.0000     -10.409751      -283.2637
  26   2.0000     -10.405918      -283.1594
  27   2.0000     -10.375112      -282.3212
  28   2.0000     -10.372219      -282.2424
  29   2.0000     -10.368606      -282.1441
  30   2.0000     -10.362752      -281.9848
  31   2.0000     -10.357019      -281.8288
  32   2.0000     -10.351280      -281.6726
  33   2.0000     -10.350207      -281.6435
  34   2.0000     -10.348235      -281.5898
  35   2.0000     -10.332604      -281.1645
  36   2.0000     -10.329997      -281.0935
  37   2.0000     -10.329429      -281.0781
  38   2.0000     -10.329116      -281.0695
  39   2.0000     -10.326792      -281.0063
  40   2.0000     -10.325329      -280.9665
  41   2.0000     -10.323708      -280.9224
  42   2.0000     -10.322755      -280.8964
  43   2.0000     -10.319918      -280.8192
  44   2.0000     -10.318524      -280.7813
  45   2.0000     -10.314319      -280.6669
  46   2.0000     -10.313298      -280.6391
  47   2.0000     -10.311875      -280.6004
  48   2.0000     -10.311650      -280.5943
  49   2.0000     -10.311456      -280.5890
  50   2.0000     -10.310147      -280.5534
  51   2.0000     -10.309653      -280.5399
  52   2.0000     -10.305151      -280.4174
  53   2.0000     -10.304185      -280.3911
  54   2.0000     -10.303726      -280.3786
  55   2.0000     -10.301355      -280.3141
  56   2.0000     -10.300429      -280.2889
  57   2.0000     -10.300291      -280.2852
  58   2.0000     -10.300032      -280.2781
  59   2.0000     -10.299014      -280.2504
  60   2.0000     -10.297590      -280.2117
  61   2.0000     -10.297544      -280.2104
  62   2.0000     -10.296786      -280.1898
  63   2.0000     -10.296712      -280.1878
  64   2.0000     -10.295247      -280.1479
  65   2.0000     -10.292030      -280.0604
  66   2.0000     -10.291462      -280.0449
  67   2.0000     -10.289263      -279.9851
  68   2.0000     -10.288543      -279.9655
  69   2.0000     -10.285977      -279.8957
  70   2.0000     -10.284196      -279.8472
  71   2.0000     -10.283541      -279.8294
  72   2.0000     -10.279650      -279.7235
  73   2.0000     -10.277930      -279.6767
  74   2.0000     -10.276484      -279.6373
  75   2.0000     -10.276478      -279.6372
  76   2.0000     -10.275975      -279.6235
  77   2.0000     -10.272535      -279.5299
  78   2.0000     -10.267998      -279.4064
  79   2.0000     -10.261031      -279.2169
  80   2.0000     -10.260952      -279.2147
  81   2.0000      -8.796153      -239.3555
  82   2.0000      -8.791234      -239.2216
  83   2.0000      -8.075405      -219.7430
  84   2.0000      -8.065075      -219.4619
  85   2.0000      -8.034150      -218.6203
  86   2.0000      -6.632490      -180.4792
  87   2.0000      -6.627302      -180.3380
  88   2.0000      -6.617880      -180.0817
  89   2.0000      -6.617657      -180.0756
  90   2.0000      -6.613072      -179.9508
  91   2.0000      -6.612932      -179.9470
  92   2.0000      -6.045099      -164.4955
  93   2.0000      -6.040808      -164.3787
  94   2.0000      -6.036597      -164.2642
  95   2.0000      -6.034801      -164.2153
  96   2.0000      -6.030583      -164.1005
  97   2.0000      -6.026260      -163.9829
  98   2.0000      -6.003775      -163.3710
  99   2.0000      -5.999579      -163.2569
 100   2.0000      -5.995689      -163.1510
 101   2.0000      -2.748315       -74.7855
 102   2.0000      -2.744276       -74.6755
 103   2.0000      -2.744118       -74.6712
 104   2.0000      -2.743224       -74.6469
 105   2.0000      -2.739210       -74.5377
 106   2.0000      -2.739136       -74.5357
 107   2.0000      -2.732493       -74.3549
 108   2.0000      -2.732481       -74.3546
 109   2.0000      -2.727817       -74.2277
 110   2.0000      -2.727795       -74.2271
 111   2.0000      -1.236920       -33.6583
 112   2.0000      -1.199568       -32.6419
 113   2.0000      -1.164744       -31.6943
 114   2.0000      -1.146042       -31.1854
 115   2.0000      -1.137122       -30.9427
 116   2.0000      -1.120760       -30.4974
 117   2.0000      -1.050588       -28.5879
 118   2.0000      -1.033242       -28.1159
 119   2.0000      -1.028439       -27.9853
 120   2.0000      -1.019031       -27.7292
 121   2.0000      -1.015778       -27.6407
 122   2.0000      -1.005200       -27.3529
 123   2.0000      -1.000620       -27.2283
 124   2.0000      -0.995818       -27.0976
 125   2.0000      -0.986478       -26.8434
 126   2.0000      -0.983958       -26.7748
 127   2.0000      -0.980088       -26.6696
 128   2.0000      -0.951844       -25.9010
 129   2.0000      -0.939208       -25.5571
 130   2.0000      -0.938203       -25.5298
 131   2.0000      -0.932669       -25.3792
 132   2.0000      -0.931351       -25.3433
 133   2.0000      -0.920356       -25.0442
 134   2.0000      -0.913775       -24.8651
 135   2.0000      -0.907640       -24.6981
 136   2.0000      -0.901647       -24.5351
 137   2.0000      -0.897809       -24.4306
 138   2.0000      -0.890642       -24.2356
 139   2.0000      -0.887831       -24.1591
 140   2.0000      -0.879251       -23.9256
 141   2.0000      -0.877168       -23.8690
 142   2.0000      -0.873600       -23.7719
 143   2.0000      -0.861151       -23.4331
 144   2.0000      -0.850230       -23.1359
 145   2.0000      -0.838540       -22.8178
 146   2.0000      -0.833413       -22.6783
 147   2.0000      -0.822926       -22.3930
 148   2.0000      -0.818085       -22.2612
 149   2.0000      -0.808678       -22.0052
 150   2.0000      -0.797658       -21.7054
 151   2.0000      -0.786488       -21.4014
 152   2.0000      -0.782935       -21.3047
 153   2.0000      -0.773587       -21.0504
 154   2.0000      -0.768616       -20.9151
 155   2.0000      -0.767002       -20.8712
 156   2.0000      -0.761467       -20.7206
 157   2.0000      -0.757136       -20.6027
 158   2.0000      -0.747663       -20.3450
 159   2.0000      -0.725914       -19.7531
 160   2.0000      -0.719892       -19.5893
 161   2.0000      -0.712577       -19.3902
 162   2.0000      -0.708399       -19.2765
 163   2.0000      -0.697991       -18.9933
 164   2.0000      -0.693325       -18.8663
 165   2.0000      -0.692871       -18.8540
 166   2.0000      -0.682975       -18.5847
 167   2.0000      -0.680565       -18.5191
 168   2.0000      -0.677558       -18.4373
 169   2.0000      -0.667607       -18.1665
 170   2.0000      -0.661760       -18.0074
 171   2.0000      -0.658712       -17.9245
 172   2.0000      -0.652426       -17.7534
 173   2.0000      -0.641660       -17.4605
 174   2.0000      -0.636719       -17.3260
 175   2.0000      -0.630927       -17.1684
 176   2.0000      -0.627814       -17.0837
 177   2.0000      -0.620413       -16.8823
 178   2.0000      -0.615670       -16.7532
 179   2.0000      -0.614566       -16.7232
 180   2.0000      -0.609845       -16.5947
 181   2.0000      -0.602812       -16.4033
 182   2.0000      -0.601238       -16.3605
 183   2.0000      -0.599207       -16.3053
 184   2.0000      -0.595187       -16.1959
 185   2.0000      -0.591590       -16.0980
 186   2.0000      -0.587308       -15.9815
 187   2.0000      -0.581318       -15.8185
 188   2.0000      -0.580237       -15.7891
 189   2.0000      -0.575754       -15.6671
 190   2.0000      -0.572572       -15.5805
 191   2.0000      -0.563568       -15.3355
 192   2.0000      -0.561655       -15.2834
 193   2.0000      -0.560877       -15.2622
 194   2.0000      -0.557435       -15.1686
 195   2.0000      -0.554367       -15.0851
 196   2.0000      -0.547915       -14.9095
 197   2.0000      -0.547752       -14.9051
 198   2.0000      -0.546845       -14.8804
 199   2.0000      -0.546139       -14.8612
 200   2.0000      -0.542523       -14.7628
 201   2.0000      -0.538089       -14.6422
 202   2.0000      -0.535088       -14.5605
 203   2.0000      -0.529566       -14.4102
 204   2.0000      -0.528387       -14.3781
 205   2.0000      -0.526185       -14.3182
 206   2.0000      -0.525509       -14.2998
 207   2.0000      -0.523687       -14.2502
 208   2.0000      -0.523102       -14.2343
 209   2.0000      -0.518774       -14.1166
 210   2.0000      -0.514644       -14.0042
 211   2.0000      -0.514306       -13.9950
 212   2.0000      -0.512356       -13.9419
 213   2.0000      -0.506034       -13.7699
 214   2.0000      -0.503526       -13.7016
 215   2.0000      -0.501693       -13.6518
 216   2.0000      -0.498071       -13.5532
 217   2.0000      -0.497308       -13.5324
 218   2.0000      -0.495412       -13.4808
 219   2.0000      -0.493833       -13.4379
 220   2.0000      -0.491676       -13.3792
 221   2.0000      -0.487113       -13.2550
 222   2.0000      -0.486002       -13.2248
 223   2.0000      -0.482741       -13.1361
 224   2.0000      -0.481004       -13.0888
 225   2.0000      -0.479861       -13.0577
 226   2.0000      -0.478437       -13.0189
 227   2.0000      -0.474926       -12.9234
 228   2.0000      -0.474278       -12.9058
 229   2.0000      -0.469881       -12.7861
 230   2.0000      -0.465388       -12.6639
 231   2.0000      -0.462572       -12.5872
 232   2.0000      -0.460203       -12.5228
 233   2.0000      -0.455083       -12.3834
 234   2.0000      -0.454216       -12.3599
 235   2.0000      -0.452544       -12.3143
 236   2.0000      -0.450957       -12.2712
 237   2.0000      -0.449818       -12.2402
 238   2.0000      -0.445485       -12.1223
 239   2.0000      -0.444219       -12.0878
 240   2.0000      -0.443836       -12.0774
 241   2.0000      -0.443336       -12.0638
 242   2.0000      -0.440589       -11.9890
 243   2.0000      -0.437709       -11.9107
 244   2.0000      -0.435676       -11.8553
 245   2.0000      -0.433094       -11.7851
 246   2.0000      -0.433050       -11.7839
 247   2.0000      -0.430035       -11.7018
 248   2.0000      -0.428887       -11.6706
 249   2.0000      -0.428453       -11.6588
 250   2.0000      -0.422693       -11.5021
 251   2.0000      -0.419861       -11.4250
 252   2.0000      -0.417864       -11.3707
 253   2.0000      -0.415285       -11.3005
 254   2.0000      -0.414508       -11.2793
 255   2.0000      -0.407307       -11.0834
 256   2.0000      -0.403192       -10.9714
 257   2.0000      -0.399569       -10.8728
 258   2.0000      -0.395916       -10.7734
 259   2.0000      -0.391446       -10.6518
 260   2.0000      -0.390578       -10.6282
 261   2.0000      -0.388763       -10.5788
 262   2.0000      -0.379489       -10.3264
 263   2.0000      -0.378915       -10.3108
 264   2.0000      -0.378289       -10.2938
 265   2.0000      -0.376817       -10.2537
 266   2.0000      -0.373328       -10.1588
 267   2.0000      -0.368718       -10.0333
 268   2.0000      -0.365046        -9.9334
 269   2.0000      -0.361301        -9.8315
 270   2.0000      -0.353199        -9.6110
 271   2.0000      -0.348900        -9.4940
 272   2.0000      -0.346293        -9.4231
 273   2.0000      -0.335534        -9.1303
 274   2.0000      -0.327449        -8.9103
 275   2.0000      -0.324233        -8.8228
 276   2.0000      -0.319078        -8.6825
 277   2.0000      -0.307138        -8.3577
 278   2.0000      -0.303492        -8.2584
 279   2.0000      -0.297793        -8.1034
 280   2.0000      -0.295973        -8.0538
 281   2.0000      -0.284364        -7.7379
 282   2.0000      -0.271280        -7.3819
 283   2.0000      -0.260740        -7.0951
 284   2.0000      -0.243542        -6.6271
 285   0.0000      -0.104861        -2.8534
 286   0.0000      -0.082712        -2.2507
 287   0.0000      -0.068085        -1.8527
 288   0.0000      -0.056029        -1.5246
 289   0.0000      -0.047917        -1.3039

MULLIKEN ATOMIC CHARGES
-----------------------
   0 C :    0.306265
   1 C :   -0.341861
   2 C :   -0.185146
   3 N :    0.154841
   4 C :   -0.195195
   5 N :    0.160133
   6 C :    0.015538
   7 C :   -0.006588
   8 C :   -0.058370
   9 C :    0.116097
  10 C :   -0.088494
  11 C :   -0.023298
  12 S :    0.188297
  13 C :   -0.123263
  14 C :    0.039276
  15 Br:    0.027843
  16 C :    0.167639
  17 O :   -0.147969
  18 C :   -0.060595
  19 C :   -0.037483
  20 C :    0.106587
  21 O :   -0.201940
  22 C :   -0.010827
  23 C :    0.186462
  24 O :   -0.126841
  25 N :   -0.164087
  26 C :    0.195350
  27 O :   -0.147799
  28 C :   -0.059442
  29 C :    0.109044
  30 C :   -0.041423
  31 C :    0.038503
  32 C :    0.027556
  33 C :   -0.209171
  34 C :    0.081154
  35 C :    0.189075
  36 N :   -0.167783
  37 C :    0.047965
  38 C :    0.018960
  39 C :   -0.060950
  40 S :    0.076953
  41 C :   -0.102672
  42 C :    0.133754
  43 C :    0.009917
  44 C :   -0.062264
  45 C :    0.167626
  46 O :   -0.201873
  47 C :    0.176727
  48 C :   -0.112148
  49 C :    0.101221
  50 C :   -0.024682
  51 C :   -0.064484
  52 C :    0.005710
  53 C :    0.043203
  54 C :   -0.118746
  55 C :    0.301333
  56 C :   -0.340334
  57 C :   -0.156845
  58 N :    0.129510
  59 C :   -0.230806
  60 N :    0.185391
  61 C :   -0.014575
  62 C :   -0.005763
  63 C :    0.120238
  64 O :   -0.150542
  65 C :   -0.092881
  66 C :    0.135212
  67 C :   -0.095194
  68 C :   -0.016872
  69 S :    0.172824
  70 C :   -0.115143
  71 C :    0.063702
  72 Br:    0.005699
  73 H :   -0.021557
  74 H :   -0.006260
  75 H :   -0.003209
  76 H :    0.029105
  77 H :    0.144143
  78 H :    0.012905
  79 H :    0.000799
  80 H :   -0.026412
  81 H :    0.029617
  82 H :    0.022178
  83 H :    0.041514
  84 H :    0.022160
  85 H :    0.034614
  86 H :    0.115086
  87 H :    0.004518
  88 H :    0.004258
  89 H :   -0.019576
  90 H :    0.011186
  91 H :   -0.026930
  92 H :   -0.034240
  93 H :    0.051531
  94 H :   -0.004085
  95 H :    0.020803
  96 H :   -0.014964
  97 H :   -0.014151
  98 H :   -0.014290
Sum of atomic charges:   -0.0000000

LOEWDIN ATOMIC CHARGES
----------------------
   0 C :    0.074319
   1 C :   -0.133911
   2 C :   -0.018385
   3 N :   -0.048018
   4 C :   -0.021807
   5 N :   -0.048163
   6 C :   -0.020367
   7 C :   -0.047146
   8 C :    0.023095
   9 C :   -0.031414
  10 C :   -0.143348
  11 C :   -0.010023
  12 S :    0.434828
  13 C :   -0.270927
  14 C :   -0.070024
  15 Br:    0.140499
  16 C :    0.087453
  17 O :   -0.117376
  18 C :   -0.069632
  19 C :    0.044790
  20 C :    0.044606
  21 O :    0.020512
  22 C :   -0.050337
  23 C :    0.087875
  24 O :   -0.137489
  25 N :    0.005002
  26 C :    0.094577
  27 O :   -0.163937
  28 C :   -0.107984
  29 C :    0.088181
  30 C :   -0.052783
  31 C :    0.031642
  32 C :   -0.062702
  33 C :   -0.015569
  34 C :   -0.048448
  35 C :    0.036153
  36 N :   -0.030629
  37 C :    0.043556
  38 C :   -0.132263
  39 C :   -0.135482
  40 S :    0.423652
  41 C :   -0.142571
  42 C :   -0.049393
  43 C :   -0.033153
  44 C :   -0.079080
  45 C :    0.064390
  46 O :   -0.005204
  47 C :    0.038854
  48 C :   -0.028599
  49 C :   -0.042017
  50 C :   -0.077380
  51 C :    0.047188
  52 C :   -0.047803
  53 C :    0.074640
  54 C :   -0.096918
  55 C :    0.077790
  56 C :   -0.149884
  57 C :   -0.015954
  58 N :   -0.077332
  59 C :   -0.030363
  60 N :   -0.042923
  61 C :   -0.018229
  62 C :   -0.058586
  63 C :    0.078948
  64 O :   -0.152413
  65 C :    0.019608
  66 C :   -0.030737
  67 C :   -0.142439
  68 C :   -0.021885
  69 S :    0.427209
  70 C :   -0.269750
  71 C :   -0.064472
  72 Br:    0.136305
  73 H :    0.037804
  74 H :    0.041154
  75 H :    0.039052
  76 H :    0.052747
  77 H :    0.096540
  78 H :    0.042609
  79 H :    0.029999
  80 H :    0.033670
  81 H :    0.034355
  82 H :    0.034706
  83 H :    0.044781
  84 H :    0.030778
  85 H :    0.039136
  86 H :    0.075370
  87 H :    0.025941
  88 H :    0.028024
  89 H :    0.028995
  90 H :    0.025250
  91 H :    0.035887
  92 H :    0.026403
  93 H :    0.029944
  94 H :    0.031887
  95 H :    0.044310
  96 H :    0.039771
  97 H :    0.037077
  98 H :    0.033391

  Mayer bond orders larger than 0.100000
B(  0-C ,  1-C ) :   1.6436 B(  0-C ,  6-C ) :   1.0106 B(  0-C , 18-C ) :   1.0645
B(  1-C ,  2-C ) :   1.1382 B(  1-C ,  4-C ) :   1.1439 B(  2-C ,  3-N ) :   2.9735
B(  4-C ,  5-N ) :   2.9817 B(  6-C ,  7-C ) :   1.2724 B(  6-C , 11-C ) :   1.4000
B(  7-C ,  8-C ) :   1.4162 B(  7-C , 16-C ) :   0.9482 B(  8-C ,  9-C ) :   1.2504
B(  8-C , 73-H ) :   1.0168 B(  9-C , 10-C ) :   1.2994 B(  9-C , 14-C ) :   1.1642
B( 10-C , 11-C ) :   1.3359 B( 10-C , 12-S ) :   1.0868 B( 11-C , 74-H ) :   0.9803
B( 12-S , 13-C ) :   1.0864 B( 13-C , 14-C ) :   1.6159 B( 13-C , 15-Br) :   1.0208
B( 14-C , 75-H ) :   1.0006 B( 16-C , 17-O ) :   2.1528 B( 16-C , 18-C ) :   0.9450
B( 18-C , 19-C ) :   1.5932 B( 19-C , 20-C ) :   1.1795 B( 19-C , 76-H ) :   0.9305
B( 20-C , 21-O ) :   1.1083 B( 20-C , 22-C ) :   1.4302 B( 21-O , 29-C ) :   1.1873
B( 22-C , 23-C ) :   0.8636 B( 22-C , 28-C ) :   1.3128 B( 23-C , 24-O ) :   2.2547
B( 23-C , 25-N ) :   1.0702 B( 25-N , 26-C ) :   1.0985 B( 25-N , 77-H ) :   0.9093
B( 26-C , 27-O ) :   2.1423 B( 26-C , 28-C ) :   0.8966 B( 28-C , 29-C ) :   1.3428
B( 29-C , 30-C ) :   1.1572 B( 30-C , 31-C ) :   1.6238 B( 30-C , 78-H ) :   0.9660
B( 31-C , 32-C ) :   1.1092 B( 31-C , 79-H ) :   0.9931 B( 32-C , 33-C ) :   1.7540
B( 32-C , 80-H ) :   0.9568 B( 33-C , 34-C ) :   1.0839 B( 33-C , 35-C ) :   0.9849
B( 34-C , 81-H ) :   0.9511 B( 34-C , 82-H ) :   0.9527 B( 34-C , 83-H ) :   0.9443
B( 35-C , 36-N ) :   1.0672 B( 35-C , 84-H ) :   0.9461 B( 35-C , 85-H ) :   0.9196
B( 36-N , 37-C ) :   1.1742 B( 36-N , 86-H ) :   0.9447 B( 37-C , 38-C ) :   1.7396
B( 37-C , 87-H ) :   0.9674 B( 38-C , 39-C ) :   1.0631 B( 38-C , 88-H ) :   0.9302
B( 39-C , 40-S ) :   1.0878 B( 39-C , 50-C ) :   1.6293 B( 40-S , 41-C ) :   1.0684
B( 41-C , 42-C ) :   1.3585 B( 41-C , 49-C ) :   1.3020 B( 42-C , 43-C ) :   1.2666
B( 42-C , 51-C ) :   1.1035 B( 43-C , 44-C ) :   1.1661 B( 43-C , 47-C ) :   1.2702
B( 44-C , 45-C ) :   1.5916 B( 44-C , 89-H ) :   1.0029 B( 45-C , 46-O ) :   1.1192
B( 45-C , 90-H ) :   1.0013 B( 46-O , 47-C ) :   1.1140 B( 47-C , 48-C ) :   1.3643
B( 48-C , 49-C ) :   1.2837 B( 48-C , 91-H ) :   1.0178 B( 49-C , 50-C ) :   1.1282
B( 50-C , 92-H ) :   1.0060 B( 51-C , 52-C ) :   1.6642 B( 51-C , 93-H ) :   0.9354
B( 52-C , 53-C ) :   1.1566 B( 52-C , 94-H ) :   0.9618 B( 53-C , 54-C ) :   1.6550
B( 53-C , 95-H ) :   0.9286 B( 54-C , 55-C ) :   1.0250 B( 54-C , 63-C ) :   0.9623
B( 55-C , 56-C ) :   1.6464 B( 55-C , 61-C ) :   1.0179 B( 56-C , 57-C ) :   1.1359
B( 56-C , 59-C ) :   1.1704 B( 57-C , 58-N ) :   2.9475 B( 59-C , 60-N ) :   3.0013
B( 61-C , 62-C ) :   1.2906 B( 61-C , 68-C ) :   1.4117 B( 62-C , 63-C ) :   0.9144
B( 62-C , 65-C ) :   1.4101 B( 63-C , 64-O ) :   2.2572 B( 65-C , 66-C ) :   1.2417
B( 65-C , 96-H ) :   1.0164 B( 66-C , 67-C ) :   1.3151 B( 66-C , 71-C ) :   1.1673
B( 67-C , 68-C ) :   1.3248 B( 67-C , 69-S ) :   1.0823 B( 68-C , 97-H ) :   0.9822
B( 69-S , 70-C ) :   1.0798 B( 70-C , 71-C ) :   1.6244 B( 70-C , 72-Br) :   1.0093
B( 71-C , 98-H ) :   0.9953

-----------------------------------------------------------------------------
         ABSORPTION SPECTRUM VIA TRANSITION ELECTRIC DIPOLE MOMENTS
-----------------------------------------------------------------------------
State   Energy  Wavelength   fosc         T2         TX        TY        TZ
        (cm-1)    (nm)                  (au**2)     (au)      (au)      (au)
-----------------------------------------------------------------------------
   0   18266.4    547.5   0.213230763   3.84303   0.18692  -1.85228  -0.61412
   1   19033.5    525.4   0.464152769   8.02821  -1.66452  -2.11004  -0.89739
   2   20132.1    496.7   0.291604683   4.76848   1.58581   1.38865   0.57040
   3   21185.6    472.0   0.030481819   0.47367  -0.00209   0.50017   0.47275
   4   22387.9    446.7   0.010604575   0.15594   0.36529   0.13636   0.06253
   5   22773.6    439.1   0.024159602   0.34925   0.33580   0.47272   0.11410
   6   25405.1    393.6   0.027430056   0.35545  -0.16981   0.52182   0.23308
   7   25524.0    391.8   0.122793275   1.58380   0.26828   0.43915   1.14847
   8   25996.5    384.7   0.016013070   0.20278   0.14118  -0.03820   0.42590
   9   26723.3    374.2   0.060947226   0.75083   0.63510   0.28078  -0.51830
  10   26882.1    372.0   0.090923704   1.11350   0.23808  -0.30153  -0.98280
  11   27289.8    366.4   0.057363308   0.69201  -0.02050  -0.21159  -0.80425
  12   27507.2    363.5   0.273816490   3.27710   1.11565   1.21120   0.75195
  13   28357.4    352.6   0.135043721   1.56777  -0.11108  -0.44101  -1.16659
  14   28469.2    351.3   0.056276124   0.65077  -0.10683  -0.68620   0.41046
  15   28678.9    348.7   0.256853708   2.94848  -0.27632  -1.69160  -0.10296
  16   29187.5    342.6   0.114610052   1.29271  -0.75433  -0.47528  -0.70556
  17   29515.6    338.8   0.054726364   0.61041  -0.37098  -0.37520  -0.57620
  18   29754.2    336.1   0.007056913   0.07808   0.15660  -0.04622  -0.22676
  19   30100.0    332.2   0.001937081   0.02119   0.09881  -0.10517   0.01906
  20   30300.1    330.0   0.015513994   0.16856  -0.27194  -0.00285  -0.30757
  21   30494.8    327.9   0.022240035   0.24010   0.15570  -0.24384   0.39547
  22   30760.2    325.1   0.043141916   0.46173  -0.12644  -0.08403  -0.66233
  23   30920.7    323.4   0.407775262   4.34158  -0.76047  -0.41918  -1.89408
  24   31562.1    316.8   0.040768658   0.42524   0.09367   0.10662   0.63647
  25   31815.8    314.3   0.021504846   0.22252   0.32092  -0.33280   0.09368
  26   32169.5    310.9   0.212744099   2.17715  -0.43176  -0.85945  -1.11896
  27   32503.7    307.7   0.135913450   1.37659   0.66682  -0.12590  -0.95712
  28   32613.9    306.6   0.152699861   1.54139   0.01887   0.53625   1.11959
  29   32777.1    305.1   0.043986944   0.44180   0.12602   0.19567   0.62260
  30   33133.2    301.8   0.376322234   3.73914   0.93302   1.34174   1.03361
  31   33286.0    300.4   0.078589159   0.77728   0.66541   0.52795   0.23616
  32   33418.1    299.2   0.079304495   0.78125   0.48087   0.47372   0.57062
  33   33933.2    294.7   0.490910829   4.76270   0.96573   1.95695   0.02043
  34   34320.8    291.4   0.071342003   0.68433   0.52150   0.04822  -0.64034
  35   34719.4    288.0   0.217361646   2.06104  -0.71495   0.41368  -1.17420
  36   35755.7    279.7   0.037585727   0.34606  -0.08448  -0.53820  -0.22197
  37   35942.3    278.2   0.356013665   3.26090  -0.11135  -1.53745   0.94062
  38   36367.5    275.0   0.073798789   0.66805   0.23749   0.35922   0.69470
  39   36521.3    273.8   0.103509462   0.93306   0.67132   0.52958  -0.44937
  40   36899.9    271.0   0.014743958   0.13154  -0.05768  -0.17206  -0.31402
  41   37022.4    270.1   0.011439238   0.10172   0.21022  -0.23257   0.05864
  42   37211.0    268.7   0.059468728   0.52613   0.04609  -0.69451  -0.20410
  43   37349.8    267.7   0.003673325   0.03238  -0.00292   0.03648   0.17618
  44   37666.0    265.5   0.055482944   0.48494   0.01911  -0.59716   0.35772
  45   37980.0    263.3   0.007553725   0.06548  -0.03574  -0.25336   0.00264
  46   38115.0    262.4   0.032044506   0.27678  -0.39763  -0.12662  -0.32037
  47   38209.6    261.7   0.070028740   0.60336  -0.24909  -0.24882  -0.69239
  48   38312.1    261.0   0.397783299   3.41811   0.50362   1.49382  -0.96592
  49   38502.3    259.7   0.053981602   0.46157  -0.17955  -0.17795   0.63061
  50   38809.5    257.7   0.062147325   0.52718  -0.17088   0.38291  -0.59276
  51   38946.4    256.8   0.131039854   1.10767  -0.43346  -0.49101   0.82383
  52   39021.9    256.3   0.136437298   1.15107   0.57081  -0.33163   0.84574
  53   39094.3    255.8   0.011325659   0.09537   0.04921   0.29090  -0.09125
  54   39707.8    251.8   0.007628175   0.06324  -0.09504  -0.18922   0.13566
  55   39843.8    251.0   0.043225913   0.35716   0.03309   0.55895  -0.20888
  56   40064.6    249.6   0.019529618   0.16048   0.20108  -0.26643   0.22149

FINAL SINGLE POINT ENERGY     -9267.829069071469

DIPOLE MOMENT
-------------
                                X             Y             Z
Electronic contribution:    -96.38111    -171.44398    -110.66139
Nuclear contribution   :     95.99804     171.10030     111.22567
                        -----------------------------------------
Total Dipole Moment    :     -0.38307      -0.34368       0.56428
                        -----------------------------------------
Magnitude (a.u.)       :      0.76372
Magnitude (Debye)      :      1.94123

Rotational constants in cm-1:     0.001469     0.000399     0.000356
Rotational constants in MHz :    44.028656    11.953996    10.659760

                             ****ORCA TERMINATED NORMALLY****
TOTAL RUN TIME: 0 days 0 hours 12 minutes 44 seconds 344 msec
