                         Program Version 4.2.0 -  RELEASE  -
|  1> # ORCA input file
|  2> # SCF done       -200.796982797368          0.000840794899
|  3> ! CAM-B3LYP def2-SVP def2/J RIJCOSX Grid4 TightSCF
|  4> %maxcore 5000
|  5> %tddft
|  6>     Mode sTDDFT
|  7>     Ethresh 5.0
|  8>     maxcore 5000
|  9> end
| 10>
| 11> %pal
| 12>   nprocs 6
| 13>   end
| 14> * xyz 0 1
| 15>    C       -4.62843        -0.91312        -1.20029
| 16>    C       -4.78717        -2.10257        -0.53302
| 17>    C       -3.73569        -2.99331        -0.24194
| 18>    N       -2.91644        -3.75383         0.02100
| 19>    C       -6.02434        -2.58108        -0.05898
| 20>    N       -7.01291        -3.00922         0.33915
| 21>    C       -3.36691        -0.38420        -1.71297
| 22>    C       -3.61376         0.86198        -2.34461
| 23>    C       -2.62320         1.60780        -2.93496
| 24>    C       -1.31995         1.10113        -2.90051
| 25>    C       -1.07962        -0.13976        -2.26463
| 26>    C       -2.08376        -0.89454        -1.66809
| 27>    S        0.60028        -0.57685        -2.33358
| 28>    C        0.95123         0.89194        -3.20579
| 29>    C       -0.13230         1.67153        -3.43407
| 30>   Br        2.71386         1.25787        -3.73371
| 31>    C       -5.04571         1.16595        -2.24738
| 32>    O       -5.62486         2.15577        -2.68503
| 33>    C       -5.65700         0.04423        -1.53126
| 34>    C       -7.00735         0.00632        -1.27041
| 35>    N       -7.79729         1.00918        -1.66830
| 36>    C       -9.13360         1.13862        -1.46493
| 37>    S      -10.02167         0.00655        -0.48920
| 38>    C      -11.43863         0.98703        -0.68080
| 39>    N      -12.62066         0.56095        -0.06475
| 40>    O      -13.60949         1.25970        -0.19614
| 41>    O      -12.56882        -0.48206         0.56422
| 42>    C      -11.23082         2.10873        -1.44006
| 43>    C       -9.91350         2.20690        -1.92185
| 44>    C       -9.45249         3.30648        -2.74064
| 45>    C       -8.48992         3.23331        -3.67455
| 46>    C       -7.93196         4.33421        -4.42821
| 47>    C       -6.74692         4.09850        -5.14272
| 48>    C       -6.12916         5.13415        -5.79769
| 49>    C       -6.69097         6.42154        -5.78117
| 50>    C       -7.88334         6.65886        -5.11038
| 51>    C       -8.48964         5.61837        -4.43792
| 52>    C       -5.81247         7.31472        -6.49876
| 53>    C       -4.70349         6.58324        -6.96462
| 54>    C       -4.86045         5.11667        -6.62514
| 55>    C       -3.65924         4.56509        -5.84400
| 56>    C       -3.46987         5.27038        -4.50516
| 57>    C       -5.15895         4.26981        -7.88496
| 58>    C       -4.06736         4.25338        -8.94682
| 59>    C       -3.67068         7.22860        -7.59763
| 60>    C       -3.72914         8.61950        -7.81044
| 61>    C       -4.86538         9.32058        -7.37235
| 62>    C       -5.89517         8.68344        -6.71693
| 63>    C       -2.62533         9.26708        -8.46014
| 64>    C       -2.46978        10.60845        -8.61870
| 65>    C       -1.37797        11.22073        -9.25713
| 66>    C       -1.24381        12.58355        -9.36629
| 67>    C       -0.20152        13.31216        -9.98552
| 68>    C       -0.34736        14.66738        -9.92097
| 69>    C       -1.51098        15.08612        -9.24417
| 70>    S       -2.42577        13.70133        -8.69711
| 71>    C       -1.94729        16.37474        -8.98595
| 72>    C       -1.34682        17.59783        -9.34064
| 73>    C       -2.03839        18.69377        -8.90992
| 74>    C       -3.21810        18.39535        -8.19317
| 75>    S       -3.42619        16.66008        -8.09201
| 76>    C       -4.08413        19.31512        -7.63757
| 77>    C       -5.24492        19.06063        -6.91467
| 78>    S       -5.84085        17.45846        -6.60257
| 79>    C       -7.23528        18.03086        -5.74452
| 80>    C       -7.22361        19.42927        -5.65567
| 81>    C       -6.11093        20.01718        -6.32725
| 82>    C       -5.96583        21.40662        -6.33428
| 83>    C       -6.86893        22.21901        -5.67948
| 84>    C       -6.69563        23.66868        -5.69486
| 85>    C       -6.16850        24.35739        -6.69955
| 86>    C       -7.94866        21.63171        -4.95953
| 87>    C       -8.91878        22.49750        -4.21355
| 88>    C       -8.11080        20.27204        -4.95731
| 89>    C       -8.16516        17.04550        -5.28282
| 90>    C       -9.45423        17.22369        -4.98432
| 91>    H       -2.84604         2.55227        -3.40563
| 92>    H       -1.84832        -1.83411        -1.19711
| 93>    H       -0.09706         2.61001        -3.95656
| 94>    H       -7.47596        -0.82099        -0.75353
| 95>    H       -7.30073         1.78591        -2.14019
| 96>    H      -12.01151         2.81710        -1.65105
| 97>    H       -9.96578         4.24025        -2.55956
| 98>    H       -8.04920         2.27326        -3.90895
| 99>    H       -6.31255         3.10974        -5.13214
|100>    H       -8.32541         7.64396        -5.10707
|101>    H       -9.41575         5.80073        -3.91487
|102>    H       -2.75744         4.69087        -6.44546
|103>    H       -3.80789         3.49541        -5.67767
|104>    H       -3.40951         6.34735        -4.64752
|105>    H       -2.54890         4.94065        -4.02724
|106>    H       -4.30205         5.05776        -3.83778
|107>    H       -6.07857         4.65340        -8.33491
|108>    H       -5.35541         3.24606        -7.55757
|109>    H       -3.91002         5.24782        -9.35509
|110>    H       -4.36781         3.59809        -9.76178
|111>    H       -3.12810         3.88147        -8.54574
|112>    H       -2.79019         6.69134        -7.91928
|113>    H       -4.93539        10.38265        -7.54604
|114>    H       -6.75158         9.24291        -6.37094
|115>    H       -1.84663         8.61451        -8.83709
|116>    H       -3.21791        11.28473        -8.22725
|117>    H       -0.60152        10.59968        -9.68371
|118>    H        0.62500        12.81218       -10.45940
|119>    H        0.35052        15.37156       -10.33784
|120>    H       -0.42842        17.64249        -9.89804
|121>    H       -1.73229        19.71043        -9.08480
|122>    H       -3.82160        20.35554        -7.77731
|123>    H       -5.11951        21.85288        -6.83301
|124>    H       -7.03867        24.19839        -4.81661
|125>    H       -5.84783        23.88591        -7.61358
|126>    H       -6.05750        25.42715        -6.65292
|127>    H       -9.34499        23.25339        -4.87146
|128>    H       -8.42284        23.00817        -3.38793
|129>    H       -9.72763        21.89759        -3.80379
|130>    H       -8.91481        19.83462        -4.38793
|131>    H       -7.75373        16.04411        -5.23010
|132>    H       -9.95270        18.16978        -5.09048
|133>    H      -10.06140        16.39730        -4.65851
|134> *
|135>
|136>                          ****END OF INPUT****

CARTESIAN COORDINATES (ANGSTROEM)
---------------------------------
  C     -4.628430   -0.913120   -1.200290
  C     -4.787170   -2.102570   -0.533020
  C     -3.735690   -2.993310   -0.241940
  N     -2.916440   -3.753830    0.021000
  C     -6.024340   -2.581080   -0.058980
  N     -7.012910   -3.009220    0.339150
  C     -3.366910   -0.384200   -1.712970
  C     -3.613760    0.861980   -2.344610
  C     -2.623200    1.607800   -2.934960
  C     -1.319950    1.101130   -2.900510
  C     -1.079620   -0.139760   -2.264630
  C     -2.083760   -0.894540   -1.668090
  S      0.600280   -0.576850   -2.333580
  C      0.951230    0.891940   -3.205790
  C     -0.132300    1.671530   -3.434070
  Br     2.713860    1.257870   -3.733710
  C     -5.045710    1.165950   -2.247380
  O     -5.624860    2.155770   -2.685030
  C     -5.657000    0.044230   -1.531260
  C     -7.007350    0.006320   -1.270410
  N     -7.797290    1.009180   -1.668300
  C     -9.133600    1.138620   -1.464930
  S    -10.021670    0.006550   -0.489200
  C    -11.438630    0.987030   -0.680800
  N    -12.620660    0.560950   -0.064750
  O    -13.609490    1.259700   -0.196140
  O    -12.568820   -0.482060    0.564220
  C    -11.230820    2.108730   -1.440060
  C     -9.913500    2.206900   -1.921850
  C     -9.452490    3.306480   -2.740640
  C     -8.489920    3.233310   -3.674550
  C     -7.931960    4.334210   -4.428210
  C     -6.746920    4.098500   -5.142720
  C     -6.129160    5.134150   -5.797690
  C     -6.690970    6.421540   -5.781170
  C     -7.883340    6.658860   -5.110380
  C     -8.489640    5.618370   -4.437920
  C     -5.812470    7.314720   -6.498760
  C     -4.703490    6.583240   -6.964620
  C     -4.860450    5.116670   -6.625140
  C     -3.659240    4.565090   -5.844000
  C     -3.469870    5.270380   -4.505160
  C     -5.158950    4.269810   -7.884960
  C     -4.067360    4.253380   -8.946820
  C     -3.670680    7.228600   -7.597630
  C     -3.729140    8.619500   -7.810440
  C     -4.865380    9.320580   -7.372350
  C     -5.895170    8.683440   -6.716930
  C     -2.625330    9.267080   -8.460140
  C     -2.469780   10.608450   -8.618700
  C     -1.377970   11.220730   -9.257130
  C     -1.243810   12.583550   -9.366290
  C     -0.201520   13.312160   -9.985520
  C     -0.347360   14.667380   -9.920970
  C     -1.510980   15.086120   -9.244170
  S     -2.425770   13.701330   -8.697110
  C     -1.947290   16.374740   -8.985950
  C     -1.346820   17.597830   -9.340640
  C     -2.038390   18.693770   -8.909920
  C     -3.218100   18.395350   -8.193170
  S     -3.426190   16.660080   -8.092010
  C     -4.084130   19.315120   -7.637570
  C     -5.244920   19.060630   -6.914670
  S     -5.840850   17.458460   -6.602570
  C     -7.235280   18.030860   -5.744520
  C     -7.223610   19.429270   -5.655670
  C     -6.110930   20.017180   -6.327250
  C     -5.965830   21.406620   -6.334280
  C     -6.868930   22.219010   -5.679480
  C     -6.695630   23.668680   -5.694860
  C     -6.168500   24.357390   -6.699550
  C     -7.948660   21.631710   -4.959530
  C     -8.918780   22.497500   -4.213550
  C     -8.110800   20.272040   -4.957310
  C     -8.165160   17.045500   -5.282820
  C     -9.454230   17.223690   -4.984320
  H     -2.846040    2.552270   -3.405630
  H     -1.848320   -1.834110   -1.197110
  H     -0.097060    2.610010   -3.956560
  H     -7.475960   -0.820990   -0.753530
  H     -7.300730    1.785910   -2.140190
  H    -12.011510    2.817100   -1.651050
  H     -9.965780    4.240250   -2.559560
  H     -8.049200    2.273260   -3.908950
  H     -6.312550    3.109740   -5.132140
  H     -8.325410    7.643960   -5.107070
  H     -9.415750    5.800730   -3.914870
  H     -2.757440    4.690870   -6.445460
  H     -3.807890    3.495410   -5.677670
  H     -3.409510    6.347350   -4.647520
  H     -2.548900    4.940650   -4.027240
  H     -4.302050    5.057760   -3.837780
  H     -6.078570    4.653400   -8.334910
  H     -5.355410    3.246060   -7.557570
  H     -3.910020    5.247820   -9.355090
  H     -4.367810    3.598090   -9.761780
  H     -3.128100    3.881470   -8.545740
  H     -2.790190    6.691340   -7.919280
  H     -4.935390   10.382650   -7.546040
  H     -6.751580    9.242910   -6.370940
  H     -1.846630    8.614510   -8.837090
  H     -3.217910   11.284730   -8.227250
  H     -0.601520   10.599680   -9.683710
  H      0.625000   12.812180  -10.459400
  H      0.350520   15.371560  -10.337840
  H     -0.428420   17.642490   -9.898040
  H     -1.732290   19.710430   -9.084800
  H     -3.821600   20.355540   -7.777310
  H     -5.119510   21.852880   -6.833010
  H     -7.038670   24.198390   -4.816610
  H     -5.847830   23.885910   -7.613580
  H     -6.057500   25.427150   -6.652920
  H     -9.344990   23.253390   -4.871460
  H     -8.422840   23.008170   -3.387930
  H     -9.727630   21.897590   -3.803790
  H     -8.914810   19.834620   -4.387930
  H     -7.753730   16.044110   -5.230100
  H     -9.952700   18.169780   -5.090480
  H    -10.061400   16.397300   -4.658510

 Total Charge           Charge          ....    0
 Multiplicity           Mult            ....    1
 Number of Electrons    NEL             ....  588
 Basis Dimension        Dim             .... 1317

ORBITAL ENERGIES
----------------

  NO   OCC          E(Eh)            E(eV)
   0   2.0000    -482.890673    -13140.1232
   1   2.0000     -88.990439     -2421.5529
   2   2.0000     -88.981647     -2421.3137
   3   2.0000     -88.956213     -2420.6216
   4   2.0000     -88.942587     -2420.2508
   5   2.0000     -88.939298     -2420.1613
   6   2.0000     -62.568348     -1702.5713
   7   2.0000     -56.402308     -1534.7848
   8   2.0000     -56.399577     -1534.7105
   9   2.0000     -56.399549     -1534.7097
  10   2.0000     -19.238347      -523.5020
  11   2.0000     -19.237497      -523.4789
  12   2.0000     -19.236565      -523.4535
  13   2.0000     -14.649861      -398.6430
  14   2.0000     -14.498052      -394.5120
  15   2.0000     -14.422176      -392.4474
  16   2.0000     -14.417947      -392.3323
  17   2.0000     -10.382924      -282.5337
  18   2.0000     -10.373171      -282.2683
  19   2.0000     -10.371596      -282.2255
  20   2.0000     -10.364663      -282.0368
  21   2.0000     -10.349978      -281.6372
  22   2.0000     -10.347372      -281.5663
  23   2.0000     -10.345251      -281.5086
  24   2.0000     -10.332040      -281.1491
  25   2.0000     -10.324446      -280.9425
  26   2.0000     -10.321103      -280.8515
  27   2.0000     -10.315504      -280.6991
  28   2.0000     -10.313999      -280.6582
  29   2.0000     -10.312426      -280.6154
  30   2.0000     -10.311086      -280.5789
  31   2.0000     -10.309356      -280.5318
  32   2.0000     -10.307314      -280.4763
  33   2.0000     -10.305829      -280.4359
  34   2.0000     -10.304868      -280.4097
  35   2.0000     -10.302620      -280.3485
  36   2.0000     -10.302391      -280.3423
  37   2.0000     -10.302356      -280.3414
  38   2.0000     -10.301343      -280.3138
  39   2.0000     -10.301338      -280.3136
  40   2.0000     -10.298062      -280.2245
  41   2.0000     -10.292356      -280.0693
  42   2.0000     -10.289179      -279.9828
  43   2.0000     -10.287551      -279.9385
  44   2.0000     -10.284760      -279.8625
  45   2.0000     -10.282493      -279.8009
  46   2.0000     -10.281229      -279.7665
  47   2.0000     -10.281026      -279.7609
  48   2.0000     -10.280626      -279.7501
  49   2.0000     -10.280109      -279.7360
  50   2.0000     -10.279800      -279.7276
  51   2.0000     -10.276782      -279.6454
  52   2.0000     -10.276284      -279.6319
  53   2.0000     -10.274619      -279.5866
  54   2.0000     -10.272923      -279.5405
  55   2.0000     -10.272596      -279.5316
  56   2.0000     -10.272474      -279.5282
  57   2.0000     -10.272151      -279.5194
  58   2.0000     -10.271768      -279.5090
  59   2.0000     -10.271720      -279.5077
  60   2.0000     -10.271656      -279.5060
  61   2.0000     -10.271134      -279.4918
  62   2.0000     -10.270751      -279.4813
  63   2.0000     -10.270529      -279.4753
  64   2.0000     -10.270220      -279.4669
  65   2.0000     -10.269377      -279.4439
  66   2.0000     -10.269018      -279.4342
  67   2.0000     -10.268755      -279.4270
  68   2.0000     -10.268514      -279.4205
  69   2.0000     -10.268184      -279.4115
  70   2.0000     -10.267922      -279.4044
  71   2.0000     -10.267799      -279.4010
  72   2.0000     -10.267345      -279.3887
  73   2.0000     -10.265952      -279.3508
  74   2.0000     -10.261270      -279.2234
  75   2.0000     -10.260674      -279.2071
  76   2.0000     -10.260392      -279.1995
  77   2.0000     -10.259490      -279.1749
  78   2.0000     -10.254134      -279.0292
  79   2.0000     -10.252429      -278.9828
  80   2.0000      -8.797753      -239.3990
  81   2.0000      -8.085575      -220.0197
  82   2.0000      -8.077638      -219.8037
  83   2.0000      -8.051148      -219.0829
  84   2.0000      -8.038633      -218.7423
  85   2.0000      -8.035664      -218.6615
  86   2.0000      -6.634068      -180.5222
  87   2.0000      -6.619484      -180.1253
  88   2.0000      -6.619267      -180.1194
  89   2.0000      -6.055191      -164.7701
  90   2.0000      -6.050824      -164.6513
  91   2.0000      -6.047325      -164.5561
  92   2.0000      -6.047136      -164.5509
  93   2.0000      -6.043029      -164.4392
  94   2.0000      -6.038868      -164.3259
  95   2.0000      -6.020107      -163.8154
  96   2.0000      -6.016002      -163.7037
  97   2.0000      -6.013988      -163.6489
  98   2.0000      -6.008371      -163.4961
  99   2.0000      -6.005369      -163.4144
 100   2.0000      -6.004201      -163.3826
 101   2.0000      -6.001433      -163.3073
 102   2.0000      -5.999668      -163.2593
 103   2.0000      -5.996530      -163.1739
 104   2.0000      -2.749959       -74.8302
 105   2.0000      -2.745821       -74.7176
 106   2.0000      -2.745691       -74.7141
 107   2.0000      -2.734076       -74.3980
 108   2.0000      -2.734074       -74.3979
 109   2.0000      -1.318908       -35.8893
 110   2.0000      -1.150987       -31.3199
 111   2.0000      -1.137852       -30.9625
 112   2.0000      -1.105305       -30.0769
 113   2.0000      -1.029519       -28.0146
 114   2.0000      -1.018819       -27.7235
 115   2.0000      -1.010726       -27.5032
 116   2.0000      -0.999290       -27.1921
 117   2.0000      -0.995570       -27.0908
 118   2.0000      -0.993268       -27.0282
 119   2.0000      -0.987735       -26.8776
 120   2.0000      -0.985861       -26.8266
 121   2.0000      -0.968289       -26.3485
 122   2.0000      -0.948798       -25.8181
 123   2.0000      -0.947604       -25.7856
 124   2.0000      -0.935611       -25.4593
 125   2.0000      -0.928044       -25.2533
 126   2.0000      -0.917130       -24.9564
 127   2.0000      -0.914899       -24.8957
 128   2.0000      -0.902411       -24.5559
 129   2.0000      -0.900299       -24.4984
 130   2.0000      -0.894092       -24.3295
 131   2.0000      -0.892590       -24.2886
 132   2.0000      -0.886117       -24.1125
 133   2.0000      -0.876747       -23.8575
 134   2.0000      -0.868871       -23.6432
 135   2.0000      -0.865335       -23.5470
 136   2.0000      -0.855801       -23.2875
 137   2.0000      -0.852208       -23.1898
 138   2.0000      -0.847892       -23.0723
 139   2.0000      -0.840060       -22.8592
 140   2.0000      -0.839917       -22.8553
 141   2.0000      -0.836886       -22.7728
 142   2.0000      -0.835947       -22.7473
 143   2.0000      -0.832782       -22.6611
 144   2.0000      -0.828604       -22.5475
 145   2.0000      -0.819091       -22.2886
 146   2.0000      -0.813246       -22.1295
 147   2.0000      -0.803230       -21.8570
 148   2.0000      -0.795860       -21.6565
 149   2.0000      -0.785781       -21.3822
 150   2.0000      -0.769605       -20.9420
 151   2.0000      -0.767996       -20.8982
 152   2.0000      -0.766611       -20.8605
 153   2.0000      -0.757106       -20.6019
 154   2.0000      -0.749458       -20.3938
 155   2.0000      -0.734996       -20.0002
 156   2.0000      -0.731269       -19.8988
 157   2.0000      -0.720719       -19.6118
 158   2.0000      -0.716461       -19.4959
 159   2.0000      -0.712037       -19.3755
 160   2.0000      -0.705836       -19.2068
 161   2.0000      -0.699848       -19.0438
 162   2.0000      -0.695566       -18.9273
 163   2.0000      -0.693088       -18.8599
 164   2.0000      -0.681920       -18.5560
 165   2.0000      -0.679625       -18.4935
 166   2.0000      -0.676727       -18.4147
 167   2.0000      -0.669563       -18.2197
 168   2.0000      -0.662643       -18.0314
 169   2.0000      -0.659168       -17.9369
 170   2.0000      -0.657157       -17.8822
 171   2.0000      -0.651251       -17.7215
 172   2.0000      -0.643857       -17.5202
 173   2.0000      -0.636643       -17.3239
 174   2.0000      -0.634294       -17.2600
 175   2.0000      -0.630925       -17.1683
 176   2.0000      -0.629416       -17.1273
 177   2.0000      -0.626659       -17.0523
 178   2.0000      -0.624965       -17.0062
 179   2.0000      -0.615246       -16.7417
 180   2.0000      -0.612763       -16.6741
 181   2.0000      -0.609322       -16.5805
 182   2.0000      -0.606068       -16.4920
 183   2.0000      -0.604139       -16.4395
 184   2.0000      -0.598162       -16.2768
 185   2.0000      -0.595387       -16.2013
 186   2.0000      -0.592316       -16.1177
 187   2.0000      -0.586497       -15.9594
 188   2.0000      -0.581687       -15.8285
 189   2.0000      -0.578487       -15.7414
 190   2.0000      -0.571485       -15.5509
 191   2.0000      -0.565202       -15.3799
 192   2.0000      -0.561694       -15.2845
 193   2.0000      -0.557316       -15.1653
 194   2.0000      -0.553809       -15.0699
 195   2.0000      -0.550619       -14.9831
 196   2.0000      -0.549329       -14.9480
 197   2.0000      -0.546026       -14.8581
 198   2.0000      -0.544108       -14.8059
 199   2.0000      -0.543911       -14.8006
 200   2.0000      -0.537572       -14.6281
 201   2.0000      -0.537315       -14.6211
 202   2.0000      -0.534774       -14.5519
 203   2.0000      -0.533376       -14.5139
 204   2.0000      -0.528580       -14.3834
 205   2.0000      -0.528001       -14.3676
 206   2.0000      -0.525355       -14.2956
 207   2.0000      -0.524868       -14.2824
 208   2.0000      -0.519908       -14.1474
 209   2.0000      -0.519541       -14.1374
 210   2.0000      -0.516095       -14.0437
 211   2.0000      -0.514367       -13.9966
 212   2.0000      -0.511861       -13.9285
 213   2.0000      -0.507000       -13.7962
 214   2.0000      -0.504908       -13.7392
 215   2.0000      -0.503839       -13.7102
 216   2.0000      -0.503550       -13.7023
 217   2.0000      -0.502073       -13.6621
 218   2.0000      -0.500882       -13.6297
 219   2.0000      -0.496558       -13.5120
 220   2.0000      -0.495024       -13.4703
 221   2.0000      -0.492692       -13.4068
 222   2.0000      -0.489744       -13.3266
 223   2.0000      -0.484942       -13.1959
 224   2.0000      -0.483605       -13.1596
 225   2.0000      -0.482272       -13.1233
 226   2.0000      -0.479476       -13.0472
 227   2.0000      -0.474082       -12.9004
 228   2.0000      -0.472896       -12.8682
 229   2.0000      -0.471053       -12.8180
 230   2.0000      -0.470282       -12.7970
 231   2.0000      -0.466931       -12.7058
 232   2.0000      -0.464601       -12.6424
 233   2.0000      -0.463955       -12.6249
 234   2.0000      -0.461010       -12.5447
 235   2.0000      -0.459572       -12.5056
 236   2.0000      -0.458637       -12.4802
 237   2.0000      -0.455162       -12.3856
 238   2.0000      -0.454020       -12.3545
 239   2.0000      -0.452581       -12.3154
 240   2.0000      -0.449750       -12.2383
 241   2.0000      -0.447946       -12.1892
 242   2.0000      -0.447689       -12.1822
 243   2.0000      -0.446512       -12.1502
 244   2.0000      -0.445472       -12.1219
 245   2.0000      -0.443097       -12.0573
 246   2.0000      -0.437690       -11.9101
 247   2.0000      -0.436703       -11.8833
 248   2.0000      -0.436520       -11.8783
 249   2.0000      -0.433751       -11.8030
 250   2.0000      -0.431897       -11.7525
 251   2.0000      -0.431450       -11.7403
 252   2.0000      -0.423870       -11.5341
 253   2.0000      -0.422621       -11.5001
 254   2.0000      -0.420562       -11.4441
 255   2.0000      -0.417836       -11.3699
 256   2.0000      -0.416950       -11.3458
 257   2.0000      -0.415753       -11.3132
 258   2.0000      -0.414747       -11.2858
 259   2.0000      -0.412588       -11.2271
 260   2.0000      -0.406592       -11.0639
 261   2.0000      -0.405561       -11.0359
 262   2.0000      -0.402542       -10.9537
 263   2.0000      -0.400016       -10.8850
 264   2.0000      -0.394980       -10.7480
 265   2.0000      -0.394395       -10.7320
 266   2.0000      -0.389605       -10.6017
 267   2.0000      -0.386780       -10.5248
 268   2.0000      -0.385426       -10.4880
 269   2.0000      -0.381916       -10.3925
 270   2.0000      -0.381598       -10.3838
 271   2.0000      -0.379979       -10.3398
 272   2.0000      -0.377737       -10.2788
 273   2.0000      -0.376580       -10.2473
 274   2.0000      -0.367218        -9.9925
 275   2.0000      -0.366402        -9.9703
 276   2.0000      -0.359285        -9.7767
 277   2.0000      -0.357850        -9.7376
 278   2.0000      -0.349344        -9.5061
 279   2.0000      -0.343061        -9.3352
 280   2.0000      -0.333832        -9.0840
 281   2.0000      -0.328341        -8.9346
 282   2.0000      -0.323945        -8.8150
 283   2.0000      -0.323671        -8.8075
 284   2.0000      -0.320889        -8.7318
 285   2.0000      -0.316408        -8.6099
 286   2.0000      -0.314911        -8.5692
 287   2.0000      -0.303068        -8.2469
 288   2.0000      -0.299121        -8.1395
 289   2.0000      -0.288940        -7.8625
 290   2.0000      -0.282736        -7.6936
 291   2.0000      -0.262764        -7.1502
 292   2.0000      -0.241357        -6.5676
 293   2.0000      -0.193705        -5.2710
 294   0.0000      -0.091663        -2.4943
 295   0.0000      -0.083558        -2.2737
 296   0.0000      -0.073221        -1.9924
 297   0.0000      -0.043453        -1.1824
 298   0.0000      -0.037608        -1.0234

MULLIKEN ATOMIC CHARGES
-----------------------
   0 C :    0.332376
   1 C :   -0.346567
   2 C :   -0.183126
   3 N :    0.148506
   4 C :   -0.194169
   5 N :    0.146462
   6 C :    0.002231
   7 C :    0.003403
   8 C :   -0.057231
   9 C :    0.120370
  10 C :   -0.093692
  11 C :   -0.015978
  12 S :    0.192229
  13 C :   -0.125290
  14 C :    0.040502
  15 Br:    0.026967
  16 C :    0.161289
  17 O :   -0.217779
  18 C :   -0.130931
  19 C :    0.028560
  20 N :   -0.006548
  21 C :   -0.131212
  22 S :    0.176670
  23 C :    0.004309
  24 N :    0.276401
  25 O :   -0.248572
  26 O :   -0.257782
  27 C :    0.008071
  28 C :    0.125574
  29 C :   -0.023303
  30 C :    0.004468
  31 C :    0.098566
  32 C :   -0.083701
  33 C :    0.010332
  34 C :    0.106150
  35 C :   -0.046146
  36 C :   -0.009749
  37 C :    0.102735
  38 C :    0.026597
  39 C :   -0.134528
  40 C :    0.045271
  41 C :    0.027481
  42 C :    0.080329
  43 C :    0.031303
  44 C :   -0.116836
  45 C :    0.134137
  46 C :   -0.013400
  47 C :   -0.047205
  48 C :   -0.015576
  49 C :    0.016990
  50 C :   -0.008165
  51 C :   -0.020265
  52 C :    0.032892
  53 C :    0.027300
  54 C :   -0.043327
  55 S :    0.054449
  56 C :   -0.032605
  57 C :    0.025747
  58 C :    0.025257
  59 C :   -0.039150
  60 S :    0.061053
  61 C :   -0.015667
  62 C :   -0.097038
  63 S :    0.126702
  64 C :   -0.138258
  65 C :    0.136529
  66 C :    0.133619
  67 C :   -0.110977
  68 C :    0.085233
  69 C :   -0.039053
  70 C :   -0.013115
  71 C :   -0.079675
  72 C :    0.101124
  73 C :   -0.104879
  74 C :    0.026066
  75 C :   -0.037137
  76 H :   -0.038094
  77 H :   -0.005392
  78 H :   -0.003145
  79 H :    0.046624
  80 H :    0.179517
  81 H :    0.011501
  82 H :   -0.002063
  83 H :   -0.015245
  84 H :   -0.041909
  85 H :   -0.036438
  86 H :   -0.032314
  87 H :    0.004813
  88 H :   -0.005181
  89 H :    0.022279
  90 H :    0.005163
  91 H :    0.031088
  92 H :    0.005746
  93 H :   -0.004886
  94 H :    0.020585
  95 H :    0.012629
  96 H :    0.000787
  97 H :   -0.040897
  98 H :   -0.029810
  99 H :   -0.036981
 100 H :   -0.030554
 101 H :    0.002992
 102 H :   -0.020548
 103 H :   -0.015100
 104 H :   -0.015381
 105 H :   -0.018070
 106 H :   -0.015508
 107 H :   -0.018683
 108 H :   -0.039617
 109 H :   -0.005665
 110 H :    0.016142
 111 H :    0.020800
 112 H :    0.028882
 113 H :    0.029076
 114 H :    0.006739
 115 H :   -0.045421
 116 H :   -0.008136
 117 H :    0.022056
 118 H :    0.022001
Sum of atomic charges:   -0.0000000

LOEWDIN ATOMIC CHARGES
----------------------
   0 C :    0.079235
   1 C :   -0.148948
   2 C :   -0.019584
   3 N :   -0.053989
   4 C :   -0.020916
   5 N :   -0.052651
   6 C :   -0.018489
   7 C :   -0.051382
   8 C :    0.022005
   9 C :   -0.033273
  10 C :   -0.143587
  11 C :   -0.006865
  12 S :    0.437525
  13 C :   -0.270735
  14 C :   -0.070400
  15 Br:    0.139061
  16 C :    0.095115
  17 O :   -0.174533
  18 C :   -0.147945
  19 C :    0.112398
  20 N :    0.082997
  21 C :   -0.115891
  22 S :    0.472038
  23 C :   -0.202696
  24 N :    0.273933
  25 O :   -0.214823
  26 O :   -0.224087
  27 C :    0.000889
  28 C :   -0.080103
  29 C :   -0.037896
  30 C :   -0.004987
  31 C :   -0.029908
  32 C :   -0.010108
  33 C :    0.002978
  34 C :   -0.012932
  35 C :   -0.018857
  36 C :   -0.013530
  37 C :   -0.019954
  38 C :    0.001168
  39 C :   -0.033249
  40 C :   -0.017633
  41 C :   -0.059364
  42 C :   -0.009151
  43 C :   -0.059330
  44 C :   -0.024241
  45 C :   -0.023740
  46 C :   -0.012975
  47 C :   -0.017224
  48 C :   -0.020785
  49 C :   -0.030389
  50 C :   -0.056344
  51 C :   -0.143531
  52 C :   -0.037635
  53 C :   -0.032299
  54 C :   -0.179879
  55 S :    0.366473
  56 C :   -0.179205
  57 C :   -0.044607
  58 C :   -0.033732
  59 C :   -0.161690
  60 S :    0.370122
  61 C :   -0.068258
  62 C :   -0.180707
  63 S :    0.469426
  64 C :   -0.184906
  65 C :   -0.041300
  66 C :   -0.042955
  67 C :   -0.006197
  68 C :   -0.030462
  69 C :   -0.020391
  70 C :   -0.042106
  71 C :   -0.017117
  72 C :   -0.045158
  73 C :   -0.027547
  74 C :   -0.043989
  75 C :   -0.054423
  76 H :    0.041875
  77 H :    0.042078
  78 H :    0.038927
  79 H :    0.036497
  80 H :    0.088304
  81 H :    0.047207
  82 H :    0.030764
  83 H :    0.024420
  84 H :    0.022333
  85 H :    0.026883
  86 H :    0.024469
  87 H :    0.018864
  88 H :    0.017021
  89 H :    0.029224
  90 H :    0.016598
  91 H :    0.028615
  92 H :    0.027344
  93 H :    0.019094
  94 H :    0.024696
  95 H :    0.027716
  96 H :    0.018783
  97 H :    0.021975
  98 H :    0.026666
  99 H :    0.026767
 100 H :    0.024950
 101 H :    0.018589
 102 H :    0.030891
 103 H :    0.032395
 104 H :    0.031367
 105 H :    0.030237
 106 H :    0.031935
 107 H :    0.037579
 108 H :    0.023966
 109 H :    0.027878
 110 H :    0.020131
 111 H :    0.024109
 112 H :    0.034607
 113 H :    0.033728
 114 H :    0.029389
 115 H :    0.024044
 116 H :    0.028237
 117 H :    0.020325
 118 H :    0.024746

  Mayer bond orders larger than 0.100000
B(  0-C ,  1-C ) :   1.6258 B(  0-C ,  6-C ) :   1.0011 B(  0-C , 18-C ) :   1.1007
B(  1-C ,  2-C ) :   1.1450 B(  1-C ,  4-C ) :   1.1473 B(  2-C ,  3-N ) :   2.9662
B(  4-C ,  5-N ) :   2.9546 B(  6-C ,  7-C ) :   1.2685 B(  6-C , 11-C ) :   1.4263
B(  7-C ,  8-C ) :   1.4272 B(  7-C , 16-C ) :   0.9782 B(  8-C ,  9-C ) :   1.2436
B(  8-C , 76-H ) :   1.0165 B(  9-C , 10-C ) :   1.3092 B(  9-C , 14-C ) :   1.1627
B( 10-C , 11-C ) :   1.3174 B( 10-C , 12-S ) :   1.0898 B( 11-C , 77-H ) :   0.9799
B( 12-S , 13-C ) :   1.0886 B( 13-C , 14-C ) :   1.6183 B( 13-C , 15-Br) :   1.0211
B( 14-C , 78-H ) :   0.9993 B( 16-C , 17-O ) :   2.0206 B( 16-C , 18-C ) :   1.0093
B( 17-O , 80-H ) :   0.1317 B( 18-C , 19-C ) :   1.4399 B( 19-C , 20-N ) :   1.3499
B( 19-C , 79-H ) :   0.9308 B( 20-N , 21-C ) :   1.1782 B( 20-N , 80-H ) :   0.8240
B( 21-C , 22-S ) :   1.1374 B( 21-C , 28-C ) :   1.4021 B( 22-S , 23-C ) :   1.0870
B( 23-C , 24-N ) :   0.9674 B( 23-C , 27-C ) :   1.4870 B( 24-N , 25-O ) :   1.5353
B( 24-N , 26-O ) :   1.5152 B( 25-O , 26-O ) :   0.2622 B( 27-C , 28-C ) :   1.2224
B( 27-C , 81-H ) :   1.0079 B( 28-C , 29-C ) :   1.0475 B( 29-C , 30-C ) :   1.7351
B( 29-C , 82-H ) :   0.9567 B( 30-C , 31-C ) :   1.0812 B( 30-C , 83-H ) :   0.9682
B( 31-C , 32-C ) :   1.2948 B( 31-C , 36-C ) :   1.3515 B( 32-C , 33-C ) :   1.3831
B( 32-C , 84-H ) :   1.0031 B( 33-C , 34-C ) :   1.3794 B( 33-C , 39-C ) :   0.9244
B( 34-C , 35-C ) :   1.3280 B( 34-C , 37-C ) :   1.0053 B( 35-C , 36-C ) :   1.3971
B( 35-C , 85-H ) :   0.9899 B( 36-C , 86-H ) :   0.9840 B( 37-C , 38-C ) :   1.3759
B( 37-C , 47-C ) :   1.3214 B( 38-C , 39-C ) :   0.9188 B( 38-C , 44-C ) :   1.3884
B( 39-C , 40-C ) :   1.0364 B( 39-C , 42-C ) :   1.0147 B( 40-C , 41-C ) :   1.1098
B( 40-C , 87-H ) :   0.9365 B( 40-C , 88-H ) :   0.9353 B( 41-C , 89-H ) :   0.9601
B( 41-C , 90-H ) :   0.9589 B( 41-C , 91-H ) :   0.9582 B( 42-C , 43-C ) :   1.1151
B( 42-C , 92-H ) :   0.9383 B( 42-C , 93-H ) :   0.9360 B( 43-C , 94-H ) :   0.9606
B( 43-C , 95-H ) :   0.9598 B( 43-C , 96-H ) :   0.9628 B( 44-C , 45-C ) :   1.2750
B( 44-C , 97-H ) :   1.0052 B( 45-C , 46-C ) :   1.3304 B( 45-C , 48-C ) :   1.0765
B( 46-C , 47-C ) :   1.4093 B( 46-C , 98-H ) :   0.9858 B( 47-C , 99-H ) :   0.9891
B( 48-C , 49-C ) :   1.6375 B( 48-C ,100-H ) :   0.9905 B( 49-C , 50-C ) :   1.1568
B( 49-C ,101-H ) :   0.9606 B( 50-C , 51-C ) :   1.5505 B( 50-C ,102-H ) :   0.9866
B( 51-C , 52-C ) :   1.1512 B( 51-C , 55-S ) :   1.0317 B( 52-C , 53-C ) :   1.5727
B( 52-C ,103-H ) :   0.9984 B( 53-C , 54-C ) :   1.2047 B( 53-C ,104-H ) :   0.9939
B( 54-C , 55-S ) :   1.0471 B( 54-C , 56-C ) :   1.4836 B( 56-C , 57-C ) :   1.2058
B( 56-C , 60-S ) :   1.0434 B( 57-C , 58-C ) :   1.5613 B( 57-C ,105-H ) :   0.9928
B( 58-C , 59-C ) :   1.1713 B( 58-C ,106-H ) :   0.9997 B( 59-C , 60-S ) :   1.0381
B( 59-C , 61-C ) :   1.5162 B( 61-C , 62-C ) :   1.2561 B( 61-C ,107-H ) :   0.9622
B( 62-C , 63-S ) :   1.1245 B( 62-C , 66-C ) :   1.2506 B( 63-S , 64-C ) :   1.1440
B( 64-C , 65-C ) :   1.3400 B( 64-C , 74-C ) :   1.1191 B( 65-C , 66-C ) :   1.2228
B( 65-C , 73-C ) :   1.1850 B( 66-C , 67-C ) :   1.2283 B( 67-C , 68-C ) :   1.4925
B( 67-C ,108-H ) :   0.9889 B( 68-C , 69-C ) :   1.0344 B( 68-C , 71-C ) :   1.2127
B( 69-C , 70-C ) :   1.9743 B( 69-C ,109-H ) :   0.9509 B( 70-C ,110-H ) :   0.9562
B( 70-C ,111-H ) :   0.9495 B( 71-C , 72-C ) :   1.0864 B( 71-C , 73-C ) :   1.5484
B( 72-C ,112-H ) :   0.9437 B( 72-C ,113-H ) :   0.9410 B( 72-C ,114-H ) :   0.9541
B( 73-C ,115-H ) :   0.9900 B( 74-C , 75-C ) :   1.9115 B( 74-C ,116-H ) :   0.9459
B( 75-C ,117-H ) :   0.9586 B( 75-C ,118-H ) :   0.9473

-----------------------------------------------------------------------------
         ABSORPTION SPECTRUM VIA TRANSITION ELECTRIC DIPOLE MOMENTS
-----------------------------------------------------------------------------
State   Energy  Wavelength   fosc         T2         TX        TY        TZ
        (cm-1)    (nm)                  (au**2)     (au)      (au)      (au)
-----------------------------------------------------------------------------
   0   11397.3    877.4   1.148843313  33.18449   1.96374  -5.32968  -0.96061
   1   15520.9    644.3   0.023473999   0.49790   0.09969   0.45469  -0.53031
   2   18867.8    530.0   0.006488135   0.11321  -0.08194  -0.13163   0.29861
   3   19139.4    522.5   0.020924970   0.35992  -0.11718   0.53516  -0.24454
   4   21048.7    475.1   0.438475699   6.85797  -1.42106   1.96176  -0.99500
   5   22573.3    443.0   1.727558325  25.19493   3.78417   2.50540  -2.14429
   6   24130.1    414.4   0.036832907   0.50252  -0.64511  -0.22660   0.18710
   7   25024.7    399.6   0.028320147   0.37256   0.27110   0.53460  -0.11520
   8   25680.1    389.4   0.309413139   3.96660  -1.93829   0.42396   0.17292
   9   26249.7    381.0   0.006301391   0.07903  -0.08613  -0.09191   0.25132
  10   27777.8    360.0   0.202893765   2.40462  -1.22007   0.01947   0.95690
  11   28371.0    352.5   0.035121793   0.40755   0.61059  -0.01416  -0.18582
  12   28988.8    345.0   0.003269004   0.03712   0.13197   0.13433   0.04082
  13   29261.0    341.8   0.022702378   0.25542  -0.05604  -0.44690   0.22927
  14   29335.9    340.9   0.119281179   1.33859   0.85426   0.44279  -0.64247
  15   29702.1    336.7   0.713920791   7.91296  -2.52975  -0.79091   0.94223
  16   29813.8    335.4   0.008497413   0.09383   0.05450  -0.28615  -0.09476
  17   30746.0    325.2   0.041697951   0.44648   0.65926   0.00165  -0.10887
  18   30837.5    324.3   0.335419373   3.58084   1.03981   1.23494  -0.98720
  19   31408.4    318.4   0.121153252   1.26989   0.03798   1.11401   0.16562
  20   31943.9    313.0   0.046602349   0.48028   0.58155   0.00965  -0.37681
  21   32557.1    307.2   0.235110138   2.37739  -0.95153  -1.15458   0.37273
  22   32707.0    305.7   0.089549637   0.90136  -0.61232   0.62030   0.37638
  23   33243.5    300.8   0.012767859   0.12644  -0.24949  -0.15407   0.20114
  24   33388.4    299.5   0.011356233   0.11197   0.28612   0.00152  -0.17351
  25   33668.9    297.0   0.009230279   0.09025   0.02001  -0.29325   0.06210
  26   33781.1    296.0   0.007402320   0.07214   0.05366  -0.25235  -0.07469
  27   34075.5    293.5   0.227916513   2.20196   0.70304   1.08868  -0.72283
  28   34154.1    292.8   0.005223442   0.05035  -0.02683   0.21239  -0.06723
  29   34611.3    288.9   0.293560739   2.79226  -0.49437  -1.42784   0.71354
  30   34804.4    287.3   0.000529910   0.00501  -0.00954  -0.05083  -0.04834
  31   35000.9    285.7   0.555861050   5.22832   1.21621   1.62476  -1.05323
  32   35489.9    281.8   0.025268576   0.23440   0.07983  -0.47587   0.03960
  33   36057.4    277.3   0.017039750   0.15558  -0.18043   0.33691   0.09754
  34   36143.0    276.7   0.093998818   0.85620   0.54761  -0.49760  -0.55563
  35   36322.7    275.3   0.017708137   0.16050   0.27649   0.18718  -0.22140
  36   36832.3    271.5   0.003749121   0.03351   0.12936  -0.10440   0.07666
  37   37288.6    268.2   0.071065961   0.62742  -0.16489  -0.75494   0.17406
  38   37535.7    266.4   0.023378324   0.20504  -0.00555  -0.44710  -0.07152
  39   37588.2    266.0   0.050422441   0.44162  -0.25009  -0.58131   0.20286
  40   37752.2    264.9   0.173505592   1.51303  -1.09875  -0.20753   0.51256
  41   37957.4    263.5   0.003184057   0.02762  -0.00013   0.15759  -0.05273
  42   38257.9    261.4   0.113324840   0.97517   0.87532  -0.45545   0.03940
  43   38705.5    258.4   0.037227127   0.31664  -0.31721   0.44787  -0.12420
  44   38980.8    256.5   0.008748379   0.07388   0.02303   0.22501  -0.15074
  45   39234.3    254.9   0.033622957   0.28213   0.27473  -0.27591   0.36128
  46   39459.2    253.4   0.005574359   0.04651  -0.09814  -0.06594  -0.18035
  47   39780.8    251.4   0.006579336   0.05445   0.11857  -0.13023   0.15307
  48   39863.1    250.9   0.034971568   0.28882   0.34216   0.37808  -0.16971
  49   39896.0    250.7   0.026126503   0.21559  -0.15443  -0.43356   0.06136

FINAL SINGLE POINT ENERGY     -7431.741433632069

DIPOLE MOMENT
-------------
                                X             Y             Z
Electronic contribution:     92.48293    -170.88906      55.75087
Nuclear contribution   :    -89.90215     174.29042     -58.15277
                        -----------------------------------------
Total Dipole Moment    :      2.58078       3.40136      -2.40189
                        -----------------------------------------
Magnitude (a.u.)       :      4.89885
Magnitude (Debye)      :     12.45189

Rotational constants in cm-1:     0.000788     0.000203     0.000171
Rotational constants in MHz :    23.616298     6.098471     5.127884

                             ****ORCA TERMINATED NORMALLY****
TOTAL RUN TIME: 0 days 0 hours 12 minutes 38 seconds 398 msec
