                         Program Version 4.2.0 -  RELEASE  -
|  1> # ORCA input file
|  2> # SCF done       -165.125027865560          0.000548785765
|  3> ! CAM-B3LYP def2-SVP def2/J RIJCOSX Grid4 TightSCF
|  4> %maxcore 5000
|  5> %tddft
|  6>     Mode sTDDFT
|  7>     Ethresh 5.0
|  8>     maxcore 5000
|  9> end
| 10>
| 11> %pal
| 12>   nprocs 6
| 13>   end
| 14> * xyz 0 1
| 15>    C      -15.76881       -11.71364        -3.40430
| 16>    C      -14.46793       -11.56838        -2.97635
| 17>    C      -13.50863       -12.59986        -3.00391
| 18>    N      -12.69496       -13.40912        -2.94039
| 19>    C      -13.89945       -10.40775        -2.41823
| 20>    N      -13.33569        -9.51135        -1.96903
| 21>    C      -16.29746       -12.89852        -4.07845
| 22>    C      -17.67359       -12.69504        -4.34188
| 23>    C      -18.45105       -13.62776        -4.98142
| 24>    C      -17.84108       -14.82228        -5.38158
| 25>    C      -16.46548       -15.01355        -5.11979
| 26>    C      -15.67734       -14.06717        -4.47478
| 27>    S      -15.91249       -16.55535        -5.70262
| 28>    C      -17.51755       -16.91581        -6.27978
| 29>    C      -18.42150       -15.93481        -6.05145
| 30>   Br      -17.84905       -18.55471        -7.13133
| 31>    C      -18.07421       -11.36562        -3.83093
| 32>    O      -19.18941       -10.88205        -3.88088
| 33>    C      -16.85192       -10.77778        -3.25578
| 34>    C      -16.79354        -9.55270        -2.61932
| 35>    C      -17.86515        -8.69769        -2.39151
| 36>    C      -17.70926        -7.51001        -1.69446
| 37>    C      -18.69614        -6.57147        -1.32528
| 38>    C      -18.21897        -5.50854        -0.60436
| 39>    C      -16.83206        -5.55827        -0.38379
| 40>    S      -16.14654        -6.99280        -1.11158
| 41>    C      -15.97387        -4.69064         0.28036
| 42>    C      -16.20256        -3.49330         0.98441
| 43>    C      -15.06273        -2.93798         1.49861
| 44>    C      -13.87999        -3.66149         1.21707
| 45>    S      -14.27714        -5.08727         0.28761
| 46>    C      -12.58566        -3.34406         1.57680
| 47>    C      -11.44277        -4.06745         1.21991
| 48>    S      -11.52835        -5.48732         0.21628
| 49>    C       -9.80035        -5.68722         0.23211
| 50>    C       -9.18994        -4.67966         0.98783
| 51>    C      -10.10327        -3.78989         1.54676
| 52>    C       -9.68409        -2.63809         2.40437
| 53>    C       -8.24738        -2.81484         2.88650
| 54>    C       -7.33111        -3.16239         1.71400
| 55>    N       -5.95370        -3.22464         2.17651
| 56>    C       -7.71279        -4.53994         1.16265
| 57>    C       -9.33957        -6.78802        -0.51621
| 58>    C       -8.09158        -7.31889        -0.63644
| 59>    C       -7.84536        -8.42711        -1.47578
| 60>    S       -6.24938        -9.14152        -1.59015
| 61>    C       -6.74004       -10.34397        -2.76146
| 62>    C       -8.08847       -10.16768        -3.02678
| 63>    C       -8.70110        -9.11958        -2.31999
| 64>    S      -10.38344        -9.02340        -2.76844
| 65>    C      -10.14452       -10.36732        -3.90537
| 66>    S      -11.28705       -10.94960        -4.89501
| 67>    O       -8.89505       -10.83834        -3.88075
| 68>    C       -5.84406       -11.29791        -3.29526
| 69>    C       -6.12759       -12.28466        -4.20268
| 70>    C       -4.90078       -13.00189        -4.44078
| 71>    C       -4.29068       -14.00698        -5.09756
| 72>    C       -2.86803       -13.95874        -4.63982
| 73>    N       -2.64487       -13.00624        -3.78225
| 74>    C       -3.86057       -12.36918        -3.60784
| 75>    C       -4.40560       -11.35301        -2.91826
| 76>    C       -1.86235       -14.87612        -5.10760
| 77>    C       -0.59497       -14.83671        -4.69784
| 78>    H      -19.49713       -13.44321        -5.16983
| 79>    H      -14.63077       -14.25688        -4.30547
| 80>    H      -19.45477       -15.99037        -6.34195
| 81>    H      -15.83066        -9.23225        -2.23817
| 82>    H      -18.84913        -8.97022        -2.74347
| 83>    H      -19.72844        -6.70810        -1.59477
| 84>    H      -18.82829        -4.70206        -0.23622
| 85>    H      -17.18620        -3.07394         1.09885
| 86>    H      -15.03965        -2.02406         2.06632
| 87>    H      -12.44335        -2.45108         2.17031
| 88>    H      -10.35417        -2.54694         3.26198
| 89>    H       -9.76712        -1.71294         1.82335
| 90>    H       -8.19108        -3.61980         3.62005
| 91>    H       -7.90413        -1.89706         3.36707
| 92>    H       -7.48316        -2.40753         0.91795
| 93>    H       -5.33026        -3.45812         1.41144
| 94>    H       -5.66145        -2.33018         2.55392
| 95>    H       -7.34870        -5.29567         1.86506
| 96>    H       -7.21291        -4.70554         0.20527
| 97>    H      -10.13269        -7.28635        -1.06116
| 98>    H       -7.24623        -6.93047        -0.09167
| 99>    H       -7.08042       -12.48974        -4.65091
|100>    H       -4.67778       -14.71833        -5.80214
|101>    H       -3.95120       -10.67707        -2.21827
|102>    H       -2.19462       -15.61613        -5.82408
|103>    H       -0.28048       -14.09479        -3.98424
|104>    H        0.14365       -15.53167        -5.05858
|105> *
|106>
|107>                          ****END OF INPUT****

CARTESIAN COORDINATES (ANGSTROEM)
---------------------------------
  C    -15.768810  -11.713640   -3.404300
  C    -14.467930  -11.568380   -2.976350
  C    -13.508630  -12.599860   -3.003910
  N    -12.694960  -13.409120   -2.940390
  C    -13.899450  -10.407750   -2.418230
  N    -13.335690   -9.511350   -1.969030
  C    -16.297460  -12.898520   -4.078450
  C    -17.673590  -12.695040   -4.341880
  C    -18.451050  -13.627760   -4.981420
  C    -17.841080  -14.822280   -5.381580
  C    -16.465480  -15.013550   -5.119790
  C    -15.677340  -14.067170   -4.474780
  S    -15.912490  -16.555350   -5.702620
  C    -17.517550  -16.915810   -6.279780
  C    -18.421500  -15.934810   -6.051450
  Br   -17.849050  -18.554710   -7.131330
  C    -18.074210  -11.365620   -3.830930
  O    -19.189410  -10.882050   -3.880880
  C    -16.851920  -10.777780   -3.255780
  C    -16.793540   -9.552700   -2.619320
  C    -17.865150   -8.697690   -2.391510
  C    -17.709260   -7.510010   -1.694460
  C    -18.696140   -6.571470   -1.325280
  C    -18.218970   -5.508540   -0.604360
  C    -16.832060   -5.558270   -0.383790
  S    -16.146540   -6.992800   -1.111580
  C    -15.973870   -4.690640    0.280360
  C    -16.202560   -3.493300    0.984410
  C    -15.062730   -2.937980    1.498610
  C    -13.879990   -3.661490    1.217070
  S    -14.277140   -5.087270    0.287610
  C    -12.585660   -3.344060    1.576800
  C    -11.442770   -4.067450    1.219910
  S    -11.528350   -5.487320    0.216280
  C     -9.800350   -5.687220    0.232110
  C     -9.189940   -4.679660    0.987830
  C    -10.103270   -3.789890    1.546760
  C     -9.684090   -2.638090    2.404370
  C     -8.247380   -2.814840    2.886500
  C     -7.331110   -3.162390    1.714000
  N     -5.953700   -3.224640    2.176510
  C     -7.712790   -4.539940    1.162650
  C     -9.339570   -6.788020   -0.516210
  C     -8.091580   -7.318890   -0.636440
  C     -7.845360   -8.427110   -1.475780
  S     -6.249380   -9.141520   -1.590150
  C     -6.740040  -10.343970   -2.761460
  C     -8.088470  -10.167680   -3.026780
  C     -8.701100   -9.119580   -2.319990
  S    -10.383440   -9.023400   -2.768440
  C    -10.144520  -10.367320   -3.905370
  S    -11.287050  -10.949600   -4.895010
  O     -8.895050  -10.838340   -3.880750
  C     -5.844060  -11.297910   -3.295260
  C     -6.127590  -12.284660   -4.202680
  C     -4.900780  -13.001890   -4.440780
  C     -4.290680  -14.006980   -5.097560
  C     -2.868030  -13.958740   -4.639820
  N     -2.644870  -13.006240   -3.782250
  C     -3.860570  -12.369180   -3.607840
  C     -4.405600  -11.353010   -2.918260
  C     -1.862350  -14.876120   -5.107600
  C     -0.594970  -14.836710   -4.697840
  H    -19.497130  -13.443210   -5.169830
  H    -14.630770  -14.256880   -4.305470
  H    -19.454770  -15.990370   -6.341950
  H    -15.830660   -9.232250   -2.238170
  H    -18.849130   -8.970220   -2.743470
  H    -19.728440   -6.708100   -1.594770
  H    -18.828290   -4.702060   -0.236220
  H    -17.186200   -3.073940    1.098850
  H    -15.039650   -2.024060    2.066320
  H    -12.443350   -2.451080    2.170310
  H    -10.354170   -2.546940    3.261980
  H     -9.767120   -1.712940    1.823350
  H     -8.191080   -3.619800    3.620050
  H     -7.904130   -1.897060    3.367070
  H     -7.483160   -2.407530    0.917950
  H     -5.330260   -3.458120    1.411440
  H     -5.661450   -2.330180    2.553920
  H     -7.348700   -5.295670    1.865060
  H     -7.212910   -4.705540    0.205270
  H    -10.132690   -7.286350   -1.061160
  H     -7.246230   -6.930470   -0.091670
  H     -7.080420  -12.489740   -4.650910
  H     -4.677780  -14.718330   -5.802140
  H     -3.951200  -10.677070   -2.218270
  H     -2.194620  -15.616130   -5.824080
  H     -0.280480  -14.094790   -3.984240
  H      0.143650  -15.531670   -5.058580

 Total Charge           Charge          ....    0
 Multiplicity           Mult            ....    1
 Number of Electrons    NEL             ....  512
 Basis Dimension        Dim             .... 1063

ORBITAL ENERGIES
----------------

  NO   OCC          E(Eh)            E(eV)
   0   2.0000    -482.872576    -13139.6308
   1   2.0000     -88.967477     -2420.9281
   2   2.0000     -88.965778     -2420.8819
   3   2.0000     -88.959461     -2420.7100
   4   2.0000     -88.958034     -2420.6712
   5   2.0000     -88.957660     -2420.6610
   6   2.0000     -88.950650     -2420.4702
   7   2.0000     -88.881319     -2418.5836
   8   2.0000     -62.550291     -1702.0799
   9   2.0000     -56.384224     -1534.2927
  10   2.0000     -56.381544     -1534.2198
  11   2.0000     -56.381498     -1534.2186
  12   2.0000     -19.304827      -525.3110
  13   2.0000     -19.192537      -522.2555
  14   2.0000     -14.395290      -391.7157
  15   2.0000     -14.389308      -391.5530
  16   2.0000     -14.388964      -391.5436
  17   2.0000     -14.381910      -391.3517
  18   2.0000     -10.397328      -282.9257
  19   2.0000     -10.349935      -281.6361
  20   2.0000     -10.343035      -281.4483
  21   2.0000     -10.342746      -281.4404
  22   2.0000     -10.328050      -281.0405
  23   2.0000     -10.319062      -280.7959
  24   2.0000     -10.318231      -280.7733
  25   2.0000     -10.317100      -280.7426
  26   2.0000     -10.316049      -280.7140
  27   2.0000     -10.315513      -280.6994
  28   2.0000     -10.314535      -280.6728
  29   2.0000     -10.313165      -280.6355
  30   2.0000     -10.312412      -280.6150
  31   2.0000     -10.309616      -280.5389
  32   2.0000     -10.308318      -280.5036
  33   2.0000     -10.308214      -280.5008
  34   2.0000     -10.307764      -280.4885
  35   2.0000     -10.307036      -280.4687
  36   2.0000     -10.303024      -280.3595
  37   2.0000     -10.300574      -280.2929
  38   2.0000     -10.300457      -280.2897
  39   2.0000     -10.300003      -280.2773
  40   2.0000     -10.296567      -280.1838
  41   2.0000     -10.296189      -280.1736
  42   2.0000     -10.293689      -280.1055
  43   2.0000     -10.292533      -280.0741
  44   2.0000     -10.290512      -280.0191
  45   2.0000     -10.290205      -280.0107
  46   2.0000     -10.289910      -280.0027
  47   2.0000     -10.288982      -279.9774
  48   2.0000     -10.286899      -279.9207
  49   2.0000     -10.286481      -279.9094
  50   2.0000     -10.286037      -279.8973
  51   2.0000     -10.285115      -279.8722
  52   2.0000     -10.282318      -279.7961
  53   2.0000     -10.281865      -279.7838
  54   2.0000     -10.281563      -279.7755
  55   2.0000     -10.281533      -279.7747
  56   2.0000     -10.280526      -279.7473
  57   2.0000     -10.278585      -279.6945
  58   2.0000     -10.275614      -279.6137
  59   2.0000     -10.271061      -279.4898
  60   2.0000     -10.270477      -279.4739
  61   2.0000     -10.270006      -279.4611
  62   2.0000     -10.269706      -279.4529
  63   2.0000     -10.268349      -279.4160
  64   2.0000     -10.268076      -279.4085
  65   2.0000     -10.267102      -279.3821
  66   2.0000     -10.266903      -279.3766
  67   2.0000      -8.779710      -238.9081
  68   2.0000      -8.062338      -219.3874
  69   2.0000      -8.060468      -219.3365
  70   2.0000      -8.055337      -219.1969
  71   2.0000      -8.054164      -219.1649
  72   2.0000      -8.053741      -219.1534
  73   2.0000      -8.046742      -218.9630
  74   2.0000      -7.978638      -217.1098
  75   2.0000      -6.615935      -180.0288
  76   2.0000      -6.601459      -179.6348
  77   2.0000      -6.601324      -179.6312
  78   2.0000      -6.031790      -164.1334
  79   2.0000      -6.030533      -164.0991
  80   2.0000      -6.027858      -164.0264
  81   2.0000      -6.026100      -163.9785
  82   2.0000      -6.025054      -163.9501
  83   2.0000      -6.024004      -163.9215
  84   2.0000      -6.023853      -163.9174
  85   2.0000      -6.022906      -163.8916
  86   2.0000      -6.021047      -163.8410
  87   2.0000      -6.020757      -163.8331
  88   2.0000      -6.019507      -163.7991
  89   2.0000      -6.018844      -163.7811
  90   2.0000      -6.016598      -163.7199
  91   2.0000      -6.016330      -163.7127
  92   2.0000      -6.015817      -163.6987
  93   2.0000      -6.015234      -163.6828
  94   2.0000      -6.012240      -163.6014
  95   2.0000      -6.007978      -163.4854
  96   2.0000      -5.948199      -161.8587
  97   2.0000      -5.945242      -161.7783
  98   2.0000      -5.938729      -161.6010
  99   2.0000      -2.731816       -74.3365
 100   2.0000      -2.727767       -74.2263
 101   2.0000      -2.727625       -74.2224
 102   2.0000      -2.716142       -73.9100
 103   2.0000      -2.716130       -73.9096
 104   2.0000      -1.227398       -33.3992
 105   2.0000      -1.105577       -30.0843
 106   2.0000      -1.040483       -28.3130
 107   2.0000      -1.010371       -27.4936
 108   2.0000      -1.003322       -27.3018
 109   2.0000      -1.001806       -27.2605
 110   2.0000      -0.998466       -27.1696
 111   2.0000      -0.992379       -27.0040
 112   2.0000      -0.983625       -26.7658
 113   2.0000      -0.976466       -26.5710
 114   2.0000      -0.971824       -26.4447
 115   2.0000      -0.967073       -26.3154
 116   2.0000      -0.951685       -25.8967
 117   2.0000      -0.925973       -25.1970
 118   2.0000      -0.924403       -25.1543
 119   2.0000      -0.917400       -24.9637
 120   2.0000      -0.909075       -24.7372
 121   2.0000      -0.898677       -24.4543
 122   2.0000      -0.889358       -24.2007
 123   2.0000      -0.887244       -24.1431
 124   2.0000      -0.877868       -23.8880
 125   2.0000      -0.870356       -23.6836
 126   2.0000      -0.866909       -23.5898
 127   2.0000      -0.865853       -23.5611
 128   2.0000      -0.858126       -23.3508
 129   2.0000      -0.851582       -23.1727
 130   2.0000      -0.845847       -23.0167
 131   2.0000      -0.834969       -22.7207
 132   2.0000      -0.830032       -22.5863
 133   2.0000      -0.826745       -22.4969
 134   2.0000      -0.814163       -22.1545
 135   2.0000      -0.810736       -22.0612
 136   2.0000      -0.799220       -21.7479
 137   2.0000      -0.789338       -21.4790
 138   2.0000      -0.785818       -21.3832
 139   2.0000      -0.770513       -20.9667
 140   2.0000      -0.758482       -20.6393
 141   2.0000      -0.746956       -20.3257
 142   2.0000      -0.738032       -20.0829
 143   2.0000      -0.732505       -19.9325
 144   2.0000      -0.723009       -19.6741
 145   2.0000      -0.718500       -19.5514
 146   2.0000      -0.708469       -19.2784
 147   2.0000      -0.697173       -18.9711
 148   2.0000      -0.687024       -18.6949
 149   2.0000      -0.677518       -18.4362
 150   2.0000      -0.671195       -18.2641
 151   2.0000      -0.667341       -18.1593
 152   2.0000      -0.660185       -17.9645
 153   2.0000      -0.656599       -17.8670
 154   2.0000      -0.648675       -17.6514
 155   2.0000      -0.640561       -17.4305
 156   2.0000      -0.638494       -17.3743
 157   2.0000      -0.632729       -17.2174
 158   2.0000      -0.627321       -17.0703
 159   2.0000      -0.624199       -16.9853
 160   2.0000      -0.622497       -16.9390
 161   2.0000      -0.611629       -16.6433
 162   2.0000      -0.607348       -16.5268
 163   2.0000      -0.603451       -16.4207
 164   2.0000      -0.602178       -16.3861
 165   2.0000      -0.595223       -16.1969
 166   2.0000      -0.585769       -15.9396
 167   2.0000      -0.579859       -15.7788
 168   2.0000      -0.575357       -15.6563
 169   2.0000      -0.574225       -15.6255
 170   2.0000      -0.568960       -15.4822
 171   2.0000      -0.567625       -15.4459
 172   2.0000      -0.565190       -15.3796
 173   2.0000      -0.562612       -15.3095
 174   2.0000      -0.556743       -15.1497
 175   2.0000      -0.552183       -15.0257
 176   2.0000      -0.541836       -14.7441
 177   2.0000      -0.535755       -14.5786
 178   2.0000      -0.529970       -14.4212
 179   2.0000      -0.525923       -14.3111
 180   2.0000      -0.523644       -14.2491
 181   2.0000      -0.518204       -14.1010
 182   2.0000      -0.515358       -14.0236
 183   2.0000      -0.514196       -13.9920
 184   2.0000      -0.511857       -13.9283
 185   2.0000      -0.510915       -13.9027
 186   2.0000      -0.506790       -13.7905
 187   2.0000      -0.505495       -13.7552
 188   2.0000      -0.502823       -13.6825
 189   2.0000      -0.501389       -13.6435
 190   2.0000      -0.500107       -13.6086
 191   2.0000      -0.495219       -13.4756
 192   2.0000      -0.493638       -13.4326
 193   2.0000      -0.491133       -13.3644
 194   2.0000      -0.488803       -13.3010
 195   2.0000      -0.485540       -13.2122
 196   2.0000      -0.484190       -13.1755
 197   2.0000      -0.481179       -13.0936
 198   2.0000      -0.480913       -13.0863
 199   2.0000      -0.477146       -12.9838
 200   2.0000      -0.474985       -12.9250
 201   2.0000      -0.474464       -12.9108
 202   2.0000      -0.471363       -12.8264
 203   2.0000      -0.469847       -12.7852
 204   2.0000      -0.467140       -12.7115
 205   2.0000      -0.463635       -12.6162
 206   2.0000      -0.458307       -12.4712
 207   2.0000      -0.452951       -12.3254
 208   2.0000      -0.448551       -12.2057
 209   2.0000      -0.446027       -12.1370
 210   2.0000      -0.444433       -12.0936
 211   2.0000      -0.440675       -11.9914
 212   2.0000      -0.440285       -11.9808
 213   2.0000      -0.437429       -11.9030
 214   2.0000      -0.437126       -11.8948
 215   2.0000      -0.435386       -11.8475
 216   2.0000      -0.429639       -11.6911
 217   2.0000      -0.429380       -11.6840
 218   2.0000      -0.424087       -11.5400
 219   2.0000      -0.422003       -11.4833
 220   2.0000      -0.421412       -11.4672
 221   2.0000      -0.418169       -11.3790
 222   2.0000      -0.417095       -11.3497
 223   2.0000      -0.413937       -11.2638
 224   2.0000      -0.413122       -11.2416
 225   2.0000      -0.411658       -11.2018
 226   2.0000      -0.406695       -11.0667
 227   2.0000      -0.402776       -10.9601
 228   2.0000      -0.400666       -10.9027
 229   2.0000      -0.395967       -10.7748
 230   2.0000      -0.393467       -10.7068
 231   2.0000      -0.386914       -10.5285
 232   2.0000      -0.384611       -10.4658
 233   2.0000      -0.382429       -10.4064
 234   2.0000      -0.372379       -10.1329
 235   2.0000      -0.365819        -9.9544
 236   2.0000      -0.362255        -9.8575
 237   2.0000      -0.355497        -9.6736
 238   2.0000      -0.352278        -9.5860
 239   2.0000      -0.347598        -9.4586
 240   2.0000      -0.342219        -9.3123
 241   2.0000      -0.333583        -9.0772
 242   2.0000      -0.329269        -8.9599
 243   2.0000      -0.328433        -8.9371
 244   2.0000      -0.317721        -8.6456
 245   2.0000      -0.315982        -8.5983
 246   2.0000      -0.313320        -8.5259
 247   2.0000      -0.311738        -8.4828
 248   2.0000      -0.297644        -8.0993
 249   2.0000      -0.294133        -8.0038
 250   2.0000      -0.286636        -7.7998
 251   2.0000      -0.279126        -7.5954
 252   2.0000      -0.275609        -7.4997
 253   2.0000      -0.263048        -7.1579
 254   2.0000      -0.238670        -6.4945
 255   2.0000      -0.212002        -5.7689
 256   0.0000      -0.109749        -2.9864
 257   0.0000      -0.082521        -2.2455
 258   0.0000      -0.056644        -1.5414
 259   0.0000      -0.042254        -1.1498
 260   0.0000      -0.025783        -0.7016

MULLIKEN ATOMIC CHARGES
-----------------------
   0 C :    0.329886
   1 C :   -0.368825
   2 C :   -0.195582
   3 N :    0.136424
   4 C :   -0.175298
   5 N :    0.112873
   6 C :    0.012794
   7 C :   -0.008107
   8 C :   -0.080108
   9 C :    0.115991
  10 C :   -0.092778
  11 C :   -0.025382
  12 S :    0.176811
  13 C :   -0.124265
  14 C :    0.039091
  15 Br:    0.009948
  16 C :    0.133382
  17 O :   -0.169162
  18 C :   -0.077705
  19 C :   -0.053685
  20 C :   -0.016465
  21 C :    0.007457
  22 C :    0.022519
  23 C :    0.042353
  24 C :   -0.046128
  25 S :    0.085955
  26 C :   -0.001399
  27 C :    0.022234
  28 C :    0.045619
  29 C :   -0.044415
  30 S :    0.070639
  31 C :    0.013437
  32 C :   -0.104187
  33 S :    0.103942
  34 C :   -0.090239
  35 C :   -0.056484
  36 C :   -0.093745
  37 C :    0.131903
  38 C :    0.060676
  39 C :   -0.067724
  40 N :   -0.169997
  41 C :    0.158645
  42 C :    0.024532
  43 C :    0.042557
  44 C :   -0.183509
  45 S :    0.144413
  46 C :   -0.151703
  47 C :    0.219626
  48 C :   -0.029238
  49 S :    0.177357
  50 C :    0.063955
  51 S :   -0.122425
  52 O :   -0.152372
  53 C :    0.062780
  54 C :   -0.063779
  55 C :    0.127266
  56 C :   -0.092796
  57 C :   -0.011454
  58 N :   -0.065324
  59 C :    0.156817
  60 C :   -0.144714
  61 C :   -0.024883
  62 C :    0.045749
  63 H :   -0.017218
  64 H :   -0.008085
  65 H :   -0.007832
  66 H :    0.018628
  67 H :    0.012504
  68 H :   -0.003375
  69 H :   -0.007929
  70 H :   -0.010752
  71 H :   -0.006660
  72 H :   -0.007070
  73 H :    0.018091
  74 H :    0.015352
  75 H :    0.010977
  76 H :   -0.007034
  77 H :   -0.011508
  78 H :    0.091010
  79 H :    0.089415
  80 H :    0.024667
  81 H :    0.013201
  82 H :   -0.003315
  83 H :   -0.022349
  84 H :   -0.002387
  85 H :   -0.015934
  86 H :   -0.010867
  87 H :   -0.013892
  88 H :    0.042526
  89 H :    0.026084
Sum of atomic charges:   -0.0000000

LOEWDIN ATOMIC CHARGES
----------------------
   0 C :    0.072971
   1 C :   -0.158526
   2 C :   -0.025618
   3 N :   -0.072733
   4 C :   -0.016206
   5 N :   -0.089108
   6 C :   -0.016822
   7 C :   -0.048265
   8 C :    0.015503
   9 C :   -0.037088
  10 C :   -0.146033
  11 C :   -0.013480
  12 S :    0.425481
  13 C :   -0.276195
  14 C :   -0.071248
  15 Br:    0.126526
  16 C :    0.080857
  17 O :   -0.161970
  18 C :   -0.110931
  19 C :    0.045515
  20 C :   -0.073803
  21 C :   -0.104784
  22 C :   -0.046861
  23 C :   -0.010327
  24 C :   -0.195429
  25 S :    0.412525
  26 C :   -0.149046
  27 C :   -0.049899
  28 C :   -0.011715
  29 C :   -0.171014
  30 S :    0.402190
  31 C :   -0.036503
  32 C :   -0.187280
  33 S :    0.453156
  34 C :   -0.155026
  35 C :   -0.054138
  36 C :   -0.036981
  37 C :   -0.027241
  38 C :   -0.026289
  39 C :    0.016645
  40 N :   -0.110101
  41 C :   -0.028908
  42 C :   -0.047340
  43 C :   -0.039504
  44 C :   -0.187930
  45 S :    0.445022
  46 C :   -0.185806
  47 C :    0.001842
  48 C :   -0.210611
  49 S :    0.430995
  50 C :   -0.235951
  51 S :    0.018148
  52 O :   -0.002951
  53 C :   -0.029978
  54 C :   -0.025047
  55 C :   -0.011297
  56 C :   -0.014953
  57 C :    0.031618
  58 N :   -0.110299
  59 C :   -0.000861
  60 C :    0.000316
  61 C :   -0.052268
  62 C :    0.022055
  63 H :    0.038024
  64 H :    0.040366
  65 H :    0.036951
  66 H :    0.028875
  67 H :    0.037740
  68 H :    0.037004
  69 H :    0.034909
  70 H :    0.033619
  71 H :    0.035667
  72 H :    0.040230
  73 H :    0.032798
  74 H :    0.033821
  75 H :    0.027240
  76 H :    0.021653
  77 H :    0.002219
  78 H :    0.054319
  79 H :    0.054028
  80 H :    0.036221
  81 H :    0.029091
  82 H :    0.018735
  83 H :    0.029485
  84 H :    0.029532
  85 H :    0.026764
  86 H :    0.023876
  87 H :    0.028856
  88 H :    0.033864
  89 H :    0.027115

  Mayer bond orders larger than 0.100000
B(  0-C ,  1-C ) :   1.5651 B(  0-C ,  6-C ) :   0.9886 B(  0-C , 18-C ) :   1.1275
B(  1-C ,  2-C ) :   1.1552 B(  1-C ,  4-C ) :   1.1684 B(  2-C ,  3-N ) :   2.9451
B(  4-C ,  5-N ) :   2.9182 B(  6-C ,  7-C ) :   1.2796 B(  6-C , 11-C ) :   1.4216
B(  7-C ,  8-C ) :   1.4314 B(  7-C , 16-C ) :   0.9323 B(  8-C ,  9-C ) :   1.2368
B(  8-C , 63-H ) :   1.0161 B(  9-C , 10-C ) :   1.3208 B(  9-C , 14-C ) :   1.1611
B( 10-C , 11-C ) :   1.3200 B( 10-C , 12-S ) :   1.0812 B( 11-C , 64-H ) :   0.9790
B( 12-S , 13-C ) :   1.0861 B( 13-C , 14-C ) :   1.6200 B( 13-C , 15-Br) :   1.0102
B( 14-C , 65-H ) :   0.9995 B( 16-C , 17-O ) :   2.1878 B( 16-C , 18-C ) :   0.9685
B( 18-C , 19-C ) :   1.4604 B( 19-C , 20-C ) :   1.2826 B( 19-C , 66-H ) :   0.9388
B( 20-C , 21-C ) :   1.3898 B( 20-C , 67-H ) :   0.9826 B( 21-C , 22-C ) :   1.1978
B( 21-C , 25-S ) :   1.0935 B( 22-C , 23-C ) :   1.5140 B( 22-C , 68-H ) :   1.0010
B( 23-C , 24-C ) :   1.2438 B( 23-C , 69-H ) :   0.9964 B( 24-C , 25-S ) :   1.0504
B( 24-C , 26-C ) :   1.4261 B( 26-C , 27-C ) :   1.2201 B( 26-C , 30-S ) :   1.0820
B( 27-C , 28-C ) :   1.5471 B( 27-C , 70-H ) :   0.9955 B( 28-C , 29-C ) :   1.1781
B( 28-C , 71-H ) :   0.9981 B( 29-C , 30-S ) :   1.0370 B( 29-C , 31-C ) :   1.5033
B( 31-C , 32-C ) :   1.2458 B( 31-C , 72-H ) :   0.9663 B( 32-C , 33-S ) :   1.0851
B( 32-C , 36-C ) :   1.3785 B( 33-S , 34-C ) :   1.1432 B( 34-C , 35-C ) :   1.4023
B( 34-C , 42-C ) :   1.1977 B( 35-C , 36-C ) :   1.4100 B( 35-C , 41-C ) :   1.0488
B( 36-C , 37-C ) :   1.0509 B( 37-C , 38-C ) :   1.0886 B( 37-C , 73-H ) :   0.9132
B( 37-C , 74-H ) :   0.8998 B( 38-C , 39-C ) :   1.0397 B( 38-C , 75-H ) :   0.9341
B( 38-C , 76-H ) :   0.9313 B( 39-C , 40-N ) :   1.0795 B( 39-C , 41-C ) :   1.0354
B( 39-C , 77-H ) :   0.9322 B( 40-N , 78-H ) :   0.9605 B( 40-N , 79-H ) :   0.9608
B( 41-C , 80-H ) :   0.8925 B( 41-C , 81-H ) :   0.9066 B( 42-C , 43-C ) :   1.6226
B( 42-C , 82-H ) :   0.9289 B( 43-C , 44-C ) :   1.1699 B( 43-C , 83-H ) :   0.9619
B( 44-C , 45-S ) :   1.0954 B( 44-C , 46-C ) :   0.1091 B( 44-C , 48-C ) :   1.5020
B( 45-S , 46-C ) :   1.1070 B( 46-C , 47-C ) :   1.4994 B( 46-C , 53-C ) :   1.1284
B( 47-C , 48-C ) :   1.2757 B( 47-C , 52-O ) :   1.0942 B( 48-C , 49-S ) :   1.0046
B( 49-S , 50-C ) :   1.0630 B( 49-S , 51-S ) :   0.1159 B( 50-C , 51-S ) :   1.7770
B( 50-C , 52-O ) :   1.0817 B( 53-C , 54-C ) :   1.6696 B( 53-C , 60-C ) :   0.9298
B( 54-C , 55-C ) :   0.9760 B( 54-C , 84-H ) :   1.0149 B( 55-C , 56-C ) :   1.6263
B( 55-C , 59-C ) :   1.0656 B( 56-C , 57-C ) :   0.9537 B( 56-C , 85-H ) :   1.0092
B( 57-C , 58-N ) :   1.8113 B( 57-C , 61-C ) :   1.0762 B( 58-N , 59-C ) :   1.1766
B( 59-C , 60-C ) :   1.6546 B( 60-C , 86-H ) :   1.0269 B( 61-C , 62-C ) :   1.9367
B( 61-C , 87-H ) :   0.9611 B( 62-C , 88-H ) :   0.9446 B( 62-C , 89-H ) :   0.9464

-----------------------------------------------------------------------------
         ABSORPTION SPECTRUM VIA TRANSITION ELECTRIC DIPOLE MOMENTS
-----------------------------------------------------------------------------
State   Energy  Wavelength   fosc         T2         TX        TY        TZ
        (cm-1)    (nm)                  (au**2)     (au)      (au)      (au)
-----------------------------------------------------------------------------
   0    8593.0   1163.7   0.493719382  18.91525   3.84126   1.76928   1.01471
   1   13848.8    722.1   0.195131638   4.63865   0.51501  -1.80636  -1.05380
   2   16073.9    622.1   0.183636225   3.76109   0.34354  -1.64924  -0.96076
   3   18966.2    527.3   1.504118000  26.10822  -2.46500   3.92288   2.15476
   4   19753.2    506.2   0.055661371   0.92767   0.14053   0.74874   0.58932
   5   21146.9    472.9   0.051632478   0.80381   0.82143  -0.35692  -0.04079
   6   22502.8    444.4   0.150707236   2.20482  -0.81276  -0.89120  -0.86603
   7   23213.4    430.8   0.328846338   4.66369  -2.03160   0.72198   0.12257
   8   24319.2    411.2   0.128428521   1.73856   0.19005  -1.15334  -0.61011
   9   24550.2    407.3   0.523013005   7.01347   0.84789  -2.17043  -1.25848
  10   25181.4    397.1   0.005082117   0.06644   0.17142   0.06825   0.18000
  11   25576.5    391.0   0.121479620   1.56365  -0.51776  -0.80094  -0.80875
  12   25670.9    389.5   0.003172417   0.04068  -0.07898  -0.18558   0.00264
  13   26531.8    376.9   0.001508186   0.01871   0.03392   0.10491   0.08098
  14   26688.0    374.7   0.096880798   1.19508  -0.28132  -0.79611  -0.69437
  15   27090.4    369.1   0.071249845   0.86585   0.51364  -0.63492  -0.44598
  16   27547.7    363.0   0.015945375   0.19056  -0.14782  -0.28049  -0.30005
  17   27888.8    358.6   0.009095415   0.10737  -0.30664   0.06196  -0.09746
  18   28825.2    346.9   0.002676907   0.03057  -0.10513   0.10244   0.09501
  19   29074.2    343.9   0.020673415   0.23409   0.38442  -0.28714   0.06215
  20   29811.3    335.4   0.182486574   2.01523  -1.03731  -0.69217  -0.67833
  21   29837.9    335.1   0.062056356   0.68469   0.58555  -0.56999  -0.13012
  22   30218.5    330.9   0.032729419   0.35657   0.39405  -0.38610  -0.22851
  23   30720.2    325.5   0.010658917   0.11423   0.28218   0.10014   0.15676
  24   30943.9    323.2   0.251191369   2.67242   1.21584   0.78640   0.75877
  25   31462.1    317.8   0.055056045   0.57609  -0.72157  -0.17034  -0.16252
  26   31782.7    314.6   0.039729162   0.41152   0.12899   0.59491   0.20240
  27   31863.4    313.8   0.007037823   0.07271  -0.11243  -0.23088  -0.08226
  28   31991.6    312.6   0.027505959   0.28305  -0.02324  -0.49038  -0.20504
  29   32416.2    308.5   0.172938171   1.75632  -0.18966  -1.14721  -0.63581
  30   33089.0    302.2   0.002743190   0.02729  -0.16459  -0.01148  -0.00839
  31   33191.6    301.3   0.006690101   0.06636   0.19177   0.02922   0.16949
  32   33705.0    296.7   0.069403250   0.67789   0.74616   0.16221   0.30795
  33   33843.5    295.5   0.211439866   2.05678   0.18429  -1.26876  -0.64270
  34   34273.0    291.8   0.010885875   0.10457  -0.31143   0.04865   0.07217
  35   34416.5    290.6   0.103521053   0.99023   0.67064   0.52542   0.51421
  36   34527.0    289.6   0.065652719   0.62599  -0.36642  -0.54525  -0.44094
  37   35081.3    285.1   0.112290409   1.05376  -0.83557   0.54263   0.24725
  38   35237.0    283.8   0.159344822   1.48873   1.10280   0.31613   0.41547
  39   36054.6    277.4   0.025398627   0.23191   0.15131  -0.39276  -0.23401
  40   36469.7    274.2   0.036856041   0.33270   0.33558   0.27968   0.37665
  41   36907.3    270.9   0.061015555   0.54426   0.65101  -0.33692  -0.08326
  42   37032.5    270.0   0.203039676   1.80499   1.27578   0.12180   0.40315
  43   37555.8    266.3   0.058805665   0.51549  -0.65405  -0.15605  -0.25171
  44   37750.9    264.9   0.033430779   0.29154  -0.52478   0.10714  -0.06831
  45   37993.4    263.2   0.021921057   0.18995   0.33015   0.24229   0.14915
  46   38300.7    261.1   0.198303094   1.70450  -1.23876   0.40555  -0.07425
  47   38396.8    260.4   0.014395884   0.12343   0.33075   0.07946   0.08785
  48   38602.8    259.0   0.010808865   0.09218  -0.27176  -0.06700  -0.11765
  49   38671.8    258.6   0.003216346   0.02738  -0.15806  -0.03208  -0.03700
  50   38790.0    257.8   0.010016506   0.08501   0.27415  -0.09436   0.03084
  51   38828.4    257.5   0.003290461   0.02790  -0.15754  -0.04576  -0.03140
  52   39354.6    254.1   0.040361852   0.33764   0.47901   0.14540   0.29503
  53   39464.8    253.4   0.004293824   0.03582  -0.13492  -0.12238  -0.05137
  54   39508.5    253.1   0.000137634   0.00115   0.00685   0.02727  -0.01888
  55   40007.8    250.0   0.029583547   0.24343  -0.02468   0.41630   0.26366
  56   40111.3    249.3   0.044923767   0.36871  -0.06433   0.50348   0.33329
  57   40245.6    248.5   0.010035895   0.08209   0.09473  -0.22251  -0.15365

FINAL SINGLE POINT ENERGY     -7610.341172586137

DIPOLE MOMENT
-------------
                                X             Y             Z
Electronic contribution:   -102.62327    -135.60485     -79.84695
Nuclear contribution   :    102.93956     139.59598      81.50935
                        -----------------------------------------
Total Dipole Moment    :      0.31629       3.99113       1.66240
                        -----------------------------------------
Magnitude (a.u.)       :      4.33506
Magnitude (Debye)      :     11.01885

Rotational constants in cm-1:     0.000772     0.000521     0.000314
Rotational constants in MHz :    23.140627    15.621941     9.419695

                             ****ORCA TERMINATED NORMALLY****
TOTAL RUN TIME: 0 days 0 hours 9 minutes 25 seconds 518 msec
