                         Program Version 4.2.0 -  RELEASE  -
|  1> # ORCA input file
|  2> # SCF done       -174.994451193061          0.000994086306
|  3> ! CAM-B3LYP def2-SVP def2/J RIJCOSX Grid4 TightSCF
|  4> %maxcore 5000
|  5> %tddft
|  6>     Mode sTDDFT
|  7>     Ethresh 5.0
|  8>     maxcore 5000
|  9> end
| 10>
| 11> %pal
| 12>   nprocs 6
| 13>   end
| 14> * xyz 0 1
| 15>    C      -13.07249        -0.54301        -4.60428
| 16>    C      -12.53271        -1.38383        -5.54350
| 17>    C      -13.26352        -2.37277        -6.23609
| 18>    N      -13.79932        -3.18714        -6.84169
| 19>    C      -11.18512        -1.38910        -5.95658
| 20>    N      -10.09976        -1.44719        -6.32943
| 21>    C      -14.45615        -0.56891        -4.14619
| 22>    C      -14.62918         0.42945        -3.15582
| 23>    C      -15.82720         0.64871        -2.52154
| 24>    C      -16.91007        -0.16258        -2.87715
| 25>    C      -16.73026        -1.15739        -3.86842
| 26>    C      -15.51859        -1.37498        -4.51230
| 27>    S      -18.19567        -2.04497        -4.15576
| 28>    C      -19.01816        -1.08340        -2.95648
| 29>    C      -18.23722        -0.14432        -2.36988
| 30>   Br      -20.82831        -1.40835        -2.59357
| 31>    C      -13.35609         1.13765        -2.95287
| 32>    O      -13.16409         2.10999        -2.24587
| 33>    C      -12.38254         0.48869        -3.84767
| 34>    C      -11.08600         0.87793        -4.04988
| 35>    N      -10.31599         1.69889        -3.30726
| 36>    C      -10.35826         2.03400        -1.98025
| 37>    S      -11.21871         1.11256        -0.80162
| 38>    C      -10.46933         2.03454         0.45116
| 39>    N      -10.81894         1.73050         1.77351
| 40>    O      -10.29644         2.37351         2.66260
| 41>    O      -11.61958         0.82480         1.92917
| 42>    C       -9.60940         2.99595        -0.01275
| 43>    C       -9.53410         3.01660        -1.41626
| 44>    C       -8.67960         3.93283        -2.13177
| 45>    C       -8.83651         4.38522        -3.39008
| 46>    C       -7.88921         5.28162        -3.99250
| 47>    C       -7.94205         5.82386        -5.21826
| 48>    C       -9.01106         5.60693        -6.23706
| 49>    C       -6.82681         6.73062        -5.68426
| 50>    N       -5.98358         6.05382        -6.64316
| 51>    C       -5.82675         6.43337        -7.91646
| 52>    C       -4.99269         5.85832        -8.81871
| 53>    C       -4.83817         6.39956       -10.11597
| 54>    S       -3.57016         5.77742       -11.20947
| 55>    C       -4.02215         6.96960       -12.33702
| 56>    C       -5.06081         7.74719       -11.85863
| 57>    N       -5.49893         7.38423       -10.62194
| 58>    C       -5.65598         8.80254       -12.60700
| 59>    C       -6.66852         9.62813       -12.23043
| 60>    C       -7.44835        10.36138       -13.26164
| 61>    O       -7.13007        10.57014       -14.40933
| 62>    C       -8.72226        10.71703       -12.59705
| 63>    C       -9.82662        11.31835       -13.12718
| 64>    C      -10.95134        11.54217       -12.30113
| 65>    C      -10.90894        11.13588       -10.93563
| 66>    C      -12.03646        11.35959       -10.12004
| 67>    C      -13.15117        11.95994       -10.63402
| 68>    C      -13.19114        12.36314       -11.98351
| 69>    C      -12.11470        12.15922       -12.80059
| 70>    F      -14.29789        12.94939       -12.46055
| 71>    F      -14.22119        12.17053        -9.85480
| 72>    C       -9.74715        10.52473       -10.41138
| 73>    C       -8.66900        10.31903       -11.23002
| 74>    C       -7.33983         9.78212       -10.95848
| 75>    C       -6.76738         9.65065        -9.72225
| 76>    C       -5.37009         9.55674        -9.51947
| 77>    N       -4.25296         9.64232        -9.26781
| 78>    C       -7.48301         9.63576        -8.51424
| 79>    N       -8.01323         9.50192        -7.50177
| 80>    H      -15.92435         1.41576        -1.76957
| 81>    H      -15.43478        -2.14527        -5.26030
| 82>    H      -18.58190         0.53306        -1.61011
| 83>    H      -10.57767         0.51680        -4.93510
| 84>    H       -9.47869         2.04955        -3.76558
| 85>    H       -9.07639         3.66502         0.63805
| 86>    H       -7.84573         4.30638        -1.55110
| 87>    H       -9.71345         4.12176        -3.96322
| 88>    H       -7.04554         5.53565        -3.36173
| 89>    H       -9.75221         4.87944        -5.92349
| 90>    H       -8.56629         5.27434        -7.17516
| 91>    H       -9.51581         6.55253        -6.43534
| 92>    H       -6.21860         7.04998        -4.83096
| 93>    H       -7.24481         7.61957        -6.16472
| 94>    H       -5.44824         5.26707        -6.30650
| 95>    H       -6.41995         7.28135        -8.22387
| 96>    H       -4.37329         5.01553        -8.55348
| 97>    H       -3.52492         7.05471       -13.28215
| 98>    H       -5.32582         8.89531       -13.63506
| 99>    H       -9.84250        11.62172       -14.16291
|100>    H      -12.02255        11.06045        -9.08359
|101>    H      -12.16054        12.47359       -13.83149
|102>    H       -9.73838        10.22723        -9.37428
|103> *
|104>
|105>                          ****END OF INPUT****

CARTESIAN COORDINATES (ANGSTROEM)
---------------------------------
  C    -13.072490   -0.543010   -4.604280
  C    -12.532710   -1.383830   -5.543500
  C    -13.263520   -2.372770   -6.236090
  N    -13.799320   -3.187140   -6.841690
  C    -11.185120   -1.389100   -5.956580
  N    -10.099760   -1.447190   -6.329430
  C    -14.456150   -0.568910   -4.146190
  C    -14.629180    0.429450   -3.155820
  C    -15.827200    0.648710   -2.521540
  C    -16.910070   -0.162580   -2.877150
  C    -16.730260   -1.157390   -3.868420
  C    -15.518590   -1.374980   -4.512300
  S    -18.195670   -2.044970   -4.155760
  C    -19.018160   -1.083400   -2.956480
  C    -18.237220   -0.144320   -2.369880
  Br   -20.828310   -1.408350   -2.593570
  C    -13.356090    1.137650   -2.952870
  O    -13.164090    2.109990   -2.245870
  C    -12.382540    0.488690   -3.847670
  C    -11.086000    0.877930   -4.049880
  N    -10.315990    1.698890   -3.307260
  C    -10.358260    2.034000   -1.980250
  S    -11.218710    1.112560   -0.801620
  C    -10.469330    2.034540    0.451160
  N    -10.818940    1.730500    1.773510
  O    -10.296440    2.373510    2.662600
  O    -11.619580    0.824800    1.929170
  C     -9.609400    2.995950   -0.012750
  C     -9.534100    3.016600   -1.416260
  C     -8.679600    3.932830   -2.131770
  C     -8.836510    4.385220   -3.390080
  C     -7.889210    5.281620   -3.992500
  C     -7.942050    5.823860   -5.218260
  C     -9.011060    5.606930   -6.237060
  C     -6.826810    6.730620   -5.684260
  N     -5.983580    6.053820   -6.643160
  C     -5.826750    6.433370   -7.916460
  C     -4.992690    5.858320   -8.818710
  C     -4.838170    6.399560  -10.115970
  S     -3.570160    5.777420  -11.209470
  C     -4.022150    6.969600  -12.337020
  C     -5.060810    7.747190  -11.858630
  N     -5.498930    7.384230  -10.621940
  C     -5.655980    8.802540  -12.607000
  C     -6.668520    9.628130  -12.230430
  C     -7.448350   10.361380  -13.261640
  O     -7.130070   10.570140  -14.409330
  C     -8.722260   10.717030  -12.597050
  C     -9.826620   11.318350  -13.127180
  C    -10.951340   11.542170  -12.301130
  C    -10.908940   11.135880  -10.935630
  C    -12.036460   11.359590  -10.120040
  C    -13.151170   11.959940  -10.634020
  C    -13.191140   12.363140  -11.983510
  C    -12.114700   12.159220  -12.800590
  F    -14.297890   12.949390  -12.460550
  F    -14.221190   12.170530   -9.854800
  C     -9.747150   10.524730  -10.411380
  C     -8.669000   10.319030  -11.230020
  C     -7.339830    9.782120  -10.958480
  C     -6.767380    9.650650   -9.722250
  C     -5.370090    9.556740   -9.519470
  N     -4.252960    9.642320   -9.267810
  C     -7.483010    9.635760   -8.514240
  N     -8.013230    9.501920   -7.501770
  H    -15.924350    1.415760   -1.769570
  H    -15.434780   -2.145270   -5.260300
  H    -18.581900    0.533060   -1.610110
  H    -10.577670    0.516800   -4.935100
  H     -9.478690    2.049550   -3.765580
  H     -9.076390    3.665020    0.638050
  H     -7.845730    4.306380   -1.551100
  H     -9.713450    4.121760   -3.963220
  H     -7.045540    5.535650   -3.361730
  H     -9.752210    4.879440   -5.923490
  H     -8.566290    5.274340   -7.175160
  H     -9.515810    6.552530   -6.435340
  H     -6.218600    7.049980   -4.830960
  H     -7.244810    7.619570   -6.164720
  H     -5.448240    5.267070   -6.306500
  H     -6.419950    7.281350   -8.223870
  H     -4.373290    5.015530   -8.553480
  H     -3.524920    7.054710  -13.282150
  H     -5.325820    8.895310  -13.635060
  H     -9.842500   11.621720  -14.162910
  H    -12.022550   11.060450   -9.083590
  H    -12.160540   12.473590  -13.831490
  H     -9.738380   10.227230   -9.374280

 Total Charge           Charge          ....    0
 Multiplicity           Mult            ....    1
 Number of Electrons    NEL             ....  494
 Basis Dimension        Dim             .... 1055

ORBITAL ENERGIES
----------------

  NO   OCC          E(Eh)            E(eV)
   0   2.0000    -482.888197    -13140.0559
   1   2.0000     -88.989595     -2421.5300
   2   2.0000     -88.978808     -2421.2365
   3   2.0000     -88.965482     -2420.8738
   4   2.0000     -62.565899     -1702.5047
   5   2.0000     -56.399854     -1534.7180
   6   2.0000     -56.397130     -1534.6439
   7   2.0000     -56.397099     -1534.6431
   8   2.0000     -24.798144      -674.7918
   9   2.0000     -24.797889      -674.7849
  10   2.0000     -19.239248      -523.5265
  11   2.0000     -19.239057      -523.5214
  12   2.0000     -19.223489      -523.0977
  13   2.0000     -19.213378      -522.8226
  14   2.0000     -14.650972      -398.6732
  15   2.0000     -14.513162      -394.9232
  16   2.0000     -14.452003      -393.2590
  17   2.0000     -14.427631      -392.5958
  18   2.0000     -14.425942      -392.5498
  19   2.0000     -14.419548      -392.3758
  20   2.0000     -14.401525      -391.8854
  21   2.0000     -14.399367      -391.8267
  22   2.0000     -10.381187      -282.4865
  23   2.0000     -10.380700      -282.4732
  24   2.0000     -10.374084      -282.2932
  25   2.0000     -10.373814      -282.2858
  26   2.0000     -10.372271      -282.2438
  27   2.0000     -10.364588      -282.0348
  28   2.0000     -10.362261      -281.9715
  29   2.0000     -10.351367      -281.6750
  30   2.0000     -10.347657      -281.5741
  31   2.0000     -10.344887      -281.4987
  32   2.0000     -10.340793      -281.3873
  33   2.0000     -10.339139      -281.3423
  34   2.0000     -10.335995      -281.2567
  35   2.0000     -10.331372      -281.1309
  36   2.0000     -10.329623      -281.0833
  37   2.0000     -10.329084      -281.0687
  38   2.0000     -10.329017      -281.0668
  39   2.0000     -10.322814      -280.8980
  40   2.0000     -10.317038      -280.7409
  41   2.0000     -10.316810      -280.7347
  42   2.0000     -10.314868      -280.6818
  43   2.0000     -10.312737      -280.6238
  44   2.0000     -10.312507      -280.6176
  45   2.0000     -10.311543      -280.5913
  46   2.0000     -10.310562      -280.5647
  47   2.0000     -10.310542      -280.5641
  48   2.0000     -10.309594      -280.5383
  49   2.0000     -10.308888      -280.5191
  50   2.0000     -10.308666      -280.5131
  51   2.0000     -10.307315      -280.4763
  52   2.0000     -10.306863      -280.4640
  53   2.0000     -10.306487      -280.4538
  54   2.0000     -10.305187      -280.4184
  55   2.0000     -10.302183      -280.3367
  56   2.0000     -10.301732      -280.3244
  57   2.0000     -10.301574      -280.3201
  58   2.0000     -10.300927      -280.3025
  59   2.0000     -10.300631      -280.2944
  60   2.0000     -10.299669      -280.2682
  61   2.0000     -10.298012      -280.2232
  62   2.0000     -10.297293      -280.2036
  63   2.0000     -10.295018      -280.1417
  64   2.0000     -10.293486      -280.1000
  65   2.0000     -10.292381      -280.0699
  66   2.0000     -10.284320      -279.8506
  67   2.0000     -10.278487      -279.6918
  68   2.0000     -10.262381      -279.2536
  69   2.0000      -8.795323      -239.3329
  70   2.0000      -8.084332      -219.9858
  71   2.0000      -8.074858      -219.7281
  72   2.0000      -8.062174      -219.3829
  73   2.0000      -6.631642      -180.4562
  74   2.0000      -6.617041      -180.0588
  75   2.0000      -6.616849      -180.0536
  76   2.0000      -6.053808      -164.7325
  77   2.0000      -6.049331      -164.6107
  78   2.0000      -6.046231      -164.5263
  79   2.0000      -6.044554      -164.4807
  80   2.0000      -6.040254      -164.3637
  81   2.0000      -6.036071      -164.2498
  82   2.0000      -6.031199      -164.1173
  83   2.0000      -6.027156      -164.0072
  84   2.0000      -6.024476      -163.9343
  85   2.0000      -2.747538       -74.7643
  86   2.0000      -2.743427       -74.6525
  87   2.0000      -2.743230       -74.6471
  88   2.0000      -2.731654       -74.3321
  89   2.0000      -2.731651       -74.3320
  90   2.0000      -1.320984       -35.9458
  91   2.0000      -1.320745       -35.9393
  92   2.0000      -1.305948       -35.5366
  93   2.0000      -1.141088       -31.0506
  94   2.0000      -1.140018       -31.0215
  95   2.0000      -1.128481       -30.7075
  96   2.0000      -1.108536       -30.1648
  97   2.0000      -1.066448       -29.0195
  98   2.0000      -1.050404       -28.5829
  99   2.0000      -1.028883       -27.9973
 100   2.0000      -1.020838       -27.7784
 101   2.0000      -1.019531       -27.7429
 102   2.0000      -1.011574       -27.5263
 103   2.0000      -1.006087       -27.3770
 104   2.0000      -1.001841       -27.2615
 105   2.0000      -0.994608       -27.0647
 106   2.0000      -0.989954       -26.9380
 107   2.0000      -0.978433       -26.6245
 108   2.0000      -0.947521       -25.7834
 109   2.0000      -0.939084       -25.5538
 110   2.0000      -0.931197       -25.3392
 111   2.0000      -0.918678       -24.9985
 112   2.0000      -0.913724       -24.8637
 113   2.0000      -0.908645       -24.7255
 114   2.0000      -0.899752       -24.4835
 115   2.0000      -0.897778       -24.4298
 116   2.0000      -0.893777       -24.3209
 117   2.0000      -0.890254       -24.2250
 118   2.0000      -0.888722       -24.1834
 119   2.0000      -0.884849       -24.0780
 120   2.0000      -0.866764       -23.5858
 121   2.0000      -0.856823       -23.3153
 122   2.0000      -0.853428       -23.2229
 123   2.0000      -0.839818       -22.8526
 124   2.0000      -0.833543       -22.6819
 125   2.0000      -0.826686       -22.4953
 126   2.0000      -0.805958       -21.9312
 127   2.0000      -0.797222       -21.6935
 128   2.0000      -0.789476       -21.4827
 129   2.0000      -0.772087       -21.0096
 130   2.0000      -0.768743       -20.9186
 131   2.0000      -0.763909       -20.7870
 132   2.0000      -0.753823       -20.5126
 133   2.0000      -0.737549       -20.0697
 134   2.0000      -0.724470       -19.7138
 135   2.0000      -0.721079       -19.6215
 136   2.0000      -0.716630       -19.5005
 137   2.0000      -0.716231       -19.4896
 138   2.0000      -0.701744       -19.0954
 139   2.0000      -0.700559       -19.0632
 140   2.0000      -0.692615       -18.8470
 141   2.0000      -0.684003       -18.6127
 142   2.0000      -0.681323       -18.5397
 143   2.0000      -0.676345       -18.4043
 144   2.0000      -0.664004       -18.0685
 145   2.0000      -0.657472       -17.8907
 146   2.0000      -0.653510       -17.7829
 147   2.0000      -0.647328       -17.6147
 148   2.0000      -0.640970       -17.4417
 149   2.0000      -0.636847       -17.3295
 150   2.0000      -0.634571       -17.2676
 151   2.0000      -0.632227       -17.2038
 152   2.0000      -0.630028       -17.1439
 153   2.0000      -0.626376       -17.0445
 154   2.0000      -0.624327       -16.9888
 155   2.0000      -0.613630       -16.6977
 156   2.0000      -0.611016       -16.6266
 157   2.0000      -0.604631       -16.4529
 158   2.0000      -0.599546       -16.3145
 159   2.0000      -0.593547       -16.1512
 160   2.0000      -0.588495       -16.0137
 161   2.0000      -0.586814       -15.9680
 162   2.0000      -0.585366       -15.9286
 163   2.0000      -0.582200       -15.8425
 164   2.0000      -0.577171       -15.7056
 165   2.0000      -0.573838       -15.6149
 166   2.0000      -0.567006       -15.4290
 167   2.0000      -0.564002       -15.3473
 168   2.0000      -0.557376       -15.1670
 169   2.0000      -0.554460       -15.0876
 170   2.0000      -0.553188       -15.0530
 171   2.0000      -0.547637       -14.9020
 172   2.0000      -0.547077       -14.8867
 173   2.0000      -0.546335       -14.8665
 174   2.0000      -0.540969       -14.7205
 175   2.0000      -0.534181       -14.5358
 176   2.0000      -0.533103       -14.5065
 177   2.0000      -0.531773       -14.4703
 178   2.0000      -0.527920       -14.3654
 179   2.0000      -0.527050       -14.3417
 180   2.0000      -0.523184       -14.2366
 181   2.0000      -0.521550       -14.1921
 182   2.0000      -0.519515       -14.1367
 183   2.0000      -0.518039       -14.0966
 184   2.0000      -0.515138       -14.0176
 185   2.0000      -0.512581       -13.9480
 186   2.0000      -0.508791       -13.8449
 187   2.0000      -0.507788       -13.8176
 188   2.0000      -0.506407       -13.7800
 189   2.0000      -0.502789       -13.6816
 190   2.0000      -0.500627       -13.6227
 191   2.0000      -0.498819       -13.5736
 192   2.0000      -0.492205       -13.3936
 193   2.0000      -0.485052       -13.1989
 194   2.0000      -0.484127       -13.1738
 195   2.0000      -0.480975       -13.0880
 196   2.0000      -0.480508       -13.0753
 197   2.0000      -0.478098       -13.0097
 198   2.0000      -0.469629       -12.7792
 199   2.0000      -0.466970       -12.7069
 200   2.0000      -0.466783       -12.7018
 201   2.0000      -0.463938       -12.6244
 202   2.0000      -0.463072       -12.6008
 203   2.0000      -0.460972       -12.5437
 204   2.0000      -0.459346       -12.4994
 205   2.0000      -0.457818       -12.4579
 206   2.0000      -0.454831       -12.3766
 207   2.0000      -0.450273       -12.2525
 208   2.0000      -0.449939       -12.2435
 209   2.0000      -0.449610       -12.2345
 210   2.0000      -0.447229       -12.1697
 211   2.0000      -0.443962       -12.0808
 212   2.0000      -0.438585       -11.9345
 213   2.0000      -0.436910       -11.8889
 214   2.0000      -0.434532       -11.8242
 215   2.0000      -0.432611       -11.7720
 216   2.0000      -0.432280       -11.7629
 217   2.0000      -0.426671       -11.6103
 218   2.0000      -0.425307       -11.5732
 219   2.0000      -0.422788       -11.5046
 220   2.0000      -0.421427       -11.4676
 221   2.0000      -0.417872       -11.3709
 222   2.0000      -0.414669       -11.2837
 223   2.0000      -0.410121       -11.1600
 224   2.0000      -0.398842       -10.8530
 225   2.0000      -0.391707       -10.6589
 226   2.0000      -0.386298       -10.5117
 227   2.0000      -0.386135       -10.5073
 228   2.0000      -0.379724       -10.3328
 229   2.0000      -0.377477       -10.2717
 230   2.0000      -0.375644       -10.2218
 231   2.0000      -0.371218       -10.1014
 232   2.0000      -0.367900       -10.0111
 233   2.0000      -0.362017        -9.8510
 234   2.0000      -0.357833        -9.7371
 235   2.0000      -0.352455        -9.5908
 236   2.0000      -0.343360        -9.3433
 237   2.0000      -0.336329        -9.1520
 238   2.0000      -0.330806        -9.0017
 239   2.0000      -0.321361        -8.7447
 240   2.0000      -0.316981        -8.6255
 241   2.0000      -0.311072        -8.4647
 242   2.0000      -0.309097        -8.4110
 243   2.0000      -0.297891        -8.1060
 244   2.0000      -0.294537        -8.0148
 245   2.0000      -0.275294        -7.4911
 246   2.0000      -0.254360        -6.9215
 247   0.0000      -0.091741        -2.4964
 248   0.0000      -0.088792        -2.4162
 249   0.0000      -0.063627        -1.7314
 250   0.0000      -0.054772        -1.4904
 251   0.0000      -0.046300        -1.2599

MULLIKEN ATOMIC CHARGES
-----------------------
   0 C :    0.311924
   1 C :   -0.345936
   2 C :   -0.185052
   3 N :    0.151933
   4 C :   -0.203152
   5 N :    0.143748
   6 C :    0.011895
   7 C :   -0.002426
   8 C :   -0.073428
   9 C :    0.118850
  10 C :   -0.088259
  11 C :   -0.024779
  12 S :    0.188595
  13 C :   -0.122269
  14 C :    0.037618
  15 Br:    0.027511
  16 C :    0.133569
  17 O :   -0.160739
  18 C :   -0.131465
  19 C :    0.008848
  20 N :    0.007958
  21 C :   -0.073388
  22 S :    0.219690
  23 C :   -0.012002
  24 N :    0.275106
  25 O :   -0.246555
  26 O :   -0.262282
  27 C :    0.010225
  28 C :    0.115796
  29 C :   -0.042114
  30 C :   -0.018756
  31 C :   -0.005887
  32 C :   -0.178258
  33 C :    0.101545
  34 C :    0.204712
  35 N :   -0.136106
  36 C :    0.096497
  37 C :    0.001418
  38 C :   -0.071300
  39 S :    0.116721
  40 C :   -0.078695
  41 C :    0.068490
  42 N :   -0.131951
  43 C :    0.046942
  44 C :   -0.112372
  45 C :    0.140867
  46 O :   -0.140703
  47 C :   -0.001295
  48 C :   -0.081250
  49 C :    0.112027
  50 C :    0.117585
  51 C :   -0.109782
  52 C :    0.241307
  53 C :    0.238110
  54 C :   -0.103558
  55 F :   -0.173282
  56 F :   -0.172984
  57 C :   -0.096825
  58 C :    0.061861
  59 C :    0.270446
  60 C :   -0.266506
  61 C :   -0.209131
  62 N :    0.153185
  63 C :   -0.146897
  64 N :    0.094493
  65 H :   -0.006691
  66 H :   -0.004784
  67 H :   -0.000866
  68 H :    0.039966
  69 H :    0.155660
  70 H :    0.008847
  71 H :   -0.000206
  72 H :   -0.002062
  73 H :   -0.025970
  74 H :    0.002082
  75 H :    0.029354
  76 H :    0.037674
  77 H :    0.013809
  78 H :    0.032486
  79 H :    0.116767
  80 H :    0.004822
  81 H :   -0.036161
  82 H :    0.028512
  83 H :    0.008762
  84 H :   -0.009863
  85 H :    0.000941
  86 H :   -0.000525
  87 H :   -0.012641
Sum of atomic charges:   -0.0000000

LOEWDIN ATOMIC CHARGES
----------------------
   0 C :    0.083479
   1 C :   -0.149432
   2 C :   -0.019490
   3 N :   -0.052406
   4 C :   -0.022540
   5 N :   -0.058489
   6 C :   -0.024195
   7 C :   -0.049202
   8 C :    0.022933
   9 C :   -0.030822
  10 C :   -0.145078
  11 C :   -0.007084
  12 S :    0.434961
  13 C :   -0.270486
  14 C :   -0.069587
  15 Br:    0.140051
  16 C :    0.063154
  17 O :   -0.165073
  18 C :   -0.147825
  19 C :    0.094370
  20 N :    0.079767
  21 C :   -0.109031
  22 S :    0.527583
  23 C :   -0.206608
  24 N :    0.273828
  25 O :   -0.212285
  26 O :   -0.228735
  27 C :   -0.008296
  28 C :   -0.089069
  29 C :   -0.023151
  30 C :   -0.035949
  31 C :   -0.056726
  32 C :   -0.025946
  33 C :   -0.049370
  34 C :    0.049897
  35 N :    0.021220
  36 C :    0.085062
  37 C :   -0.175844
  38 C :   -0.082010
  39 S :    0.417338
  40 C :   -0.167641
  41 C :   -0.052654
  42 N :   -0.122363
  43 C :    0.072840
  44 C :   -0.089850
  45 C :    0.082768
  46 O :   -0.143371
  47 C :   -0.053347
  48 C :    0.029862
  49 C :   -0.010584
  50 C :   -0.005831
  51 C :   -0.033218
  52 C :    0.066394
  53 C :    0.065312
  54 C :   -0.032228
  55 F :   -0.050639
  56 F :   -0.050585
  57 C :    0.006395
  58 C :   -0.016353
  59 C :    0.073890
  60 C :   -0.128275
  61 C :   -0.025302
  62 N :   -0.062713
  63 C :   -0.003773
  64 N :   -0.079790
  65 H :    0.042323
  66 H :    0.041463
  67 H :    0.039840
  68 H :    0.045009
  69 H :    0.104392
  70 H :    0.045526
  71 H :    0.034534
  72 H :    0.022298
  73 H :    0.025620
  74 H :    0.024338
  75 H :    0.037475
  76 H :    0.044934
  77 H :    0.025819
  78 H :    0.036378
  79 H :    0.080943
  80 H :    0.035324
  81 H :    0.020678
  82 H :    0.030550
  83 H :    0.047507
  84 H :    0.040410
  85 H :    0.045178
  86 H :    0.044854
  87 H :    0.036748

  Mayer bond orders larger than 0.100000
B(  0-C ,  1-C ) :   1.6230 B(  0-C ,  6-C ) :   1.0127 B(  0-C , 18-C ) :   1.1071
B(  1-C ,  2-C ) :   1.1443 B(  1-C ,  4-C ) :   1.1410 B(  2-C ,  3-N ) :   2.9697
B(  4-C ,  5-N ) :   2.9675 B(  6-C ,  7-C ) :   1.2732 B(  6-C , 11-C ) :   1.4075
B(  7-C ,  8-C ) :   1.4262 B(  7-C , 16-C ) :   0.9440 B(  8-C ,  9-C ) :   1.2404
B(  8-C , 65-H ) :   1.0191 B(  9-C , 10-C ) :   1.3052 B(  9-C , 14-C ) :   1.1646
B( 10-C , 11-C ) :   1.3297 B( 10-C , 12-S ) :   1.0866 B( 11-C , 66-H ) :   0.9809
B( 12-S , 13-C ) :   1.0883 B( 13-C , 14-C ) :   1.6151 B( 13-C , 15-Br) :   1.0217
B( 14-C , 67-H ) :   1.0012 B( 16-C , 17-O ) :   2.1941 B( 16-C , 18-C ) :   0.9541
B( 18-C , 19-C ) :   1.5200 B( 19-C , 20-N ) :   1.3132 B( 19-C , 68-H ) :   0.9254
B( 20-N , 21-C ) :   1.1349 B( 20-N , 69-H ) :   0.8898 B( 21-C , 22-S ) :   1.1591
B( 21-C , 28-C ) :   1.4070 B( 22-S , 23-C ) :   1.1321 B( 23-C , 24-N ) :   0.9631
B( 23-C , 27-C ) :   1.4656 B( 24-N , 25-O ) :   1.5398 B( 24-N , 26-O ) :   1.5165
B( 25-O , 26-O ) :   0.2608 B( 27-C , 28-C ) :   1.2444 B( 27-C , 70-H ) :   1.0064
B( 28-C , 29-C ) :   1.0408 B( 29-C , 30-C ) :   1.7173 B( 29-C , 71-H ) :   0.9747
B( 30-C , 31-C ) :   1.0972 B( 30-C , 72-H ) :   0.9690 B( 31-C , 32-C ) :   1.7702
B( 31-C , 73-H ) :   0.9760 B( 32-C , 33-C ) :   1.0794 B( 32-C , 34-C ) :   1.0371
B( 33-C , 74-H ) :   0.9525 B( 33-C , 75-H ) :   0.9450 B( 33-C , 76-H ) :   0.9421
B( 34-C , 35-N ) :   0.9837 B( 34-C , 77-H ) :   0.9369 B( 34-C , 78-H ) :   0.9150
B( 35-N , 36-C ) :   1.2859 B( 35-N , 79-H ) :   0.9373 B( 36-C , 37-C ) :   1.5865
B( 36-C , 80-H ) :   0.9587 B( 37-C , 38-C ) :   1.1536 B( 37-C , 81-H ) :   0.9468
B( 38-C , 39-S ) :   1.0634 B( 38-C , 42-N ) :   1.6724 B( 39-S , 40-C ) :   1.1825
B( 40-C , 41-C ) :   1.4659 B( 40-C , 82-H ) :   0.9666 B( 41-C , 42-N ) :   1.2842
B( 41-C , 43-C ) :   1.1182 B( 43-C , 44-C ) :   1.6230 B( 43-C , 83-H ) :   0.9525
B( 44-C , 45-C ) :   0.9412 B( 44-C , 59-C ) :   1.0404 B( 45-C , 46-O ) :   2.2763
B( 45-C , 47-C ) :   0.9137 B( 47-C , 48-C ) :   1.4796 B( 47-C , 58-C ) :   1.2184
B( 48-C , 49-C ) :   1.1927 B( 48-C , 84-H ) :   1.0152 B( 49-C , 50-C ) :   1.2595
B( 49-C , 54-C ) :   1.1936 B( 50-C , 51-C ) :   1.1875 B( 50-C , 57-C ) :   1.2164
B( 51-C , 52-C ) :   1.4434 B( 51-C , 54-C ) :   0.1091 B( 51-C , 85-H ) :   1.0059
B( 52-C , 53-C ) :   1.1926 B( 52-C , 56-F ) :   1.1328 B( 53-C , 54-C ) :   1.4428
B( 53-C , 55-F ) :   1.1313 B( 54-C , 86-H ) :   1.0066 B( 57-C , 58-C ) :   1.4529
B( 57-C , 87-H ) :   0.9935 B( 58-C , 59-C ) :   1.0133 B( 59-C , 60-C ) :   1.6661
B( 60-C , 61-C ) :   1.1232 B( 60-C , 63-C ) :   1.1510 B( 61-C , 62-N ) :   3.0035
B( 63-C , 64-N ) :   2.8671

-----------------------------------------------------------------------------
         ABSORPTION SPECTRUM VIA TRANSITION ELECTRIC DIPOLE MOMENTS
-----------------------------------------------------------------------------
State   Energy  Wavelength   fosc         T2         TX        TY        TZ
        (cm-1)    (nm)                  (au**2)     (au)      (au)      (au)
-----------------------------------------------------------------------------
   0   18143.7    551.2   0.146380631   2.65603   0.97467  -1.30577   0.03188
   1   22848.7    437.7   0.529184281   7.62468   1.71965   1.77696   1.22877
   2   25961.7    385.2   0.042354732   0.53709  -0.21614  -0.14629  -0.68482
   3   26520.6    377.1   0.036240394   0.44987   0.07270   0.42409   0.51452
   4   27300.3    366.3   0.050662961   0.61094   0.39653   0.47565   0.47693
   5   27486.9    363.8   0.064060720   0.76726  -0.53457   0.22991  -0.65470
   6   28581.4    349.9   0.355981232   4.10033  -1.92646  -0.12742   0.61061
   7   29351.2    340.7   0.004501867   0.05049   0.22352   0.01944   0.01252
   8   29505.5    338.9   0.040216804   0.44873   0.17564   0.53682  -0.36014
   9   29596.2    337.9   0.513135728   5.70785  -2.09150   1.15368  -0.04996
  10   30282.1    330.2   0.004800659   0.05219   0.14149  -0.08852   0.15600
  11   30468.7    328.2   0.017915837   0.19358  -0.40522   0.16449  -0.04820
  12   31078.4    321.8   0.023648974   0.25051  -0.20274   0.45748  -0.01105
  13   31549.5    317.0   0.121539865   1.26824   0.68442   0.44622  -0.77505
  14   31686.5    315.6   0.507075217   5.26834   0.55545   0.82513  -2.06857
  15   31974.9    312.7   0.069976203   0.72047  -0.49748  -0.42312  -0.54217
  16   32161.4    310.9   0.028476374   0.29149   0.53187  -0.06412   0.06703
  17   32583.4    306.9   0.041522840   0.41953   0.16924  -0.61764   0.09700
  18   33347.9    299.9   0.275978251   2.72447   1.17577  -0.62425   0.97588
  19   33950.4    294.5   0.266595637   2.58514  -0.86735   0.90058   1.01084
  20   34126.1    293.0   0.412849776   3.98273   0.88863   0.17025  -1.77879
  21   35012.6    285.6   0.943179898   8.86840   2.44081  -1.30394   1.10026
  22   35380.7    282.6   0.082311106   0.76589  -0.18296  -0.12492   0.84665
  23   35733.1    279.9   0.281546691   2.59391  -1.48823  -0.61196   0.06766
  24   35997.8    277.8   0.005257003   0.04808  -0.11686  -0.04870   0.17902
  25   36295.4    275.5   0.350300628   3.17735   0.37237   0.76614  -1.56580
  26   36876.0    271.2   0.040315580   0.35992  -0.19172  -0.52910   0.20790
  27   37488.4    266.7   0.092064296   0.80848   0.41651  -0.63681   0.47904
  28   38232.3    261.6   0.023852020   0.20539  -0.34497  -0.05704  -0.28831
  29   38257.0    261.4   0.000890109   0.00766   0.01884   0.05171  -0.06805
  30   38626.2    258.9   0.055193665   0.47042  -0.25086   0.12713   0.62556
  31   38927.0    256.9   0.128542407   1.08710  -0.63508   0.10389   0.82036
  32   39326.3    254.3   0.130663367   1.09382  -0.73618   0.23487   0.70477
  33   39459.5    253.4   0.104219054   0.86950   0.68915  -0.18169  -0.60130
  34   39527.4    253.0   0.025865771   0.21543   0.24883   0.36760   0.13558
  35   39695.6    251.9   0.014821132   0.12292  -0.24629   0.08747   0.23368
  36   39783.0    251.4   0.078302579   0.64797   0.36508  -0.51250  -0.50203
  37   40103.9    249.4   0.187188551   1.53663  -0.97849  -0.75266   0.11260

FINAL SINGLE POINT ENERGY     -6508.008052173805

DIPOLE MOMENT
-------------
                                X             Y             Z
Electronic contribution:   -136.77755     -65.45673      31.70813
Nuclear contribution   :    136.57869      65.86418     -32.25342
                        -----------------------------------------
Total Dipole Moment    :     -0.19886       0.40745      -0.54529
                        -----------------------------------------
Magnitude (a.u.)       :      0.70916
Magnitude (Debye)      :      1.80253

Rotational constants in cm-1:     0.001021     0.000317     0.000278
Rotational constants in MHz :    30.607949     9.514884     8.337937

                             ****ORCA TERMINATED NORMALLY****
TOTAL RUN TIME: 0 days 0 hours 7 minutes 10 seconds 18 msec
