                         Program Version 4.2.0 -  RELEASE  -
|  1> # ORCA input file
|  2> # SCF done       -179.843099670074          0.000595101562
|  3> ! CAM-B3LYP def2-SVP def2/J RIJCOSX Grid4 TightSCF
|  4> %maxcore 5000
|  5> %tddft
|  6>     Mode sTDDFT
|  7>     Ethresh 5.0
|  8>     maxcore 5000
|  9> end
| 10>
| 11> %pal
| 12>   nprocs 6
| 13>   end
| 14> * xyz 0 1
| 15>    C       -1.06847         0.92058         1.42975
| 16>    C       -0.54096         0.10298         0.46112
| 17>    C        0.48560        -0.83441         0.69167
| 18>    N        1.32312        -1.60924         0.82169
| 19>    C       -0.97942         0.06980        -0.87835
| 20>    N       -1.30457        -0.02266        -1.97623
| 21>    C       -0.71668         0.90811         2.84487
| 22>    C       -1.57203         1.80527         3.53043
| 23>    C       -1.48969         2.01726         4.88449
| 24>    C       -0.51750         1.30709         5.59780
| 25>    C        0.33407         0.41532         4.90392
| 26>    C        0.25124         0.20193         3.53295
| 27>    S        1.46791        -0.34976         5.97531
| 28>    C        0.78958         0.52409         7.32296
| 29>    C       -0.23249         1.34771         6.99006
| 30>   Br        1.49865         0.27087         9.04066
| 31>    C       -2.49746         2.43807         2.56829
| 32>    O       -3.31257         3.30462         2.81357
| 33>    C       -2.13540         1.87779         1.24787
| 34>    C       -2.56463         2.38286         0.04392
| 35>    C       -3.69769         3.18094        -0.17124
| 36>    S       -3.67623         4.33900        -1.46529
| 37>    C       -5.23036         4.98111        -1.06499
| 38>    C       -5.81523         4.23096        -0.02174
| 39>    C       -4.94653         3.21326         0.47864
| 40>    C       -5.40626         2.30051         1.44244
| 41>    C       -6.66803         2.44830         1.94491
| 42>    F       -7.12921         1.58751         2.86227
| 43>    C       -7.51858         3.47132         1.47781
| 44>    F       -8.76239         3.56574         1.97333
| 45>    C       -7.11847         4.33513         0.49691
| 46>    C       -5.65658         6.12393        -1.78493
| 47>    C       -6.66843         6.97655        -1.48462
| 48>    C       -6.95160         8.11805        -2.28998
| 49>    C       -7.91411         9.04011        -2.08479
| 50>    C       -8.93794         9.00578        -1.00058
| 51>    C       -8.06950        10.18124        -3.06054
| 52>    N       -9.15190         9.92536        -3.99037
| 53>    C      -10.44714        10.22456        -3.68349
| 54>    C      -11.51802         9.64268        -4.26229
| 55>    C      -12.88218         9.99543        -4.04225
| 56>    N      -13.32434        10.95968        -3.16936
| 57>    C      -14.68553        11.06119        -3.15529
| 58>    C      -15.17208        10.13451        -4.05229
| 59>    C      -14.03858         9.47902        -4.61246
| 60>    N      -14.47816         8.57977        -5.54579
| 61>    C      -15.82573         8.63892        -5.59926
| 62>    C      -16.33166         9.55923        -4.68422
| 63>    C      -17.70082         9.82238        -4.47176
| 64>    C      -18.27403        10.41307        -3.37854
| 65>    C      -17.74553        10.66274        -2.06511
| 66>    C      -16.75410         9.94287        -1.43620
| 67>    C      -16.22686        10.26800        -0.17455
| 68>    N      -15.71762        10.52752         0.82305
| 69>    C      -16.21343         8.74557        -1.94328
| 70>    N      -15.79520         7.72361        -2.26115
| 71>    C      -18.60409        11.65581        -1.42653
| 72>    C      -19.74553        11.85478        -2.24328
| 73>    C      -19.61456        11.03196        -3.46871
| 74>    O      -20.41536        10.92710        -4.37228
| 75>    C      -20.76606        12.70078        -1.88813
| 76>    C      -20.64985        13.39377        -0.67706
| 77>    C      -19.50317        13.19464         0.12510
| 78>    C      -18.47467        12.32822        -0.22733
| 79>    S      -19.56103        14.15532         1.57296
| 80>    C      -21.10727        14.79971         1.08760
| 81>    C      -21.55737        14.32264        -0.09618
| 82>   Br      -21.97802        16.04382         2.19048
| 83>    H       -2.15569         2.70673         5.37911
| 84>    H        0.92609        -0.48330         3.04771
| 85>    H       -0.76383         1.96022         7.69534
| 86>    H       -1.94008         2.21818        -0.82648
| 87>    H       -4.79451         1.47700         1.76855
| 88>    H       -7.82713         5.04926         0.11586
| 89>    H       -5.04959         6.35205        -2.65381
| 90>    H       -7.25151         6.83149        -0.59123
| 91>    H       -6.29535         8.25506        -3.14194
| 92>    H       -8.85566         8.12507        -0.37384
| 93>    H       -9.93842         9.02339        -1.43754
| 94>    H       -8.84134         9.88983        -0.36948
| 95>    H       -7.15229        10.32012        -3.63948
| 96>    H       -8.29260        11.11123        -2.53156
| 97>    H       -9.02446         9.09996        -4.56070
| 98>    H      -10.55725        11.03887        -2.98053
| 99>    H      -11.35758         8.83878        -4.96741
|100>    H      -12.71828        11.50862        -2.58419
|101>    H      -15.16977        11.80120        -2.55165
|102>    H      -13.90627         7.92977        -6.05915
|103>    H      -16.38433         7.99292        -6.24982
|104>    H      -18.37607         9.58856        -5.28755
|105>    H      -21.62968        12.82619        -2.52225
|106>    H      -17.61977        12.20538         0.41724
|107>    H      -22.49030        14.61228        -0.54432
|108> *
|109>
|110>                          ****END OF INPUT****

CARTESIAN COORDINATES (ANGSTROEM)
---------------------------------
  C     -1.068470    0.920580    1.429750
  C     -0.540960    0.102980    0.461120
  C      0.485600   -0.834410    0.691670
  N      1.323120   -1.609240    0.821690
  C     -0.979420    0.069800   -0.878350
  N     -1.304570   -0.022660   -1.976230
  C     -0.716680    0.908110    2.844870
  C     -1.572030    1.805270    3.530430
  C     -1.489690    2.017260    4.884490
  C     -0.517500    1.307090    5.597800
  C      0.334070    0.415320    4.903920
  C      0.251240    0.201930    3.532950
  S      1.467910   -0.349760    5.975310
  C      0.789580    0.524090    7.322960
  C     -0.232490    1.347710    6.990060
  Br     1.498650    0.270870    9.040660
  C     -2.497460    2.438070    2.568290
  O     -3.312570    3.304620    2.813570
  C     -2.135400    1.877790    1.247870
  C     -2.564630    2.382860    0.043920
  C     -3.697690    3.180940   -0.171240
  S     -3.676230    4.339000   -1.465290
  C     -5.230360    4.981110   -1.064990
  C     -5.815230    4.230960   -0.021740
  C     -4.946530    3.213260    0.478640
  C     -5.406260    2.300510    1.442440
  C     -6.668030    2.448300    1.944910
  F     -7.129210    1.587510    2.862270
  C     -7.518580    3.471320    1.477810
  F     -8.762390    3.565740    1.973330
  C     -7.118470    4.335130    0.496910
  C     -5.656580    6.123930   -1.784930
  C     -6.668430    6.976550   -1.484620
  C     -6.951600    8.118050   -2.289980
  C     -7.914110    9.040110   -2.084790
  C     -8.937940    9.005780   -1.000580
  C     -8.069500   10.181240   -3.060540
  N     -9.151900    9.925360   -3.990370
  C    -10.447140   10.224560   -3.683490
  C    -11.518020    9.642680   -4.262290
  C    -12.882180    9.995430   -4.042250
  N    -13.324340   10.959680   -3.169360
  C    -14.685530   11.061190   -3.155290
  C    -15.172080   10.134510   -4.052290
  C    -14.038580    9.479020   -4.612460
  N    -14.478160    8.579770   -5.545790
  C    -15.825730    8.638920   -5.599260
  C    -16.331660    9.559230   -4.684220
  C    -17.700820    9.822380   -4.471760
  C    -18.274030   10.413070   -3.378540
  C    -17.745530   10.662740   -2.065110
  C    -16.754100    9.942870   -1.436200
  C    -16.226860   10.268000   -0.174550
  N    -15.717620   10.527520    0.823050
  C    -16.213430    8.745570   -1.943280
  N    -15.795200    7.723610   -2.261150
  C    -18.604090   11.655810   -1.426530
  C    -19.745530   11.854780   -2.243280
  C    -19.614560   11.031960   -3.468710
  O    -20.415360   10.927100   -4.372280
  C    -20.766060   12.700780   -1.888130
  C    -20.649850   13.393770   -0.677060
  C    -19.503170   13.194640    0.125100
  C    -18.474670   12.328220   -0.227330
  S    -19.561030   14.155320    1.572960
  C    -21.107270   14.799710    1.087600
  C    -21.557370   14.322640   -0.096180
  Br   -21.978020   16.043820    2.190480
  H     -2.155690    2.706730    5.379110
  H      0.926090   -0.483300    3.047710
  H     -0.763830    1.960220    7.695340
  H     -1.940080    2.218180   -0.826480
  H     -4.794510    1.477000    1.768550
  H     -7.827130    5.049260    0.115860
  H     -5.049590    6.352050   -2.653810
  H     -7.251510    6.831490   -0.591230
  H     -6.295350    8.255060   -3.141940
  H     -8.855660    8.125070   -0.373840
  H     -9.938420    9.023390   -1.437540
  H     -8.841340    9.889830   -0.369480
  H     -7.152290   10.320120   -3.639480
  H     -8.292600   11.111230   -2.531560
  H     -9.024460    9.099960   -4.560700
  H    -10.557250   11.038870   -2.980530
  H    -11.357580    8.838780   -4.967410
  H    -12.718280   11.508620   -2.584190
  H    -15.169770   11.801200   -2.551650
  H    -13.906270    7.929770   -6.059150
  H    -16.384330    7.992920   -6.249820
  H    -18.376070    9.588560   -5.287550
  H    -21.629680   12.826190   -2.522250
  H    -17.619770   12.205380    0.417240
  H    -22.490300   14.612280   -0.544320

 Total Charge           Charge          ....    0
 Multiplicity           Mult            ....    1
 Number of Electrons    NEL             ....  538
 Basis Dimension        Dim             .... 1125

ORBITAL ENERGIES
----------------

  NO   OCC          E(Eh)            E(eV)
   0   2.0000    -482.883653    -13139.9322
   1   2.0000    -482.876809    -13139.7460
   2   2.0000     -88.986053     -2421.4336
   3   2.0000     -88.973158     -2421.0827
   4   2.0000     -88.964443     -2420.8456
   5   2.0000     -62.561381     -1702.3817
   6   2.0000     -62.554526     -1702.1952
   7   2.0000     -56.395328     -1534.5949
   8   2.0000     -56.392617     -1534.5211
   9   2.0000     -56.392584     -1534.5202
  10   2.0000     -56.388461     -1534.4080
  11   2.0000     -56.385778     -1534.3350
  12   2.0000     -56.385733     -1534.3338
  13   2.0000     -24.793638      -674.6692
  14   2.0000     -24.793338      -674.6610
  15   2.0000     -19.211356      -522.7676
  16   2.0000     -19.196143      -522.3536
  17   2.0000     -14.478940      -393.9920
  18   2.0000     -14.462813      -393.5531
  19   2.0000     -14.439898      -392.9296
  20   2.0000     -14.411268      -392.1505
  21   2.0000     -14.410951      -392.1419
  22   2.0000     -14.401150      -391.8752
  23   2.0000     -14.390231      -391.5781
  24   2.0000     -10.376872      -282.3691
  25   2.0000     -10.376068      -282.3472
  26   2.0000     -10.362584      -281.9802
  27   2.0000     -10.356550      -281.8161
  28   2.0000     -10.347323      -281.5650
  29   2.0000     -10.346996      -281.5561
  30   2.0000     -10.338889      -281.3355
  31   2.0000     -10.337146      -281.2880
  32   2.0000     -10.336579      -281.2726
  33   2.0000     -10.327697      -281.0309
  34   2.0000     -10.324834      -280.9530
  35   2.0000     -10.322499      -280.8895
  36   2.0000     -10.321683      -280.8673
  37   2.0000     -10.321067      -280.8505
  38   2.0000     -10.320423      -280.8330
  39   2.0000     -10.319718      -280.8138
  40   2.0000     -10.316890      -280.7369
  41   2.0000     -10.314644      -280.6757
  42   2.0000     -10.314206      -280.6638
  43   2.0000     -10.312902      -280.6283
  44   2.0000     -10.308819      -280.5172
  45   2.0000     -10.308533      -280.5095
  46   2.0000     -10.308042      -280.4961
  47   2.0000     -10.305450      -280.4255
  48   2.0000     -10.304774      -280.4072
  49   2.0000     -10.304721      -280.4057
  50   2.0000     -10.304475      -280.3990
  51   2.0000     -10.303766      -280.3797
  52   2.0000     -10.302768      -280.3526
  53   2.0000     -10.302661      -280.3497
  54   2.0000     -10.300037      -280.2782
  55   2.0000     -10.297820      -280.2179
  56   2.0000     -10.297106      -280.1985
  57   2.0000     -10.295839      -280.1640
  58   2.0000     -10.295323      -280.1500
  59   2.0000     -10.294471      -280.1268
  60   2.0000     -10.293847      -280.1098
  61   2.0000     -10.293451      -280.0990
  62   2.0000     -10.293258      -280.0938
  63   2.0000     -10.293030      -280.0876
  64   2.0000     -10.290752      -280.0256
  65   2.0000     -10.290583      -280.0210
  66   2.0000     -10.289441      -279.9899
  67   2.0000     -10.289259      -279.9850
  68   2.0000     -10.287547      -279.9384
  69   2.0000     -10.286195      -279.9016
  70   2.0000     -10.284081      -279.8441
  71   2.0000     -10.276506      -279.6379
  72   2.0000     -10.275964      -279.6232
  73   2.0000     -10.272621      -279.5322
  74   2.0000     -10.269941      -279.4593
  75   2.0000     -10.256141      -279.0838
  76   2.0000      -8.790812      -239.2102
  77   2.0000      -8.783947      -239.0233
  78   2.0000      -8.081499      -219.9088
  79   2.0000      -8.069148      -219.5727
  80   2.0000      -8.060441      -219.3358
  81   2.0000      -6.627106      -180.3327
  82   2.0000      -6.620172      -180.1440
  83   2.0000      -6.612543      -179.9365
  84   2.0000      -6.612363      -179.9316
  85   2.0000      -6.605692      -179.7500
  86   2.0000      -6.605560      -179.7464
  87   2.0000      -6.050368      -164.6389
  88   2.0000      -6.046378      -164.5303
  89   2.0000      -6.044342      -164.4749
  90   2.0000      -6.038832      -164.3250
  91   2.0000      -6.034562      -164.2088
  92   2.0000      -6.030376      -164.0949
  93   2.0000      -6.030138      -164.0884
  94   2.0000      -6.025887      -163.9727
  95   2.0000      -6.021661      -163.8577
  96   2.0000      -2.742981       -74.6403
  97   2.0000      -2.738893       -74.5291
  98   2.0000      -2.738742       -74.5249
  99   2.0000      -2.736066       -74.4521
 100   2.0000      -2.731979       -74.3409
 101   2.0000      -2.731874       -74.3381
 102   2.0000      -2.727184       -74.2104
 103   2.0000      -2.727169       -74.2100
 104   2.0000      -2.720366       -74.0249
 105   2.0000      -2.720350       -74.0245
 106   2.0000      -1.315994       -35.8100
 107   2.0000      -1.301044       -35.4032
 108   2.0000      -1.126481       -30.6531
 109   2.0000      -1.110283       -30.2123
 110   2.0000      -1.095842       -29.8194
 111   2.0000      -1.064884       -28.9770
 112   2.0000      -1.043344       -28.3908
 113   2.0000      -1.020743       -27.7758
 114   2.0000      -1.018753       -27.7217
 115   2.0000      -1.009612       -27.4729
 116   2.0000      -1.008339       -27.4383
 117   2.0000      -0.996870       -27.1262
 118   2.0000      -0.989966       -26.9384
 119   2.0000      -0.986166       -26.8350
 120   2.0000      -0.976240       -26.5648
 121   2.0000      -0.970679       -26.4135
 122   2.0000      -0.956575       -26.0297
 123   2.0000      -0.943682       -25.6789
 124   2.0000      -0.937335       -25.5062
 125   2.0000      -0.929612       -25.2960
 126   2.0000      -0.917429       -24.9645
 127   2.0000      -0.905518       -24.6404
 128   2.0000      -0.905273       -24.6337
 129   2.0000      -0.893045       -24.3010
 130   2.0000      -0.891789       -24.2668
 131   2.0000      -0.883018       -24.0281
 132   2.0000      -0.879753       -23.9393
 133   2.0000      -0.872175       -23.7331
 134   2.0000      -0.871378       -23.7114
 135   2.0000      -0.868072       -23.6215
 136   2.0000      -0.855739       -23.2858
 137   2.0000      -0.854878       -23.2624
 138   2.0000      -0.848642       -23.0927
 139   2.0000      -0.827071       -22.5057
 140   2.0000      -0.824696       -22.4411
 141   2.0000      -0.819975       -22.3127
 142   2.0000      -0.815102       -22.1800
 143   2.0000      -0.808166       -21.9913
 144   2.0000      -0.789998       -21.4969
 145   2.0000      -0.769905       -20.9502
 146   2.0000      -0.759927       -20.6787
 147   2.0000      -0.757497       -20.6125
 148   2.0000      -0.752720       -20.4825
 149   2.0000      -0.746270       -20.3070
 150   2.0000      -0.740669       -20.1546
 151   2.0000      -0.737184       -20.0598
 152   2.0000      -0.720144       -19.5961
 153   2.0000      -0.713356       -19.4114
 154   2.0000      -0.708738       -19.2858
 155   2.0000      -0.699713       -19.0401
 156   2.0000      -0.688990       -18.7484
 157   2.0000      -0.683872       -18.6091
 158   2.0000      -0.682506       -18.5719
 159   2.0000      -0.676078       -18.3970
 160   2.0000      -0.670093       -18.2342
 161   2.0000      -0.663372       -18.0513
 162   2.0000      -0.660404       -17.9705
 163   2.0000      -0.653840       -17.7919
 164   2.0000      -0.645900       -17.5758
 165   2.0000      -0.644386       -17.5346
 166   2.0000      -0.633980       -17.2515
 167   2.0000      -0.627227       -17.0677
 168   2.0000      -0.625779       -17.0283
 169   2.0000      -0.619624       -16.8608
 170   2.0000      -0.617540       -16.8041
 171   2.0000      -0.615818       -16.7573
 172   2.0000      -0.607950       -16.5432
 173   2.0000      -0.600318       -16.3355
 174   2.0000      -0.596189       -16.2231
 175   2.0000      -0.593307       -16.1447
 176   2.0000      -0.591849       -16.1050
 177   2.0000      -0.581995       -15.8369
 178   2.0000      -0.581761       -15.8305
 179   2.0000      -0.578027       -15.7289
 180   2.0000      -0.574960       -15.6455
 181   2.0000      -0.568949       -15.4819
 182   2.0000      -0.568696       -15.4750
 183   2.0000      -0.562645       -15.3103
 184   2.0000      -0.560219       -15.2443
 185   2.0000      -0.551496       -15.0070
 186   2.0000      -0.548927       -14.9371
 187   2.0000      -0.542653       -14.7663
 188   2.0000      -0.541352       -14.7309
 189   2.0000      -0.541047       -14.7226
 190   2.0000      -0.539693       -14.6858
 191   2.0000      -0.535885       -14.5822
 192   2.0000      -0.534109       -14.5338
 193   2.0000      -0.532442       -14.4885
 194   2.0000      -0.531164       -14.4537
 195   2.0000      -0.525345       -14.2954
 196   2.0000      -0.523261       -14.2387
 197   2.0000      -0.521145       -14.1811
 198   2.0000      -0.518087       -14.0979
 199   2.0000      -0.515290       -14.0218
 200   2.0000      -0.509379       -13.8609
 201   2.0000      -0.509002       -13.8506
 202   2.0000      -0.506644       -13.7865
 203   2.0000      -0.504623       -13.7315
 204   2.0000      -0.502897       -13.6845
 205   2.0000      -0.499629       -13.5956
 206   2.0000      -0.497900       -13.5485
 207   2.0000      -0.493184       -13.4202
 208   2.0000      -0.491431       -13.3725
 209   2.0000      -0.490583       -13.3494
 210   2.0000      -0.489481       -13.3195
 211   2.0000      -0.482601       -13.1322
 212   2.0000      -0.481962       -13.1148
 213   2.0000      -0.479848       -13.0573
 214   2.0000      -0.479062       -13.0359
 215   2.0000      -0.474713       -12.9176
 216   2.0000      -0.473925       -12.8961
 217   2.0000      -0.472802       -12.8656
 218   2.0000      -0.469788       -12.7836
 219   2.0000      -0.468132       -12.7385
 220   2.0000      -0.465274       -12.6607
 221   2.0000      -0.457913       -12.4605
 222   2.0000      -0.455978       -12.4078
 223   2.0000      -0.455179       -12.3861
 224   2.0000      -0.446826       -12.1587
 225   2.0000      -0.446302       -12.1445
 226   2.0000      -0.445246       -12.1158
 227   2.0000      -0.443950       -12.0805
 228   2.0000      -0.440950       -11.9989
 229   2.0000      -0.439767       -11.9667
 230   2.0000      -0.436961       -11.8903
 231   2.0000      -0.436459       -11.8766
 232   2.0000      -0.436143       -11.8680
 233   2.0000      -0.432974       -11.7818
 234   2.0000      -0.430153       -11.7051
 235   2.0000      -0.428036       -11.6474
 236   2.0000      -0.423818       -11.5327
 237   2.0000      -0.423465       -11.5231
 238   2.0000      -0.421353       -11.4656
 239   2.0000      -0.420555       -11.4439
 240   2.0000      -0.418609       -11.3909
 241   2.0000      -0.413322       -11.2471
 242   2.0000      -0.409797       -11.1511
 243   2.0000      -0.409449       -11.1417
 244   2.0000      -0.404946       -11.0191
 245   2.0000      -0.403842       -10.9891
 246   2.0000      -0.392565       -10.6822
 247   2.0000      -0.388996       -10.5851
 248   2.0000      -0.384729       -10.4690
 249   2.0000      -0.377568       -10.2741
 250   2.0000      -0.373079       -10.1520
 251   2.0000      -0.369729       -10.0608
 252   2.0000      -0.366488        -9.9726
 253   2.0000      -0.364004        -9.9051
 254   2.0000      -0.347443        -9.4544
 255   2.0000      -0.342304        -9.3146
 256   2.0000      -0.330355        -8.9894
 257   2.0000      -0.327094        -8.9007
 258   2.0000      -0.321826        -8.7573
 259   2.0000      -0.318379        -8.6635
 260   2.0000      -0.315171        -8.5762
 261   2.0000      -0.312056        -8.4915
 262   2.0000      -0.303345        -8.2544
 263   2.0000      -0.302054        -8.2193
 264   2.0000      -0.291175        -7.9233
 265   2.0000      -0.282592        -7.6897
 266   2.0000      -0.272165        -7.4060
 267   2.0000      -0.255153        -6.9431
 268   2.0000      -0.224096        -6.0980
 269   0.0000      -0.103097        -2.8054
 270   0.0000      -0.067726        -1.8429
 271   0.0000      -0.066314        -1.8045
 272   0.0000      -0.037990        -1.0338
 273   0.0000      -0.035663        -0.9704

MULLIKEN ATOMIC CHARGES
-----------------------
   0 C :    0.295024
   1 C :   -0.340253
   2 C :   -0.186278
   3 N :    0.145290
   4 C :   -0.208820
   5 N :    0.156006
   6 C :    0.020199
   7 C :   -0.015789
   8 C :   -0.073052
   9 C :    0.116584
  10 C :   -0.091152
  11 C :   -0.025013
  12 S :    0.184811
  13 C :   -0.124347
  14 C :    0.039756
  15 Br:    0.021668
  16 C :    0.124408
  17 O :   -0.151144
  18 C :   -0.125197
  19 C :    0.023012
  20 C :   -0.147221
  21 S :    0.191679
  22 C :   -0.103479
  23 C :    0.118501
  24 C :    0.154419
  25 C :   -0.066393
  26 C :    0.220451
  27 F :   -0.171312
  28 C :    0.233547
  29 F :   -0.174889
  30 C :   -0.124691
  31 C :    0.034195
  32 C :    0.013651
  33 C :    0.000196
  34 C :   -0.173860
  35 C :    0.086484
  36 C :    0.193823
  37 N :   -0.156125
  38 C :    0.011199
  39 C :    0.001072
  40 C :   -0.032093
  41 N :   -0.048523
  42 C :   -0.035539
  43 C :    0.057717
  44 C :    0.040139
  45 N :   -0.008949
  46 C :    0.071019
  47 C :    0.013589
  48 C :    0.027837
  49 C :   -0.141835
  50 C :    0.272517
  51 C :   -0.387087
  52 C :   -0.186974
  53 N :    0.133127
  54 C :   -0.185726
  55 N :    0.151480
  56 C :    0.014164
  57 C :   -0.002559
  58 C :    0.135835
  59 O :   -0.153455
  60 C :   -0.080245
  61 C :    0.112309
  62 C :   -0.085801
  63 C :   -0.041377
  64 S :    0.172584
  65 C :   -0.126860
  66 C :    0.041143
  67 Br:    0.011888
  68 H :   -0.011845
  69 H :   -0.006114
  70 H :   -0.003883
  71 H :    0.028609
  72 H :   -0.003553
  73 H :   -0.014672
  74 H :   -0.011873
  75 H :   -0.002912
  76 H :   -0.025111
  77 H :    0.014619
  78 H :    0.046873
  79 H :    0.028919
  80 H :    0.012642
  81 H :    0.011702
  82 H :    0.111660
  83 H :   -0.018517
  84 H :   -0.047345
  85 H :    0.121596
  86 H :   -0.003176
  87 H :    0.130319
  88 H :    0.007884
  89 H :    0.002953
  90 H :   -0.014266
  91 H :   -0.012613
  92 H :   -0.007182
Sum of atomic charges:   -0.0000000

LOEWDIN ATOMIC CHARGES
----------------------
   0 C :    0.074293
   1 C :   -0.147113
   2 C :   -0.019231
   3 N :   -0.057667
   4 C :   -0.025218
   5 N :   -0.057422
   6 C :   -0.021659
   7 C :   -0.049037
   8 C :    0.019368
   9 C :   -0.033436
  10 C :   -0.145549
  11 C :   -0.010489
  12 S :    0.431636
  13 C :   -0.272636
  14 C :   -0.070393
  15 Br:    0.135261
  16 C :    0.072580
  17 O :   -0.145703
  18 C :   -0.114223
  19 C :    0.040457
  20 C :   -0.191410
  21 S :    0.505456
  22 C :   -0.137137
  23 C :   -0.048324
  24 C :   -0.010661
  25 C :   -0.018966
  26 C :    0.072780
  27 F :   -0.048668
  28 C :    0.065417
  29 F :   -0.053546
  30 C :   -0.041109
  31 C :   -0.054905
  32 C :    0.000542
  33 C :   -0.056809
  34 C :   -0.021012
  35 C :   -0.049163
  36 C :    0.045032
  37 N :   -0.018769
  38 C :    0.013280
  39 C :   -0.121024
  40 C :   -0.026983
  41 N :    0.096640
  42 C :   -0.022269
  43 C :   -0.072764
  44 C :   -0.034665
  45 N :    0.098929
  46 C :    0.074392
  47 C :   -0.089858
  48 C :    0.069074
  49 C :   -0.116558
  50 C :    0.053516
  51 C :   -0.150099
  52 C :   -0.019747
  53 N :   -0.078063
  54 C :   -0.012667
  55 N :   -0.074731
  56 C :   -0.014454
  57 C :   -0.053246
  58 C :    0.081895
  59 O :   -0.155952
  60 C :    0.019091
  61 C :   -0.039906
  62 C :   -0.144784
  63 C :   -0.023662
  64 S :    0.422014
  65 C :   -0.277264
  66 C :   -0.069787
  67 Br:    0.127220
  68 H :    0.040296
  69 H :    0.040906
  70 H :    0.038562
  71 H :    0.044636
  72 H :    0.043225
  73 H :    0.038377
  74 H :    0.029897
  75 H :    0.027101
  76 H :    0.025397
  77 H :    0.030083
  78 H :    0.043189
  79 H :    0.039759
  80 H :    0.027266
  81 H :    0.028947
  82 H :    0.074574
  83 H :    0.016401
  84 H :    0.023289
  85 H :    0.086770
  86 H :    0.019812
  87 H :    0.095412
  88 H :    0.030217
  89 H :    0.041631
  90 H :    0.039104
  91 H :    0.037688
  92 H :    0.037326

  Mayer bond orders larger than 0.100000
B(  0-C ,  1-C ) :   1.6268 B(  0-C ,  6-C ) :   1.0042 B(  0-C , 18-C ) :   1.0881
B(  1-C ,  2-C ) :   1.1398 B(  1-C ,  4-C ) :   1.1434 B(  2-C ,  3-N ) :   2.9714
B(  4-C ,  5-N ) :   2.9965 B(  6-C ,  7-C ) :   1.2740 B(  6-C , 11-C ) :   1.4127
B(  7-C ,  8-C ) :   1.4302 B(  7-C , 16-C ) :   0.9348 B(  8-C ,  9-C ) :   1.2399
B(  8-C , 68-H ) :   1.0175 B(  9-C , 10-C ) :   1.3119 B(  9-C , 14-C ) :   1.1636
B( 10-C , 11-C ) :   1.3237 B( 10-C , 12-S ) :   1.0841 B( 11-C , 69-H ) :   0.9814
B( 12-S , 13-C ) :   1.0877 B( 13-C , 14-C ) :   1.6167 B( 13-C , 15-Br) :   1.0176
B( 14-C , 70-H ) :   1.0004 B( 16-C , 17-O ) :   2.2070 B( 16-C , 18-C ) :   0.9641
B( 18-C , 19-C ) :   1.5273 B( 19-C , 20-C ) :   1.2513 B( 19-C , 71-H ) :   0.9324
B( 20-C , 21-S ) :   1.1092 B( 20-C , 24-C ) :   1.2983 B( 21-S , 22-C ) :   1.2100
B( 22-C , 23-C ) :   1.2987 B( 22-C , 31-C ) :   1.1310 B( 23-C , 24-C ) :   1.2452
B( 23-C , 30-C ) :   1.1632 B( 24-C , 25-C ) :   1.1946 B( 25-C , 26-C ) :   1.4910
B( 25-C , 30-C ) :   0.1081 B( 25-C , 72-H ) :   0.9880 B( 26-C , 27-F ) :   1.1350
B( 26-C , 28-C ) :   1.1673 B( 28-C , 29-F ) :   1.1334 B( 28-C , 30-C ) :   1.4918
B( 30-C , 73-H ) :   0.9949 B( 31-C , 32-C ) :   1.6726 B( 31-C , 74-H ) :   0.9557
B( 32-C , 33-C ) :   1.1249 B( 32-C , 75-H ) :   0.9683 B( 33-C , 34-C ) :   1.7350
B( 33-C , 76-H ) :   0.9759 B( 34-C , 35-C ) :   1.0771 B( 34-C , 36-C ) :   1.0325
B( 35-C , 77-H ) :   0.9525 B( 35-C , 78-H ) :   0.9387 B( 35-C , 79-H ) :   0.9439
B( 36-C , 37-N ) :   1.0295 B( 36-C , 80-H ) :   0.9442 B( 36-C , 81-H ) :   0.9311
B( 37-N , 38-C ) :   1.1837 B( 37-N , 82-H ) :   0.9394 B( 38-C , 39-C ) :   1.6161
B( 38-C , 83-H ) :   0.9734 B( 39-C , 40-C ) :   1.1548 B( 39-C , 84-H ) :   0.9505
B( 40-C , 41-N ) :   1.2406 B( 40-C , 42-C ) :   0.1031 B( 40-C , 44-C ) :   1.2985
B( 41-N , 42-C ) :   1.2096 B( 41-N , 85-H ) :   0.9329 B( 42-C , 43-C ) :   1.4055
B( 42-C , 86-H ) :   0.9786 B( 43-C , 44-C ) :   1.3105 B( 43-C , 47-C ) :   1.0855
B( 44-C , 45-N ) :   1.1333 B( 45-N , 46-C ) :   1.2853 B( 45-N , 87-H ) :   0.9361
B( 46-C , 47-C ) :   1.3811 B( 46-C , 88-H ) :   0.9866 B( 47-C , 48-C ) :   1.1768
B( 48-C , 49-C ) :   1.5551 B( 48-C , 89-H ) :   0.9539 B( 49-C , 50-C ) :   1.0951
B( 49-C , 58-C ) :   0.9581 B( 50-C , 51-C ) :   1.5828 B( 50-C , 56-C ) :   1.0138
B( 51-C , 52-C ) :   1.1449 B( 51-C , 54-C ) :   1.1650 B( 52-C , 53-N ) :   2.9750
B( 54-C , 55-N ) :   3.0085 B( 56-C , 57-C ) :   1.2776 B( 56-C , 63-C ) :   1.4215
B( 57-C , 58-C ) :   0.9127 B( 57-C , 60-C ) :   1.4344 B( 58-C , 59-O ) :   2.2688
B( 60-C , 61-C ) :   1.2425 B( 60-C , 90-H ) :   1.0159 B( 61-C , 62-C ) :   1.3201
B( 61-C , 66-C ) :   1.1600 B( 62-C , 63-C ) :   1.3154 B( 62-C , 64-S ) :   1.0808
B( 63-C , 91-H ) :   0.9841 B( 64-S , 65-C ) :   1.0834 B( 65-C , 66-C ) :   1.6236
B( 65-C , 67-Br) :   1.0119 B( 66-C , 92-H ) :   1.0001

-----------------------------------------------------------------------------
         ABSORPTION SPECTRUM VIA TRANSITION ELECTRIC DIPOLE MOMENTS
-----------------------------------------------------------------------------
State   Energy  Wavelength   fosc         T2         TX        TY        TZ
        (cm-1)    (nm)                  (au**2)     (au)      (au)      (au)
-----------------------------------------------------------------------------
   0   15138.9    660.6   0.847485447  18.42952   3.44976  -2.38594   0.91430
   1   17773.4    562.6   0.327811533   6.07198  -1.81791  -0.01550   1.66342
   2   18052.5    553.9   0.672494953  12.26386   2.38326  -2.28663   1.16415
   3   23791.0    420.3   0.020585496   0.28486  -0.30894   0.22280  -0.37387
   4   23908.0    418.3   0.053221082   0.73285  -0.82098   0.11830   0.21177
   5   25720.6    388.8   0.108590277   1.38990   0.29968  -0.30773   1.09791
   6   26504.2    377.3   0.139304698   1.73032   0.42091  -0.02594   1.24599
   7   27042.2    369.8   0.002620799   0.03191  -0.10283   0.04257   0.13971
   8   27209.7    367.5   0.223469428   2.70378   0.35555   0.11635   1.60119
   9   28354.3    352.7   0.019259059   0.22361   0.16084   0.35368   0.26954
  10   29040.9    344.3   0.026863891   0.30453   0.12620  -0.48162   0.23801
  11   29534.1    338.6   0.021029033   0.23441   0.44506   0.08348  -0.17136
  12   29920.6    334.2   0.103195422   1.13545   0.53744  -0.83624  -0.38381
  13   30371.3    329.3   0.152084528   1.64853  -0.16474  -1.25068   0.23916
  14   30640.5    326.4   0.032272681   0.34675   0.47198  -0.18841  -0.29747
  15   31148.2    321.0   0.234330153   2.47669   1.13818  -0.86082  -0.66349
  16   31469.6    317.8   0.055054946   0.57595   0.00903  -0.38927  -0.65141
  17   31801.4    314.5   0.112789888   1.16761  -0.80852   0.08242   0.71212
  18   32002.1    312.5   0.030478034   0.31353  -0.30239  -0.31736  -0.34839
  19   32320.4    309.4   0.463774878   4.72396   0.24114   0.32164   2.13597
  20   32503.0    307.7   0.025332035   0.25658   0.42930   0.16757   0.21024
  21   32720.6    305.6   0.061511022   0.61888   0.67276   0.01353   0.40754
  22   33019.9    302.8   0.051029273   0.50877  -0.46276   0.53158   0.10973
  23   33298.0    300.3   0.033204980   0.32829   0.45856  -0.34050   0.04550
  24   33932.5    294.7   0.180724417   1.75338  -0.63131  -0.13098  -1.15658
  25   34072.2    293.5   0.446134869   4.31063  -1.25113   1.29298   1.03610
  26   34580.8    289.2   0.437802981   4.16792  -1.56025   1.29888  -0.21551
  27   34786.5    287.5   0.085185391   0.80618  -0.80976   0.38514  -0.04618
  28   35164.3    284.4   0.148419150   1.38951   1.00534  -0.43664  -0.43376
  29   36085.6    277.1   0.097963419   0.89373   0.21437  -0.79352   0.46701
  30   36629.6    273.0   0.237023147   2.13027  -0.64464   1.27131  -0.31382
  31   37111.1    269.5   0.031600815   0.28033  -0.34513   0.12982   0.37995
  32   37263.6    268.4   0.053838988   0.47565  -0.49428   0.12790   0.46366
  33   37852.0    264.2   0.005544462   0.04822   0.06206  -0.11233  -0.17819
  34   38403.6    260.4   0.007607609   0.06522  -0.12823   0.19587  -0.10201
  35   38956.3    256.7   0.047075916   0.39783   0.24856  -0.37274  -0.44398
  36   39046.0    256.1   0.047704252   0.40221  -0.03641  -0.27900  -0.56837
  37   39402.2    253.8   0.024148501   0.20176   0.29350  -0.11925   0.31844
  38   39514.5    253.1   0.177542841   1.47918  -1.17648   0.24903   0.18183
  39   39959.7    250.3   0.140765368   1.15971  -0.34872   0.29708   0.97460
  40   40049.4    249.7   0.152402806   1.25277  -1.11216  -0.10994  -0.06159
  41   40270.9    248.3   0.142266292   1.16302  -0.90456   0.57905  -0.09738
  42   40285.1    248.2   0.032192972   0.26308  -0.00261   0.44803  -0.24969

FINAL SINGLE POINT ENERGY     -9068.570508451265

DIPOLE MOMENT
-------------
                                X             Y             Z
Electronic contribution:     -0.18138      -8.26474     143.05862
Nuclear contribution   :      1.20584      11.30724    -144.23601
                        -----------------------------------------
Total Dipole Moment    :      1.02446       3.04250      -1.17739
                        -----------------------------------------
Magnitude (a.u.)       :      3.41944
Magnitude (Debye)      :      8.69152

Rotational constants in cm-1:     0.001356     0.000156     0.000145
Rotational constants in MHz :    40.651148     4.675297     4.335658

                             ****ORCA TERMINATED NORMALLY****
TOTAL RUN TIME: 0 days 0 hours 8 minutes 38 seconds 990 msec
