                         Program Version 4.2.0 -  RELEASE  -
|  1> # ORCA input file
|  2> # SCF done       -167.632450988422          0.000598057143
|  3> ! CAM-B3LYP def2-SVP def2/J RIJCOSX Grid4 TightSCF
|  4> %maxcore 5000
|  5> %tddft
|  6>     Mode sTDDFT
|  7>     Ethresh 5.0
|  8>     maxcore 5000
|  9> end
| 10>
| 11> %pal
| 12>   nprocs 6
| 13>   end
| 14> * xyz 0 1
| 15>    C       -3.07062        -1.00841         1.78952
| 16>    C       -1.93284        -0.68962         2.48324
| 17>    C       -1.07963        -1.63943         3.08247
| 18>    N       -0.34211        -2.36699         3.57683
| 19>    C       -1.47287         0.62459         2.70851
| 20>    N       -1.04652         1.66673         2.93414
| 21>    C       -3.61980        -2.34590         1.61291
| 22>    C       -4.87123        -2.24173         0.95741
| 23>    C       -5.64152        -3.33758         0.65372
| 24>    C       -5.15467        -4.59773         1.01602
| 25>    C       -3.90252        -4.69226         1.66928
| 26>    C       -3.12308        -3.58371         1.97567
| 27>    S       -3.48836        -6.34235         2.02065
| 28>    C       -4.98169        -6.87580         1.29604
| 29>    C       -5.75313        -5.87166         0.81578
| 30>   Br       -5.38055        -8.70687         1.23866
| 31>    C       -5.16588        -0.82552         0.67888
| 32>    O       -6.12511        -0.38928         0.07469
| 33>    C       -3.99563        -0.06977         1.18796
| 34>    C       -3.77194         1.25676         0.95816
| 35>    C       -4.73554         2.19869         0.52822
| 36>    S       -4.21651         3.45479        -0.55930
| 37>    C       -5.79529         4.11424        -0.70575
| 38>    C       -6.70822         3.40663         0.08080
| 39>    C       -6.09760         2.33820         0.81178
| 40>    C       -6.89294         1.62727         1.75203
| 41>    C       -6.33904         0.71008         2.66971
| 42>    N       -5.92881        -0.01958         3.45463
| 43>    C       -8.24668         1.88046         1.82274
| 44>    C       -8.85334         2.83709         0.99437
| 45>    C       -8.10377         3.60636         0.14989
| 46>    C       -6.02599         5.22834        -1.59665
| 47>    C       -6.66930         6.36402        -1.30833
| 48>    C       -7.22154         6.72270         0.03424
| 49>    C       -6.84893         7.42239        -2.37558
| 50>    N       -8.23299         7.80093        -2.52441
| 51>    C       -9.16356         6.98608        -3.05483
| 52>    C      -10.50073         7.23587        -3.00418
| 53>    C      -11.47443         6.43413        -3.61933
| 54>    C      -12.81721         6.71448        -3.59041
| 55>    C      -13.86767         6.01939        -4.23333
| 56>    C      -15.09626         6.58811        -4.07421
| 57>    C      -15.08365         7.75928        -3.28440
| 58>    S      -13.46932         8.11010        -2.73458
| 59>    C      -16.13474         8.60600        -2.97684
| 60>    C      -17.46208         8.59514        -3.44472
| 61>    C      -18.19208         9.67249        -3.03304
| 62>    C      -17.47954        10.59525        -2.23143
| 63>    S      -15.86456        10.00677        -1.96164
| 64>    C      -18.02098        11.74466        -1.67279
| 65>    C      -17.43133        12.71899        -0.87965
| 66>    C      -16.10857        13.04441        -0.60952
| 67>    C      -15.82300        13.75196         0.66716
| 68>    O      -16.63336        14.20980         1.44401
| 69>    C      -14.35421        13.73322         0.78998
| 70>    C      -13.41666        14.10591         1.69311
| 71>    S      -11.82939        13.73600         1.11600
| 72>    C      -12.44447        13.08224        -0.36508
| 73>    C      -13.79915        13.14573        -0.39300
| 74>    C      -14.88265        12.81528        -1.30511
| 75>    C      -14.69387        12.50165        -2.63873
| 76>    C      -15.72261        12.49473        -3.59361
| 77>    N      -16.54284        12.50232        -4.39858
| 78>    C      -13.41301        12.24004        -3.15106
| 79>    N      -12.37474        11.98179        -3.57195
| 80>    H       -6.59166        -3.22620         0.15524
| 81>    H       -2.17441        -3.70678         2.47095
| 82>    H       -6.70445        -6.02151         0.33876
| 83>    H       -2.75908         1.63325         1.03770
| 84>    H       -8.84786         1.32813         2.52968
| 85>    H       -9.92222         2.97414         1.05029
| 86>    H       -8.56052         4.35836        -0.47331
| 87>    H       -5.56318         5.12731        -2.57172
| 88>    H       -6.91519         6.00933         0.79289
| 89>    H       -8.31067         6.76042         0.01517
| 90>    H       -6.86419         7.71197         0.31970
| 91>    H       -6.47643         7.05086        -3.33476
| 92>    H       -6.27941         8.31713        -2.10975
| 93>    H       -8.56646         8.59344        -1.99637
| 94>    H       -8.78024         6.11138        -3.56330
| 95>    H      -10.84660         8.11968        -2.48392
| 96>    H      -11.15420         5.55649        -4.16540
| 97>    H      -13.68069         5.12906        -4.80801
| 98>    H      -16.00460         6.20448        -4.50250
| 99>    H      -17.83545         7.81915        -4.08841
|100>    H      -19.21619         9.85120        -3.30786
|101>    H      -19.09052        11.84128        -1.81701
|102>    H      -18.12787        13.30936        -0.28954
|103>    H      -13.54075        14.57098         2.65027
|104>    H      -11.76077        12.69875        -1.09511
|105> *
|106>
|107>                          ****END OF INPUT****

CARTESIAN COORDINATES (ANGSTROEM)
---------------------------------
  C     -3.070620   -1.008410    1.789520
  C     -1.932840   -0.689620    2.483240
  C     -1.079630   -1.639430    3.082470
  N     -0.342110   -2.366990    3.576830
  C     -1.472870    0.624590    2.708510
  N     -1.046520    1.666730    2.934140
  C     -3.619800   -2.345900    1.612910
  C     -4.871230   -2.241730    0.957410
  C     -5.641520   -3.337580    0.653720
  C     -5.154670   -4.597730    1.016020
  C     -3.902520   -4.692260    1.669280
  C     -3.123080   -3.583710    1.975670
  S     -3.488360   -6.342350    2.020650
  C     -4.981690   -6.875800    1.296040
  C     -5.753130   -5.871660    0.815780
  Br    -5.380550   -8.706870    1.238660
  C     -5.165880   -0.825520    0.678880
  O     -6.125110   -0.389280    0.074690
  C     -3.995630   -0.069770    1.187960
  C     -3.771940    1.256760    0.958160
  C     -4.735540    2.198690    0.528220
  S     -4.216510    3.454790   -0.559300
  C     -5.795290    4.114240   -0.705750
  C     -6.708220    3.406630    0.080800
  C     -6.097600    2.338200    0.811780
  C     -6.892940    1.627270    1.752030
  C     -6.339040    0.710080    2.669710
  N     -5.928810   -0.019580    3.454630
  C     -8.246680    1.880460    1.822740
  C     -8.853340    2.837090    0.994370
  C     -8.103770    3.606360    0.149890
  C     -6.025990    5.228340   -1.596650
  C     -6.669300    6.364020   -1.308330
  C     -7.221540    6.722700    0.034240
  C     -6.848930    7.422390   -2.375580
  N     -8.232990    7.800930   -2.524410
  C     -9.163560    6.986080   -3.054830
  C    -10.500730    7.235870   -3.004180
  C    -11.474430    6.434130   -3.619330
  C    -12.817210    6.714480   -3.590410
  C    -13.867670    6.019390   -4.233330
  C    -15.096260    6.588110   -4.074210
  C    -15.083650    7.759280   -3.284400
  S    -13.469320    8.110100   -2.734580
  C    -16.134740    8.606000   -2.976840
  C    -17.462080    8.595140   -3.444720
  C    -18.192080    9.672490   -3.033040
  C    -17.479540   10.595250   -2.231430
  S    -15.864560   10.006770   -1.961640
  C    -18.020980   11.744660   -1.672790
  C    -17.431330   12.718990   -0.879650
  C    -16.108570   13.044410   -0.609520
  C    -15.823000   13.751960    0.667160
  O    -16.633360   14.209800    1.444010
  C    -14.354210   13.733220    0.789980
  C    -13.416660   14.105910    1.693110
  S    -11.829390   13.736000    1.116000
  C    -12.444470   13.082240   -0.365080
  C    -13.799150   13.145730   -0.393000
  C    -14.882650   12.815280   -1.305110
  C    -14.693870   12.501650   -2.638730
  C    -15.722610   12.494730   -3.593610
  N    -16.542840   12.502320   -4.398580
  C    -13.413010   12.240040   -3.151060
  N    -12.374740   11.981790   -3.571950
  H     -6.591660   -3.226200    0.155240
  H     -2.174410   -3.706780    2.470950
  H     -6.704450   -6.021510    0.338760
  H     -2.759080    1.633250    1.037700
  H     -8.847860    1.328130    2.529680
  H     -9.922220    2.974140    1.050290
  H     -8.560520    4.358360   -0.473310
  H     -5.563180    5.127310   -2.571720
  H     -6.915190    6.009330    0.792890
  H     -8.310670    6.760420    0.015170
  H     -6.864190    7.711970    0.319700
  H     -6.476430    7.050860   -3.334760
  H     -6.279410    8.317130   -2.109750
  H     -8.566460    8.593440   -1.996370
  H     -8.780240    6.111380   -3.563300
  H    -10.846600    8.119680   -2.483920
  H    -11.154200    5.556490   -4.165400
  H    -13.680690    5.129060   -4.808010
  H    -16.004600    6.204480   -4.502500
  H    -17.835450    7.819150   -4.088410
  H    -19.216190    9.851200   -3.307860
  H    -19.090520   11.841280   -1.817010
  H    -18.127870   13.309360   -0.289540
  H    -13.540750   14.570980    2.650270
  H    -11.760770   12.698750   -1.095110

 Total Charge           Charge          ....    0
 Multiplicity           Mult            ....    1
 Number of Electrons    NEL             ....  504
 Basis Dimension        Dim             .... 1073

ORBITAL ENERGIES
----------------

  NO   OCC          E(Eh)            E(eV)
   0   2.0000    -482.885957    -13139.9949
   1   2.0000     -88.995218     -2421.6830
   2   2.0000     -88.975406     -2421.1439
   3   2.0000     -88.958704     -2420.6894
   4   2.0000     -88.958404     -2420.6812
   5   2.0000     -88.955238     -2420.5951
   6   2.0000     -62.563666     -1702.4439
   7   2.0000     -56.397616     -1534.6571
   8   2.0000     -56.394902     -1534.5833
   9   2.0000     -56.394870     -1534.5824
  10   2.0000     -19.216820      -522.9162
  11   2.0000     -19.186878      -522.1015
  12   2.0000     -14.472988      -393.8300
  13   2.0000     -14.415680      -392.2706
  14   2.0000     -14.414897      -392.2493
  15   2.0000     -14.413843      -392.2206
  16   2.0000     -14.391350      -391.6085
  17   2.0000     -14.385255      -391.4427
  18   2.0000     -10.368252      -282.1345
  19   2.0000     -10.358944      -281.8812
  20   2.0000     -10.353311      -281.7279
  21   2.0000     -10.346356      -281.5387
  22   2.0000     -10.342481      -281.4332
  23   2.0000     -10.341973      -281.4194
  24   2.0000     -10.341500      -281.4065
  25   2.0000     -10.340271      -281.3731
  26   2.0000     -10.333090      -281.1777
  27   2.0000     -10.328592      -281.0553
  28   2.0000     -10.328138      -281.0429
  29   2.0000     -10.325177      -280.9623
  30   2.0000     -10.323973      -280.9296
  31   2.0000     -10.320330      -280.8304
  32   2.0000     -10.318533      -280.7816
  33   2.0000     -10.318022      -280.7677
  34   2.0000     -10.317557      -280.7550
  35   2.0000     -10.314901      -280.6827
  36   2.0000     -10.314258      -280.6652
  37   2.0000     -10.313685      -280.6496
  38   2.0000     -10.313512      -280.6449
  39   2.0000     -10.312841      -280.6267
  40   2.0000     -10.312455      -280.6162
  41   2.0000     -10.311713      -280.5960
  42   2.0000     -10.310415      -280.5607
  43   2.0000     -10.309496      -280.5356
  44   2.0000     -10.308168      -280.4995
  45   2.0000     -10.307223      -280.4738
  46   2.0000     -10.306972      -280.4670
  47   2.0000     -10.305321      -280.4220
  48   2.0000     -10.305106      -280.4162
  49   2.0000     -10.304676      -280.4045
  50   2.0000     -10.301851      -280.3276
  51   2.0000     -10.301485      -280.3177
  52   2.0000     -10.300453      -280.2896
  53   2.0000     -10.300419      -280.2887
  54   2.0000     -10.296809      -280.1904
  55   2.0000     -10.296725      -280.1881
  56   2.0000     -10.296434      -280.1802
  57   2.0000     -10.296045      -280.1696
  58   2.0000     -10.294255      -280.1209
  59   2.0000     -10.291820      -280.0546
  60   2.0000     -10.288886      -279.9748
  61   2.0000     -10.288561      -279.9660
  62   2.0000     -10.287062      -279.9252
  63   2.0000     -10.281618      -279.7771
  64   2.0000     -10.278453      -279.6909
  65   2.0000     -10.276055      -279.6257
  66   2.0000     -10.269894      -279.4580
  67   2.0000     -10.266648      -279.3697
  68   2.0000     -10.265333      -279.3339
  69   2.0000      -8.793092      -239.2722
  70   2.0000      -8.090758      -220.1607
  71   2.0000      -8.071343      -219.6324
  72   2.0000      -8.054881      -219.1845
  73   2.0000      -8.054235      -219.1669
  74   2.0000      -8.050041      -219.0528
  75   2.0000      -6.629395      -180.3950
  76   2.0000      -6.614828      -179.9986
  77   2.0000      -6.614619      -179.9929
  78   2.0000      -6.059629      -164.8909
  79   2.0000      -6.055437      -164.7768
  80   2.0000      -6.053742      -164.7307
  81   2.0000      -6.041024      -164.3846
  82   2.0000      -6.036767      -164.2688
  83   2.0000      -6.032590      -164.1551
  84   2.0000      -6.024492      -163.9348
  85   2.0000      -6.023626      -163.9112
  86   2.0000      -6.020487      -163.8258
  87   2.0000      -6.019437      -163.7972
  88   2.0000      -6.018974      -163.7846
  89   2.0000      -6.016689      -163.7224
  90   2.0000      -6.015986      -163.7033
  91   2.0000      -6.015270      -163.6838
  92   2.0000      -6.011909      -163.5924
  93   2.0000      -2.745256       -74.7022
  94   2.0000      -2.741197       -74.5918
  95   2.0000      -2.741024       -74.5871
  96   2.0000      -2.729448       -74.2720
  97   2.0000      -2.729446       -74.2720
  98   2.0000      -1.132679       -30.8218
  99   2.0000      -1.101724       -29.9794
 100   2.0000      -1.074274       -29.2325
 101   2.0000      -1.029956       -28.0265
 102   2.0000      -1.022489       -27.8234
 103   2.0000      -1.013115       -27.5683
 104   2.0000      -1.005605       -27.3639
 105   2.0000      -1.000995       -27.2385
 106   2.0000      -0.997077       -27.1318
 107   2.0000      -0.993918       -27.0459
 108   2.0000      -0.989531       -26.9265
 109   2.0000      -0.982618       -26.7384
 110   2.0000      -0.978306       -26.6211
 111   2.0000      -0.966747       -26.3065
 112   2.0000      -0.963470       -26.2173
 113   2.0000      -0.950488       -25.8641
 114   2.0000      -0.941348       -25.6154
 115   2.0000      -0.934831       -25.4380
 116   2.0000      -0.922462       -25.1015
 117   2.0000      -0.909878       -24.7590
 118   2.0000      -0.908520       -24.7221
 119   2.0000      -0.890927       -24.2434
 120   2.0000      -0.888637       -24.1810
 121   2.0000      -0.885488       -24.0954
 122   2.0000      -0.873056       -23.7571
 123   2.0000      -0.866999       -23.5922
 124   2.0000      -0.862898       -23.4806
 125   2.0000      -0.861266       -23.4362
 126   2.0000      -0.853986       -23.2381
 127   2.0000      -0.837323       -22.7847
 128   2.0000      -0.830102       -22.5882
 129   2.0000      -0.828681       -22.5496
 130   2.0000      -0.825674       -22.4677
 131   2.0000      -0.817557       -22.2468
 132   2.0000      -0.810027       -22.0420
 133   2.0000      -0.798043       -21.7158
 134   2.0000      -0.782326       -21.2882
 135   2.0000      -0.767374       -20.8813
 136   2.0000      -0.759549       -20.6684
 137   2.0000      -0.755126       -20.5480
 138   2.0000      -0.751968       -20.4621
 139   2.0000      -0.733753       -19.9664
 140   2.0000      -0.723227       -19.6800
 141   2.0000      -0.718416       -19.5491
 142   2.0000      -0.707375       -19.2486
 143   2.0000      -0.702125       -19.1058
 144   2.0000      -0.693585       -18.8734
 145   2.0000      -0.689296       -18.7567
 146   2.0000      -0.684373       -18.6227
 147   2.0000      -0.680123       -18.5071
 148   2.0000      -0.665186       -18.1006
 149   2.0000      -0.660595       -17.9757
 150   2.0000      -0.654106       -17.7991
 151   2.0000      -0.649698       -17.6792
 152   2.0000      -0.643955       -17.5229
 153   2.0000      -0.640334       -17.4244
 154   2.0000      -0.632955       -17.2236
 155   2.0000      -0.625342       -17.0164
 156   2.0000      -0.619787       -16.8653
 157   2.0000      -0.616569       -16.7777
 158   2.0000      -0.612460       -16.6659
 159   2.0000      -0.609591       -16.5878
 160   2.0000      -0.609202       -16.5772
 161   2.0000      -0.600291       -16.3348
 162   2.0000      -0.596561       -16.2332
 163   2.0000      -0.593175       -16.1411
 164   2.0000      -0.590002       -16.0548
 165   2.0000      -0.583779       -15.8854
 166   2.0000      -0.580153       -15.7868
 167   2.0000      -0.575434       -15.6584
 168   2.0000      -0.569484       -15.4965
 169   2.0000      -0.559724       -15.2309
 170   2.0000      -0.552210       -15.0264
 171   2.0000      -0.550210       -14.9720
 172   2.0000      -0.546528       -14.8718
 173   2.0000      -0.542876       -14.7724
 174   2.0000      -0.541707       -14.7406
 175   2.0000      -0.539206       -14.6726
 176   2.0000      -0.537759       -14.6332
 177   2.0000      -0.527371       -14.3505
 178   2.0000      -0.524895       -14.2831
 179   2.0000      -0.521008       -14.1773
 180   2.0000      -0.517443       -14.0803
 181   2.0000      -0.515947       -14.0396
 182   2.0000      -0.512084       -13.9345
 183   2.0000      -0.509691       -13.8694
 184   2.0000      -0.508333       -13.8325
 185   2.0000      -0.507356       -13.8059
 186   2.0000      -0.505884       -13.7658
 187   2.0000      -0.499988       -13.6054
 188   2.0000      -0.498771       -13.5722
 189   2.0000      -0.496451       -13.5091
 190   2.0000      -0.495089       -13.4721
 191   2.0000      -0.493508       -13.4290
 192   2.0000      -0.492169       -13.3926
 193   2.0000      -0.488565       -13.2945
 194   2.0000      -0.487560       -13.2672
 195   2.0000      -0.484869       -13.1940
 196   2.0000      -0.483487       -13.1564
 197   2.0000      -0.477934       -13.0052
 198   2.0000      -0.476287       -12.9604
 199   2.0000      -0.474218       -12.9041
 200   2.0000      -0.469075       -12.7642
 201   2.0000      -0.466630       -12.6976
 202   2.0000      -0.462074       -12.5737
 203   2.0000      -0.460572       -12.5328
 204   2.0000      -0.457494       -12.4491
 205   2.0000      -0.455691       -12.4000
 206   2.0000      -0.454231       -12.3603
 207   2.0000      -0.448903       -12.2153
 208   2.0000      -0.448311       -12.1992
 209   2.0000      -0.447669       -12.1817
 210   2.0000      -0.443823       -12.0770
 211   2.0000      -0.442960       -12.0535
 212   2.0000      -0.441765       -12.0210
 213   2.0000      -0.440531       -11.9875
 214   2.0000      -0.438792       -11.9401
 215   2.0000      -0.437800       -11.9131
 216   2.0000      -0.435399       -11.8478
 217   2.0000      -0.431095       -11.7307
 218   2.0000      -0.428678       -11.6649
 219   2.0000      -0.426556       -11.6072
 220   2.0000      -0.423954       -11.5364
 221   2.0000      -0.421282       -11.4637
 222   2.0000      -0.420547       -11.4437
 223   2.0000      -0.416439       -11.3319
 224   2.0000      -0.415160       -11.2971
 225   2.0000      -0.409890       -11.1537
 226   2.0000      -0.407937       -11.1005
 227   2.0000      -0.407750       -11.0954
 228   2.0000      -0.402625       -10.9560
 229   2.0000      -0.397684       -10.8215
 230   2.0000      -0.397097       -10.8056
 231   2.0000      -0.387147       -10.5348
 232   2.0000      -0.386616       -10.5203
 233   2.0000      -0.381407       -10.3786
 234   2.0000      -0.375365       -10.2142
 235   2.0000      -0.367371        -9.9967
 236   2.0000      -0.359224        -9.7750
 237   2.0000      -0.357367        -9.7245
 238   2.0000      -0.348112        -9.4726
 239   2.0000      -0.345590        -9.4040
 240   2.0000      -0.338785        -9.2188
 241   2.0000      -0.327771        -8.9191
 242   2.0000      -0.327485        -8.9113
 243   2.0000      -0.321273        -8.7423
 244   2.0000      -0.314460        -8.5569
 245   2.0000      -0.313747        -8.5375
 246   2.0000      -0.311319        -8.4714
 247   2.0000      -0.293577        -7.9886
 248   2.0000      -0.285432        -7.7670
 249   2.0000      -0.275758        -7.5037
 250   2.0000      -0.272144        -7.4054
 251   2.0000      -0.220825        -6.0090
 252   0.0000      -0.101786        -2.7697
 253   0.0000      -0.093191        -2.5359
 254   0.0000      -0.071668        -1.9502
 255   0.0000      -0.042529        -1.1573
 256   0.0000      -0.036039        -0.9807

MULLIKEN ATOMIC CHARGES
-----------------------
   0 C :    0.316328
   1 C :   -0.336110
   2 C :   -0.187425
   3 N :    0.152166
   4 C :   -0.200910
   5 N :    0.159358
   6 C :    0.025194
   7 C :   -0.004252
   8 C :   -0.067961
   9 C :    0.116161
  10 C :   -0.090487
  11 C :   -0.019804
  12 S :    0.186787
  13 C :   -0.123890
  14 C :    0.041660
  15 Br:    0.022313
  16 C :    0.127984
  17 O :   -0.155186
  18 C :   -0.088360
  19 C :    0.016355
  20 C :   -0.193059
  21 S :    0.208164
  22 C :   -0.142309
  23 C :    0.079645
  24 C :    0.231224
  25 C :   -0.085399
  26 C :   -0.221224
  27 N :    0.119816
  28 C :    0.034252
  29 C :    0.029940
  30 C :   -0.003827
  31 C :   -0.022289
  32 C :   -0.190075
  33 C :    0.095362
  34 C :    0.189613
  35 N :   -0.149114
  36 C :    0.074724
  37 C :   -0.031833
  38 C :    0.018470
  39 C :   -0.052777
  40 C :    0.060899
  41 C :    0.010022
  42 C :   -0.010149
  43 S :    0.100537
  44 C :   -0.073871
  45 C :    0.042103
  46 C :    0.045671
  47 C :   -0.032201
  48 S :    0.121190
  49 C :   -0.000269
  50 C :    0.026342
  51 C :   -0.175746
  52 C :    0.145390
  53 O :   -0.155715
  54 C :    0.051491
  55 C :   -0.148540
  56 S :    0.110680
  57 C :   -0.153874
  58 C :    0.024977
  59 C :    0.284972
  60 C :   -0.370438
  61 C :   -0.208919
  62 N :    0.157317
  63 C :   -0.181727
  64 N :    0.118758
  65 H :   -0.015766
  66 H :   -0.007166
  67 H :   -0.005649
  68 H :    0.026885
  69 H :    0.002676
  70 H :    0.000378
  71 H :   -0.019298
  72 H :    0.007052
  73 H :    0.045160
  74 H :    0.035227
  75 H :    0.024579
  76 H :    0.020628
  77 H :    0.039999
  78 H :    0.134649
  79 H :    0.013627
  80 H :    0.007745
  81 H :   -0.008409
  82 H :   -0.007287
  83 H :   -0.008869
  84 H :   -0.014411
  85 H :   -0.011258
  86 H :   -0.007394
  87 H :    0.019688
  88 H :    0.029863
  89 H :    0.029223
Sum of atomic charges:   -0.0000000

LOEWDIN ATOMIC CHARGES
----------------------
   0 C :    0.080297
   1 C :   -0.133977
   2 C :   -0.017364
   3 N :   -0.051520
   4 C :   -0.020935
   5 N :   -0.053015
   6 C :   -0.015568
   7 C :   -0.043883
   8 C :    0.022128
   9 C :   -0.032115
  10 C :   -0.143175
  11 C :   -0.007904
  12 S :    0.433154
  13 C :   -0.271899
  14 C :   -0.070589
  15 Br:    0.136278
  16 C :    0.081427
  17 O :   -0.148271
  18 C :   -0.079997
  19 C :    0.030496
  20 C :   -0.185617
  21 S :    0.516239
  22 C :   -0.157165
  23 C :   -0.051536
  24 C :   -0.005314
  25 C :   -0.057313
  26 C :   -0.019360
  27 N :   -0.062059
  28 C :    0.036102
  29 C :   -0.027232
  30 C :    0.012314
  31 C :   -0.073539
  32 C :   -0.021138
  33 C :   -0.052239
  34 C :    0.046536
  35 N :    0.016079
  36 C :    0.068542
  37 C :   -0.118622
  38 C :    0.001696
  39 C :   -0.183185
  40 C :   -0.002044
  41 C :   -0.054422
  42 C :   -0.129758
  43 S :    0.398779
  44 C :   -0.213747
  45 C :   -0.018370
  46 C :   -0.043507
  47 C :   -0.111906
  48 S :    0.471864
  49 C :   -0.078017
  50 C :    0.033792
  51 C :   -0.120771
  52 C :    0.079539
  53 O :   -0.157610
  54 C :   -0.090706
  55 C :   -0.145738
  56 S :    0.440470
  57 C :   -0.171939
  58 C :   -0.054356
  59 C :    0.035945
  60 C :   -0.183493
  61 C :   -0.032230
  62 N :   -0.071056
  63 C :   -0.015630
  64 N :   -0.093736
  65 H :    0.039421
  66 H :    0.041018
  67 H :    0.038101
  68 H :    0.044334
  69 H :    0.043955
  70 H :    0.036545
  71 H :    0.032894
  72 H :    0.033132
  73 H :    0.039807
  74 H :    0.036021
  75 H :    0.037564
  76 H :    0.031350
  77 H :    0.039902
  78 H :    0.086528
  79 H :    0.033143
  80 H :    0.024346
  81 H :    0.036151
  82 H :    0.036111
  83 H :    0.033740
  84 H :    0.032429
  85 H :    0.034670
  86 H :    0.038451
  87 H :    0.043827
  88 H :    0.031312
  89 H :    0.027141

  Mayer bond orders larger than 0.100000
B(  0-C ,  1-C ) :   1.6470 B(  0-C ,  6-C ) :   1.0100 B(  0-C , 18-C ) :   1.0681
B(  1-C ,  2-C ) :   1.1381 B(  1-C ,  4-C ) :   1.1461 B(  2-C ,  3-N ) :   2.9727
B(  4-C ,  5-N ) :   2.9867 B(  6-C ,  7-C ) :   1.2732 B(  6-C , 11-C ) :   1.4058
B(  7-C ,  8-C ) :   1.4273 B(  7-C , 16-C ) :   0.9440 B(  8-C ,  9-C ) :   1.2431
B(  8-C , 65-H ) :   1.0157 B(  9-C , 10-C ) :   1.3062 B(  9-C , 14-C ) :   1.1636
B( 10-C , 11-C ) :   1.3311 B( 10-C , 12-S ) :   1.0857 B( 11-C , 66-H ) :   0.9788
B( 12-S , 13-C ) :   1.0872 B( 13-C , 14-C ) :   1.6186 B( 13-C , 15-Br) :   1.0174
B( 14-C , 67-H ) :   0.9992 B( 16-C , 17-O ) :   2.2031 B( 16-C , 18-C ) :   0.9378
B( 18-C , 19-C ) :   1.6157 B( 19-C , 20-C ) :   1.1589 B( 19-C , 68-H ) :   0.9289
B( 20-C , 21-S ) :   1.1246 B( 20-C , 22-C ) :   0.1099 B( 20-C , 24-C ) :   1.3576
B( 21-S , 22-C ) :   1.2268 B( 22-C , 23-C ) :   1.3625 B( 22-C , 31-C ) :   1.0104
B( 23-C , 24-C ) :   1.2132 B( 23-C , 30-C ) :   1.2044 B( 24-C , 25-C ) :   1.2099
B( 25-C , 26-C ) :   1.1059 B( 25-C , 28-C ) :   1.5507 B( 26-C , 27-N ) :   3.0131
B( 28-C , 29-C ) :   1.2035 B( 28-C , 69-H ) :   0.9922 B( 29-C , 30-C ) :   1.5280
B( 29-C , 70-H ) :   0.9853 B( 30-C , 71-H ) :   0.9878 B( 31-C , 32-C ) :   1.8646
B( 31-C , 72-H ) :   0.9486 B( 32-C , 33-C ) :   1.0773 B( 32-C , 34-C ) :   1.0227
B( 33-C , 73-H ) :   0.9427 B( 33-C , 74-H ) :   0.9442 B( 33-C , 75-H ) :   0.9440
B( 34-C , 35-N ) :   1.0115 B( 34-C , 76-H ) :   0.9414 B( 34-C , 77-H ) :   0.9396
B( 35-N , 36-C ) :   1.2570 B( 35-N , 78-H ) :   0.9343 B( 36-C , 37-C ) :   1.5547
B( 36-C , 79-H ) :   0.9710 B( 37-C , 38-C ) :   1.2087 B( 37-C , 80-H ) :   0.9608
B( 38-C , 39-C ) :   1.5458 B( 38-C , 81-H ) :   0.9806 B( 39-C , 40-C ) :   1.1685
B( 39-C , 43-S ) :   1.0184 B( 40-C , 41-C ) :   1.5567 B( 40-C , 82-H ) :   0.9985
B( 41-C , 42-C ) :   1.2137 B( 41-C , 83-H ) :   0.9963 B( 42-C , 43-S ) :   1.1091
B( 42-C , 44-C ) :   1.4299 B( 44-C , 45-C ) :   1.2315 B( 44-C , 48-S ) :   1.0395
B( 45-C , 46-C ) :   1.5353 B( 45-C , 84-H ) :   0.9914 B( 46-C , 47-C ) :   1.2019
B( 46-C , 85-H ) :   0.9970 B( 47-C , 48-S ) :   1.1297 B( 47-C , 49-C ) :   1.3933
B( 49-C , 50-C ) :   1.3911 B( 49-C , 86-H ) :   0.9539 B( 50-C , 51-C ) :   1.4171
B( 50-C , 87-H ) :   0.9296 B( 51-C , 52-C ) :   0.9687 B( 51-C , 59-C ) :   1.1774
B( 52-C , 53-O ) :   2.2457 B( 52-C , 54-C ) :   0.9193 B( 54-C , 55-C ) :   1.5634
B( 54-C , 58-C ) :   1.2201 B( 55-C , 56-S ) :   1.1712 B( 55-C , 88-H ) :   0.9701
B( 56-S , 57-C ) :   1.1409 B( 57-C , 58-C ) :   1.5730 B( 57-C , 89-H ) :   0.9554
B( 58-C , 59-C ) :   0.9956 B( 59-C , 60-C ) :   1.5230 B( 60-C , 61-C ) :   1.1632
B( 60-C , 63-C ) :   1.1604 B( 61-C , 62-N ) :   3.0113 B( 63-C , 64-N ) :   2.9815

-----------------------------------------------------------------------------
         ABSORPTION SPECTRUM VIA TRANSITION ELECTRIC DIPOLE MOMENTS
-----------------------------------------------------------------------------
State   Energy  Wavelength   fosc         T2         TX        TY        TZ
        (cm-1)    (nm)                  (au**2)     (au)      (au)      (au)
-----------------------------------------------------------------------------
   0   12828.3    779.5   0.774216585  19.86866  -2.50434   3.59709   0.81110
   1   16723.1    598.0   0.016621186   0.32721   0.39521  -0.25978   0.32176
   2   20615.1    485.1   0.739150604  11.80384  -1.95592   2.61103  -1.07737
   3   22273.9    449.0   0.001079904   0.01596   0.08288   0.08508   0.04305
   4   24605.7    406.4   0.041468597   0.55483  -0.72956  -0.07878   0.12791
   5   24801.1    403.2   0.331272121   4.39733   1.96132  -0.16899  -0.72250
   6   24928.4    401.1   0.120851820   1.59601  -1.25985  -0.08593   0.03755
   7   25361.6    394.3   0.044340526   0.57557   0.01598  -0.75849   0.00317
   8   26649.8    375.2   0.080737162   0.99737  -0.60382  -0.73536  -0.30334
   9   27039.0    369.8   0.185317156   2.25632   1.12906  -0.83868   0.52740
  10   27448.0    364.3   0.832114277   9.98039   2.68760   1.54567   0.60672
  11   28278.5    353.6   0.014519966   0.16904  -0.40118  -0.06940   0.05723
  12   28877.7    346.3   0.011117728   0.12674   0.07807  -0.27447   0.21288
  13   29294.0    341.4   0.003972448   0.04464  -0.15036  -0.09112  -0.11718
  14   29402.3    340.1   0.030428944   0.34071   0.58182  -0.01936  -0.04264
  15   30217.7    330.9   0.014529325   0.15829  -0.22548   0.28347   0.16461
  16   30724.2    325.5   0.014579482   0.15622   0.23375  -0.25608  -0.18975
  17   31555.0    316.9   0.004003046   0.04176  -0.02261  -0.10860   0.17163
  18   31591.6    316.5   0.005180596   0.05399   0.01046   0.23059  -0.02660
  19   31959.8    312.9   0.547148571   5.63608  -1.31828  -1.84048  -0.71473
  20   32023.8    312.3   0.004820003   0.04955   0.10025  -0.19598  -0.03307
  21   32576.9    307.0   0.043456939   0.43916  -0.00282  -0.65964   0.06352
  22   32904.0    303.9   0.012503422   0.12510  -0.26679   0.03600  -0.22940
  23   33466.7    298.8   0.004568428   0.04494  -0.09200  -0.14096   0.12886
  24   34253.1    291.9   0.106357755   1.02222  -0.28250  -0.94129  -0.23747
  25   34279.9    291.7   0.107433220   1.03175  -0.15322  -0.47417  -0.88512
  26   34346.8    291.1   0.085253745   0.81715  -0.50100  -0.39033  -0.64326
  27   34480.6    290.0   0.028699798   0.27402   0.21420   0.15467   0.45190
  28   34890.5    286.6   0.164735899   1.55438  -0.94601  -0.31812   0.74715
  29   35419.6    282.3   0.200932809   1.86760   0.71256   0.58031   1.01148
  30   35845.8    279.0   0.218205668   2.00403   0.94953  -0.92911   0.48905
  31   36259.1    275.8   0.000787838   0.00715   0.05525  -0.05737   0.02846
  32   36761.4    272.0   0.008836395   0.07913   0.13784  -0.15695   0.18842
  33   36817.4    271.6   0.076602097   0.68496  -0.04212  -0.54453  -0.62183
  34   37011.7    270.2   0.394547897   3.50943   0.07136   1.12372   1.49720
  35   37074.7    269.7   0.055328583   0.49130  -0.22137  -0.27127  -0.60722
  36   37696.6    265.3   0.140857057   1.23013   0.77258   0.02237   0.79545
  37   38219.3    261.6   0.011433535   0.09849   0.30071   0.04902  -0.07522
  38   38255.0    261.4   0.082729197   0.71194  -0.69053   0.37955  -0.30176
  39   38420.7    260.3   0.074083181   0.63479  -0.35570   0.47392  -0.53260
  40   38772.7    257.9   0.000515731   0.00438  -0.04332  -0.00062  -0.05002
  41   39093.0    255.8   0.024772097   0.20861  -0.41224   0.19313  -0.03704
  42   39202.7    255.1   0.007237566   0.06078   0.18056  -0.06039   0.15662
  43   39354.6    254.1   0.001545544   0.01293   0.05704   0.03452   0.09211
  44   39409.5    253.7   0.019310355   0.16131  -0.06378  -0.39562   0.02698
  45   39517.9    253.0   0.005524357   0.04602  -0.03581  -0.19061   0.09168
  46   39664.6    252.1   0.081099315   0.67312   0.14198   0.67842  -0.43898

FINAL SINGLE POINT ENERGY     -6998.458886038721

DIPOLE MOMENT
-------------
                                X             Y             Z
Electronic contribution:     60.18636    -164.20922      33.27378
Nuclear contribution   :    -59.82629     161.43907     -35.33012
                        -----------------------------------------
Total Dipole Moment    :      0.36007      -2.77015      -2.05634
                        -----------------------------------------
Magnitude (a.u.)       :      3.46871
Magnitude (Debye)      :      8.81675

Rotational constants in cm-1:     0.001825     0.000230     0.000216
Rotational constants in MHz :    54.723675     6.892406     6.461233

                             ****ORCA TERMINATED NORMALLY****
TOTAL RUN TIME: 0 days 0 hours 9 minutes 23 seconds 155 msec
