                         Program Version 4.2.0 -  RELEASE  -
|  1> # ORCA input file
|  2> # SCF done       -173.880998359628          0.000679883153
|  3> ! CAM-B3LYP def2-SVP def2/J RIJCOSX Grid4 TightSCF
|  4> %maxcore 5000
|  5> %tddft
|  6>     Mode sTDDFT
|  7>     Ethresh 5.0
|  8>     maxcore 5000
|  9> end
| 10>
| 11> %pal
| 12>   nprocs 6
| 13>   end
| 14> * xyz 0 1
| 15>    C       -4.04761        -4.76758        -6.59334
| 16>    C       -4.62172        -5.88894        -6.03491
| 17>    C       -4.00121        -7.15165        -5.98969
| 18>    N       -3.54855        -8.20588        -5.92162
| 19>    C       -5.91417        -5.96046        -5.47916
| 20>    N       -6.96439        -6.12214        -5.04073
| 21>    C       -2.74898        -4.73761        -7.26687
| 22>    C       -2.55119        -3.44374        -7.80608
| 23>    C       -1.43006        -3.10032        -8.51899
| 24>    C       -0.45099        -4.08250        -8.70858
| 25>    C       -0.65378        -5.36940        -8.16127
| 26>    C       -1.79087        -5.71697        -7.43993
| 27>    S        0.67845        -6.43010        -8.51196
| 28>    C        1.47607        -5.14551        -9.38026
| 29>    C        0.78472        -3.98234        -9.40599
| 30>   Br        3.14766        -5.46214       -10.17222
| 31>    C       -3.71590        -2.59489        -7.47186
| 32>    O       -3.86806        -1.43095        -7.79276
| 33>    C       -4.61845        -3.45204        -6.68346
| 34>    C       -5.80679        -3.02654        -6.11154
| 35>    C       -6.36118        -1.76807        -6.28222
| 36>    C       -7.57480        -1.39270        -5.72147
| 37>    C       -8.25890        -0.18149        -5.93424
| 38>    C       -9.47809        -0.11552        -5.31113
| 39>    C       -9.78728        -1.26452        -4.56692
| 40>    S       -8.50006        -2.43482        -4.66749
| 41>    C      -10.95510        -1.54031        -3.85157
| 42>    C      -12.14719        -0.80037        -3.81998
| 43>    C      -13.14118        -1.40498        -3.09533
| 44>    C      -12.75954        -2.62283        -2.50277
| 45>    S      -11.09468        -2.98272        -2.89183
| 46>    C      -13.61057        -3.45938        -1.78950
| 47>    C      -13.28623        -4.60829        -1.09007
| 48>    S      -14.54756        -5.68252        -0.48377
| 49>    C      -13.43281        -6.81298         0.29489
| 50>    C      -12.11089        -6.33446         0.09270
| 51>    C      -12.06029        -5.15242        -0.68013
| 52>    O      -10.79749        -4.74597        -0.85767
| 53>    C      -10.02232        -5.66488        -0.22861
| 54>    N       -8.62284        -5.47805        -0.24671
| 55>    O       -7.95629        -6.33359         0.30683
| 56>    O       -8.19046        -4.48466        -0.79235
| 57>    C      -10.76392        -6.65834         0.36609
| 58>    C      -13.97144        -7.93773         0.87457
| 59>    C      -13.38896        -8.90228         1.70052
| 60>    C      -13.99750       -10.11480         2.05224
| 61>    C      -13.26372       -10.88373         2.92443
| 62>    C      -12.06626       -10.28331         3.32367
| 63>    S      -11.86745        -8.73923         2.53467
| 64>    C      -11.12482       -10.76202         4.23969
| 65>    C      -11.07232       -12.02919         4.83600
| 66>    C      -10.02739       -12.18116         5.70994
| 67>    C       -9.22677       -11.03287         5.86122
| 68>    S       -9.82387        -9.75893         4.81912
| 69>    C       -8.14652       -10.93086         6.72185
| 70>    C       -7.37256        -9.81375         7.01826
| 71>    S       -6.05247        -9.99873         8.18246
| 72>    C       -5.67997        -8.33516         8.06837
| 73>    C       -6.53295        -7.67026         7.17265
| 74>    C       -7.47142        -8.48187         6.57908
| 75>    C       -6.13502        -6.23839         7.18110
| 76>    O       -6.62659        -5.31931         6.57479
| 77>    C       -4.98259        -6.17629         8.14387
| 78>    C       -4.74968        -7.43347         8.64432
| 79>    C       -4.32563        -4.93401         8.41391
| 80>    C       -3.30640        -4.75789         9.25932
| 81>    H       -1.31087        -2.10602        -8.92017
| 82>    H       -1.89626        -6.71264        -7.04305
| 83>    H        1.12856        -3.08967        -9.89594
| 84>    H       -6.35494        -3.72582        -5.49199
| 85>    H       -5.84965        -1.04806        -6.90476
| 86>    H       -7.84545         0.59840        -6.54846
| 87>    H      -10.14171         0.72846        -5.36895
| 88>    H      -12.26124         0.13340        -4.33985
| 89>    H      -14.13131        -1.00279        -2.97226
| 90>    H      -14.65940        -3.19158        -1.80228
| 91>    H      -10.35640        -7.48305         0.91056
| 92>    H      -15.02387        -8.10015         0.67328
| 93>    H      -14.95167       -10.40514         1.64976
| 94>    H      -13.57933       -11.84254         3.29338
| 95>    H      -11.78312       -12.80180         4.60582
| 96>    H       -9.82301       -13.08512         6.25574
| 97>    H       -7.89060       -11.84031         7.25145
| 98>    H       -8.20485        -8.14642         5.87009
| 99>    H       -3.99389        -7.70864         9.35692
|100>    H       -4.72616        -4.09335         7.86105
|101>    H       -2.88313        -5.57210         9.82256
|102>    H       -2.86263        -3.78929         9.40729
|103> *
|104>
|105>                          ****END OF INPUT****

CARTESIAN COORDINATES (ANGSTROEM)
---------------------------------
  C     -4.047610   -4.767580   -6.593340
  C     -4.621720   -5.888940   -6.034910
  C     -4.001210   -7.151650   -5.989690
  N     -3.548550   -8.205880   -5.921620
  C     -5.914170   -5.960460   -5.479160
  N     -6.964390   -6.122140   -5.040730
  C     -2.748980   -4.737610   -7.266870
  C     -2.551190   -3.443740   -7.806080
  C     -1.430060   -3.100320   -8.518990
  C     -0.450990   -4.082500   -8.708580
  C     -0.653780   -5.369400   -8.161270
  C     -1.790870   -5.716970   -7.439930
  S      0.678450   -6.430100   -8.511960
  C      1.476070   -5.145510   -9.380260
  C      0.784720   -3.982340   -9.405990
  Br     3.147660   -5.462140  -10.172220
  C     -3.715900   -2.594890   -7.471860
  O     -3.868060   -1.430950   -7.792760
  C     -4.618450   -3.452040   -6.683460
  C     -5.806790   -3.026540   -6.111540
  C     -6.361180   -1.768070   -6.282220
  C     -7.574800   -1.392700   -5.721470
  C     -8.258900   -0.181490   -5.934240
  C     -9.478090   -0.115520   -5.311130
  C     -9.787280   -1.264520   -4.566920
  S     -8.500060   -2.434820   -4.667490
  C    -10.955100   -1.540310   -3.851570
  C    -12.147190   -0.800370   -3.819980
  C    -13.141180   -1.404980   -3.095330
  C    -12.759540   -2.622830   -2.502770
  S    -11.094680   -2.982720   -2.891830
  C    -13.610570   -3.459380   -1.789500
  C    -13.286230   -4.608290   -1.090070
  S    -14.547560   -5.682520   -0.483770
  C    -13.432810   -6.812980    0.294890
  C    -12.110890   -6.334460    0.092700
  C    -12.060290   -5.152420   -0.680130
  O    -10.797490   -4.745970   -0.857670
  C    -10.022320   -5.664880   -0.228610
  N     -8.622840   -5.478050   -0.246710
  O     -7.956290   -6.333590    0.306830
  O     -8.190460   -4.484660   -0.792350
  C    -10.763920   -6.658340    0.366090
  C    -13.971440   -7.937730    0.874570
  C    -13.388960   -8.902280    1.700520
  C    -13.997500  -10.114800    2.052240
  C    -13.263720  -10.883730    2.924430
  C    -12.066260  -10.283310    3.323670
  S    -11.867450   -8.739230    2.534670
  C    -11.124820  -10.762020    4.239690
  C    -11.072320  -12.029190    4.836000
  C    -10.027390  -12.181160    5.709940
  C     -9.226770  -11.032870    5.861220
  S     -9.823870   -9.758930    4.819120
  C     -8.146520  -10.930860    6.721850
  C     -7.372560   -9.813750    7.018260
  S     -6.052470   -9.998730    8.182460
  C     -5.679970   -8.335160    8.068370
  C     -6.532950   -7.670260    7.172650
  C     -7.471420   -8.481870    6.579080
  C     -6.135020   -6.238390    7.181100
  O     -6.626590   -5.319310    6.574790
  C     -4.982590   -6.176290    8.143870
  C     -4.749680   -7.433470    8.644320
  C     -4.325630   -4.934010    8.413910
  C     -3.306400   -4.757890    9.259320
  H     -1.310870   -2.106020   -8.920170
  H     -1.896260   -6.712640   -7.043050
  H      1.128560   -3.089670   -9.895940
  H     -6.354940   -3.725820   -5.491990
  H     -5.849650   -1.048060   -6.904760
  H     -7.845450    0.598400   -6.548460
  H    -10.141710    0.728460   -5.368950
  H    -12.261240    0.133400   -4.339850
  H    -14.131310   -1.002790   -2.972260
  H    -14.659400   -3.191580   -1.802280
  H    -10.356400   -7.483050    0.910560
  H    -15.023870   -8.100150    0.673280
  H    -14.951670  -10.405140    1.649760
  H    -13.579330  -11.842540    3.293380
  H    -11.783120  -12.801800    4.605820
  H     -9.823010  -13.085120    6.255740
  H     -7.890600  -11.840310    7.251450
  H     -8.204850   -8.146420    5.870090
  H     -3.993890   -7.708640    9.356920
  H     -4.726160   -4.093350    7.861050
  H     -2.883130   -5.572100    9.822560
  H     -2.862630   -3.789290    9.407290

 Total Charge           Charge          ....    0
 Multiplicity           Mult            ....    1
 Number of Electrons    NEL             ....  530
 Basis Dimension        Dim             .... 1080

ORBITAL ENERGIES
----------------

  NO   OCC          E(Eh)            E(eV)
   0   2.0000    -482.866937    -13139.4773
   1   2.0000     -88.987870     -2421.4831
   2   2.0000     -88.970142     -2421.0006
   3   2.0000     -88.969122     -2420.9729
   4   2.0000     -88.967922     -2420.9402
   5   2.0000     -88.952377     -2420.5172
   6   2.0000     -88.950291     -2420.4605
   7   2.0000     -88.942633     -2420.2521
   8   2.0000     -62.544644     -1701.9263
   9   2.0000     -56.378567     -1534.1388
  10   2.0000     -56.375903     -1534.0663
  11   2.0000     -56.375858     -1534.0651
  12   2.0000     -19.316055      -525.6166
  13   2.0000     -19.235164      -523.4154
  14   2.0000     -19.233278      -523.3641
  15   2.0000     -19.231340      -523.3114
  16   2.0000     -19.181906      -521.9662
  17   2.0000     -14.645957      -398.5367
  18   2.0000     -14.381695      -391.3458
  19   2.0000     -14.381160      -391.3312
  20   2.0000     -10.381382      -282.4918
  21   2.0000     -10.376238      -282.3518
  22   2.0000     -10.359126      -281.8861
  23   2.0000     -10.336192      -281.2621
  24   2.0000     -10.335556      -281.2448
  25   2.0000     -10.334790      -281.2239
  26   2.0000     -10.332000      -281.1480
  27   2.0000     -10.328955      -281.0651
  28   2.0000     -10.326848      -281.0078
  29   2.0000     -10.326170      -280.9894
  30   2.0000     -10.325320      -280.9662
  31   2.0000     -10.324708      -280.9496
  32   2.0000     -10.322377      -280.8862
  33   2.0000     -10.318993      -280.7941
  34   2.0000     -10.314701      -280.6773
  35   2.0000     -10.312234      -280.6101
  36   2.0000     -10.311670      -280.5948
  37   2.0000     -10.309549      -280.5371
  38   2.0000     -10.307647      -280.4853
  39   2.0000     -10.306918      -280.4655
  40   2.0000     -10.305500      -280.4269
  41   2.0000     -10.304880      -280.4100
  42   2.0000     -10.304697      -280.4051
  43   2.0000     -10.304420      -280.3975
  44   2.0000     -10.303846      -280.3819
  45   2.0000     -10.302745      -280.3520
  46   2.0000     -10.302151      -280.3358
  47   2.0000     -10.300723      -280.2969
  48   2.0000     -10.299171      -280.2547
  49   2.0000     -10.299142      -280.2539
  50   2.0000     -10.296893      -280.1927
  51   2.0000     -10.295454      -280.1535
  52   2.0000     -10.292846      -280.0826
  53   2.0000     -10.288712      -279.9701
  54   2.0000     -10.287198      -279.9289
  55   2.0000     -10.286660      -279.9143
  56   2.0000     -10.286318      -279.9049
  57   2.0000     -10.286218      -279.9022
  58   2.0000     -10.282710      -279.8068
  59   2.0000     -10.280914      -279.7579
  60   2.0000     -10.278470      -279.6914
  61   2.0000     -10.278258      -279.6856
  62   2.0000     -10.276693      -279.6430
  63   2.0000     -10.276489      -279.6375
  64   2.0000     -10.274985      -279.5965
  65   2.0000     -10.273305      -279.5508
  66   2.0000     -10.273049      -279.5439
  67   2.0000     -10.261989      -279.2429
  68   2.0000     -10.255256      -279.0597
  69   2.0000     -10.253943      -279.0240
  70   2.0000      -8.774057      -238.7542
  71   2.0000      -8.082778      -219.9436
  72   2.0000      -8.065385      -219.4703
  73   2.0000      -8.065092      -219.4623
  74   2.0000      -8.063939      -219.4309
  75   2.0000      -8.048348      -219.0067
  76   2.0000      -8.046426      -218.9544
  77   2.0000      -8.038508      -218.7389
  78   2.0000      -6.610240      -179.8738
  79   2.0000      -6.595833      -179.4817
  80   2.0000      -6.595693      -179.4779
  81   2.0000      -6.051864      -164.6796
  82   2.0000      -6.047949      -164.5731
  83   2.0000      -6.045198      -164.4982
  84   2.0000      -6.035012      -164.2210
  85   2.0000      -6.034740      -164.2136
  86   2.0000      -6.033500      -164.1799
  87   2.0000      -6.031060      -164.1135
  88   2.0000      -6.030588      -164.1006
  89   2.0000      -6.029381      -164.0678
  90   2.0000      -6.026626      -163.9928
  91   2.0000      -6.026310      -163.9842
  92   2.0000      -6.025298      -163.9567
  93   2.0000      -6.018042      -163.7592
  94   2.0000      -6.016002      -163.7037
  95   2.0000      -6.013795      -163.6437
  96   2.0000      -6.011751      -163.5881
  97   2.0000      -6.009564      -163.5285
  98   2.0000      -6.008005      -163.4861
  99   2.0000      -6.007652      -163.4765
 100   2.0000      -6.003956      -163.3759
 101   2.0000      -5.999949      -163.2669
 102   2.0000      -2.726141       -74.1821
 103   2.0000      -2.722067       -74.0712
 104   2.0000      -2.721979       -74.0688
 105   2.0000      -2.710523       -73.7571
 106   2.0000      -2.710512       -73.7568
 107   2.0000      -1.316459       -35.8227
 108   2.0000      -1.238930       -33.7130
 109   2.0000      -1.144995       -31.1569
 110   2.0000      -1.132750       -30.8237
 111   2.0000      -1.095159       -29.8008
 112   2.0000      -1.019999       -27.7556
 113   2.0000      -1.014546       -27.6072
 114   2.0000      -1.002655       -27.2836
 115   2.0000      -0.997087       -27.1321
 116   2.0000      -0.995210       -27.0810
 117   2.0000      -0.990671       -26.9575
 118   2.0000      -0.981928       -26.7196
 119   2.0000      -0.973788       -26.4981
 120   2.0000      -0.960950       -26.1488
 121   2.0000      -0.958069       -26.0704
 122   2.0000      -0.954335       -25.9688
 123   2.0000      -0.936716       -25.4893
 124   2.0000      -0.915679       -24.9169
 125   2.0000      -0.913300       -24.8522
 126   2.0000      -0.903540       -24.5866
 127   2.0000      -0.895075       -24.3562
 128   2.0000      -0.888846       -24.1867
 129   2.0000      -0.880735       -23.9660
 130   2.0000      -0.877501       -23.8780
 131   2.0000      -0.869503       -23.6604
 132   2.0000      -0.865513       -23.5518
 133   2.0000      -0.858960       -23.3735
 134   2.0000      -0.857710       -23.3395
 135   2.0000      -0.854282       -23.2462
 136   2.0000      -0.846808       -23.0428
 137   2.0000      -0.841127       -22.8882
 138   2.0000      -0.838698       -22.8221
 139   2.0000      -0.821488       -22.3538
 140   2.0000      -0.820841       -22.3362
 141   2.0000      -0.807131       -21.9632
 142   2.0000      -0.802581       -21.8394
 143   2.0000      -0.791641       -21.5417
 144   2.0000      -0.784837       -21.3565
 145   2.0000      -0.767465       -20.8838
 146   2.0000      -0.764789       -20.8110
 147   2.0000      -0.754167       -20.5219
 148   2.0000      -0.741533       -20.1781
 149   2.0000      -0.727315       -19.7912
 150   2.0000      -0.719538       -19.5796
 151   2.0000      -0.716675       -19.5017
 152   2.0000      -0.695203       -18.9174
 153   2.0000      -0.691742       -18.8233
 154   2.0000      -0.687491       -18.7076
 155   2.0000      -0.671251       -18.2657
 156   2.0000      -0.667896       -18.1744
 157   2.0000      -0.666614       -18.1395
 158   2.0000      -0.659969       -17.9587
 159   2.0000      -0.657678       -17.8963
 160   2.0000      -0.651380       -17.7249
 161   2.0000      -0.646154       -17.5828
 162   2.0000      -0.643283       -17.5046
 163   2.0000      -0.637853       -17.3569
 164   2.0000      -0.634203       -17.2576
 165   2.0000      -0.632437       -17.2095
 166   2.0000      -0.629482       -17.1291
 167   2.0000      -0.625113       -17.0102
 168   2.0000      -0.621357       -16.9080
 169   2.0000      -0.618312       -16.8251
 170   2.0000      -0.613130       -16.6841
 171   2.0000      -0.609177       -16.5766
 172   2.0000      -0.602163       -16.3857
 173   2.0000      -0.597090       -16.2476
 174   2.0000      -0.594515       -16.1776
 175   2.0000      -0.581402       -15.8208
 176   2.0000      -0.578358       -15.7379
 177   2.0000      -0.575245       -15.6532
 178   2.0000      -0.571364       -15.5476
 179   2.0000      -0.570557       -15.5257
 180   2.0000      -0.570219       -15.5165
 181   2.0000      -0.565971       -15.4009
 182   2.0000      -0.562935       -15.3182
 183   2.0000      -0.550807       -14.9882
 184   2.0000      -0.548378       -14.9221
 185   2.0000      -0.540640       -14.7116
 186   2.0000      -0.535144       -14.5620
 187   2.0000      -0.534618       -14.5477
 188   2.0000      -0.531483       -14.4624
 189   2.0000      -0.522604       -14.2208
 190   2.0000      -0.521129       -14.1806
 191   2.0000      -0.518093       -14.0980
 192   2.0000      -0.515064       -14.0156
 193   2.0000      -0.514860       -14.0100
 194   2.0000      -0.510575       -13.8934
 195   2.0000      -0.508742       -13.8436
 196   2.0000      -0.508088       -13.8258
 197   2.0000      -0.504311       -13.7230
 198   2.0000      -0.501551       -13.6479
 199   2.0000      -0.498677       -13.5697
 200   2.0000      -0.497356       -13.5337
 201   2.0000      -0.495512       -13.4836
 202   2.0000      -0.493565       -13.4306
 203   2.0000      -0.492367       -13.3980
 204   2.0000      -0.489926       -13.3316
 205   2.0000      -0.483698       -13.1621
 206   2.0000      -0.482785       -13.1373
 207   2.0000      -0.481687       -13.1074
 208   2.0000      -0.479334       -13.0433
 209   2.0000      -0.476003       -12.9527
 210   2.0000      -0.472781       -12.8650
 211   2.0000      -0.469562       -12.7774
 212   2.0000      -0.466761       -12.7012
 213   2.0000      -0.464975       -12.6526
 214   2.0000      -0.463645       -12.6164
 215   2.0000      -0.461344       -12.5538
 216   2.0000      -0.460058       -12.5188
 217   2.0000      -0.453433       -12.3385
 218   2.0000      -0.450271       -12.2525
 219   2.0000      -0.446154       -12.1405
 220   2.0000      -0.443415       -12.0659
 221   2.0000      -0.442773       -12.0485
 222   2.0000      -0.440005       -11.9731
 223   2.0000      -0.435044       -11.8382
 224   2.0000      -0.434661       -11.8277
 225   2.0000      -0.432079       -11.7575
 226   2.0000      -0.429665       -11.6918
 227   2.0000      -0.423235       -11.5168
 228   2.0000      -0.421595       -11.4722
 229   2.0000      -0.419932       -11.4269
 230   2.0000      -0.419211       -11.4073
 231   2.0000      -0.416475       -11.3329
 232   2.0000      -0.414028       -11.2663
 233   2.0000      -0.411466       -11.1966
 234   2.0000      -0.403053       -10.9676
 235   2.0000      -0.396459       -10.7882
 236   2.0000      -0.394868       -10.7449
 237   2.0000      -0.392837       -10.6896
 238   2.0000      -0.390739       -10.6325
 239   2.0000      -0.380171       -10.3450
 240   2.0000      -0.379749       -10.3335
 241   2.0000      -0.376864       -10.2550
 242   2.0000      -0.375604       -10.2207
 243   2.0000      -0.368751       -10.0342
 244   2.0000      -0.364520        -9.9191
 245   2.0000      -0.361524        -9.8376
 246   2.0000      -0.357703        -9.7336
 247   2.0000      -0.356717        -9.7068
 248   2.0000      -0.354094        -9.6354
 249   2.0000      -0.350063        -9.5257
 250   2.0000      -0.346736        -9.4352
 251   2.0000      -0.345670        -9.4062
 252   2.0000      -0.341730        -9.2989
 253   2.0000      -0.334933        -9.1140
 254   2.0000      -0.331339        -9.0162
 255   2.0000      -0.324059        -8.8181
 256   2.0000      -0.318725        -8.6729
 257   2.0000      -0.309093        -8.4108
 258   2.0000      -0.302550        -8.2328
 259   2.0000      -0.289807        -7.8861
 260   2.0000      -0.286969        -7.8088
 261   2.0000      -0.269613        -7.3365
 262   2.0000      -0.263099        -7.1593
 263   2.0000      -0.228652        -6.2219
 264   2.0000      -0.193791        -5.2733
 265   0.0000      -0.123869        -3.3707
 266   0.0000      -0.090588        -2.4650
 267   0.0000      -0.076714        -2.0875
 268   0.0000      -0.050918        -1.3855
 269   0.0000      -0.042117        -1.1461

MULLIKEN ATOMIC CHARGES
-----------------------
   0 C :    0.329939
   1 C :   -0.370482
   2 C :   -0.187403
   3 N :    0.121082
   4 C :   -0.198214
   5 N :    0.133708
   6 C :    0.012792
   7 C :   -0.006283
   8 C :   -0.083694
   9 C :    0.119516
  10 C :   -0.093131
  11 C :   -0.027808
  12 S :    0.171884
  13 C :   -0.125271
  14 C :    0.037652
  15 Br:    0.004926
  16 C :    0.135399
  17 O :   -0.172118
  18 C :   -0.102487
  19 C :   -0.038957
  20 C :   -0.027336
  21 C :    0.002509
  22 C :    0.019325
  23 C :    0.036586
  24 C :   -0.060228
  25 S :    0.126847
  26 C :   -0.022998
  27 C :    0.018114
  28 C :    0.041641
  29 C :   -0.059884
  30 S :    0.147864
  31 C :    0.054098
  32 C :   -0.187835
  33 S :    0.130197
  34 C :   -0.112502
  35 C :    0.113710
  36 C :    0.177055
  37 O :   -0.173968
  38 C :    0.233403
  39 N :    0.279803
  40 O :   -0.251064
  41 O :   -0.228178
  42 C :   -0.097944
  43 C :    0.006872
  44 C :   -0.028059
  45 C :    0.021665
  46 C :    0.036902
  47 C :   -0.057271
  48 S :    0.104054
  49 C :   -0.022724
  50 C :    0.017516
  51 C :    0.043418
  52 C :   -0.050625
  53 S :    0.086919
  54 C :    0.057619
  55 C :   -0.126848
  56 S :    0.173483
  57 C :   -0.047017
  58 C :   -0.013405
  59 C :    0.004931
  60 C :    0.162680
  61 O :   -0.100947
  62 C :   -0.050051
  63 C :   -0.024090
  64 C :    0.012396
  65 C :   -0.000382
  66 H :   -0.020352
  67 H :   -0.013415
  68 H :   -0.010244
  69 H :    0.016868
  70 H :    0.012343
  71 H :   -0.006722
  72 H :   -0.011624
  73 H :   -0.012395
  74 H :   -0.009683
  75 H :   -0.009410
  76 H :    0.013638
  77 H :   -0.009819
  78 H :   -0.008195
  79 H :   -0.008248
  80 H :   -0.007608
  81 H :   -0.004770
  82 H :   -0.005876
  83 H :    0.015046
  84 H :   -0.004670
  85 H :    0.009057
  86 H :    0.014480
  87 H :    0.034296
Sum of atomic charges:   -0.0000000

LOEWDIN ATOMIC CHARGES
----------------------
   0 C :    0.070622
   1 C :   -0.164383
   2 C :   -0.018281
   3 N :   -0.080462
   4 C :   -0.022133
   5 N :   -0.073082
   6 C :   -0.015136
   7 C :   -0.047138
   8 C :    0.013535
   9 C :   -0.038982
  10 C :   -0.147206
  11 C :   -0.016901
  12 S :    0.421565
  13 C :   -0.278303
  14 C :   -0.071141
  15 Br:    0.122498
  16 C :    0.079542
  17 O :   -0.165571
  18 C :   -0.116739
  19 C :    0.043257
  20 C :   -0.075803
  21 C :   -0.108119
  22 C :   -0.050890
  23 C :   -0.014921
  24 C :   -0.199476
  25 S :    0.428075
  26 C :   -0.151095
  27 C :   -0.048599
  28 C :   -0.018711
  29 C :   -0.170244
  30 S :    0.441953
  31 C :   -0.045345
  32 C :   -0.207870
  33 S :    0.429142
  34 C :   -0.137406
  35 C :   -0.086625
  36 C :    0.030125
  37 O :    0.020352
  38 C :    0.020344
  39 N :    0.272515
  40 O :   -0.211603
  41 O :   -0.190898
  42 C :   -0.015142
  43 C :   -0.096188
  44 C :   -0.138591
  45 C :   -0.043960
  46 C :   -0.024126
  47 C :   -0.193231
  48 S :    0.422399
  49 C :   -0.156959
  50 C :   -0.046792
  51 C :   -0.015560
  52 C :   -0.162673
  53 S :    0.409942
  54 C :   -0.046780
  55 C :   -0.175213
  56 S :    0.467132
  57 C :   -0.163273
  58 C :   -0.097704
  59 C :   -0.013078
  60 C :    0.098117
  61 O :   -0.092104
  62 C :   -0.048718
  63 C :    0.003422
  64 C :   -0.025593
  65 C :   -0.015948
  66 H :    0.036932
  67 H :    0.038997
  68 H :    0.036034
  69 H :    0.031240
  70 H :    0.036670
  71 H :    0.035791
  72 H :    0.032440
  73 H :    0.032054
  74 H :    0.034194
  75 H :    0.039350
  76 H :    0.029590
  77 H :    0.037222
  78 H :    0.035014
  79 H :    0.034451
  80 H :    0.034292
  81 H :    0.036622
  82 H :    0.038187
  83 H :    0.029255
  84 H :    0.033093
  85 H :    0.037948
  86 H :    0.020645
  87 H :    0.030139

  Mayer bond orders larger than 0.100000
B(  0-C ,  1-C ) :   1.5597 B(  0-C ,  6-C ) :   0.9814 B(  0-C , 18-C ) :   1.1390
B(  1-C ,  2-C ) :   1.1538 B(  1-C ,  4-C ) :   1.1573 B(  2-C ,  3-N ) :   2.9562
B(  4-C ,  5-N ) :   2.9670 B(  6-C ,  7-C ) :   1.2836 B(  6-C , 11-C ) :   1.4242
B(  7-C ,  8-C ) :   1.4352 B(  7-C , 16-C ) :   0.9305 B(  8-C ,  9-C ) :   1.2330
B(  8-C , 66-H ) :   1.0159 B(  9-C , 10-C ) :   1.3245 B(  9-C , 14-C ) :   1.1582
B( 10-C , 11-C ) :   1.3147 B( 10-C , 12-S ) :   1.0792 B( 11-C , 67-H ) :   0.9792
B( 12-S , 13-C ) :   1.0845 B( 13-C , 14-C ) :   1.6221 B( 13-C , 15-Br) :   1.0076
B( 14-C , 68-H ) :   1.0003 B( 16-C , 17-O ) :   2.1773 B( 16-C , 18-C ) :   0.9789
B( 18-C , 19-C ) :   1.4241 B( 19-C , 20-C ) :   1.3167 B( 19-C , 69-H ) :   0.9453
B( 20-C , 21-C ) :   1.3542 B( 20-C , 70-H ) :   0.9782 B( 21-C , 22-C ) :   1.2250
B( 21-C , 25-S ) :   1.1009 B( 22-C , 23-C ) :   1.4818 B( 22-C , 71-H ) :   1.0021
B( 23-C , 24-C ) :   1.2719 B( 23-C , 72-H ) :   0.9953 B( 24-C , 25-S ) :   1.0648
B( 24-C , 26-C ) :   1.3726 B( 26-C , 27-C ) :   1.2495 B( 26-C , 30-S ) :   1.1064
B( 27-C , 28-C ) :   1.5098 B( 27-C , 73-H ) :   0.9950 B( 28-C , 29-C ) :   1.2132
B( 28-C , 74-H ) :   1.0001 B( 29-C , 30-S ) :   1.0584 B( 29-C , 31-C ) :   1.4681
B( 31-C , 32-C ) :   1.2907 B( 31-C , 75-H ) :   0.9454 B( 32-C , 33-S ) :   1.0553
B( 32-C , 36-C ) :   1.3186 B( 33-S , 34-C ) :   1.1147 B( 34-C , 35-C ) :   1.2176
B( 34-C , 43-C ) :   1.3484 B( 35-C , 36-C ) :   1.2990 B( 35-C , 42-C ) :   1.1293
B( 36-C , 37-O ) :   1.1428 B( 37-O , 38-C ) :   1.1088 B( 38-C , 39-N ) :   0.9261
B( 38-C , 42-C ) :   1.5453 B( 39-N , 40-O ) :   1.5204 B( 39-N , 41-O ) :   1.5076
B( 40-O , 41-O ) :   0.2783 B( 42-C , 76-H ) :   1.0067 B( 43-C , 44-C ) :   1.4281
B( 43-C , 77-H ) :   0.9406 B( 44-C , 45-C ) :   1.2368 B( 44-C , 48-S ) :   1.0772
B( 45-C , 46-C ) :   1.4877 B( 45-C , 78-H ) :   1.0005 B( 46-C , 47-C ) :   1.2689
B( 46-C , 79-H ) :   0.9939 B( 47-C , 48-S ) :   1.0622 B( 47-C , 49-C ) :   1.3854
B( 49-C , 50-C ) :   1.2502 B( 49-C , 53-S ) :   1.0808 B( 50-C , 51-C ) :   1.5205
B( 50-C , 80-H ) :   0.9950 B( 51-C , 52-C ) :   1.1970 B( 51-C , 81-H ) :   0.9995
B( 52-C , 53-S ) :   1.0429 B( 52-C , 54-C ) :   1.5276 B( 54-C , 55-C ) :   1.2366
B( 54-C , 82-H ) :   0.9497 B( 55-C , 56-S ) :   1.0893 B( 55-C , 59-C ) :   1.3528
B( 56-S , 57-C ) :   1.1485 B( 57-C , 58-C ) :   1.4109 B( 57-C , 63-C ) :   1.0802
B( 58-C , 59-C ) :   1.3995 B( 58-C , 60-C ) :   0.9041 B( 59-C , 83-H ) :   0.9810
B( 60-C , 61-O ) :   2.2830 B( 60-C , 62-C ) :   0.9305 B( 62-C , 63-C ) :   1.6280
B( 62-C , 64-C ) :   1.1270 B( 63-C , 84-H ) :   1.0153 B( 64-C , 65-C ) :   1.8924
B( 64-C , 85-H ) :   0.9593 B( 65-C , 86-H ) :   0.9541 B( 65-C , 87-H ) :   0.9511

-----------------------------------------------------------------------------
         ABSORPTION SPECTRUM VIA TRANSITION ELECTRIC DIPOLE MOMENTS
-----------------------------------------------------------------------------
State   Energy  Wavelength   fosc         T2         TX        TY        TZ
        (cm-1)    (nm)                  (au**2)     (au)      (au)      (au)
-----------------------------------------------------------------------------
   0    4243.1   2356.8   0.463214662  35.93979   0.80813   2.37604  -5.44437
   1    9897.5   1010.4   0.062574729   2.08137   0.85734   0.47701  -1.05773
   2   11679.0    856.2   0.793308176  22.36201   4.69443   0.21164   0.52870
   3   12774.0    782.8   0.258111871   6.65205   2.27276  -1.21256  -0.12772
   4   17157.4    582.8   0.356673777   6.84376  -2.17195   1.22805  -0.78632
   5   18222.2    548.8   0.220325058   3.98052   1.28335   1.45133   0.47660
   6   18661.5    535.9   0.123532493   2.17927  -0.32566   1.41995  -0.23862
   7   20004.2    499.9   0.445205703   7.32683  -0.68324  -2.61774  -0.08632
   8   20577.7    486.0   0.134831861   2.15710   0.64191  -1.32097  -0.00941
   9   21822.6    458.2   0.046615458   0.70323  -0.42846  -0.61547   0.37531
  10   22486.8    444.7   0.197243079   2.88768   0.37066  -1.60231  -0.42764
  11   24180.0    413.6   0.151622503   2.06435   0.36524  -1.29983  -0.49133
  12   24629.9    406.0   0.258677018   3.45756  -1.59968  -0.94445   0.08123
  13   25623.5    390.3   0.079329474   1.01923   0.58188   0.82329  -0.05324
  14   25952.6    385.3   0.000462209   0.00586   0.01964   0.06207   0.04031
  15   26024.7    384.3   0.000149976   0.00190  -0.03940  -0.01091   0.01503
  16   26549.1    376.7   0.005991375   0.07429  -0.03752  -0.20870   0.17126
  17   26828.0    372.7   0.001139594   0.01398  -0.01394  -0.04324  -0.10918
  18   27434.4    364.5   0.023128818   0.27754   0.00303   0.01833   0.52650
  19   28037.0    356.7   0.177151239   2.08012   1.43420   0.09622   0.11806
  20   28284.7    353.5   0.050912416   0.59258  -0.59404   0.48436   0.07138
  21   28662.9    348.9   0.018197460   0.20901  -0.09900  -0.21240   0.39255
  22   29154.8    343.0   0.167859865   1.89545  -1.35166   0.04396   0.25796
  23   29536.2    338.6   0.031446816   0.35051   0.58164  -0.10324   0.03936
  24   30345.1    329.5   0.023784341   0.25803  -0.46327  -0.08059   0.19215
  25   30837.5    324.3   0.020164092   0.21527   0.45089  -0.07482  -0.07981
  26   31343.9    319.0   0.107170437   1.12563  -0.95210  -0.21054   0.41810
  27   31834.1    314.1   0.130445605   1.34900  -1.00290   0.06353   0.58237
  28   31850.5    314.0   0.047432043   0.49027  -0.18984   0.67358   0.02280
  29   32122.4    311.3   0.017249230   0.17678  -0.33387  -0.25521  -0.01346
  30   32213.9    310.4   0.004888425   0.04996  -0.02055  -0.21787   0.04547
  31   32248.5    310.1   0.034910167   0.35638   0.48745  -0.34368  -0.02557
  32   32393.6    308.7   0.006487245   0.06593  -0.05388  -0.24949  -0.02792
  33   32775.2    305.1   0.003438643   0.03454  -0.06166  -0.02268  -0.17385
  34   32966.9    303.3   0.009557383   0.09544  -0.23485   0.19655   0.04069
  35   33176.6    301.4   0.096885707   0.96140  -0.89164  -0.15750   0.37625
  36   33618.0    297.5   0.016598030   0.16254   0.19324   0.34966   0.05417
  37   34095.9    293.3   0.256978384   2.48125  -1.22498  -0.43146   0.89135
  38   34311.4    291.4   0.001740044   0.01670   0.10357   0.07723   0.00189
  39   34687.9    288.3   0.079117409   0.75088  -0.86192  -0.08150   0.03642
  40   34815.4    287.2   0.022485922   0.21263  -0.17908   0.27679  -0.32240
  41   34859.6    286.9   0.036596618   0.34562   0.33903   0.33981  -0.33942
  42   35095.5    284.9   0.017934299   0.16823  -0.32288  -0.20566   0.14727
  43   35167.5    284.4   0.053041215   0.49653  -0.34744   0.57981  -0.19908
  44   35228.9    283.9   0.014840276   0.13868  -0.00614  -0.36071   0.09237
  45   35501.5    281.7   0.000158078   0.00147  -0.03076  -0.01107   0.01994
  46   35759.2    279.6   0.041652440   0.38347  -0.02686   0.48704  -0.38149
  47   36103.1    277.0   0.063291846   0.57714  -0.49515  -0.50831   0.27126
  48   36216.7    276.1   0.061995497   0.56354  -0.34116  -0.65468   0.13621
  49   36567.2    273.5   0.049309217   0.44393   0.24717   0.61750  -0.03913
  50   36724.6    272.3   0.110626250   0.99169  -0.66465  -0.72707   0.14597
  51   36913.3    270.9   0.032346407   0.28848   0.39874   0.22243  -0.28287
  52   37093.7    269.6   0.039728652   0.35260   0.48743  -0.33849   0.02096
  53   37645.9    265.6   0.009301260   0.08134  -0.13104   0.07147   0.24302
  54   38011.3    263.1   0.015452910   0.13384  -0.15273   0.04455   0.32943
  55   38085.7    262.6   0.006643348   0.05743  -0.19259  -0.08376   0.11540
  56   38421.4    260.3   0.012035590   0.10313  -0.15724  -0.25867   0.10721
  57   38624.9    258.9   0.004409586   0.03758  -0.17261  -0.06749  -0.05687
  58   38848.2    257.4   0.008176697   0.06929  -0.22909   0.12088  -0.04687
  59   38974.1    256.6   0.017280252   0.14597   0.32703  -0.17374   0.09398
  60   39234.3    254.9   0.011845463   0.09939  -0.14187   0.28080   0.02044
  61   39625.2    252.4   0.107730898   0.89504   0.27968   0.86098  -0.27484
  62   39653.7    252.2   0.147571891   1.22517  -0.27767   1.04109  -0.25337
  63   39894.5    250.7   0.123335199   1.01777   0.87185   0.50758   0.00308
  64   40149.3    249.1   0.020134120   0.16509  -0.39937   0.02206   0.07149
  65   40291.5    248.2   0.124586496   1.01796   0.65921  -0.75076   0.14059

FINAL SINGLE POINT ENERGY     -7816.018984817619

DIPOLE MOMENT
-------------
                                X             Y             Z
Electronic contribution:    113.63427      -1.86576    -113.22082
Nuclear contribution   :   -117.59919       0.59773     118.65291
                        -----------------------------------------
Total Dipole Moment    :     -3.96493      -1.26802       5.43210
                        -----------------------------------------
Magnitude (a.u.)       :      6.84370
Magnitude (Debye)      :     17.39530

Rotational constants in cm-1:     0.000786     0.000302     0.000247
Rotational constants in MHz :    23.551358     9.045462     7.417498

                             ****ORCA TERMINATED NORMALLY****
TOTAL RUN TIME: 0 days 0 hours 9 minutes 11 seconds 451 msec
