                         Program Version 4.2.0 -  RELEASE  -
|  1> # ORCA input file
|  2> # SCF done       -181.978888196692          0.000752859423
|  3> ! CAM-B3LYP def2-SVP def2/J RIJCOSX Grid4 TightSCF
|  4> %maxcore 5000
|  5> %tddft
|  6>     Mode sTDDFT
|  7>     Ethresh 5.0
|  8>     maxcore 5000
|  9> end
| 10>
| 11> %pal
| 12>   nprocs 6
| 13>   end
| 14> * xyz 0 1
| 15>    C       -8.99818        -1.27691        -0.56485
| 16>    C       -8.28939        -2.40711        -0.88024
| 17>    C       -8.68218        -3.71272        -0.51869
| 18>    N       -8.95559        -4.79668        -0.25809
| 19>    C       -7.06466        -2.42245        -1.58088
| 20>    N       -6.05965        -2.51280        -2.12816
| 21>    C      -10.21503        -1.23068         0.23596
| 22>    C      -10.58104         0.12403         0.42945
| 23>    C      -11.68546         0.49683         1.15673
| 24>    C      -12.46288        -0.51499         1.72869
| 25>    C      -12.09221        -1.86656         1.52678
| 26>    C      -10.97877        -2.24367         0.78587
| 27>    S      -13.19230        -2.95513         2.31482
| 28>    C      -14.12117        -1.60028         2.89924
| 29>    C      -13.63458        -0.39319         2.52438
| 30>   Br      -15.64361        -1.90511         3.95008
| 31>    C       -9.61884         1.00128        -0.25809
| 32>    O       -9.71389         2.20309        -0.38316
| 33>    C       -8.62081         0.08723        -0.88012
| 34>    C       -7.64350         0.48481        -1.74453
| 35>    C       -7.16732         1.81601        -1.82796
| 36>    O       -6.60956         2.27667        -2.97930
| 37>    C       -7.07847         2.81604        -0.87563
| 38>    C       -7.28953         3.12253         0.54763
| 39>    O       -7.67634         2.44787         1.46382
| 40>    N       -6.88115         4.44924         0.65198
| 41>    C       -6.39939         5.01608        -0.52778
| 42>    O       -6.04969         6.16496        -0.63592
| 43>    C       -6.48334         3.92933        -1.50178
| 44>    C       -6.22016         3.56026        -2.81954
| 45>    C       -5.67761         4.28557        -3.90858
| 46>    C       -5.42518         5.61393        -3.80023
| 47>    C       -4.94806         6.43988        -4.84436
| 48>    O       -4.90154         7.77443        -4.60213
| 49>    C       -4.49241         6.22772        -6.13475
| 50>    C       -4.23386         5.19873        -7.14914
| 51>    O       -4.38200         4.00420        -7.11523
| 52>    N       -3.75564         5.92294        -8.23382
| 53>    C       -3.67863         7.30707        -8.04280
| 54>    O       -3.29110         8.09306        -8.86772
| 55>    C       -4.16053         7.49240        -6.67483
| 56>    C       -4.44753         8.43992        -5.69693
| 57>    C       -4.41400         9.85191        -5.65871
| 58>    C       -4.98640        10.48080        -4.58639
| 59>    C       -5.12524        11.84472        -4.31669
| 60>    C       -5.86347        12.25185        -3.22187
| 61>    C       -6.12306        13.55723        -2.74133
| 62>    C       -6.92148        13.59810        -1.63308
| 63>    C       -7.34310        12.32545        -1.19306
| 64>    S       -6.67701        11.07555        -2.20981
| 65>    C       -8.17682        11.95406        -0.15083
| 66>    C       -8.83303        12.73573         0.82469
| 67>    C       -9.58415        12.00262         1.69319
| 68>    C       -9.57265        10.60366         1.44009
| 69>    S       -8.55224        10.26234         0.05982
| 70>    C      -10.23084         9.64908         2.17341
| 71>    C      -10.28018         8.26290         1.91933
| 72>    S      -10.96566         7.18596         3.13267
| 73>    C      -10.71950         5.76382         2.20618
| 74>    C      -10.14137         6.07492         0.99843
| 75>    C       -9.89459         7.47623         0.84476
| 76>    O       -9.36114         7.72530        -0.36862
| 77>    C       -9.24801         6.51415        -0.97703
| 78>    N       -8.68410         6.48931        -2.27281
| 79>    O       -8.55344         5.38825        -2.78224
| 80>    O       -8.36914         7.53876        -2.78694
| 81>    C       -9.70313         5.47246        -0.21410
| 82>    H      -11.93801         1.53758         1.28463
| 83>    H      -10.74220        -3.28650         0.65632
| 84>    H      -14.08300         0.54466         2.79688
| 85>    H       -7.18731        -0.22104        -2.42598
| 86>    H       -6.90301         4.95727         1.52463
| 87>    H       -5.51458         3.75358        -4.83503
| 88>    H       -5.62144         6.13421        -2.87214
| 89>    H       -3.48816         5.48477        -9.10371
| 90>    H       -3.98098        10.37391        -6.49664
| 91>    H       -5.42458         9.82077        -3.84620
| 92>    H       -4.67392        12.58735        -4.95867
| 93>    H       -5.71351        14.42674        -3.22486
| 94>    H       -7.22048        14.50282        -1.13388
| 95>    H       -8.73225        13.80580         0.86127
| 96>    H      -10.15499        12.41745         2.50519
| 97>    H      -10.76133         9.98232         3.05530
| 98>    H      -11.00170         4.80697         2.59255
| 99>    H       -9.73026         4.43504        -0.48286
|100> *
|101>
|102>                          ****END OF INPUT****

CARTESIAN COORDINATES (ANGSTROEM)
---------------------------------
  C     -8.998180   -1.276910   -0.564850
  C     -8.289390   -2.407110   -0.880240
  C     -8.682180   -3.712720   -0.518690
  N     -8.955590   -4.796680   -0.258090
  C     -7.064660   -2.422450   -1.580880
  N     -6.059650   -2.512800   -2.128160
  C    -10.215030   -1.230680    0.235960
  C    -10.581040    0.124030    0.429450
  C    -11.685460    0.496830    1.156730
  C    -12.462880   -0.514990    1.728690
  C    -12.092210   -1.866560    1.526780
  C    -10.978770   -2.243670    0.785870
  S    -13.192300   -2.955130    2.314820
  C    -14.121170   -1.600280    2.899240
  C    -13.634580   -0.393190    2.524380
  Br   -15.643610   -1.905110    3.950080
  C     -9.618840    1.001280   -0.258090
  O     -9.713890    2.203090   -0.383160
  C     -8.620810    0.087230   -0.880120
  C     -7.643500    0.484810   -1.744530
  C     -7.167320    1.816010   -1.827960
  O     -6.609560    2.276670   -2.979300
  C     -7.078470    2.816040   -0.875630
  C     -7.289530    3.122530    0.547630
  O     -7.676340    2.447870    1.463820
  N     -6.881150    4.449240    0.651980
  C     -6.399390    5.016080   -0.527780
  O     -6.049690    6.164960   -0.635920
  C     -6.483340    3.929330   -1.501780
  C     -6.220160    3.560260   -2.819540
  C     -5.677610    4.285570   -3.908580
  C     -5.425180    5.613930   -3.800230
  C     -4.948060    6.439880   -4.844360
  O     -4.901540    7.774430   -4.602130
  C     -4.492410    6.227720   -6.134750
  C     -4.233860    5.198730   -7.149140
  O     -4.382000    4.004200   -7.115230
  N     -3.755640    5.922940   -8.233820
  C     -3.678630    7.307070   -8.042800
  O     -3.291100    8.093060   -8.867720
  C     -4.160530    7.492400   -6.674830
  C     -4.447530    8.439920   -5.696930
  C     -4.414000    9.851910   -5.658710
  C     -4.986400   10.480800   -4.586390
  C     -5.125240   11.844720   -4.316690
  C     -5.863470   12.251850   -3.221870
  C     -6.123060   13.557230   -2.741330
  C     -6.921480   13.598100   -1.633080
  C     -7.343100   12.325450   -1.193060
  S     -6.677010   11.075550   -2.209810
  C     -8.176820   11.954060   -0.150830
  C     -8.833030   12.735730    0.824690
  C     -9.584150   12.002620    1.693190
  C     -9.572650   10.603660    1.440090
  S     -8.552240   10.262340    0.059820
  C    -10.230840    9.649080    2.173410
  C    -10.280180    8.262900    1.919330
  S    -10.965660    7.185960    3.132670
  C    -10.719500    5.763820    2.206180
  C    -10.141370    6.074920    0.998430
  C     -9.894590    7.476230    0.844760
  O     -9.361140    7.725300   -0.368620
  C     -9.248010    6.514150   -0.977030
  N     -8.684100    6.489310   -2.272810
  O     -8.553440    5.388250   -2.782240
  O     -8.369140    7.538760   -2.786940
  C     -9.703130    5.472460   -0.214100
  H    -11.938010    1.537580    1.284630
  H    -10.742200   -3.286500    0.656320
  H    -14.083000    0.544660    2.796880
  H     -7.187310   -0.221040   -2.425980
  H     -6.903010    4.957270    1.524630
  H     -5.514580    3.753580   -4.835030
  H     -5.621440    6.134210   -2.872140
  H     -3.488160    5.484770   -9.103710
  H     -3.980980   10.373910   -6.496640
  H     -5.424580    9.820770   -3.846200
  H     -4.673920   12.587350   -4.958670
  H     -5.713510   14.426740   -3.224860
  H     -7.220480   14.502820   -1.133880
  H     -8.732250   13.805800    0.861270
  H    -10.154990   12.417450    2.505190
  H    -10.761330    9.982320    3.055300
  H    -11.001700    4.806970    2.592550
  H     -9.730260    4.435040   -0.482860

 Total Charge           Charge          ....    0
 Multiplicity           Mult            ....    1
 Number of Electrons    NEL             ....  514
 Basis Dimension        Dim             .... 1062

ORBITAL ENERGIES
----------------

  NO   OCC          E(Eh)            E(eV)
   0   2.0000    -482.889440    -13140.0897
   1   2.0000     -88.981823     -2421.3185
   2   2.0000     -88.979721     -2421.2613
   3   2.0000     -88.946230     -2420.3500
   4   2.0000     -88.944693     -2420.3081
   5   2.0000     -62.567165     -1702.5391
   6   2.0000     -56.401119     -1534.7525
   7   2.0000     -56.398395     -1534.6783
   8   2.0000     -56.398363     -1534.6775
   9   2.0000     -19.315782      -525.6092
  10   2.0000     -19.310811      -525.4739
  11   2.0000     -19.298917      -525.1502
  12   2.0000     -19.250838      -523.8419
  13   2.0000     -19.247978      -523.7641
  14   2.0000     -19.225492      -523.1522
  15   2.0000     -19.221748      -523.0504
  16   2.0000     -19.219949      -523.0014
  17   2.0000     -19.206280      -522.6294
  18   2.0000     -19.200558      -522.4737
  19   2.0000     -14.660283      -398.9266
  20   2.0000     -14.461103      -393.5066
  21   2.0000     -14.446293      -393.1036
  22   2.0000     -14.418056      -392.3353
  23   2.0000     -14.417400      -392.3174
  24   2.0000     -10.407754      -283.2094
  25   2.0000     -10.407149      -283.1929
  26   2.0000     -10.393952      -282.8338
  27   2.0000     -10.390303      -282.7345
  28   2.0000     -10.389295      -282.7071
  29   2.0000     -10.376963      -282.3715
  30   2.0000     -10.370913      -282.2069
  31   2.0000     -10.363147      -281.9956
  32   2.0000     -10.361566      -281.9525
  33   2.0000     -10.355125      -281.7773
  34   2.0000     -10.354167      -281.7512
  35   2.0000     -10.351829      -281.6876
  36   2.0000     -10.346484      -281.5421
  37   2.0000     -10.344702      -281.4936
  38   2.0000     -10.330247      -281.1003
  39   2.0000     -10.326936      -281.0102
  40   2.0000     -10.326075      -280.9868
  41   2.0000     -10.320504      -280.8352
  42   2.0000     -10.320045      -280.8227
  43   2.0000     -10.319603      -280.8107
  44   2.0000     -10.316850      -280.7357
  45   2.0000     -10.316290      -280.7205
  46   2.0000     -10.314438      -280.6701
  47   2.0000     -10.312811      -280.6259
  48   2.0000     -10.312614      -280.6205
  49   2.0000     -10.312319      -280.6125
  50   2.0000     -10.311160      -280.5809
  51   2.0000     -10.309620      -280.5390
  52   2.0000     -10.308111      -280.4980
  53   2.0000     -10.306713      -280.4599
  54   2.0000     -10.304426      -280.3977
  55   2.0000     -10.303436      -280.3707
  56   2.0000     -10.301130      -280.3080
  57   2.0000     -10.300871      -280.3009
  58   2.0000     -10.297686      -280.2143
  59   2.0000     -10.297383      -280.2060
  60   2.0000     -10.296375      -280.1786
  61   2.0000     -10.294669      -280.1322
  62   2.0000     -10.293887      -280.1109
  63   2.0000     -10.293318      -280.0954
  64   2.0000     -10.291366      -280.0423
  65   2.0000     -10.288755      -279.9713
  66   2.0000     -10.287107      -279.9264
  67   2.0000     -10.283636      -279.8320
  68   2.0000     -10.280886      -279.7571
  69   2.0000     -10.280109      -279.7360
  70   2.0000     -10.278981      -279.7053
  71   2.0000      -8.796606      -239.3678
  72   2.0000      -8.076950      -219.7850
  73   2.0000      -8.075733      -219.7519
  74   2.0000      -8.042650      -218.8516
  75   2.0000      -8.041207      -218.8124
  76   2.0000      -6.632932      -180.4913
  77   2.0000      -6.618325      -180.0938
  78   2.0000      -6.618125      -180.0883
  79   2.0000      -6.046277      -164.5276
  80   2.0000      -6.045424      -164.5044
  81   2.0000      -6.041973      -164.4105
  82   2.0000      -6.041124      -164.3873
  83   2.0000      -6.039228      -164.3357
  84   2.0000      -6.036962      -164.2741
  85   2.0000      -6.012399      -163.6057
  86   2.0000      -6.010914      -163.5653
  87   2.0000      -6.008172      -163.4907
  88   2.0000      -6.006784      -163.4529
  89   2.0000      -6.003433      -163.3617
  90   2.0000      -6.002126      -163.3262
  91   2.0000      -2.748781       -74.7981
  92   2.0000      -2.744719       -74.6876
  93   2.0000      -2.744545       -74.6829
  94   2.0000      -2.732944       -74.3672
  95   2.0000      -2.732931       -74.3668
  96   2.0000      -1.332088       -36.2480
  97   2.0000      -1.233613       -33.5683
  98   2.0000      -1.233255       -33.5586
  99   2.0000      -1.219000       -33.1707
 100   2.0000      -1.164990       -31.7010
 101   2.0000      -1.148256       -31.2456
 102   2.0000      -1.147752       -31.2319
 103   2.0000      -1.146219       -31.1902
 104   2.0000      -1.138888       -30.9907
 105   2.0000      -1.126875       -30.6638
 106   2.0000      -1.050194       -28.5772
 107   2.0000      -1.034535       -28.1511
 108   2.0000      -1.027093       -27.9486
 109   2.0000      -1.016499       -27.6603
 110   2.0000      -1.004783       -27.3415
 111   2.0000      -0.999336       -27.1933
 112   2.0000      -0.996237       -27.1090
 113   2.0000      -0.993977       -27.0475
 114   2.0000      -0.978816       -26.6349
 115   2.0000      -0.950476       -25.8638
 116   2.0000      -0.939489       -25.5648
 117   2.0000      -0.938067       -25.5261
 118   2.0000      -0.930499       -25.3202
 119   2.0000      -0.922294       -25.0969
 120   2.0000      -0.913845       -24.8670
 121   2.0000      -0.912532       -24.8313
 122   2.0000      -0.906940       -24.6791
 123   2.0000      -0.901351       -24.5270
 124   2.0000      -0.890414       -24.2294
 125   2.0000      -0.888766       -24.1846
 126   2.0000      -0.880637       -23.9634
 127   2.0000      -0.868581       -23.6353
 128   2.0000      -0.857375       -23.3303
 129   2.0000      -0.842086       -22.9143
 130   2.0000      -0.833902       -22.6916
 131   2.0000      -0.831113       -22.6157
 132   2.0000      -0.822556       -22.3829
 133   2.0000      -0.810812       -22.0633
 134   2.0000      -0.797093       -21.6900
 135   2.0000      -0.785083       -21.3632
 136   2.0000      -0.778699       -21.1895
 137   2.0000      -0.771489       -20.9933
 138   2.0000      -0.767703       -20.8902
 139   2.0000      -0.764163       -20.7939
 140   2.0000      -0.758123       -20.6296
 141   2.0000      -0.756267       -20.5791
 142   2.0000      -0.743507       -20.2318
 143   2.0000      -0.720381       -19.6026
 144   2.0000      -0.712722       -19.3941
 145   2.0000      -0.709786       -19.3143
 146   2.0000      -0.707134       -19.2421
 147   2.0000      -0.696468       -18.9519
 148   2.0000      -0.694562       -18.9000
 149   2.0000      -0.689267       -18.7559
 150   2.0000      -0.674564       -18.3558
 151   2.0000      -0.673961       -18.3394
 152   2.0000      -0.665463       -18.1082
 153   2.0000      -0.659819       -17.9546
 154   2.0000      -0.656113       -17.8537
 155   2.0000      -0.647689       -17.6245
 156   2.0000      -0.636675       -17.3248
 157   2.0000      -0.632319       -17.2063
 158   2.0000      -0.630901       -17.1677
 159   2.0000      -0.625984       -17.0339
 160   2.0000      -0.622679       -16.9440
 161   2.0000      -0.620964       -16.8973
 162   2.0000      -0.616041       -16.7633
 163   2.0000      -0.613228       -16.6868
 164   2.0000      -0.607938       -16.5428
 165   2.0000      -0.602288       -16.3891
 166   2.0000      -0.599533       -16.3141
 167   2.0000      -0.596448       -16.2302
 168   2.0000      -0.589003       -16.0276
 169   2.0000      -0.587679       -15.9916
 170   2.0000      -0.585727       -15.9384
 171   2.0000      -0.579896       -15.7798
 172   2.0000      -0.579309       -15.7638
 173   2.0000      -0.575680       -15.6650
 174   2.0000      -0.573736       -15.6121
 175   2.0000      -0.570958       -15.5365
 176   2.0000      -0.562299       -15.3009
 177   2.0000      -0.558444       -15.1960
 178   2.0000      -0.555545       -15.1171
 179   2.0000      -0.552410       -15.0318
 180   2.0000      -0.550261       -14.9733
 181   2.0000      -0.545864       -14.8537
 182   2.0000      -0.542404       -14.7596
 183   2.0000      -0.539506       -14.6807
 184   2.0000      -0.538442       -14.6518
 185   2.0000      -0.534951       -14.5567
 186   2.0000      -0.532005       -14.4766
 187   2.0000      -0.530228       -14.4282
 188   2.0000      -0.527118       -14.3436
 189   2.0000      -0.524459       -14.2713
 190   2.0000      -0.523898       -14.2560
 191   2.0000      -0.517776       -14.0894
 192   2.0000      -0.513360       -13.9692
 193   2.0000      -0.510400       -13.8887
 194   2.0000      -0.509367       -13.8606
 195   2.0000      -0.508566       -13.8388
 196   2.0000      -0.503494       -13.7008
 197   2.0000      -0.502362       -13.6700
 198   2.0000      -0.499819       -13.6008
 199   2.0000      -0.498574       -13.5669
 200   2.0000      -0.495780       -13.4909
 201   2.0000      -0.490165       -13.3381
 202   2.0000      -0.488326       -13.2880
 203   2.0000      -0.486324       -13.2336
 204   2.0000      -0.482055       -13.1174
 205   2.0000      -0.480134       -13.0651
 206   2.0000      -0.476706       -12.9718
 207   2.0000      -0.474885       -12.9223
 208   2.0000      -0.473861       -12.8944
 209   2.0000      -0.466374       -12.6907
 210   2.0000      -0.465712       -12.6727
 211   2.0000      -0.462550       -12.5866
 212   2.0000      -0.460954       -12.5432
 213   2.0000      -0.454355       -12.3636
 214   2.0000      -0.451324       -12.2812
 215   2.0000      -0.450561       -12.2604
 216   2.0000      -0.448744       -12.2110
 217   2.0000      -0.445957       -12.1351
 218   2.0000      -0.442958       -12.0535
 219   2.0000      -0.441850       -12.0233
 220   2.0000      -0.436144       -11.8681
 221   2.0000      -0.431768       -11.7490
 222   2.0000      -0.428791       -11.6680
 223   2.0000      -0.427447       -11.6314
 224   2.0000      -0.422268       -11.4905
 225   2.0000      -0.421656       -11.4738
 226   2.0000      -0.415825       -11.3152
 227   2.0000      -0.411191       -11.1891
 228   2.0000      -0.405226       -11.0268
 229   2.0000      -0.397837       -10.8257
 230   2.0000      -0.394677       -10.7397
 231   2.0000      -0.391328       -10.6486
 232   2.0000      -0.390581       -10.6282
 233   2.0000      -0.387635       -10.5481
 234   2.0000      -0.380078       -10.3425
 235   2.0000      -0.378922       -10.3110
 236   2.0000      -0.378524       -10.3002
 237   2.0000      -0.376129       -10.2350
 238   2.0000      -0.373360       -10.1596
 239   2.0000      -0.367639       -10.0040
 240   2.0000      -0.364920        -9.9300
 241   2.0000      -0.361729        -9.8432
 242   2.0000      -0.355107        -9.6630
 243   2.0000      -0.353907        -9.6303
 244   2.0000      -0.353857        -9.6289
 245   2.0000      -0.348230        -9.4758
 246   2.0000      -0.342935        -9.3317
 247   2.0000      -0.338222        -9.2035
 248   2.0000      -0.335030        -9.1166
 249   2.0000      -0.327402        -8.9091
 250   2.0000      -0.323117        -8.7925
 251   2.0000      -0.319796        -8.7021
 252   2.0000      -0.308497        -8.3946
 253   2.0000      -0.297681        -8.1003
 254   2.0000      -0.284392        -7.7387
 255   2.0000      -0.256697        -6.9851
 256   2.0000      -0.212655        -5.7866
 257   0.0000      -0.104126        -2.8334
 258   0.0000      -0.093236        -2.5371
 259   0.0000      -0.069000        -1.8776
 260   0.0000      -0.066717        -1.8155
 261   0.0000      -0.062186        -1.6922

MULLIKEN ATOMIC CHARGES
-----------------------
   0 C :    0.297235
   1 C :   -0.339787
   2 C :   -0.182618
   3 N :    0.151893
   4 C :   -0.200977
   5 N :    0.168608
   6 C :    0.025180
   7 C :   -0.016045
   8 C :   -0.068942
   9 C :    0.122472
  10 C :   -0.089740
  11 C :   -0.023575
  12 S :    0.190992
  13 C :   -0.123371
  14 C :    0.037541
  15 Br:    0.026360
  16 C :    0.180488
  17 O :   -0.156209
  18 C :   -0.082448
  19 C :   -0.025695
  20 C :    0.102102
  21 O :   -0.177950
  22 C :   -0.009844
  23 C :    0.170964
  24 O :   -0.137311
  25 N :   -0.159647
  26 C :    0.167228
  27 O :   -0.154432
  28 C :   -0.075741
  29 C :    0.161767
  30 C :   -0.003714
  31 C :    0.020325
  32 C :    0.118293
  33 O :   -0.203439
  34 C :   -0.065395
  35 C :    0.175263
  36 O :   -0.151420
  37 N :   -0.166060
  38 C :    0.156657
  39 O :   -0.143663
  40 C :   -0.030812
  41 C :    0.094142
  42 C :   -0.039246
  43 C :    0.018734
  44 C :    0.002417
  45 C :   -0.018280
  46 C :    0.032363
  47 C :    0.039358
  48 C :   -0.049982
  49 S :    0.079728
  50 C :   -0.034207
  51 C :    0.034582
  52 C :    0.035148
  53 C :   -0.035053
  54 S :    0.105601
  55 C :    0.053105
  56 C :   -0.244307
  57 S :    0.149617
  58 C :   -0.134583
  59 C :    0.108264
  60 C :    0.208363
  61 O :   -0.190350
  62 C :    0.254144
  63 N :    0.271444
  64 O :   -0.252237
  65 O :   -0.216902
  66 C :   -0.074767
  67 H :   -0.020534
  68 H :   -0.004685
  69 H :   -0.005516
  70 H :    0.041252
  71 H :    0.139525
  72 H :    0.009634
  73 H :    0.010194
  74 H :    0.136380
  75 H :    0.004874
  76 H :    0.041436
  77 H :   -0.013472
  78 H :   -0.009791
  79 H :   -0.011027
  80 H :   -0.010160
  81 H :   -0.009938
  82 H :   -0.017636
  83 H :    0.034848
  84 H :    0.002985
Sum of atomic charges:   -0.0000000

LOEWDIN ATOMIC CHARGES
----------------------
   0 C :    0.072957
   1 C :   -0.133074
   2 C :   -0.017631
   3 N :   -0.049647
   4 C :   -0.024336
   5 N :   -0.043420
   6 C :   -0.017296
   7 C :   -0.046554
   8 C :    0.022413
   9 C :   -0.032239
  10 C :   -0.142046
  11 C :   -0.008789
  12 S :    0.436442
  13 C :   -0.270878
  14 C :   -0.071277
  15 Br:    0.139037
  16 C :    0.100415
  17 O :   -0.144761
  18 C :   -0.078035
  19 C :    0.054592
  20 C :    0.039830
  21 O :    0.036201
  22 C :   -0.049410
  23 C :    0.086548
  24 O :   -0.148398
  25 N :    0.004210
  26 C :    0.083481
  27 O :   -0.159366
  28 C :   -0.106552
  29 C :    0.099250
  30 C :   -0.028197
  31 C :    0.013978
  32 C :    0.054914
  33 O :    0.025226
  34 C :   -0.081903
  35 C :    0.085172
  36 O :   -0.161740
  37 N :   -0.007096
  38 C :    0.084685
  39 O :   -0.162320
  40 C :   -0.109452
  41 C :    0.085127
  42 C :   -0.058825
  43 C :    0.001877
  44 C :   -0.068850
  45 C :   -0.122202
  46 C :   -0.040364
  47 C :   -0.020047
  48 C :   -0.184822
  49 S :    0.402612
  50 C :   -0.170647
  51 C :   -0.033404
  52 C :   -0.027558
  53 C :   -0.147491
  54 S :    0.413021
  55 C :   -0.076579
  56 C :   -0.203645
  57 S :    0.473579
  58 C :   -0.183102
  59 C :   -0.082904
  60 C :    0.012295
  61 O :   -0.000203
  62 C :    0.020573
  63 N :    0.276557
  64 O :   -0.208117
  65 O :   -0.181399
  66 C :   -0.006332
  67 H :    0.037560
  68 H :    0.041706
  69 H :    0.037960
  70 H :    0.054338
  71 H :    0.095013
  72 H :    0.044409
  73 H :    0.041210
  74 H :    0.093811
  75 H :    0.041784
  76 H :    0.024024
  77 H :    0.032500
  78 H :    0.034244
  79 H :    0.033098
  80 H :    0.033105
  81 H :    0.033581
  82 H :    0.034726
  83 H :    0.030534
  84 H :    0.042318

  Mayer bond orders larger than 0.100000
B(  0-C ,  1-C ) :   1.6458 B(  0-C ,  6-C ) :   1.0058 B(  0-C , 18-C ) :   1.0784
B(  1-C ,  2-C ) :   1.1408 B(  1-C ,  4-C ) :   1.1408 B(  2-C ,  3-N ) :   2.9697
B(  4-C ,  5-N ) :   2.9919 B(  6-C ,  7-C ) :   1.2765 B(  6-C , 11-C ) :   1.4053
B(  7-C ,  8-C ) :   1.4210 B(  7-C , 16-C ) :   0.9566 B(  8-C ,  9-C ) :   1.2477
B(  8-C , 67-H ) :   1.0162 B(  9-C , 10-C ) :   1.3036 B(  9-C , 14-C ) :   1.1619
B( 10-C , 11-C ) :   1.3311 B( 10-C , 12-S ) :   1.0887 B( 11-C , 68-H ) :   0.9809
B( 12-S , 13-C ) :   1.0872 B( 13-C , 14-C ) :   1.6176 B( 13-C , 15-Br) :   1.0206
B( 14-C , 69-H ) :   1.0005 B( 16-C , 17-O ) :   2.1169 B( 16-C , 18-C ) :   0.9519
B( 18-C , 19-C ) :   1.5791 B( 19-C , 20-C ) :   1.1851 B( 19-C , 70-H ) :   0.9384
B( 20-C , 21-O ) :   1.1257 B( 20-C , 22-C ) :   1.4028 B( 21-O , 29-C ) :   1.1793
B( 22-C , 23-C ) :   0.8675 B( 22-C , 28-C ) :   1.3432 B( 23-C , 24-O ) :   2.2476
B( 23-C , 25-N ) :   1.0764 B( 25-N , 26-C ) :   1.0912 B( 25-N , 71-H ) :   0.9156
B( 26-C , 27-O ) :   2.1552 B( 26-C , 28-C ) :   0.8986 B( 28-C , 29-C ) :   1.3313
B( 29-C , 30-C ) :   1.1926 B( 30-C , 31-C ) :   1.5672 B( 30-C , 72-H ) :   0.9618
B( 31-C , 32-C ) :   1.1985 B( 31-C , 73-H ) :   0.9318 B( 32-C , 33-O ) :   1.1342
B( 32-C , 34-C ) :   1.4013 B( 33-O , 41-C ) :   1.1452 B( 34-C , 35-C ) :   0.8794
B( 34-C , 40-C ) :   1.2976 B( 35-C , 36-O ) :   2.2097 B( 35-C , 37-N ) :   1.0995
B( 37-N , 38-C ) :   1.0614 B( 37-N , 74-H ) :   0.9153 B( 38-C , 39-O ) :   2.2741
B( 38-C , 40-C ) :   0.8906 B( 40-C , 41-C ) :   1.3277 B( 41-C , 42-C ) :   1.2135
B( 42-C , 43-C ) :   1.5613 B( 42-C , 75-H ) :   0.9756 B( 43-C , 44-C ) :   1.1732
B( 43-C , 76-H ) :   0.9580 B( 44-C , 45-C ) :   1.5191 B( 44-C , 77-H ) :   0.9892
B( 45-C , 46-C ) :   1.1578 B( 45-C , 49-S ) :   1.0602 B( 46-C , 47-C ) :   1.5702
B( 46-C , 78-H ) :   0.9990 B( 47-C , 48-C ) :   1.2019 B( 47-C , 79-H ) :   0.9951
B( 48-C , 49-S ) :   1.0531 B( 48-C , 50-C ) :   1.4822 B( 50-C , 51-C ) :   1.1872
B( 50-C , 54-S ) :   1.0595 B( 51-C , 52-C ) :   1.5931 B( 51-C , 80-H ) :   0.9941
B( 52-C , 53-C ) :   1.1397 B( 52-C , 81-H ) :   0.9989 B( 53-C , 54-S ) :   1.0485
B( 53-C , 55-C ) :   1.6012 B( 55-C , 56-C ) :   1.1512 B( 55-C , 82-H ) :   0.9463
B( 56-C , 57-S ) :   1.1280 B( 56-C , 58-C ) :   0.1066 B( 56-C , 60-C ) :   1.4214
B( 57-S , 58-C ) :   1.1862 B( 58-C , 59-C ) :   1.4307 B( 58-C , 83-H ) :   0.9759
B( 59-C , 60-C ) :   1.2284 B( 59-C , 66-C ) :   1.0636 B( 60-C , 61-O ) :   1.0997
B( 61-O , 62-C ) :   1.1098 B( 62-C , 63-N ) :   0.9129 B( 62-C , 66-C ) :   1.5554
B( 63-N , 64-O ) :   1.5070 B( 63-N , 65-O ) :   1.5208 B( 64-O , 65-O ) :   0.2681
B( 66-C , 84-H ) :   1.0096

-----------------------------------------------------------------------------
         ABSORPTION SPECTRUM VIA TRANSITION ELECTRIC DIPOLE MOMENTS
-----------------------------------------------------------------------------
State   Energy  Wavelength   fosc         T2         TX        TY        TZ
        (cm-1)    (nm)                  (au**2)     (au)      (au)      (au)
-----------------------------------------------------------------------------
   0   10753.1    930.0   0.254047312   7.77780   1.28507  -1.77489  -1.72515
   1   13208.6    757.1   0.360541388   8.98616  -1.65575  -1.67266   1.85657
   2   15483.3    645.9   0.184999995   3.93354  -1.27366   0.03985   1.51978
   3   18463.0    541.6   0.215035658   3.83428  -0.88288  -0.81619   1.54552
   4   18731.9    533.9   1.052843108  18.50370  -1.94358  -3.43394   1.71297
   5   20933.4    477.7   0.007604917   0.11960   0.10922  -0.31436   0.09408
   6   21229.5    471.0   0.127310121   1.97424   0.39647   1.05418  -0.84008
   7   23244.9    430.2   0.064770403   0.91733  -0.37586  -0.86622   0.16037
   8   24939.8    401.0   0.610299095   8.05611   0.38030   2.80722  -0.17605
   9   24965.2    400.6   0.014385909   0.18970   0.17507   0.07432  -0.39183
  10   25828.5    387.2   0.048904627   0.62334  -0.53409   0.28211   0.50843
  11   26496.7    377.4   0.103265911   1.28304   0.17535   0.01206   1.11899
  12   26806.8    373.0   0.344469918   4.23041  -1.35420   0.20902   1.53390
  13   27076.6    369.3   0.447755039   5.44404   0.60956  -1.80350  -1.34903
  14   28624.4    349.4   0.117332503   1.34945  -0.74352  -0.75300   0.47920
  15   29002.0    344.8   0.021406071   0.24299   0.20659   0.41944  -0.15613
  16   29694.1    336.8   0.019524187   0.21646   0.43314   0.16981   0.00412
  17   29862.5    334.9   0.013531156   0.14917  -0.09669  -0.10481   0.35894
  18   30375.8    329.2   0.057915874   0.62769  -0.18839  -0.76954  -0.00147
  19   31021.2    322.4   0.137193566   1.45596  -0.81208   0.10657   0.88607
  20   31740.5    315.1   0.153537336   1.59249   0.19205  -0.79379  -0.96203
  21   32151.4    311.0   0.398456298   4.07997   1.69853  -0.41546  -1.01112
  22   32424.2    308.4   0.055654885   0.56508  -0.37038   0.55901   0.33972
  23   32618.1    306.6   0.196694824   1.98523  -1.22324   0.39150   0.57934
  24   33045.5    302.6   0.016511250   0.16449   0.04976  -0.37455  -0.14742
  25   33135.5    301.8   0.024647039   0.24488   0.02855   0.49214   0.04314
  26   33567.4    297.9   0.019410275   0.19037  -0.02155   0.23163   0.36912
  27   33921.9    294.8   0.011033521   0.10708  -0.09716   0.08501   0.30069
  28   34242.6    292.0   0.117076231   1.12558   0.21715  -0.39452  -0.96062
  29   34731.9    287.9   0.018399152   0.17440   0.34312   0.22142  -0.08742
  30   34883.1    286.7   0.011694533   0.11037   0.23268   0.03469  -0.23457
  31   35030.0    285.5   0.012239257   0.11502   0.07763   0.29917   0.13962
  32   35099.0    284.9   0.030344196   0.28461  -0.38313  -0.06485   0.36554
  33   35376.5    282.7   0.040718335   0.37892   0.29268   0.39638  -0.36897
  34   35784.1    279.5   0.010456329   0.09620   0.03628  -0.02395  -0.30710
  35   35863.8    278.8   0.031905707   0.29288  -0.29130  -0.03953   0.45438
  36   36195.4    276.3   0.038873661   0.35357  -0.12099   0.57149   0.11105
  37   36339.5    275.2   0.147180176   1.33336  -0.46675   0.16968   1.04245
  38   36689.5    272.6   0.067609583   0.60666   0.61873   0.33340  -0.33566
  39   36886.4    271.1   0.183795821   1.64038   0.43917   0.92250  -0.77233
  40   37192.6    268.9   0.180730331   1.59974   0.32008  -1.07956  -0.57605
  41   37436.0    267.1   0.064727233   0.56921   0.31685   0.61280  -0.30545
  42   37850.0    264.2   0.014380980   0.12508   0.08862   0.32008   0.12156
  43   38097.7    262.5   0.030123164   0.26030  -0.19278  -0.29135   0.37182
  44   38179.4    261.9   0.004792464   0.04132   0.10783   0.11232  -0.13070
  45   38306.9    261.0   0.104707964   0.89987  -0.45163  -0.17328   0.81601
  46   38403.6    260.4   0.023245822   0.19927   0.23009  -0.12466  -0.36165
  47   38555.8    259.4   0.086173490   0.73580   0.31254  -0.31152  -0.73558
  48   38777.2    257.9   0.010630795   0.09025  -0.29960  -0.01953  -0.01045
  49   38914.9    257.0   0.002627409   0.02223  -0.00962   0.14863  -0.00654
  50   39230.9    254.9   0.002360443   0.01981  -0.11535   0.01254   0.07966
  51   39362.2    254.1   0.025620496   0.21428   0.29451  -0.21659  -0.28396
  52   39431.5    253.6   0.007982551   0.06665   0.14380   0.17882   0.11827
  53   39788.6    251.3   0.021916880   0.18134   0.18228  -0.34526  -0.17003
  54   39927.8    250.5   0.011038079   0.09101   0.12403  -0.17679  -0.21065
  55   40293.4    248.2   0.006369894   0.05204   0.00281   0.12195  -0.19278

FINAL SINGLE POINT ENERGY     -6990.443409067469

DIPOLE MOMENT
-------------
                                X             Y             Z
Electronic contribution:    -79.65556     -97.96817      55.37273
Nuclear contribution   :     77.18418     101.36400     -52.58784
                        -----------------------------------------
Total Dipole Moment    :     -2.47139       3.39583       2.78489
                        -----------------------------------------
Magnitude (a.u.)       :      5.03935
Magnitude (Debye)      :     12.80901

Rotational constants in cm-1:     0.001300     0.000478     0.000364
Rotational constants in MHz :    38.984811    14.344969    10.916241

                             ****ORCA TERMINATED NORMALLY****
TOTAL RUN TIME: 0 days 0 hours 9 minutes 43 seconds 3 msec
