                         Program Version 4.2.0 -  RELEASE  -
|  1> # ORCA input file
|  2> # SCF done       -187.930550195167          0.000992871297
|  3> ! CAM-B3LYP def2-SVP def2/J RIJCOSX Grid4 TightSCF
|  4> %maxcore 5000
|  5> %tddft
|  6>     Mode sTDDFT
|  7>     Ethresh 5.0
|  8>     maxcore 5000
|  9> end
| 10>
| 11> %pal
| 12>   nprocs 6
| 13>   end
| 14> * xyz 0 1
| 15>    C       -7.15730        -2.84708         0.15206
| 16>    C       -6.37085        -3.44436         1.10131
| 17>    C       -6.29295        -4.83880         1.30160
| 18>    N       -6.18702        -5.96358         1.50491
| 19>    C       -5.55037        -2.75558         2.02001
| 20>    N       -4.87027        -2.27064         2.80766
| 21>    C       -8.06150        -3.53128        -0.76228
| 22>    C       -8.77481        -2.56271        -1.51077
| 23>    C       -9.70104        -2.90078        -2.46760
| 24>    C       -9.94126        -4.25999        -2.69295
| 25>    C       -9.22354        -5.22125        -1.94073
| 26>    C       -8.28339        -4.87974        -0.97687
| 27>    S       -9.66607        -6.84094        -2.38690
| 28>    C      -10.79539        -6.21424        -3.55814
| 29>    C      -10.83957        -4.86186        -3.61565
| 30>   Br      -11.80642        -7.40299        -4.59700
| 31>    C       -8.33183        -1.21004        -1.12317
| 32>    O       -8.66858        -0.16941        -1.64288
| 33>    C       -7.29580        -1.41827        -0.07339
| 34>    C       -6.50083        -0.43328         0.41789
| 35>    C       -6.75929         0.96908         0.26044
| 36>    C       -5.73459         1.86485        -0.01278
| 37>    C       -5.98500         3.19883        -0.30506
| 38>    F       -4.90745         3.97222        -0.54828
| 39>    C       -7.25400         3.78206        -0.30596
| 40>    C       -8.29211         2.91712         0.14740
| 41>    C       -8.05766         1.52294         0.40497
| 42>    N       -9.15728         0.90354         0.82358
| 43>    S      -10.36852         1.95521         0.84744
| 44>    N       -9.56103         3.25622         0.35227
| 45>    C       -7.58319         5.11079        -0.69309
| 46>    C       -6.98150         5.88510        -1.64780
| 47>    C       -7.38418         7.20478        -2.00213
| 48>    C       -6.73893         7.71702        -3.08220
| 49>    C       -5.79962         6.82531        -3.65591
| 50>    S       -5.72594         5.34246        -2.74403
| 51>    C       -5.03845         7.00082        -4.79634
| 52>    C       -4.99169         8.11257        -5.66728
| 53>    C       -4.17376         7.93210        -6.73988
| 54>    C       -3.53050         6.66532        -6.78743
| 55>    S       -3.98838         5.73138        -5.37918
| 56>    C       -2.73241         6.23892        -7.82017
| 57>    C       -2.09837         4.98963        -8.00443
| 58>    C       -1.99733         3.96549        -7.06014
| 59>    C       -1.41992         2.74677        -7.36748
| 60>    F       -1.37721         1.83034        -6.38471
| 61>    C       -0.93525         2.37681        -8.62684
| 62>    C       -0.95796         3.42135        -9.59006
| 63>    C       -1.51132         4.71066        -9.27652
| 64>    N       -1.41854         5.55359       -10.29768
| 65>    S       -0.69846         4.81247       -11.52980
| 66>    N       -0.46961         3.37931       -10.82718
| 67>    C       -0.41523         1.06985        -8.84956
| 68>    C       -0.27728         0.37532       -10.01065
| 69>    C       -0.80050         0.57502       -11.34213
| 70>    C       -1.96779         1.21364       -11.67301
| 71>    C       -2.44530         1.35252       -12.99079
| 72>    N       -2.86960         1.52282       -14.04404
| 73>    C       -2.86698         1.74695       -10.72929
| 74>    N       -3.65040         2.16987       -10.00397
| 75>    C        0.00370        -0.23364       -12.25150
| 76>    C        0.84272        -1.08205       -11.48561
| 77>    C        0.64638        -0.79251       -10.05038
| 78>    O        1.15500        -1.35011        -9.10584
| 79>    C        1.68828        -1.99858       -12.06137
| 80>    C        1.71595        -2.07333       -13.45824
| 81>    C        0.88638        -1.21063       -14.21380
| 82>    C        0.02361        -0.28967       -13.63177
| 83>    S        1.08736        -1.46478       -15.92080
| 84>    C        2.26383        -2.71176       -15.60085
| 85>    C        2.49682        -2.92756       -14.28472
| 86>   Br        3.07286        -3.60983       -17.03477
| 87>    H      -10.22357        -2.13947        -3.02531
| 88>    H       -7.75571        -5.64856        -0.43761
| 89>    H      -11.47637        -4.31018        -4.28274
| 90>    H       -5.58045        -0.69207         0.92623
| 91>    H       -4.71343         1.51857        -0.06563
| 92>    H       -8.48635         5.50230        -0.24240
| 93>    H       -8.14180         7.72235        -1.44096
| 94>    H       -6.91765         8.69574        -3.48960
| 95>    H       -5.56385         9.00415        -5.48446
| 96>    H       -4.01645         8.66233        -7.51363
| 97>    H       -2.60909         6.93058        -8.64390
| 98>    H       -2.36521         4.09623        -6.05627
| 99>    H       -0.03042         0.56364        -7.96830
|100>    H        2.30954        -2.63856       -11.45468
|101>    H       -0.58841         0.34960       -14.24631
|102>    H        3.18985        -3.65835       -13.90942
|103> *
|104>
|105>                          ****END OF INPUT****

CARTESIAN COORDINATES (ANGSTROEM)
---------------------------------
  C     -7.157300   -2.847080    0.152060
  C     -6.370850   -3.444360    1.101310
  C     -6.292950   -4.838800    1.301600
  N     -6.187020   -5.963580    1.504910
  C     -5.550370   -2.755580    2.020010
  N     -4.870270   -2.270640    2.807660
  C     -8.061500   -3.531280   -0.762280
  C     -8.774810   -2.562710   -1.510770
  C     -9.701040   -2.900780   -2.467600
  C     -9.941260   -4.259990   -2.692950
  C     -9.223540   -5.221250   -1.940730
  C     -8.283390   -4.879740   -0.976870
  S     -9.666070   -6.840940   -2.386900
  C    -10.795390   -6.214240   -3.558140
  C    -10.839570   -4.861860   -3.615650
  Br   -11.806420   -7.402990   -4.597000
  C     -8.331830   -1.210040   -1.123170
  O     -8.668580   -0.169410   -1.642880
  C     -7.295800   -1.418270   -0.073390
  C     -6.500830   -0.433280    0.417890
  C     -6.759290    0.969080    0.260440
  C     -5.734590    1.864850   -0.012780
  C     -5.985000    3.198830   -0.305060
  F     -4.907450    3.972220   -0.548280
  C     -7.254000    3.782060   -0.305960
  C     -8.292110    2.917120    0.147400
  C     -8.057660    1.522940    0.404970
  N     -9.157280    0.903540    0.823580
  S    -10.368520    1.955210    0.847440
  N     -9.561030    3.256220    0.352270
  C     -7.583190    5.110790   -0.693090
  C     -6.981500    5.885100   -1.647800
  C     -7.384180    7.204780   -2.002130
  C     -6.738930    7.717020   -3.082200
  C     -5.799620    6.825310   -3.655910
  S     -5.725940    5.342460   -2.744030
  C     -5.038450    7.000820   -4.796340
  C     -4.991690    8.112570   -5.667280
  C     -4.173760    7.932100   -6.739880
  C     -3.530500    6.665320   -6.787430
  S     -3.988380    5.731380   -5.379180
  C     -2.732410    6.238920   -7.820170
  C     -2.098370    4.989630   -8.004430
  C     -1.997330    3.965490   -7.060140
  C     -1.419920    2.746770   -7.367480
  F     -1.377210    1.830340   -6.384710
  C     -0.935250    2.376810   -8.626840
  C     -0.957960    3.421350   -9.590060
  C     -1.511320    4.710660   -9.276520
  N     -1.418540    5.553590  -10.297680
  S     -0.698460    4.812470  -11.529800
  N     -0.469610    3.379310  -10.827180
  C     -0.415230    1.069850   -8.849560
  C     -0.277280    0.375320  -10.010650
  C     -0.800500    0.575020  -11.342130
  C     -1.967790    1.213640  -11.673010
  C     -2.445300    1.352520  -12.990790
  N     -2.869600    1.522820  -14.044040
  C     -2.866980    1.746950  -10.729290
  N     -3.650400    2.169870  -10.003970
  C      0.003700   -0.233640  -12.251500
  C      0.842720   -1.082050  -11.485610
  C      0.646380   -0.792510  -10.050380
  O      1.155000   -1.350110   -9.105840
  C      1.688280   -1.998580  -12.061370
  C      1.715950   -2.073330  -13.458240
  C      0.886380   -1.210630  -14.213800
  C      0.023610   -0.289670  -13.631770
  S      1.087360   -1.464780  -15.920800
  C      2.263830   -2.711760  -15.600850
  C      2.496820   -2.927560  -14.284720
  Br     3.072860   -3.609830  -17.034770
  H    -10.223570   -2.139470   -3.025310
  H     -7.755710   -5.648560   -0.437610
  H    -11.476370   -4.310180   -4.282740
  H     -5.580450   -0.692070    0.926230
  H     -4.713430    1.518570   -0.065630
  H     -8.486350    5.502300   -0.242400
  H     -8.141800    7.722350   -1.440960
  H     -6.917650    8.695740   -3.489600
  H     -5.563850    9.004150   -5.484460
  H     -4.016450    8.662330   -7.513630
  H     -2.609090    6.930580   -8.643900
  H     -2.365210    4.096230   -6.056270
  H     -0.030420    0.563640   -7.968300
  H      2.309540   -2.638560  -11.454680
  H     -0.588410    0.349600  -14.246310
  H      3.189850   -3.658350  -13.909420

 Total Charge           Charge          ....    0
 Multiplicity           Mult            ....    1
 Number of Electrons    NEL             ....  584
 Basis Dimension        Dim             .... 1148

ORBITAL ENERGIES
----------------

  NO   OCC          E(Eh)            E(eV)
   0   2.0000    -482.887120    -13140.0266
   1   2.0000    -482.880949    -13139.8586
   2   2.0000     -89.027408     -2422.5589
   3   2.0000     -89.023190     -2422.4442
   4   2.0000     -88.977553     -2421.2023
   5   2.0000     -88.969948     -2420.9954
   6   2.0000     -88.963482     -2420.8194
   7   2.0000     -88.959369     -2420.7075
   8   2.0000     -62.564811     -1702.4751
   9   2.0000     -62.558658     -1702.3076
  10   2.0000     -56.398765     -1534.6884
  11   2.0000     -56.396041     -1534.6143
  12   2.0000     -56.396014     -1534.6136
  13   2.0000     -56.392604     -1534.5208
  14   2.0000     -56.389898     -1534.4471
  15   2.0000     -56.389863     -1534.4462
  16   2.0000     -24.798682      -674.8064
  17   2.0000     -24.796353      -674.7431
  18   2.0000     -19.218502      -522.9620
  19   2.0000     -19.206954      -522.6478
  20   2.0000     -14.442793      -393.0084
  21   2.0000     -14.442026      -392.9875
  22   2.0000     -14.440833      -392.9550
  23   2.0000     -14.435416      -392.8076
  24   2.0000     -14.419038      -392.3620
  25   2.0000     -14.418821      -392.3561
  26   2.0000     -14.408041      -392.0627
  27   2.0000     -14.406165      -392.0117
  28   2.0000     -10.381348      -282.4909
  29   2.0000     -10.379287      -282.4348
  30   2.0000     -10.369787      -282.1762
  31   2.0000     -10.361033      -281.9380
  32   2.0000     -10.357313      -281.8368
  33   2.0000     -10.352975      -281.7188
  34   2.0000     -10.347223      -281.5623
  35   2.0000     -10.344662      -281.4926
  36   2.0000     -10.332083      -281.1503
  37   2.0000     -10.330965      -281.1198
  38   2.0000     -10.330206      -281.0992
  39   2.0000     -10.329534      -281.0809
  40   2.0000     -10.329305      -281.0747
  41   2.0000     -10.328258      -281.0462
  42   2.0000     -10.328104      -281.0420
  43   2.0000     -10.328053      -281.0406
  44   2.0000     -10.326410      -280.9959
  45   2.0000     -10.326260      -280.9918
  46   2.0000     -10.326030      -280.9856
  47   2.0000     -10.321832      -280.8713
  48   2.0000     -10.321352      -280.8583
  49   2.0000     -10.321193      -280.8539
  50   2.0000     -10.319519      -280.8084
  51   2.0000     -10.314356      -280.6679
  52   2.0000     -10.313734      -280.6510
  53   2.0000     -10.313605      -280.6475
  54   2.0000     -10.311045      -280.5778
  55   2.0000     -10.310984      -280.5761
  56   2.0000     -10.310162      -280.5538
  57   2.0000     -10.308928      -280.5202
  58   2.0000     -10.308745      -280.5152
  59   2.0000     -10.308316      -280.5035
  60   2.0000     -10.307704      -280.4869
  61   2.0000     -10.305375      -280.4235
  62   2.0000     -10.304344      -280.3954
  63   2.0000     -10.304185      -280.3911
  64   2.0000     -10.303130      -280.3624
  65   2.0000     -10.302505      -280.3454
  66   2.0000     -10.300670      -280.2955
  67   2.0000     -10.300558      -280.2924
  68   2.0000     -10.299315      -280.2586
  69   2.0000     -10.298595      -280.2390
  70   2.0000     -10.298388      -280.2334
  71   2.0000     -10.298277      -280.2304
  72   2.0000     -10.298014      -280.2232
  73   2.0000     -10.294812      -280.1361
  74   2.0000     -10.294537      -280.1286
  75   2.0000     -10.291909      -280.0571
  76   2.0000     -10.291092      -280.0348
  77   2.0000     -10.289712      -279.9973
  78   2.0000     -10.287179      -279.9284
  79   2.0000     -10.284913      -279.8667
  80   2.0000      -8.794234      -239.3033
  81   2.0000      -8.788077      -239.1357
  82   2.0000      -8.119181      -220.9341
  83   2.0000      -8.114870      -220.8169
  84   2.0000      -8.073515      -219.6915
  85   2.0000      -8.065893      -219.4841
  86   2.0000      -8.059488      -219.3098
  87   2.0000      -8.055731      -219.2076
  88   2.0000      -6.630527      -180.4258
  89   2.0000      -6.624356      -180.2579
  90   2.0000      -6.615983      -180.0300
  91   2.0000      -6.615756      -180.0239
  92   2.0000      -6.609826      -179.8625
  93   2.0000      -6.609617      -179.8568
  94   2.0000      -6.090423      -165.7288
  95   2.0000      -6.086185      -165.6135
  96   2.0000      -6.082634      -165.5169
  97   2.0000      -6.081570      -165.4879
  98   2.0000      -6.078471      -165.4036
  99   2.0000      -6.077024      -165.3642
 100   2.0000      -6.043213      -164.4442
 101   2.0000      -6.038915      -164.3272
 102   2.0000      -6.035598      -164.2370
 103   2.0000      -6.034750      -164.2139
 104   2.0000      -6.031315      -164.1204
 105   2.0000      -6.029188      -164.0625
 106   2.0000      -6.027121      -164.0063
 107   2.0000      -6.025468      -163.9613
 108   2.0000      -6.025053      -163.9500
 109   2.0000      -6.021293      -163.8477
 110   2.0000      -6.020557      -163.8277
 111   2.0000      -6.016607      -163.7202
 112   2.0000      -2.746436       -74.7343
 113   2.0000      -2.742283       -74.6213
 114   2.0000      -2.742161       -74.6180
 115   2.0000      -2.740238       -74.5657
 116   2.0000      -2.736103       -74.4532
 117   2.0000      -2.736053       -74.4518
 118   2.0000      -2.730573       -74.3027
 119   2.0000      -2.730565       -74.3024
 120   2.0000      -2.724456       -74.1362
 121   2.0000      -2.724446       -74.1359
 122   2.0000      -1.313187       -35.7336
 123   2.0000      -1.311307       -35.6825
 124   2.0000      -1.135429       -30.8966
 125   2.0000      -1.127369       -30.6773
 126   2.0000      -1.125314       -30.6213
 127   2.0000      -1.122121       -30.5345
 128   2.0000      -1.025683       -27.9103
 129   2.0000      -1.016245       -27.6534
 130   2.0000      -1.015795       -27.6412
 131   2.0000      -1.012840       -27.5608
 132   2.0000      -1.006392       -27.3853
 133   2.0000      -0.997368       -27.1398
 134   2.0000      -0.993459       -27.0334
 135   2.0000      -0.992429       -27.0054
 136   2.0000      -0.987891       -26.8819
 137   2.0000      -0.984982       -26.8027
 138   2.0000      -0.982648       -26.7392
 139   2.0000      -0.979946       -26.6657
 140   2.0000      -0.978388       -26.6233
 141   2.0000      -0.970330       -26.4040
 142   2.0000      -0.944999       -25.7147
 143   2.0000      -0.934612       -25.4321
 144   2.0000      -0.918827       -25.0026
 145   2.0000      -0.911127       -24.7930
 146   2.0000      -0.909364       -24.7450
 147   2.0000      -0.900997       -24.5174
 148   2.0000      -0.896646       -24.3990
 149   2.0000      -0.888318       -24.1724
 150   2.0000      -0.884974       -24.0814
 151   2.0000      -0.878973       -23.9181
 152   2.0000      -0.873313       -23.7641
 153   2.0000      -0.866323       -23.5738
 154   2.0000      -0.863539       -23.4981
 155   2.0000      -0.861418       -23.4404
 156   2.0000      -0.858008       -23.3476
 157   2.0000      -0.840011       -22.8579
 158   2.0000      -0.838138       -22.8069
 159   2.0000      -0.831467       -22.6254
 160   2.0000      -0.824139       -22.4260
 161   2.0000      -0.821015       -22.3410
 162   2.0000      -0.800481       -21.7822
 163   2.0000      -0.783529       -21.3209
 164   2.0000      -0.766682       -20.8625
 165   2.0000      -0.761587       -20.7238
 166   2.0000      -0.754645       -20.5349
 167   2.0000      -0.748416       -20.3654
 168   2.0000      -0.742914       -20.2157
 169   2.0000      -0.733743       -19.9662
 170   2.0000      -0.720812       -19.6143
 171   2.0000      -0.716306       -19.4917
 172   2.0000      -0.713108       -19.4046
 173   2.0000      -0.704874       -19.1806
 174   2.0000      -0.697231       -18.9726
 175   2.0000      -0.693905       -18.8821
 176   2.0000      -0.685997       -18.6669
 177   2.0000      -0.684654       -18.6304
 178   2.0000      -0.676000       -18.3949
 179   2.0000      -0.669875       -18.2282
 180   2.0000      -0.661717       -18.0062
 181   2.0000      -0.658240       -17.9116
 182   2.0000      -0.649514       -17.6742
 183   2.0000      -0.644698       -17.5431
 184   2.0000      -0.640155       -17.4195
 185   2.0000      -0.636510       -17.3203
 186   2.0000      -0.633168       -17.2294
 187   2.0000      -0.630572       -17.1587
 188   2.0000      -0.627422       -17.0730
 189   2.0000      -0.625383       -17.0175
 190   2.0000      -0.616623       -16.7792
 191   2.0000      -0.615607       -16.7515
 192   2.0000      -0.605723       -16.4825
 193   2.0000      -0.600337       -16.3360
 194   2.0000      -0.597907       -16.2699
 195   2.0000      -0.594817       -16.1858
 196   2.0000      -0.587478       -15.9861
 197   2.0000      -0.586859       -15.9692
 198   2.0000      -0.579844       -15.7784
 199   2.0000      -0.578448       -15.7404
 200   2.0000      -0.572854       -15.5882
 201   2.0000      -0.570574       -15.5261
 202   2.0000      -0.565369       -15.3845
 203   2.0000      -0.558526       -15.1983
 204   2.0000      -0.555234       -15.1087
 205   2.0000      -0.548535       -14.9264
 206   2.0000      -0.547619       -14.9015
 207   2.0000      -0.545194       -14.8355
 208   2.0000      -0.542172       -14.7533
 209   2.0000      -0.541736       -14.7414
 210   2.0000      -0.537922       -14.6376
 211   2.0000      -0.534339       -14.5401
 212   2.0000      -0.530294       -14.4300
 213   2.0000      -0.528851       -14.3908
 214   2.0000      -0.528102       -14.3704
 215   2.0000      -0.526551       -14.3282
 216   2.0000      -0.522291       -14.2123
 217   2.0000      -0.518472       -14.1083
 218   2.0000      -0.515215       -14.0197
 219   2.0000      -0.512427       -13.9439
 220   2.0000      -0.511495       -13.9185
 221   2.0000      -0.509904       -13.8752
 222   2.0000      -0.508531       -13.8378
 223   2.0000      -0.504655       -13.7324
 224   2.0000      -0.501527       -13.6473
 225   2.0000      -0.500550       -13.6206
 226   2.0000      -0.499274       -13.5859
 227   2.0000      -0.496179       -13.5017
 228   2.0000      -0.494817       -13.4647
 229   2.0000      -0.493165       -13.4197
 230   2.0000      -0.486452       -13.2370
 231   2.0000      -0.484196       -13.1756
 232   2.0000      -0.481020       -13.0892
 233   2.0000      -0.479774       -13.0553
 234   2.0000      -0.476183       -12.9576
 235   2.0000      -0.473027       -12.8717
 236   2.0000      -0.469167       -12.7667
 237   2.0000      -0.464945       -12.6518
 238   2.0000      -0.462165       -12.5762
 239   2.0000      -0.460776       -12.5384
 240   2.0000      -0.458569       -12.4783
 241   2.0000      -0.452925       -12.3247
 242   2.0000      -0.452058       -12.3011
 243   2.0000      -0.451404       -12.2833
 244   2.0000      -0.449354       -12.2275
 245   2.0000      -0.447860       -12.1869
 246   2.0000      -0.445750       -12.1295
 247   2.0000      -0.445010       -12.1093
 248   2.0000      -0.444234       -12.0882
 249   2.0000      -0.441304       -12.0085
 250   2.0000      -0.439812       -11.9679
 251   2.0000      -0.439677       -11.9642
 252   2.0000      -0.436605       -11.8806
 253   2.0000      -0.436006       -11.8643
 254   2.0000      -0.431122       -11.7314
 255   2.0000      -0.430383       -11.7113
 256   2.0000      -0.428303       -11.6547
 257   2.0000      -0.425851       -11.5880
 258   2.0000      -0.420058       -11.4304
 259   2.0000      -0.414882       -11.2895
 260   2.0000      -0.414227       -11.2717
 261   2.0000      -0.413535       -11.2529
 262   2.0000      -0.410628       -11.1737
 263   2.0000      -0.406578       -11.0635
 264   2.0000      -0.405197       -11.0260
 265   2.0000      -0.399805       -10.8792
 266   2.0000      -0.393681       -10.7126
 267   2.0000      -0.393209       -10.6998
 268   2.0000      -0.389954       -10.6112
 269   2.0000      -0.382045       -10.3960
 270   2.0000      -0.376603       -10.2479
 271   2.0000      -0.376225       -10.2376
 272   2.0000      -0.372910       -10.1474
 273   2.0000      -0.372043       -10.1238
 274   2.0000      -0.370461       -10.0808
 275   2.0000      -0.365763        -9.9529
 276   2.0000      -0.354797        -9.6545
 277   2.0000      -0.352511        -9.5923
 278   2.0000      -0.347306        -9.4507
 279   2.0000      -0.338251        -9.2043
 280   2.0000      -0.337289        -9.1781
 281   2.0000      -0.332973        -9.0607
 282   2.0000      -0.331417        -9.0183
 283   2.0000      -0.329812        -8.9746
 284   2.0000      -0.322483        -8.7752
 285   2.0000      -0.317006        -8.6262
 286   2.0000      -0.308027        -8.3818
 287   2.0000      -0.303775        -8.2661
 288   2.0000      -0.295545        -8.0422
 289   2.0000      -0.284976        -7.7546
 290   2.0000      -0.280287        -7.6270
 291   2.0000      -0.230691        -6.2774
 292   0.0000      -0.116682        -3.1751
 293   0.0000      -0.094674        -2.5762
 294   0.0000      -0.074041        -2.0148
 295   0.0000      -0.062722        -1.7067
 296   0.0000      -0.049386        -1.3439

MULLIKEN ATOMIC CHARGES
-----------------------
   0 C :    0.294608
   1 C :   -0.336138
   2 C :   -0.186411
   3 N :    0.155482
   4 C :   -0.196918
   5 N :    0.162390
   6 C :    0.018947
   7 C :   -0.020240
   8 C :   -0.065095
   9 C :    0.119206
  10 C :   -0.094120
  11 C :   -0.017703
  12 S :    0.189030
  13 C :   -0.124070
  14 C :    0.040082
  15 Br:    0.027452
  16 C :    0.150953
  17 O :   -0.145382
  18 C :   -0.050853
  19 C :   -0.053352
  20 C :    0.073333
  21 C :   -0.067619
  22 C :    0.203443
  23 F :   -0.183274
  24 C :    0.018860
  25 C :    0.000321
  26 C :    0.063306
  27 N :   -0.266893
  28 S :    0.511533
  29 N :   -0.279773
  30 C :   -0.046189
  31 C :   -0.013273
  32 C :    0.040679
  33 C :    0.038655
  34 C :   -0.049182
  35 S :    0.121047
  36 C :   -0.041241
  37 C :    0.041395
  38 C :    0.034285
  39 C :    0.005156
  40 S :    0.078593
  41 C :   -0.059954
  42 C :    0.107630
  43 C :   -0.124261
  44 C :    0.269635
  45 F :   -0.170790
  46 C :   -0.001342
  47 C :   -0.014195
  48 C :    0.038521
  49 N :   -0.266559
  50 S :    0.510169
  51 N :   -0.288805
  52 C :   -0.010639
  53 C :   -0.116346
  54 C :    0.331080
  55 C :   -0.336078
  56 C :   -0.192037
  57 N :    0.148411
  58 C :   -0.208272
  59 N :    0.162528
  60 C :    0.002587
  61 C :    0.004550
  62 C :    0.127239
  63 O :   -0.142019
  64 C :   -0.071184
  65 C :    0.110460
  66 C :   -0.086742
  67 C :   -0.025880
  68 S :    0.180002
  69 C :   -0.126109
  70 C :    0.041020
  71 Br:    0.017969
  72 H :   -0.009091
  73 H :   -0.005903
  74 H :   -0.000879
  75 H :    0.036658
  76 H :    0.002106
  77 H :    0.016590
  78 H :    0.000503
  79 H :   -0.006273
  80 H :   -0.006007
  81 H :   -0.000910
  82 H :    0.005579
  83 H :    0.000839
  84 H :    0.025314
  85 H :   -0.010090
  86 H :   -0.006476
  87 H :   -0.003581
Sum of atomic charges:   -0.0000000

LOEWDIN ATOMIC CHARGES
----------------------
   0 C :    0.075000
   1 C :   -0.132713
   2 C :   -0.017667
   3 N :   -0.048332
   4 C :   -0.022438
   5 N :   -0.046578
   6 C :   -0.021323
   7 C :   -0.048525
   8 C :    0.023311
   9 C :   -0.030654
  10 C :   -0.143119
  11 C :   -0.008532
  12 S :    0.434547
  13 C :   -0.270086
  14 C :   -0.070211
  15 Br:    0.139893
  16 C :    0.086214
  17 O :   -0.135847
  18 C :   -0.069305
  19 C :    0.073653
  20 C :   -0.027550
  21 C :   -0.007411
  22 C :    0.077716
  23 F :   -0.059172
  24 C :   -0.052627
  25 C :   -0.037531
  26 C :   -0.040574
  27 N :   -0.274610
  28 S :    0.650301
  29 N :   -0.288787
  30 C :   -0.037177
  31 C :   -0.134680
  32 C :   -0.016563
  33 C :   -0.028881
  34 C :   -0.164616
  35 S :    0.405168
  36 C :   -0.180088
  37 C :   -0.022408
  38 C :   -0.027020
  39 C :   -0.121534
  40 S :    0.405272
  41 C :   -0.052659
  42 C :    0.006313
  43 C :   -0.061494
  44 C :    0.133269
  45 F :   -0.048959
  46 C :   -0.091636
  47 C :   -0.038236
  48 C :   -0.042500
  49 N :   -0.272230
  50 S :    0.638853
  51 N :   -0.286782
  52 C :    0.072017
  53 C :   -0.084906
  54 C :    0.077794
  55 C :   -0.139238
  56 C :   -0.019887
  57 N :   -0.061127
  58 C :   -0.017795
  59 N :   -0.059760
  60 C :   -0.012580
  61 C :   -0.052785
  62 C :    0.084181
  63 O :   -0.142362
  64 C :    0.021824
  65 C :   -0.035778
  66 C :   -0.142907
  67 C :   -0.015045
  68 S :    0.428199
  69 C :   -0.273980
  70 C :   -0.070189
  71 Br:    0.132945
  72 H :    0.041478
  73 H :    0.041190
  74 H :    0.039607
  75 H :    0.048383
  76 H :    0.047487
  77 H :    0.044538
  78 H :    0.038240
  79 H :    0.034741
  80 H :    0.035382
  81 H :    0.038117
  82 H :    0.042356
  83 H :    0.024851
  84 H :    0.047447
  85 H :    0.040702
  86 H :    0.039861
  87 H :    0.038541

  Mayer bond orders larger than 0.100000
B(  0-C ,  1-C ) :   1.6517 B(  0-C ,  6-C ) :   1.0135 B(  0-C , 18-C ) :   1.0548
B(  1-C ,  2-C ) :   1.1402 B(  1-C ,  4-C ) :   1.1419 B(  2-C ,  3-N ) :   2.9723
B(  4-C ,  5-N ) :   2.9836 B(  6-C ,  7-C ) :   1.2717 B(  6-C , 11-C ) :   1.4055
B(  7-C ,  8-C ) :   1.4252 B(  7-C , 16-C ) :   0.9498 B(  8-C ,  9-C ) :   1.2490
B(  8-C , 72-H ) :   1.0163 B(  9-C , 10-C ) :   1.3010 B(  9-C , 14-C ) :   1.1642
B( 10-C , 11-C ) :   1.3370 B( 10-C , 12-S ) :   1.0865 B( 11-C , 73-H ) :   0.9796
B( 12-S , 13-C ) :   1.0861 B( 13-C , 14-C ) :   1.6173 B( 13-C , 15-Br) :   1.0214
B( 14-C , 74-H ) :   0.9997 B( 16-C , 17-O ) :   2.2227 B( 16-C , 18-C ) :   0.9292
B( 18-C , 19-C ) :   1.6844 B( 19-C , 20-C ) :   1.0750 B( 19-C , 75-H ) :   0.9422
B( 20-C , 21-C ) :   1.3933 B( 20-C , 26-C ) :   1.1811 B( 21-C , 22-C ) :   1.2335
B( 21-C , 76-H ) :   1.0033 B( 22-C , 23-F ) :   1.0987 B( 22-C , 24-C ) :   1.3575
B( 24-C , 25-C ) :   1.1539 B( 24-C , 30-C ) :   1.1266 B( 25-C , 26-C ) :   1.1633
B( 25-C , 29-N ) :   1.5691 B( 26-C , 27-N ) :   1.5394 B( 27-N , 28-S ) :   1.2741
B( 27-N , 29-N ) :   0.1457 B( 28-S , 29-N ) :   1.2569 B( 30-C , 31-C ) :   1.5930
B( 30-C , 77-H ) :   0.9592 B( 31-C , 32-C ) :   1.1282 B( 31-C , 35-S ) :   1.0497
B( 32-C , 33-C ) :   1.6086 B( 32-C , 78-H ) :   0.9994 B( 33-C , 34-C ) :   1.1719
B( 33-C , 79-H ) :   0.9938 B( 34-C , 35-S ) :   1.0679 B( 34-C , 36-C ) :   1.5059
B( 36-C , 37-C ) :   1.1868 B( 36-C , 40-S ) :   1.0426 B( 37-C , 38-C ) :   1.5850
B( 37-C , 80-H ) :   0.9929 B( 38-C , 39-C ) :   1.1499 B( 38-C , 81-H ) :   1.0004
B( 39-C , 40-S ) :   1.0585 B( 39-C , 41-C ) :   1.5123 B( 41-C , 42-C ) :   1.2134
B( 41-C , 82-H ) :   0.9699 B( 42-C , 43-C ) :   1.3196 B( 42-C , 48-C ) :   1.1433
B( 43-C , 44-C ) :   1.2821 B( 43-C , 83-H ) :   0.9765 B( 44-C , 45-F ) :   1.1497
B( 44-C , 46-C ) :   1.3477 B( 46-C , 47-C ) :   1.1666 B( 46-C , 52-C ) :   1.0957
B( 47-C , 48-C ) :   1.1547 B( 47-C , 51-N ) :   1.5515 B( 48-C , 49-N ) :   1.5802
B( 49-N , 50-S ) :   1.2621 B( 49-N , 51-N ) :   0.1345 B( 50-S , 51-N ) :   1.2313
B( 52-C , 53-C ) :   1.6477 B( 52-C , 84-H ) :   0.9405 B( 53-C , 54-C ) :   1.0474
B( 53-C , 62-C ) :   0.9427 B( 54-C , 55-C ) :   1.6276 B( 54-C , 60-C ) :   1.0192
B( 55-C , 56-C ) :   1.1444 B( 55-C , 58-C ) :   1.1713 B( 56-C , 57-N ) :   2.9832
B( 58-C , 59-N ) :   3.0052 B( 60-C , 61-C ) :   1.2745 B( 60-C , 67-C ) :   1.4176
B( 61-C , 62-C ) :   0.9192 B( 61-C , 64-C ) :   1.4265 B( 62-C , 63-O ) :   2.2687
B( 64-C , 65-C ) :   1.2542 B( 64-C , 85-H ) :   1.0154 B( 65-C , 66-C ) :   1.3105
B( 65-C , 70-C ) :   1.1603 B( 66-C , 67-C ) :   1.3255 B( 66-C , 68-S ) :   1.0818
B( 67-C , 86-H ) :   0.9828 B( 68-S , 69-C ) :   1.0852 B( 69-C , 70-C ) :   1.6206
B( 69-C , 71-Br) :   1.0157 B( 70-C , 87-H ) :   1.0003

-----------------------------------------------------------------------------
         ABSORPTION SPECTRUM VIA TRANSITION ELECTRIC DIPOLE MOMENTS
-----------------------------------------------------------------------------
State   Energy  Wavelength   fosc         T2         TX        TY        TZ
        (cm-1)    (nm)                  (au**2)     (au)      (au)      (au)
-----------------------------------------------------------------------------
   0   11041.2    905.7   1.068804991  31.86832  -3.08252  -0.70639   4.67626
   1   16488.4    606.5   0.617952153  12.33817   0.73932  -3.26980  -1.04880
   2   21548.0    464.1   0.698251226  10.66795  -0.35465   3.19636   0.57050
   3   21984.1    454.9   0.091180134   1.36543  -0.78629  -0.58190   0.63918
   4   23396.5    427.4   0.004307018   0.06060  -0.19351  -0.13223   0.07533
   5   24169.2    413.7   0.338146404   4.60594  -1.38715   1.39436   0.85879
   6   25007.4    399.9   0.060873654   0.80138   0.20875  -0.39719   0.77463
   7   25928.7    385.7   0.125399731   1.59218  -0.62720  -1.04976  -0.31115
   8   26203.8    381.6   0.104254448   1.30980  -0.29017   0.13714  -1.09854
   9   26720.5    374.2   0.052973260   0.65266  -0.49360  -0.63467  -0.07883
  10   27334.8    365.8   0.045487225   0.54783  -0.05250   0.70678   0.21340
  11   28003.4    357.1   0.061761608   0.72608  -0.10553   0.82738   0.17429
  12   28244.3    354.1   0.021505820   0.25067  -0.00693   0.44917  -0.22106
  13   28768.3    347.6   0.044735643   0.51193  -0.08736   0.20340   0.68039
  14   28834.7    346.8   0.025841602   0.29504   0.15781  -0.47174  -0.21815
  15   29455.4    339.5   0.007841498   0.08764  -0.06469  -0.28580  -0.04211
  16   29594.5    337.9   0.006748516   0.07507   0.05283  -0.25414  -0.08772
  17   30584.6    327.0   0.009386482   0.10104  -0.17621  -0.15629  -0.21345
  18   30921.5    323.4   0.115947041   1.23445  -0.33539   0.14934   1.04865
  19   31247.2    320.0   0.243124001   2.56149   0.86701  -1.15805  -0.68461
  20   31615.1    316.3   0.540591265   5.62924   1.72689   0.87478   1.37181
  21   31959.0    312.9   0.067858152   0.69901  -0.19798  -0.01243  -0.81219
  22   32065.2    311.9   0.061000688   0.62629   0.17113  -0.19029   0.74886
  23   32379.1    308.8   0.017792401   0.18090   0.04330   0.23269   0.35339
  24   32707.7    305.7   0.410678541   4.13359  -1.41313   1.31226   0.64393
  25   33039.9    302.7   0.055764464   0.55564  -0.67436   0.13535  -0.28734
  26   33248.4    300.8   0.086722664   0.85869  -0.17789  -0.38168  -0.82545
  27   33424.4    299.2   0.051192966   0.50422  -0.67384  -0.18864   0.12072
  28   33572.6    297.9   0.025645726   0.25148  -0.25402  -0.23865   0.36056
  29   33711.3    296.6   0.006095431   0.05953  -0.10373  -0.21494  -0.05065
  30   34056.6    293.6   0.086660681   0.83772   0.71269   0.11485  -0.56267
  31   34429.8    290.4   0.038023639   0.36358   0.39802  -0.29579   0.34302
  32   35314.7    283.2   0.033351434   0.31091   0.28354  -0.29847   0.37607
  33   35730.0    279.9   0.014571122   0.13426   0.16492  -0.00778  -0.32710
  34   35760.9    279.6   0.019570909   0.18017   0.10816   0.37104  -0.17549
  35   35906.3    278.5   0.112294579   1.02959  -0.51549   0.31856  -0.81386
  36   36056.3    277.3   0.089894958   0.82078   0.69899  -0.14696   0.55732
  37   36496.5    274.0   0.217255308   1.95972   0.98859  -0.96203   0.23855
  38   36635.3    273.0   0.041236213   0.37056   0.18929  -0.53944  -0.20913
  39   36914.0    270.9   0.082398532   0.73486  -0.20438   0.83245  -0.01092
  40   37144.6    269.2   0.044320663   0.39281  -0.39404   0.03237  -0.48631
  41   37311.2    268.0   0.006928995   0.06114  -0.09886   0.09623  -0.20519
  42   37456.9    267.0   0.040787562   0.35849  -0.21634  -0.18962   0.52510
  43   37802.8    264.5   0.023055074   0.20078   0.17128  -0.25596  -0.32546
  44   37885.1    264.0   0.006694573   0.05817   0.05333  -0.16343  -0.16917
  45   38089.6    262.5   0.007987186   0.06903  -0.05436  -0.20108  -0.16014
  46   38104.9    262.4   0.011837449   0.10227  -0.17008   0.22671  -0.14813
  47   38225.5    261.6   0.005452078   0.04696   0.14774  -0.00061  -0.15851
  48   38494.6    259.8   0.045018597   0.38501  -0.61724   0.05646  -0.02896
  49   38843.4    257.4   0.096813712   0.82053  -0.07331  -0.89737  -0.09940
  50   39083.8    255.9   0.033452023   0.28177   0.30613   0.43003   0.05598
  51   39290.3    254.5   0.124536865   1.04349  -0.48547   0.28855  -0.85120
  52   39634.3    252.3   0.149895822   1.24507   0.07695  -1.09737   0.18692
  53   39952.0    250.3   0.104057714   0.85746   0.33535  -0.74488   0.43605
  54   40148.1    249.1   0.008197696   0.06722   0.13504  -0.01611  -0.22074

FINAL SINGLE POINT ENERGY    -10312.057566366477

DIPOLE MOMENT
-------------
                                X             Y             Z
Electronic contribution:      4.16898    -126.93707     -91.88328
Nuclear contribution   :     -5.49199     129.55379      91.61363
                        -----------------------------------------
Total Dipole Moment    :     -1.32300       2.61672      -0.26965
                        -----------------------------------------
Magnitude (a.u.)       :      2.94453
Magnitude (Debye)      :      7.48440

Rotational constants in cm-1:     0.000619     0.000273     0.000208
Rotational constants in MHz :    18.567444     8.186039     6.231240

                             ****ORCA TERMINATED NORMALLY****
TOTAL RUN TIME: 0 days 0 hours 13 minutes 7 seconds 540 msec
