                         Program Version 4.2.0 -  RELEASE  -
|  1> # ORCA input file
|  2> # SCF done       -169.520104798147          0.000668586852
|  3> ! CAM-B3LYP def2-SVP def2/J RIJCOSX Grid4 TightSCF
|  4> %maxcore 5000
|  5> %tddft
|  6>     Mode sTDDFT
|  7>     Ethresh 5.0
|  8>     maxcore 5000
|  9> end
| 10>
| 11> %pal
| 12>   nprocs 6
| 13>   end
| 14> * xyz 0 1
| 15>    C      -10.58681         3.53983         3.09843
| 16>    C      -10.40368         4.42011         4.13740
| 17>    C      -11.08995         4.34778         5.36558
| 18>    N      -11.62421         4.34646         6.38237
| 19>    C       -9.49644         5.49868         4.12704
| 20>    N       -8.77225         6.38734         4.20124
| 21>    C      -11.45863         2.37053         3.11830
| 22>    C      -11.29978         1.66561         1.90064
| 23>    C      -11.98623         0.51068         1.61804
| 24>    C      -12.87125         0.02422         2.58630
| 25>    C      -13.02798         0.73798         3.79737
| 26>    C      -12.33441         1.90812         4.08245
| 27>    S      -14.17929        -0.03109         4.84780
| 28>    C      -14.42903        -1.28485         3.66193
| 29>    C      -13.68962        -1.13789         2.53767
| 30>   Br      -15.64414        -2.66789         4.01965
| 31>    C      -10.33203         2.37494         1.04087
| 32>    O      -10.07066         2.11067        -0.11170
| 33>    C       -9.89322         3.55454         1.83239
| 34>    C       -9.12650         4.57193         1.33051
| 35>    C       -8.29237         4.44788         0.20184
| 36>    O       -7.95701         5.56490        -0.51277
| 37>    C       -7.62557         3.36732        -0.35287
| 38>    C       -7.33239         1.93446        -0.17356
| 39>    O       -7.62552         1.16255         0.69901
| 40>    N       -6.52057         1.63567        -1.26538
| 41>    C       -6.20928         2.71876        -2.07225
| 42>    O       -5.51641         2.64255        -3.07036
| 43>    C       -6.88823         3.84500        -1.45298
| 44>    C       -7.12487         5.22700        -1.53430
| 45>    C       -6.68607         6.19297        -2.44368
| 46>    C       -5.79964         5.86162        -3.44502
| 47>    C       -5.36831         6.67216        -4.48456
| 48>    C       -4.47883         6.19123        -5.43842
| 49>    C       -4.12278         6.74490        -6.68233
| 50>    C       -3.32438         5.93265        -7.44826
| 51>    C       -2.98710         4.72460        -6.81965
| 52>    S       -3.68779         4.65136        -5.22103
| 53>    C       -2.28741         3.62237        -7.29991
| 54>    C       -1.88187         3.31477        -8.61225
| 55>    C       -1.37033         2.05513        -8.74490
| 56>    C       -1.35151         1.30962        -7.54399
| 57>    S       -1.91440         2.30753        -6.22253
| 58>    C       -0.90938         0.01739        -7.39207
| 59>    C       -0.96135        -0.80908        -6.25376
| 60>    S        0.37741        -1.94236        -6.14951
| 61>    C       -0.08282        -2.45912        -4.60344
| 62>    C       -1.24558        -1.85416        -4.17401
| 63>    C       -1.81159        -0.94440        -5.13514
| 64>    C       -3.11423        -0.40146        -4.88699
| 65>    C       -3.62173        -0.54224        -3.58704
| 66>    C       -2.99902        -1.38520        -2.63617
| 67>    C       -1.86538        -2.07353        -2.92546
| 68>    O       -4.76975         0.00905        -3.14745
| 69>    C       -3.90971         0.17986        -5.94702
| 70>    S       -4.99466         1.51934        -5.69299
| 71>    C       -5.34662         1.66404        -7.34697
| 72>    C       -4.72491         0.69124        -8.09779
| 73>    C       -3.93350        -0.19455        -7.29171
| 74>    C       -3.34093        -1.31954        -7.90641
| 75>    C       -3.44018        -1.48266        -9.26210
| 76>    C       -4.14008        -0.54548       -10.06705
| 77>    C       -4.78917         0.50301        -9.49909
| 78>    O       -2.88478        -2.53892        -9.91125
| 79>    H      -11.84057        -0.00396         0.68159
| 80>    H      -12.49264         2.41836         5.01778
| 81>    H      -13.71883        -1.81838         1.70641
| 82>    H       -9.15321         5.55271         1.78681
| 83>    H       -6.15778         0.70912        -1.45118
| 84>    H       -7.07191         7.19573        -2.33908
| 85>    H       -5.42360         4.84645        -3.44368
| 86>    H       -5.76191         7.67197        -4.60306
| 87>    H       -4.49229         7.70350        -7.00156
| 88>    H       -2.98163         6.18015        -8.43732
| 89>    H       -2.00925         4.00746        -9.42452
| 90>    H       -1.04543         1.62506        -9.67552
| 91>    H       -0.35084        -0.38466        -8.23006
| 92>    H        0.51562        -3.16744        -4.06573
| 93>    H       -3.49301        -1.48687        -1.68266
| 94>    H       -1.42315        -2.76396        -2.22527
| 95>    H       -4.96500         0.89117        -3.52171
| 96>    H       -6.00074         2.44221        -7.68678
| 97>    H       -2.85111        -2.07105        -7.30483
| 98>    H       -4.16479        -0.72265       -11.13016
| 99>    H       -5.36382         1.19441       -10.09593
|100>    H       -2.46501        -3.13403        -9.27806
|101> *
|102>
|103>                          ****END OF INPUT****

CARTESIAN COORDINATES (ANGSTROEM)
---------------------------------
  C    -10.586810    3.539830    3.098430
  C    -10.403680    4.420110    4.137400
  C    -11.089950    4.347780    5.365580
  N    -11.624210    4.346460    6.382370
  C     -9.496440    5.498680    4.127040
  N     -8.772250    6.387340    4.201240
  C    -11.458630    2.370530    3.118300
  C    -11.299780    1.665610    1.900640
  C    -11.986230    0.510680    1.618040
  C    -12.871250    0.024220    2.586300
  C    -13.027980    0.737980    3.797370
  C    -12.334410    1.908120    4.082450
  S    -14.179290   -0.031090    4.847800
  C    -14.429030   -1.284850    3.661930
  C    -13.689620   -1.137890    2.537670
  Br   -15.644140   -2.667890    4.019650
  C    -10.332030    2.374940    1.040870
  O    -10.070660    2.110670   -0.111700
  C     -9.893220    3.554540    1.832390
  C     -9.126500    4.571930    1.330510
  C     -8.292370    4.447880    0.201840
  O     -7.957010    5.564900   -0.512770
  C     -7.625570    3.367320   -0.352870
  C     -7.332390    1.934460   -0.173560
  O     -7.625520    1.162550    0.699010
  N     -6.520570    1.635670   -1.265380
  C     -6.209280    2.718760   -2.072250
  O     -5.516410    2.642550   -3.070360
  C     -6.888230    3.845000   -1.452980
  C     -7.124870    5.227000   -1.534300
  C     -6.686070    6.192970   -2.443680
  C     -5.799640    5.861620   -3.445020
  C     -5.368310    6.672160   -4.484560
  C     -4.478830    6.191230   -5.438420
  C     -4.122780    6.744900   -6.682330
  C     -3.324380    5.932650   -7.448260
  C     -2.987100    4.724600   -6.819650
  S     -3.687790    4.651360   -5.221030
  C     -2.287410    3.622370   -7.299910
  C     -1.881870    3.314770   -8.612250
  C     -1.370330    2.055130   -8.744900
  C     -1.351510    1.309620   -7.543990
  S     -1.914400    2.307530   -6.222530
  C     -0.909380    0.017390   -7.392070
  C     -0.961350   -0.809080   -6.253760
  S      0.377410   -1.942360   -6.149510
  C     -0.082820   -2.459120   -4.603440
  C     -1.245580   -1.854160   -4.174010
  C     -1.811590   -0.944400   -5.135140
  C     -3.114230   -0.401460   -4.886990
  C     -3.621730   -0.542240   -3.587040
  C     -2.999020   -1.385200   -2.636170
  C     -1.865380   -2.073530   -2.925460
  O     -4.769750    0.009050   -3.147450
  C     -3.909710    0.179860   -5.947020
  S     -4.994660    1.519340   -5.692990
  C     -5.346620    1.664040   -7.346970
  C     -4.724910    0.691240   -8.097790
  C     -3.933500   -0.194550   -7.291710
  C     -3.340930   -1.319540   -7.906410
  C     -3.440180   -1.482660   -9.262100
  C     -4.140080   -0.545480  -10.067050
  C     -4.789170    0.503010   -9.499090
  O     -2.884780   -2.538920   -9.911250
  H    -11.840570   -0.003960    0.681590
  H    -12.492640    2.418360    5.017780
  H    -13.718830   -1.818380    1.706410
  H     -9.153210    5.552710    1.786810
  H     -6.157780    0.709120   -1.451180
  H     -7.071910    7.195730   -2.339080
  H     -5.423600    4.846450   -3.443680
  H     -5.761910    7.671970   -4.603060
  H     -4.492290    7.703500   -7.001560
  H     -2.981630    6.180150   -8.437320
  H     -2.009250    4.007460   -9.424520
  H     -1.045430    1.625060   -9.675520
  H     -0.350840   -0.384660   -8.230060
  H      0.515620   -3.167440   -4.065730
  H     -3.493010   -1.486870   -1.682660
  H     -1.423150   -2.763960   -2.225270
  H     -4.965000    0.891170   -3.521710
  H     -6.000740    2.442210   -7.686780
  H     -2.851110   -2.071050   -7.304830
  H     -4.164790   -0.722650  -11.130160
  H     -5.363820    1.194410  -10.095930
  H     -2.465010   -3.134030   -9.278060

 Total Charge           Charge          ....    0
 Multiplicity           Mult            ....    1
 Number of Electrons    NEL             ....  500
 Basis Dimension        Dim             .... 1044

ORBITAL ENERGIES
----------------

  NO   OCC          E(Eh)            E(eV)
   0   2.0000    -482.877799    -13139.7729
   1   2.0000     -88.979011     -2421.2420
   2   2.0000     -88.965769     -2420.8817
   3   2.0000     -88.958959     -2420.6963
   4   2.0000     -88.954710     -2420.5807
   5   2.0000     -88.946047     -2420.3450
   6   2.0000     -62.555533     -1702.2226
   7   2.0000     -56.389471     -1534.4355
   8   2.0000     -56.386775     -1534.3622
   9   2.0000     -56.386739     -1534.3612
  10   2.0000     -19.293050      -524.9906
  11   2.0000     -19.249437      -523.8038
  12   2.0000     -19.249059      -523.7935
  13   2.0000     -19.217647      -522.9388
  14   2.0000     -19.205627      -522.6117
  15   2.0000     -19.201568      -522.5012
  16   2.0000     -14.446876      -393.1195
  17   2.0000     -14.402338      -391.9075
  18   2.0000     -14.401657      -391.8890
  19   2.0000     -10.400339      -283.0076
  20   2.0000     -10.392349      -282.7902
  21   2.0000     -10.357219      -281.8343
  22   2.0000     -10.353347      -281.7289
  23   2.0000     -10.350028      -281.6386
  24   2.0000     -10.349485      -281.6238
  25   2.0000     -10.342637      -281.4375
  26   2.0000     -10.336376      -281.2671
  27   2.0000     -10.327646      -281.0295
  28   2.0000     -10.327096      -281.0146
  29   2.0000     -10.325696      -280.9765
  30   2.0000     -10.315942      -280.7111
  31   2.0000     -10.315621      -280.7023
  32   2.0000     -10.314622      -280.6751
  33   2.0000     -10.312835      -280.6265
  34   2.0000     -10.312129      -280.6073
  35   2.0000     -10.308463      -280.5075
  36   2.0000     -10.307323      -280.4765
  37   2.0000     -10.305772      -280.4343
  38   2.0000     -10.305254      -280.4202
  39   2.0000     -10.304883      -280.4101
  40   2.0000     -10.302015      -280.3321
  41   2.0000     -10.297106      -280.1985
  42   2.0000     -10.296653      -280.1862
  43   2.0000     -10.296508      -280.1822
  44   2.0000     -10.295931      -280.1665
  45   2.0000     -10.295055      -280.1427
  46   2.0000     -10.293945      -280.1125
  47   2.0000     -10.293738      -280.1068
  48   2.0000     -10.293239      -280.0933
  49   2.0000     -10.293189      -280.0919
  50   2.0000     -10.292197      -280.0649
  51   2.0000     -10.291055      -280.0338
  52   2.0000     -10.290203      -280.0107
  53   2.0000     -10.288837      -279.9735
  54   2.0000     -10.287514      -279.9375
  55   2.0000     -10.286091      -279.8988
  56   2.0000     -10.282848      -279.8105
  57   2.0000     -10.281027      -279.7610
  58   2.0000     -10.280173      -279.7377
  59   2.0000     -10.279544      -279.7206
  60   2.0000     -10.279424      -279.7173
  61   2.0000     -10.278310      -279.6870
  62   2.0000     -10.277276      -279.6589
  63   2.0000     -10.276468      -279.6369
  64   2.0000     -10.274303      -279.5780
  65   2.0000     -10.266920      -279.3771
  66   2.0000     -10.266701      -279.3711
  67   2.0000     -10.266006      -279.3522
  68   2.0000      -8.784971      -239.0512
  69   2.0000      -8.074535      -219.7193
  70   2.0000      -8.061730      -219.3708
  71   2.0000      -8.053354      -219.1429
  72   2.0000      -8.050248      -219.0584
  73   2.0000      -8.042058      -218.8355
  74   2.0000      -6.621230      -180.1728
  75   2.0000      -6.606724      -179.7781
  76   2.0000      -6.606544      -179.7732
  77   2.0000      -6.043480      -164.4515
  78   2.0000      -6.039335      -164.3387
  79   2.0000      -6.037439      -164.2871
  80   2.0000      -6.031428      -164.1235
  81   2.0000      -6.027156      -164.0072
  82   2.0000      -6.022957      -163.8930
  83   2.0000      -6.022415      -163.8782
  84   2.0000      -6.019896      -163.8097
  85   2.0000      -6.017965      -163.7571
  86   2.0000      -6.016326      -163.7126
  87   2.0000      -6.015710      -163.6958
  88   2.0000      -6.011612      -163.5843
  89   2.0000      -6.011497      -163.5811
  90   2.0000      -6.007541      -163.4735
  91   2.0000      -6.003318      -163.3586
  92   2.0000      -2.737101       -74.4803
  93   2.0000      -2.733045       -74.3699
  94   2.0000      -2.732897       -74.3659
  95   2.0000      -2.721378       -74.0525
  96   2.0000      -2.721355       -74.0518
  97   2.0000      -1.209764       -32.9194
  98   2.0000      -1.156331       -31.4654
  99   2.0000      -1.145803       -31.1789
 100   2.0000      -1.144532       -31.1443
 101   2.0000      -1.132774       -30.8244
 102   2.0000      -1.116560       -30.3832
 103   2.0000      -1.038415       -28.2567
 104   2.0000      -1.011220       -27.5167
 105   2.0000      -1.010854       -27.5067
 106   2.0000      -1.001051       -27.2400
 107   2.0000      -1.000686       -27.2300
 108   2.0000      -0.988456       -26.8972
 109   2.0000      -0.980749       -26.6875
 110   2.0000      -0.977836       -26.6083
 111   2.0000      -0.977241       -26.5921
 112   2.0000      -0.938398       -25.5351
 113   2.0000      -0.934101       -25.4182
 114   2.0000      -0.922606       -25.1054
 115   2.0000      -0.920341       -25.0437
 116   2.0000      -0.914430       -24.8829
 117   2.0000      -0.906516       -24.6676
 118   2.0000      -0.897231       -24.4149
 119   2.0000      -0.893664       -24.3178
 120   2.0000      -0.878858       -23.9149
 121   2.0000      -0.874554       -23.7978
 122   2.0000      -0.868272       -23.6269
 123   2.0000      -0.856408       -23.3040
 124   2.0000      -0.847595       -23.0642
 125   2.0000      -0.846517       -23.0349
 126   2.0000      -0.837592       -22.7921
 127   2.0000      -0.828745       -22.5513
 128   2.0000      -0.823096       -22.3976
 129   2.0000      -0.819604       -22.3026
 130   2.0000      -0.817687       -22.2504
 131   2.0000      -0.803772       -21.8717
 132   2.0000      -0.785605       -21.3774
 133   2.0000      -0.776214       -21.1219
 134   2.0000      -0.766603       -20.8603
 135   2.0000      -0.755034       -20.5455
 136   2.0000      -0.751976       -20.4623
 137   2.0000      -0.745616       -20.2892
 138   2.0000      -0.734075       -19.9752
 139   2.0000      -0.731543       -19.9063
 140   2.0000      -0.723957       -19.6999
 141   2.0000      -0.705022       -19.1846
 142   2.0000      -0.695741       -18.9321
 143   2.0000      -0.691284       -18.8108
 144   2.0000      -0.687159       -18.6985
 145   2.0000      -0.677824       -18.4445
 146   2.0000      -0.676886       -18.4190
 147   2.0000      -0.669277       -18.2120
 148   2.0000      -0.667342       -18.1593
 149   2.0000      -0.655424       -17.8350
 150   2.0000      -0.649526       -17.6745
 151   2.0000      -0.643707       -17.5162
 152   2.0000      -0.635940       -17.3048
 153   2.0000      -0.628212       -17.0945
 154   2.0000      -0.625497       -17.0207
 155   2.0000      -0.619802       -16.8657
 156   2.0000      -0.615824       -16.7574
 157   2.0000      -0.612664       -16.6714
 158   2.0000      -0.612195       -16.6587
 159   2.0000      -0.602849       -16.4044
 160   2.0000      -0.600970       -16.3532
 161   2.0000      -0.595641       -16.2082
 162   2.0000      -0.590049       -16.0560
 163   2.0000      -0.586693       -15.9647
 164   2.0000      -0.582250       -15.8438
 165   2.0000      -0.580093       -15.7851
 166   2.0000      -0.571541       -15.5524
 167   2.0000      -0.563719       -15.3396
 168   2.0000      -0.560422       -15.2499
 169   2.0000      -0.557826       -15.1792
 170   2.0000      -0.551673       -15.0118
 171   2.0000      -0.545822       -14.8526
 172   2.0000      -0.540001       -14.6942
 173   2.0000      -0.536248       -14.5920
 174   2.0000      -0.534959       -14.5570
 175   2.0000      -0.530675       -14.4404
 176   2.0000      -0.528132       -14.3712
 177   2.0000      -0.526813       -14.3353
 178   2.0000      -0.524693       -14.2776
 179   2.0000      -0.523350       -14.2411
 180   2.0000      -0.519718       -14.1422
 181   2.0000      -0.519327       -14.1316
 182   2.0000      -0.516381       -14.0514
 183   2.0000      -0.512591       -13.9483
 184   2.0000      -0.508619       -13.8402
 185   2.0000      -0.507408       -13.8073
 186   2.0000      -0.503124       -13.6907
 187   2.0000      -0.500168       -13.6103
 188   2.0000      -0.498294       -13.5593
 189   2.0000      -0.498066       -13.5531
 190   2.0000      -0.496952       -13.5227
 191   2.0000      -0.494326       -13.4513
 192   2.0000      -0.491592       -13.3769
 193   2.0000      -0.490411       -13.3448
 194   2.0000      -0.484100       -13.1730
 195   2.0000      -0.483123       -13.1464
 196   2.0000      -0.481290       -13.0966
 197   2.0000      -0.478326       -13.0159
 198   2.0000      -0.475470       -12.9382
 199   2.0000      -0.472420       -12.8552
 200   2.0000      -0.470754       -12.8099
 201   2.0000      -0.464846       -12.6491
 202   2.0000      -0.463839       -12.6217
 203   2.0000      -0.460695       -12.5361
 204   2.0000      -0.457174       -12.4403
 205   2.0000      -0.454525       -12.3683
 206   2.0000      -0.451222       -12.2784
 207   2.0000      -0.448774       -12.2118
 208   2.0000      -0.446753       -12.1568
 209   2.0000      -0.440251       -11.9798
 210   2.0000      -0.437626       -11.9084
 211   2.0000      -0.436317       -11.8728
 212   2.0000      -0.435356       -11.8467
 213   2.0000      -0.434254       -11.8166
 214   2.0000      -0.431436       -11.7400
 215   2.0000      -0.429084       -11.6760
 216   2.0000      -0.428248       -11.6532
 217   2.0000      -0.419871       -11.4253
 218   2.0000      -0.416810       -11.3420
 219   2.0000      -0.414991       -11.2925
 220   2.0000      -0.412905       -11.2357
 221   2.0000      -0.410980       -11.1833
 222   2.0000      -0.404626       -11.0104
 223   2.0000      -0.400874       -10.9083
 224   2.0000      -0.396226       -10.7818
 225   2.0000      -0.395880       -10.7724
 226   2.0000      -0.395290       -10.7564
 227   2.0000      -0.387074       -10.5328
 228   2.0000      -0.379128       -10.3166
 229   2.0000      -0.373017       -10.1503
 230   2.0000      -0.371865       -10.1190
 231   2.0000      -0.370957       -10.0942
 232   2.0000      -0.367319        -9.9953
 233   2.0000      -0.367149        -9.9906
 234   2.0000      -0.356951        -9.7131
 235   2.0000      -0.352456        -9.5908
 236   2.0000      -0.344554        -9.3758
 237   2.0000      -0.337074        -9.1723
 238   2.0000      -0.331569        -9.0224
 239   2.0000      -0.326198        -8.8763
 240   2.0000      -0.324098        -8.8192
 241   2.0000      -0.315555        -8.5867
 242   2.0000      -0.304801        -8.2940
 243   2.0000      -0.303653        -8.2628
 244   2.0000      -0.294784        -8.0215
 245   2.0000      -0.285247        -7.7620
 246   2.0000      -0.280858        -7.6425
 247   2.0000      -0.264719        -7.2034
 248   2.0000      -0.243544        -6.6272
 249   2.0000      -0.202413        -5.5079
 250   0.0000      -0.100031        -2.7220
 251   0.0000      -0.080576        -2.1926
 252   0.0000      -0.049840        -1.3562
 253   0.0000      -0.046952        -1.2776
 254   0.0000      -0.037668        -1.0250

MULLIKEN ATOMIC CHARGES
-----------------------
   0 C :    0.303859
   1 C :   -0.349831
   2 C :   -0.186873
   3 N :    0.142621
   4 C :   -0.202687
   5 N :    0.157070
   6 C :    0.020565
   7 C :   -0.017099
   8 C :   -0.067711
   9 C :    0.118671
  10 C :   -0.090256
  11 C :   -0.024527
  12 S :    0.180972
  13 C :   -0.124417
  14 C :    0.036796
  15 Br:    0.016508
  16 C :    0.158313
  17 O :   -0.155641
  18 C :   -0.092895
  19 C :   -0.033729
  20 C :    0.108565
  21 O :   -0.209119
  22 C :   -0.008752
  23 C :    0.187151
  24 O :   -0.135419
  25 N :   -0.158880
  26 C :    0.216818
  27 O :   -0.243408
  28 C :   -0.096818
  29 C :    0.180220
  30 C :   -0.049551
  31 C :   -0.003823
  32 C :   -0.010284
  33 C :   -0.017646
  34 C :    0.017588
  35 C :    0.039008
  36 C :   -0.060626
  37 S :    0.086960
  38 C :   -0.030016
  39 C :    0.016606
  40 C :    0.059056
  41 C :   -0.049374
  42 S :    0.123773
  43 C :    0.098383
  44 C :   -0.317495
  45 S :    0.152908
  46 C :   -0.102637
  47 C :    0.057307
  48 C :    0.161679
  49 C :    0.047572
  50 C :    0.085552
  51 C :   -0.005663
  52 C :    0.019011
  53 O :   -0.226580
  54 C :   -0.288267
  55 S :    0.143039
  56 C :   -0.100431
  57 C :    0.075532
  58 C :    0.151571
  59 C :   -0.056712
  60 C :    0.128098
  61 C :   -0.010574
  62 C :    0.003325
  63 O :   -0.189768
  64 H :   -0.013489
  65 H :   -0.009601
  66 H :   -0.004385
  67 H :    0.032117
  68 H :    0.137985
  69 H :   -0.022191
  70 H :    0.034918
  71 H :   -0.021851
  72 H :   -0.015877
  73 H :   -0.013551
  74 H :   -0.014352
  75 H :   -0.008631
  76 H :   -0.006952
  77 H :    0.027633
  78 H :   -0.011347
  79 H :   -0.017736
  80 H :    0.224431
  81 H :    0.017468
  82 H :   -0.031077
  83 H :   -0.015824
  84 H :   -0.024375
  85 H :    0.179096
Sum of atomic charges:   -0.0000000

LOEWDIN ATOMIC CHARGES
----------------------
   0 C :    0.074069
   1 C :   -0.145626
   2 C :   -0.018194
   3 N :   -0.060928
   4 C :   -0.023440
   5 N :   -0.056625
   6 C :   -0.018018
   7 C :   -0.044268
   8 C :    0.022029
   9 C :   -0.034040
  10 C :   -0.144619
  11 C :   -0.012245
  12 S :    0.428300
  13 C :   -0.273948
  14 C :   -0.070579
  15 Br:    0.131372
  16 C :    0.087395
  17 O :   -0.140439
  18 C :   -0.089318
  19 C :    0.046094
  20 C :    0.033360
  21 O :    0.006473
  22 C :   -0.037483
  23 C :    0.092903
  24 O :   -0.141809
  25 N :    0.002485
  26 C :    0.105601
  27 O :   -0.193308
  28 C :   -0.129176
  29 C :    0.099876
  30 C :   -0.093588
  31 C :    0.019813
  32 C :   -0.098123
  33 C :   -0.115237
  34 C :   -0.063355
  35 C :   -0.016881
  36 C :   -0.211326
  37 S :    0.412618
  38 C :   -0.146890
  39 C :   -0.050330
  40 C :   -0.007617
  41 C :   -0.166122
  42 S :    0.440257
  43 C :   -0.037361
  44 C :   -0.200106
  45 S :    0.478869
  46 C :   -0.172617
  47 C :   -0.059287
  48 C :   -0.037420
  49 C :   -0.093918
  50 C :    0.075996
  51 C :   -0.037804
  52 C :    0.000716
  53 O :   -0.049255
  54 C :   -0.214727
  55 S :    0.518131
  56 C :   -0.189284
  57 C :   -0.064553
  58 C :   -0.042777
  59 C :   -0.083260
  60 C :    0.049777
  61 C :   -0.046766
  62 C :    0.003976
  63 O :   -0.055842
  64 H :    0.040103
  65 H :    0.040037
  66 H :    0.038057
  67 H :    0.051183
  68 H :    0.087178
  69 H :    0.033891
  70 H :    0.022757
  71 H :    0.029407
  72 H :    0.031610
  73 H :    0.032053
  74 H :    0.032104
  75 H :    0.035385
  76 H :    0.034482
  77 H :    0.028430
  78 H :    0.036423
  79 H :    0.034136
  80 H :    0.041909
  81 H :    0.025329
  82 H :    0.025090
  83 H :    0.033485
  84 H :    0.031555
  85 H :    0.093796

  Mayer bond orders larger than 0.100000
B(  0-C ,  1-C ) :   1.6202 B(  0-C ,  6-C ) :   1.0024 B(  0-C , 18-C ) :   1.0994
B(  1-C ,  2-C ) :   1.1454 B(  1-C ,  4-C ) :   1.1448 B(  2-C ,  3-N ) :   2.9669
B(  4-C ,  5-N ) :   2.9915 B(  6-C ,  7-C ) :   1.2751 B(  6-C , 11-C ) :   1.4129
B(  7-C ,  8-C ) :   1.4297 B(  7-C , 16-C ) :   0.9402 B(  8-C ,  9-C ) :   1.2438
B(  8-C , 64-H ) :   1.0160 B(  9-C , 10-C ) :   1.3103 B(  9-C , 14-C ) :   1.1601
B( 10-C , 11-C ) :   1.3267 B( 10-C , 12-S ) :   1.0832 B( 11-C , 65-H ) :   0.9802
B( 12-S , 13-C ) :   1.0852 B( 13-C , 14-C ) :   1.6217 B( 13-C , 15-Br) :   1.0145
B( 14-C , 66-H ) :   0.9997 B( 16-C , 17-O ) :   2.2035 B( 16-C , 18-C ) :   0.9487
B( 18-C , 19-C ) :   1.5258 B( 19-C , 20-C ) :   1.2299 B( 19-C , 67-H ) :   0.9382
B( 20-C , 21-O ) :   1.0937 B( 20-C , 22-C ) :   1.3981 B( 21-O , 29-C ) :   1.1529
B( 22-C , 23-C ) :   0.8632 B( 22-C , 28-C ) :   1.3584 B( 23-C , 24-O ) :   2.2479
B( 23-C , 25-N ) :   1.0783 B( 25-N , 26-C ) :   1.1335 B( 25-N , 68-H ) :   0.9012
B( 26-C , 27-O ) :   1.9294 B( 26-C , 28-C ) :   0.9636 B( 27-O , 80-H ) :   0.1149
B( 28-C , 29-C ) :   1.2447 B( 29-C , 30-C ) :   1.2798 B( 30-C , 31-C ) :   1.4339
B( 30-C , 69-H ) :   0.9806 B( 31-C , 32-C ) :   1.2955 B( 31-C , 70-H ) :   0.9484
B( 32-C , 33-C ) :   1.3975 B( 32-C , 71-H ) :   0.9880 B( 33-C , 34-C ) :   1.2158
B( 33-C , 37-S ) :   1.1042 B( 34-C , 35-C ) :   1.4923 B( 34-C , 72-H ) :   0.9999
B( 35-C , 36-C ) :   1.2669 B( 35-C , 73-H ) :   0.9966 B( 36-C , 37-S ) :   1.0494
B( 36-C , 38-C ) :   1.3837 B( 38-C , 39-C ) :   1.2221 B( 38-C , 42-S ) :   1.1147
B( 39-C , 40-C ) :   1.5440 B( 39-C , 74-H ) :   0.9951 B( 40-C , 41-C ) :   1.1774
B( 40-C , 75-H ) :   0.9990 B( 41-C , 42-S ) :   1.0399 B( 41-C , 43-C ) :   1.5836
B( 43-C , 44-C ) :   1.1866 B( 43-C , 76-H ) :   0.9276 B( 44-C , 45-S ) :   1.1291
B( 44-C , 48-C ) :   1.3175 B( 45-S , 46-C ) :   1.2204 B( 46-C , 47-C ) :   1.4090
B( 46-C , 77-H ) :   0.9710 B( 47-C , 48-C ) :   1.1957 B( 47-C , 52-C ) :   1.1646
B( 48-C , 49-C ) :   1.1974 B( 49-C , 50-C ) :   1.3898 B( 49-C , 54-C ) :   1.0329
B( 50-C , 51-C ) :   1.2218 B( 50-C , 53-O ) :   1.2511 B( 51-C , 52-C ) :   1.5205
B( 51-C , 78-H ) :   0.9896 B( 52-C , 79-H ) :   1.0040 B( 53-O , 80-H ) :   0.8624
B( 54-C , 55-S ) :   1.1584 B( 54-C , 56-C ) :   0.1112 B( 54-C , 58-C ) :   1.3792
B( 55-S , 56-C ) :   1.2158 B( 56-C , 57-C ) :   1.4148 B( 56-C , 81-H ) :   0.9742
B( 57-C , 58-C ) :   1.2049 B( 57-C , 62-C ) :   1.1456 B( 58-C , 59-C ) :   1.1935
B( 59-C , 60-C ) :   1.4692 B( 59-C , 82-H ) :   0.9723 B( 60-C , 61-C ) :   1.1943
B( 60-C , 63-O ) :   1.2047 B( 61-C , 62-C ) :   1.5517 B( 61-C , 83-H ) :   0.9934
B( 62-C , 84-H ) :   1.0005 B( 63-O , 85-H ) :   0.9635

-----------------------------------------------------------------------------
         ABSORPTION SPECTRUM VIA TRANSITION ELECTRIC DIPOLE MOMENTS
-----------------------------------------------------------------------------
State   Energy  Wavelength   fosc         T2         TX        TY        TZ
        (cm-1)    (nm)                  (au**2)     (au)      (au)      (au)
-----------------------------------------------------------------------------
   0    8039.4   1243.9   0.609144838  24.94424   3.13724  -2.53309  -2.94711
   1   13196.4    757.8   0.330783620   8.25210  -1.53502  -1.30367   2.04848
   2   16012.0    624.5   0.256765924   5.27919  -1.92400  -0.06596   1.25423
   3   18125.9    551.7   0.065787005   1.19486   0.35210   0.21233  -1.01282
   4   19194.5    521.0   0.054005530   0.92627  -0.87849  -0.22337   0.32346
   5   20454.4    488.9   0.022353487   0.35978  -0.21939   0.20137  -0.52067
   6   20877.6    479.0   0.645722714  10.18216   0.96887   1.63763  -2.56157
   7   22604.1    442.4   0.164560233   2.39670   0.05180   1.04026  -1.14537
   8   24232.3    412.7   0.058378447   0.79311  -0.43624  -0.66278   0.40439
   9   24900.5    401.6   0.008387843   0.11090   0.27436  -0.16791   0.08620
  10   25130.1    397.9   0.011670455   0.15289   0.01084  -0.24385   0.30546
  11   25700.4    389.1   0.064389558   0.82481  -0.19589  -0.55095  -0.69490
  12   26584.1    376.2   0.217474718   2.69316   0.95382   1.32094   0.19624
  13   26836.8    372.6   0.158790982   1.94792   0.26409   1.34793  -0.24749
  14   27852.3    359.0   0.407513688   4.81677   0.91187  -1.68347   1.07294
  15   27931.5    358.0   0.117015609   1.37919  -0.19355  -0.38205   1.09351
  16   28969.5    345.2   0.029014726   0.32973  -0.07227   0.41470   0.39054
  17   29148.4    343.1   0.047321659   0.53447  -0.19788   0.69829  -0.08773
  18   29730.0    336.4   0.139051036   1.53977   1.14876   0.46447  -0.06624
  19   30023.6    333.1   0.008427258   0.09241  -0.11762   0.27920   0.02482
  20   30437.4    328.5   0.049613253   0.53662  -0.33176   0.65197   0.03860
  21   31197.1    320.5   0.003201710   0.03379  -0.07048   0.16923   0.01341
  22   31779.9    314.7   0.109539485   1.13473   0.40423   0.48711  -0.85677
  23   32011.8    312.4   0.114968659   1.18235   0.46662   0.97543   0.11466
  24   32152.9    311.0   0.030371541   0.31097  -0.42822  -0.29928   0.19501
  25   32536.9    307.3   0.133671465   1.35250  -0.50740  -1.00944  -0.27583
  26   32680.8    306.0   0.041144596   0.41447  -0.39153  -0.49136  -0.14053
  27   32782.7    305.0   0.045207089   0.45398  -0.19437  -0.64019  -0.07975
  28   33027.5    302.8   0.060620272   0.60425   0.07799  -0.73292   0.24698
  29   33309.5    300.2   0.206728596   2.04319   0.80207   0.73122   0.93016
  30   33482.3    298.7   0.130219451   1.28037  -0.78093  -0.78137  -0.24494
  31   33827.7    295.6   0.009349884   0.09099  -0.26368  -0.07189   0.12766
  32   34134.1    293.0   0.056749896   0.54733   0.07116  -0.43879  -0.59138
  33   35011.6    285.6   0.014134804   0.13291   0.26496   0.13374  -0.21170
  34   35144.6    284.5   0.001099682   0.01030   0.09462  -0.00899  -0.03560
  35   35390.9    282.6   0.032864402   0.30571   0.40047  -0.32431   0.20039
  36   35915.3    278.4   0.101933733   0.93436   0.55963   0.31705  -0.72157
  37   36437.0    274.4   0.005424689   0.04901  -0.17867   0.03606  -0.12566
  38   36668.2    272.7   0.057386601   0.51523   0.59434  -0.40030  -0.04179
  39   36904.9    271.0   0.070875095   0.63224   0.18613  -0.33592  -0.69624
  40   37180.3    269.0   0.015122617   0.13390  -0.07705  -0.21276   0.28757
  41   37319.5    268.0   0.045870815   0.40465  -0.42946   0.43789   0.16870
  42   37608.0    265.9   0.013523191   0.11838  -0.10944  -0.31371  -0.08938
  43   37747.0    264.9   0.091351145   0.79672  -0.28904   0.55068   0.64026
  44   38040.3    262.9   0.000850443   0.00736  -0.02018   0.07643  -0.03333
  45   38406.5    260.4   0.072765112   0.62373   0.39273  -0.44640  -0.51982
  46   38488.5    259.8   0.113378119   0.96978   0.15892   0.97157  -0.02417
  47   38710.9    258.3   0.187341958   1.59322  -0.58271   0.37702   1.05429
  48   38909.1    257.0   0.122149924   1.03352   0.57768  -0.53805  -0.64055
  49   39121.6    255.6   0.053928460   0.45381   0.44348   0.48557  -0.14615
  50   39465.5    253.4   0.052220587   0.43561  -0.12376  -0.46415  -0.45262
  51   39512.9    253.1   0.029114521   0.24258  -0.21597  -0.26264   0.35631
  52   39735.2    251.7   0.018554996   0.15373  -0.15845   0.13464   0.33241
  53   40123.4    249.2   0.033066877   0.27131  -0.39487   0.15837  -0.30052

FINAL SINGLE POINT ENERGY     -7057.172996441240

DIPOLE MOMENT
-------------
                                X             Y             Z
Electronic contribution:   -114.78023     -44.40452     103.47308
Nuclear contribution   :    117.44092      42.15918    -108.48772
                        -----------------------------------------
Total Dipole Moment    :      2.66068      -2.24533      -5.01464
                        -----------------------------------------
Magnitude (a.u.)       :      6.10470
Magnitude (Debye)      :     15.51692

Rotational constants in cm-1:     0.001642     0.000385     0.000342
Rotational constants in MHz :    49.217714    11.547020    10.255823

                             ****ORCA TERMINATED NORMALLY****
TOTAL RUN TIME: 0 days 0 hours 9 minutes 30 seconds 458 msec
