                         Program Version 4.2.0 -  RELEASE  -
|  1> # ORCA input file
|  2> # SCF done       -174.283147514910          0.000782511586
|  3> ! CAM-B3LYP def2-SVP def2/J RIJCOSX Grid4 TightSCF
|  4> %maxcore 5000
|  5> %tddft
|  6>     Mode sTDDFT
|  7>     Ethresh 5.0
|  8>     maxcore 5000
|  9> end
| 10>
| 11> %pal
| 12>   nprocs 6
| 13>   end
| 14> * xyz 0 1
| 15>    C       -0.40856         1.22480         1.69661
| 16>    C       -0.41327         0.52065         2.87562
| 17>    C        0.74607         0.16805         3.59311
| 18>    N        1.65657        -0.13982         4.22178
| 19>    C       -1.58244         0.06106         3.51256
| 20>    N       -2.50970        -0.32965         4.06631
| 21>    C        0.77949         1.71485         0.99965
| 22>    C        0.37435         2.38716        -0.18228
| 23>    C        1.26686         2.96106        -1.05384
| 24>    C        2.62854         2.87265        -0.74382
| 25>    C        3.02421         2.20337         0.43759
| 26>    C        2.11962         1.61887         1.31808
| 27>    S        4.75038         2.21562         0.63069
| 28>    C        4.91505         3.10766        -0.85841
| 29>    C        3.73882         3.38292        -1.47039
| 30>   Br        6.62251         3.59431        -1.46377
| 31>    C       -1.09081         2.35113        -0.26652
| 32>    O       -1.79838         2.84044        -1.14307
| 33>    C       -1.55288         1.62284         0.91610
| 34>    C       -2.89510         1.42695         1.15697
| 35>    N       -3.79912         1.90244         0.29374
| 36>    C       -5.14645         1.84808         0.38772
| 37>    S       -5.94547         1.08044         1.72725
| 38>    C       -7.47436         1.53628         1.04143
| 39>    N       -8.64061         1.18624         1.72496
| 40>    O       -9.70712         1.54121         1.24588
| 41>    O       -8.51799         0.55099         2.75706
| 42>    C       -7.36687         2.22352        -0.13794
| 43>    C       -6.03159         2.41926        -0.54521
| 44>    C       -5.60665         3.11157        -1.72255
| 45>    C       -6.45805         3.77760        -2.54182
| 46>    C       -6.11874         4.49670        -3.70703
| 47>    S       -7.37379         5.41113        -4.49358
| 48>    C       -6.28780         6.01237        -5.71438
| 49>    C       -4.99838         5.50175        -5.49536
| 50>    C       -4.90545         4.65891        -4.38137
| 51>    O       -3.78096         4.07110        -3.89665
| 52>    S       -2.56366         3.67026        -4.95891
| 53>    C       -2.26959         5.34029        -5.59152
| 54>    S       -3.68182         5.91806        -6.58741
| 55>    C       -6.68478         6.89116        -6.72347
| 56>    C       -7.95390         7.41265        -6.87726
| 57>    C       -8.40848         8.32589        -7.85561
| 58>    C       -9.72620         8.67842        -7.73418
| 59>    C      -10.37869         8.05838        -6.65583
| 60>    S       -9.26608         7.00752        -5.80212
| 61>    C      -11.67797         8.13616        -6.17541
| 62>    C      -12.79899         8.87064        -6.60691
| 63>    C      -13.91498         8.66458        -5.84455
| 64>    C      -13.74212         7.75646        -4.77152
| 65>    S      -12.08468         7.18219        -4.77400
| 66>    C      -14.69191         7.34688        -3.86563
| 67>    C      -14.52526         6.42781        -2.80927
| 68>    C      -13.36403         5.75777        -2.39027
| 69>    C      -13.69024         4.91288        -1.31179
| 70>    C      -12.90953         4.04354        -0.57202
| 71>    C      -13.53628         3.31296         0.43849
| 72>    C      -13.04309         2.36415         1.33185
| 73>    C      -14.11074         1.91194         2.16111
| 74>    C      -15.26646         2.58174         1.78314
| 75>    C      -14.95578         3.46751         0.70711
| 76>    C      -15.73335         4.33248        -0.01999
| 77>    C      -15.10863         5.06982        -1.04820
| 78>    C      -15.59641         5.99306        -1.95709
| 79>    C      -13.94216         0.91891         3.19605
| 80>    C      -14.90402         0.46515         3.99508
| 81>    H        0.92681         3.46253        -1.94634
| 82>    H        2.47211         1.11977         2.20510
| 83>    H        3.65587         3.92360        -2.39548
| 84>    H       -3.26215         0.90385         2.03022
| 85>    H       -3.37745         2.39275        -0.51884
| 86>    H       -8.23316         2.55878        -0.67715
| 87>    H       -4.55362         3.11559        -1.95853
| 88>    H       -7.51266         3.80891        -2.30568
| 89>    H       -2.10608         6.01660        -4.75480
| 90>    H       -1.40794         5.30805        -6.25097
| 91>    H       -5.92334         7.19321        -7.43037
| 92>    H       -7.74972         8.70027        -8.61934
| 93>    H      -10.23148         9.36456        -8.39079
| 94>    H      -12.75794         9.52496        -7.45955
| 95>    H      -14.86363         9.14000        -6.02498
| 96>    H      -15.68327         7.76607        -3.98885
| 97>    H      -12.37682         5.85483        -2.79595
| 98>    H      -11.85389         3.92400        -0.76702
| 99>    H      -12.02437         2.02247         1.38743
|100>    H      -16.24336         2.46514         2.21431
|101>    H      -16.79027         4.45012         0.17556
|102>    H      -16.61329         6.33526        -2.03424
|103>    H      -12.93480         0.53644         3.29765
|104>    H      -15.91937         0.81777         3.92876
|105>    H      -14.70647        -0.27917         4.74665
|106> *
|107>
|108>                          ****END OF INPUT****

CARTESIAN COORDINATES (ANGSTROEM)
---------------------------------
  C     -0.408560    1.224800    1.696610
  C     -0.413270    0.520650    2.875620
  C      0.746070    0.168050    3.593110
  N      1.656570   -0.139820    4.221780
  C     -1.582440    0.061060    3.512560
  N     -2.509700   -0.329650    4.066310
  C      0.779490    1.714850    0.999650
  C      0.374350    2.387160   -0.182280
  C      1.266860    2.961060   -1.053840
  C      2.628540    2.872650   -0.743820
  C      3.024210    2.203370    0.437590
  C      2.119620    1.618870    1.318080
  S      4.750380    2.215620    0.630690
  C      4.915050    3.107660   -0.858410
  C      3.738820    3.382920   -1.470390
  Br     6.622510    3.594310   -1.463770
  C     -1.090810    2.351130   -0.266520
  O     -1.798380    2.840440   -1.143070
  C     -1.552880    1.622840    0.916100
  C     -2.895100    1.426950    1.156970
  N     -3.799120    1.902440    0.293740
  C     -5.146450    1.848080    0.387720
  S     -5.945470    1.080440    1.727250
  C     -7.474360    1.536280    1.041430
  N     -8.640610    1.186240    1.724960
  O     -9.707120    1.541210    1.245880
  O     -8.517990    0.550990    2.757060
  C     -7.366870    2.223520   -0.137940
  C     -6.031590    2.419260   -0.545210
  C     -5.606650    3.111570   -1.722550
  C     -6.458050    3.777600   -2.541820
  C     -6.118740    4.496700   -3.707030
  S     -7.373790    5.411130   -4.493580
  C     -6.287800    6.012370   -5.714380
  C     -4.998380    5.501750   -5.495360
  C     -4.905450    4.658910   -4.381370
  O     -3.780960    4.071100   -3.896650
  S     -2.563660    3.670260   -4.958910
  C     -2.269590    5.340290   -5.591520
  S     -3.681820    5.918060   -6.587410
  C     -6.684780    6.891160   -6.723470
  C     -7.953900    7.412650   -6.877260
  C     -8.408480    8.325890   -7.855610
  C     -9.726200    8.678420   -7.734180
  C    -10.378690    8.058380   -6.655830
  S     -9.266080    7.007520   -5.802120
  C    -11.677970    8.136160   -6.175410
  C    -12.798990    8.870640   -6.606910
  C    -13.914980    8.664580   -5.844550
  C    -13.742120    7.756460   -4.771520
  S    -12.084680    7.182190   -4.774000
  C    -14.691910    7.346880   -3.865630
  C    -14.525260    6.427810   -2.809270
  C    -13.364030    5.757770   -2.390270
  C    -13.690240    4.912880   -1.311790
  C    -12.909530    4.043540   -0.572020
  C    -13.536280    3.312960    0.438490
  C    -13.043090    2.364150    1.331850
  C    -14.110740    1.911940    2.161110
  C    -15.266460    2.581740    1.783140
  C    -14.955780    3.467510    0.707110
  C    -15.733350    4.332480   -0.019990
  C    -15.108630    5.069820   -1.048200
  C    -15.596410    5.993060   -1.957090
  C    -13.942160    0.918910    3.196050
  C    -14.904020    0.465150    3.995080
  H      0.926810    3.462530   -1.946340
  H      2.472110    1.119770    2.205100
  H      3.655870    3.923600   -2.395480
  H     -3.262150    0.903850    2.030220
  H     -3.377450    2.392750   -0.518840
  H     -8.233160    2.558780   -0.677150
  H     -4.553620    3.115590   -1.958530
  H     -7.512660    3.808910   -2.305680
  H     -2.106080    6.016600   -4.754800
  H     -1.407940    5.308050   -6.250970
  H     -5.923340    7.193210   -7.430370
  H     -7.749720    8.700270   -8.619340
  H    -10.231480    9.364560   -8.390790
  H    -12.757940    9.524960   -7.459550
  H    -14.863630    9.140000   -6.024980
  H    -15.683270    7.766070   -3.988850
  H    -12.376820    5.854830   -2.795950
  H    -11.853890    3.924000   -0.767020
  H    -12.024370    2.022470    1.387430
  H    -16.243360    2.465140    2.214310
  H    -16.790270    4.450120    0.175560
  H    -16.613290    6.335260   -2.034240
  H    -12.934800    0.536440    3.297650
  H    -15.919370    0.817770    3.928760
  H    -14.706470   -0.279170    4.746650

 Total Charge           Charge          ....    0
 Multiplicity           Mult            ....    1
 Number of Electrons    NEL             ....  532
 Basis Dimension        Dim             .... 1095

ORBITAL ENERGIES
----------------

  NO   OCC          E(Eh)            E(eV)
   0   2.0000    -482.888733    -13140.0705
   1   2.0000     -88.987378     -2421.4697
   2   2.0000     -88.979065     -2421.2434
   3   2.0000     -88.978372     -2421.2246
   4   2.0000     -88.953971     -2420.5606
   5   2.0000     -88.940634     -2420.1977
   6   2.0000     -88.940242     -2420.1870
   7   2.0000     -88.938338     -2420.1352
   8   2.0000     -62.566413     -1702.5187
   9   2.0000     -56.400368     -1534.7320
  10   2.0000     -56.397646     -1534.6580
  11   2.0000     -56.397613     -1534.6571
  12   2.0000     -19.274375      -524.4824
  13   2.0000     -19.244179      -523.6607
  14   2.0000     -19.243412      -523.6399
  15   2.0000     -19.231412      -523.3133
  16   2.0000     -14.654982      -398.7823
  17   2.0000     -14.494175      -394.4066
  18   2.0000     -14.418519      -392.3479
  19   2.0000     -14.414379      -392.2352
  20   2.0000     -10.377987      -282.3994
  21   2.0000     -10.368371      -282.1377
  22   2.0000     -10.366610      -282.0898
  23   2.0000     -10.362152      -281.9685
  24   2.0000     -10.347863      -281.5797
  25   2.0000     -10.345911      -281.5265
  26   2.0000     -10.342376      -281.4304
  27   2.0000     -10.340993      -281.3927
  28   2.0000     -10.334784      -281.2238
  29   2.0000     -10.328977      -281.0658
  30   2.0000     -10.321009      -280.8489
  31   2.0000     -10.317770      -280.7608
  32   2.0000     -10.312053      -280.6052
  33   2.0000     -10.310996      -280.5765
  34   2.0000     -10.310357      -280.5591
  35   2.0000     -10.309788      -280.5436
  36   2.0000     -10.309061      -280.5238
  37   2.0000     -10.307392      -280.4784
  38   2.0000     -10.306554      -280.4556
  39   2.0000     -10.304726      -280.4058
  40   2.0000     -10.303786      -280.3803
  41   2.0000     -10.301578      -280.3202
  42   2.0000     -10.300376      -280.2875
  43   2.0000     -10.300108      -280.2802
  44   2.0000     -10.298097      -280.2255
  45   2.0000     -10.298087      -280.2252
  46   2.0000     -10.297732      -280.2155
  47   2.0000     -10.297556      -280.2107
  48   2.0000     -10.296921      -280.1935
  49   2.0000     -10.294279      -280.1216
  50   2.0000     -10.288752      -279.9712
  51   2.0000     -10.285278      -279.8766
  52   2.0000     -10.283720      -279.8343
  53   2.0000     -10.282861      -279.8109
  54   2.0000     -10.280648      -279.7507
  55   2.0000     -10.280220      -279.7390
  56   2.0000     -10.277671      -279.6696
  57   2.0000     -10.277658      -279.6693
  58   2.0000     -10.277553      -279.6664
  59   2.0000     -10.277274      -279.6588
  60   2.0000     -10.273783      -279.5638
  61   2.0000     -10.269941      -279.4593
  62   2.0000     -10.266496      -279.3656
  63   2.0000     -10.261898      -279.2404
  64   2.0000     -10.260959      -279.2149
  65   2.0000     -10.259853      -279.1848
  66   2.0000     -10.259709      -279.1809
  67   2.0000     -10.257495      -279.1206
  68   2.0000     -10.257183      -279.1121
  69   2.0000     -10.249987      -278.9163
  70   2.0000      -8.795832      -239.3468
  71   2.0000      -8.082544      -219.9372
  72   2.0000      -8.075072      -219.7339
  73   2.0000      -8.070250      -219.6027
  74   2.0000      -8.049172      -219.0291
  75   2.0000      -8.036771      -218.6917
  76   2.0000      -8.036726      -218.6904
  77   2.0000      -8.033703      -218.6082
  78   2.0000      -6.632122      -180.4692
  79   2.0000      -6.617564      -180.0731
  80   2.0000      -6.617372      -180.0679
  81   2.0000      -6.052213      -164.6891
  82   2.0000      -6.047917      -164.5722
  83   2.0000      -6.044757      -164.4862
  84   2.0000      -6.044147      -164.4696
  85   2.0000      -6.043919      -164.4634
  86   2.0000      -6.040459      -164.3692
  87   2.0000      -6.036603      -164.2643
  88   2.0000      -6.036311      -164.2564
  89   2.0000      -6.026608      -163.9923
  90   2.0000      -6.018513      -163.7721
  91   2.0000      -6.014566      -163.6647
  92   2.0000      -6.010919      -163.5654
  93   2.0000      -6.006474      -163.4445
  94   2.0000      -6.006430      -163.4433
  95   2.0000      -6.004195      -163.3824
  96   2.0000      -6.002305      -163.3310
  97   2.0000      -6.002243      -163.3293
  98   2.0000      -6.000258      -163.2753
  99   2.0000      -5.997801      -163.2085
 100   2.0000      -5.997778      -163.2078
 101   2.0000      -5.993046      -163.0791
 102   2.0000      -2.748023       -74.7775
 103   2.0000      -2.743878       -74.6647
 104   2.0000      -2.743762       -74.6616
 105   2.0000      -2.732174       -74.3462
 106   2.0000      -2.732162       -74.3459
 107   2.0000      -1.323603       -36.0171
 108   2.0000      -1.170756       -31.8579
 109   2.0000      -1.146339       -31.1935
 110   2.0000      -1.141574       -31.0638
 111   2.0000      -1.101474       -29.9726
 112   2.0000      -1.026281       -27.9265
 113   2.0000      -1.015570       -27.6351
 114   2.0000      -1.008297       -27.4372
 115   2.0000      -0.995786       -27.0967
 116   2.0000      -0.995429       -27.0870
 117   2.0000      -0.992200       -26.9991
 118   2.0000      -0.986900       -26.8549
 119   2.0000      -0.981553       -26.7094
 120   2.0000      -0.967656       -26.3313
 121   2.0000      -0.954851       -25.9828
 122   2.0000      -0.945244       -25.7214
 123   2.0000      -0.931143       -25.3377
 124   2.0000      -0.919448       -25.0194
 125   2.0000      -0.911866       -24.8131
 126   2.0000      -0.901330       -24.5264
 127   2.0000      -0.897174       -24.4133
 128   2.0000      -0.889562       -24.2062
 129   2.0000      -0.887392       -24.1472
 130   2.0000      -0.881460       -23.9857
 131   2.0000      -0.867508       -23.6061
 132   2.0000      -0.866223       -23.5711
 133   2.0000      -0.859492       -23.3880
 134   2.0000      -0.852535       -23.1987
 135   2.0000      -0.850211       -23.1354
 136   2.0000      -0.840413       -22.8688
 137   2.0000      -0.835641       -22.7390
 138   2.0000      -0.833289       -22.6749
 139   2.0000      -0.817676       -22.2501
 140   2.0000      -0.810647       -22.0588
 141   2.0000      -0.797702       -21.7066
 142   2.0000      -0.792244       -21.5580
 143   2.0000      -0.785267       -21.3682
 144   2.0000      -0.772191       -21.0124
 145   2.0000      -0.765651       -20.8344
 146   2.0000      -0.760638       -20.6980
 147   2.0000      -0.755479       -20.5576
 148   2.0000      -0.742862       -20.2143
 149   2.0000      -0.738014       -20.0824
 150   2.0000      -0.733960       -19.9721
 151   2.0000      -0.725697       -19.7472
 152   2.0000      -0.708742       -19.2858
 153   2.0000      -0.699156       -19.0250
 154   2.0000      -0.692942       -18.8559
 155   2.0000      -0.682999       -18.5854
 156   2.0000      -0.675471       -18.3805
 157   2.0000      -0.670972       -18.2581
 158   2.0000      -0.663404       -18.0521
 159   2.0000      -0.660873       -17.9833
 160   2.0000      -0.658276       -17.9126
 161   2.0000      -0.645749       -17.5717
 162   2.0000      -0.641083       -17.4447
 163   2.0000      -0.637789       -17.3551
 164   2.0000      -0.636528       -17.3208
 165   2.0000      -0.635095       -17.2818
 166   2.0000      -0.632360       -17.2074
 167   2.0000      -0.626436       -17.0462
 168   2.0000      -0.622165       -16.9300
 169   2.0000      -0.621070       -16.9002
 170   2.0000      -0.610878       -16.6228
 171   2.0000      -0.608688       -16.5632
 172   2.0000      -0.606122       -16.4934
 173   2.0000      -0.599247       -16.3064
 174   2.0000      -0.597238       -16.2517
 175   2.0000      -0.588342       -16.0096
 176   2.0000      -0.584617       -15.9082
 177   2.0000      -0.577608       -15.7175
 178   2.0000      -0.572906       -15.5896
 179   2.0000      -0.572027       -15.5657
 180   2.0000      -0.569040       -15.4844
 181   2.0000      -0.564910       -15.3720
 182   2.0000      -0.560468       -15.2511
 183   2.0000      -0.557553       -15.1718
 184   2.0000      -0.552523       -15.0349
 185   2.0000      -0.548994       -14.9389
 186   2.0000      -0.545072       -14.8322
 187   2.0000      -0.538935       -14.6652
 188   2.0000      -0.535805       -14.5800
 189   2.0000      -0.533761       -14.5244
 190   2.0000      -0.532896       -14.5008
 191   2.0000      -0.527775       -14.3615
 192   2.0000      -0.523640       -14.2490
 193   2.0000      -0.521819       -14.1994
 194   2.0000      -0.520364       -14.1598
 195   2.0000      -0.519246       -14.1294
 196   2.0000      -0.511459       -13.9175
 197   2.0000      -0.507975       -13.8227
 198   2.0000      -0.503707       -13.7066
 199   2.0000      -0.502843       -13.6831
 200   2.0000      -0.499321       -13.5872
 201   2.0000      -0.498801       -13.5731
 202   2.0000      -0.496085       -13.4991
 203   2.0000      -0.492403       -13.3990
 204   2.0000      -0.489562       -13.3216
 205   2.0000      -0.489079       -13.3085
 206   2.0000      -0.485163       -13.2020
 207   2.0000      -0.481756       -13.1092
 208   2.0000      -0.479934       -13.0597
 209   2.0000      -0.477468       -12.9926
 210   2.0000      -0.474145       -12.9021
 211   2.0000      -0.470807       -12.8113
 212   2.0000      -0.467898       -12.7322
 213   2.0000      -0.465702       -12.6724
 214   2.0000      -0.462755       -12.5922
 215   2.0000      -0.461894       -12.5688
 216   2.0000      -0.458191       -12.4680
 217   2.0000      -0.453894       -12.3511
 218   2.0000      -0.451883       -12.2964
 219   2.0000      -0.451503       -12.2860
 220   2.0000      -0.451132       -12.2759
 221   2.0000      -0.448936       -12.2162
 222   2.0000      -0.445197       -12.1144
 223   2.0000      -0.444659       -12.0998
 224   2.0000      -0.443552       -12.0697
 225   2.0000      -0.442366       -12.0374
 226   2.0000      -0.435804       -11.8588
 227   2.0000      -0.432732       -11.7752
 228   2.0000      -0.428507       -11.6603
 229   2.0000      -0.428097       -11.6491
 230   2.0000      -0.427319       -11.6279
 231   2.0000      -0.422765       -11.5040
 232   2.0000      -0.415320       -11.3014
 233   2.0000      -0.414435       -11.2773
 234   2.0000      -0.414386       -11.2760
 235   2.0000      -0.411350       -11.1934
 236   2.0000      -0.407395       -11.0858
 237   2.0000      -0.398482       -10.8432
 238   2.0000      -0.397762       -10.8237
 239   2.0000      -0.391933       -10.6650
 240   2.0000      -0.391780       -10.6609
 241   2.0000      -0.389035       -10.5862
 242   2.0000      -0.384033       -10.4501
 243   2.0000      -0.378073       -10.2879
 244   2.0000      -0.375339       -10.2135
 245   2.0000      -0.373622       -10.1668
 246   2.0000      -0.372435       -10.1345
 247   2.0000      -0.371849       -10.1185
 248   2.0000      -0.363939        -9.9033
 249   2.0000      -0.361901        -9.8478
 250   2.0000      -0.354730        -9.6527
 251   2.0000      -0.345336        -9.3971
 252   2.0000      -0.341157        -9.2833
 253   2.0000      -0.336866        -9.1666
 254   2.0000      -0.323759        -8.8099
 255   2.0000      -0.320869        -8.7313
 256   2.0000      -0.317552        -8.6410
 257   2.0000      -0.312492        -8.5033
 258   2.0000      -0.305662        -8.3175
 259   2.0000      -0.297595        -8.0980
 260   2.0000      -0.285873        -7.7790
 261   2.0000      -0.276305        -7.5186
 262   2.0000      -0.262975        -7.1559
 263   2.0000      -0.260567        -7.0904
 264   2.0000      -0.236350        -6.4314
 265   2.0000      -0.195884        -5.3303
 266   0.0000      -0.095574        -2.6007
 267   0.0000      -0.089909        -2.4466
 268   0.0000      -0.075882        -2.0648
 269   0.0000      -0.069365        -1.8875
 270   0.0000      -0.043155        -1.1743

MULLIKEN ATOMIC CHARGES
-----------------------
   0 C :    0.329220
   1 C :   -0.344914
   2 C :   -0.184459
   3 N :    0.146633
   4 C :   -0.196459
   5 N :    0.144237
   6 C :    0.009345
   7 C :   -0.004492
   8 C :   -0.069009
   9 C :    0.115523
  10 C :   -0.092291
  11 C :   -0.020501
  12 S :    0.190353
  13 C :   -0.124761
  14 C :    0.040362
  15 Br:    0.025054
  16 C :    0.162861
  17 O :   -0.216799
  18 C :   -0.133624
  19 C :    0.027766
  20 N :   -0.000348
  21 C :   -0.135482
  22 S :    0.172870
  23 C :   -0.001000
  24 N :    0.291725
  25 O :   -0.260959
  26 O :   -0.250826
  27 C :    0.005436
  28 C :    0.153168
  29 C :   -0.079484
  30 C :    0.053278
  31 C :   -0.118794
  32 S :    0.100612
  33 C :   -0.105532
  34 C :   -0.050182
  35 C :    0.227508
  36 O :   -0.407367
  37 S :    0.257485
  38 C :   -0.149937
  39 S :    0.031181
  40 C :   -0.018173
  41 C :   -0.020530
  42 C :    0.018285
  43 C :    0.037529
  44 C :   -0.032484
  45 S :    0.029002
  46 C :   -0.012060
  47 C :    0.016081
  48 C :    0.045029
  49 C :   -0.031558
  50 S :    0.033296
  51 C :    0.014229
  52 C :    0.038743
  53 C :   -0.035564
  54 C :    0.040658
  55 C :    0.013274
  56 C :    0.044598
  57 C :   -0.003912
  58 C :    0.053832
  59 C :   -0.017249
  60 C :    0.045002
  61 C :    0.001804
  62 C :    0.057488
  63 C :   -0.030739
  64 C :    0.010130
  65 C :   -0.019446
  66 H :   -0.013092
  67 H :   -0.004736
  68 H :   -0.006014
  69 H :    0.045278
  70 H :    0.188653
  71 H :    0.009698
  72 H :    0.011017
  73 H :   -0.031939
  74 H :    0.110047
  75 H :    0.089218
  76 H :   -0.010549
  77 H :   -0.015932
  78 H :   -0.015958
  79 H :   -0.016480
  80 H :   -0.013361
  81 H :   -0.024740
  82 H :   -0.006627
  83 H :   -0.024303
  84 H :   -0.022685
  85 H :   -0.027956
  86 H :   -0.025888
  87 H :   -0.027297
  88 H :   -0.007473
  89 H :    0.005435
  90 H :    0.021023
Sum of atomic charges:   -0.0000000

LOEWDIN ATOMIC CHARGES
----------------------
   0 C :    0.078782
   1 C :   -0.151170
   2 C :   -0.019787
   3 N :   -0.056540
   4 C :   -0.020625
   5 N :   -0.055266
   6 C :   -0.017600
   7 C :   -0.050163
   8 C :    0.022865
   9 C :   -0.034812
  10 C :   -0.144216
  11 C :   -0.007962
  12 S :    0.436523
  13 C :   -0.271869
  14 C :   -0.070718
  15 Br:    0.137517
  16 C :    0.094520
  17 O :   -0.171604
  18 C :   -0.148231
  19 C :    0.110065
  20 N :    0.086348
  21 C :   -0.121366
  22 S :    0.463228
  23 C :   -0.202404
  24 N :    0.279757
  25 O :   -0.229452
  26 O :   -0.217522
  27 C :    0.003964
  28 C :   -0.073627
  29 C :   -0.055809
  30 C :   -0.024528
  31 C :   -0.212876
  32 S :    0.438718
  33 C :   -0.179055
  34 C :   -0.233942
  35 C :   -0.019922
  36 O :   -0.233546
  37 S :    0.382030
  38 C :   -0.260463
  39 S :    0.285659
  40 C :   -0.097777
  41 C :   -0.144249
  42 C :   -0.046886
  43 C :   -0.031274
  44 C :   -0.196261
  45 S :    0.370709
  46 C :   -0.161652
  47 C :   -0.054179
  48 C :   -0.017735
  49 C :   -0.166160
  50 S :    0.392940
  51 C :   -0.026201
  52 C :   -0.079205
  53 C :    0.006416
  54 C :   -0.067562
  55 C :    0.085267
  56 C :   -0.074246
  57 C :    0.065861
  58 C :   -0.063014
  59 C :    0.034069
  60 C :   -0.061230
  61 C :    0.076031
  62 C :   -0.070295
  63 C :    0.037983
  64 C :   -0.022725
  65 C :   -0.048391
  66 H :    0.040318
  67 H :    0.042012
  68 H :    0.037952
  69 H :    0.035993
  70 H :    0.088229
  71 H :    0.042542
  72 H :    0.028593
  73 H :    0.024569
  74 H :    0.028083
  75 H :    0.034046
  76 H :    0.031833
  77 H :    0.031629
  78 H :    0.031988
  79 H :    0.030944
  80 H :    0.032948
  81 H :    0.033856
  82 H :    0.009726
  83 H :    0.036045
  84 H :    0.027596
  85 H :    0.023664
  86 H :    0.034153
  87 H :    0.023639
  88 H :    0.032851
  89 H :    0.017237
  90 H :    0.024414

  Mayer bond orders larger than 0.100000
B(  0-C ,  1-C ) :   1.6200 B(  0-C ,  6-C ) :   1.0001 B(  0-C , 18-C ) :   1.1058
B(  1-C ,  2-C ) :   1.1453 B(  1-C ,  4-C ) :   1.1489 B(  2-C ,  3-N ) :   2.9653
B(  4-C ,  5-N ) :   2.9544 B(  6-C ,  7-C ) :   1.2719 B(  6-C , 11-C ) :   1.4282
B(  7-C ,  8-C ) :   1.4298 B(  7-C , 16-C ) :   0.9783 B(  8-C ,  9-C ) :   1.2381
B(  8-C , 66-H ) :   1.0170 B(  9-C , 10-C ) :   1.3122 B(  9-C , 14-C ) :   1.1631
B( 10-C , 11-C ) :   1.3176 B( 10-C , 12-S ) :   1.0891 B( 11-C , 67-H ) :   0.9793
B( 12-S , 13-C ) :   1.0883 B( 13-C , 14-C ) :   1.6184 B( 13-C , 15-Br) :   1.0198
B( 14-C , 68-H ) :   0.9996 B( 16-C , 17-O ) :   2.0361 B( 16-C , 18-C ) :   1.0082
B( 17-O , 70-H ) :   0.1411 B( 18-C , 19-C ) :   1.4346 B( 19-C , 20-N ) :   1.3523
B( 19-C , 69-H ) :   0.9318 B( 20-N , 21-C ) :   1.2003 B( 20-N , 70-H ) :   0.8184
B( 21-C , 22-S ) :   1.1239 B( 21-C , 28-C ) :   1.3545 B( 22-S , 23-C ) :   1.0812
B( 23-C , 24-N ) :   0.9756 B( 23-C , 27-C ) :   1.4849 B( 24-N , 25-O ) :   1.4766
B( 24-N , 26-O ) :   1.5233 B( 25-O , 26-O ) :   0.2515 B( 27-C , 28-C ) :   1.2169
B( 27-C , 71-H ) :   0.9981 B( 28-C , 29-C ) :   1.0830 B( 29-C , 30-C ) :   1.6805
B( 29-C , 72-H ) :   0.9670 B( 30-C , 31-C ) :   1.1682 B( 30-C , 73-H ) :   0.9442
B( 31-C , 32-S ) :   1.0935 B( 31-C , 33-C ) :   0.1042 B( 31-C , 35-C ) :   1.4453
B( 32-S , 33-C ) :   1.1033 B( 33-C , 34-C ) :   1.4445 B( 33-C , 40-C ) :   1.2361
B( 34-C , 35-C ) :   1.3165 B( 34-C , 39-S ) :   0.9893 B( 35-C , 36-O ) :   1.0579
B( 36-O , 37-S ) :   0.8767 B( 37-S , 38-C ) :   0.9908 B( 38-C , 39-S ) :   0.9833
B( 38-C , 74-H ) :   0.9381 B( 38-C , 75-H ) :   0.9509 B( 40-C , 41-C ) :   1.5235
B( 40-C , 76-H ) :   0.9611 B( 41-C , 42-C ) :   1.1715 B( 41-C , 45-S ) :   1.0555
B( 42-C , 43-C ) :   1.5557 B( 42-C , 77-H ) :   0.9988 B( 43-C , 44-C ) :   1.2176
B( 43-C , 78-H ) :   0.9944 B( 44-C , 45-S ) :   1.0298 B( 44-C , 46-C ) :   1.4662
B( 46-C , 47-C ) :   1.2051 B( 46-C , 50-S ) :   1.0617 B( 47-C , 48-C ) :   1.5658
B( 47-C , 79-H ) :   0.9961 B( 48-C , 49-C ) :   1.1612 B( 48-C , 80-H ) :   0.9971
B( 49-C , 50-S ) :   1.0250 B( 49-C , 51-C ) :   1.5503 B( 51-C , 52-C ) :   1.1558
B( 51-C , 81-H ) :   0.9705 B( 52-C , 53-C ) :   1.3751 B( 52-C , 63-C ) :   1.1594
B( 53-C , 54-C ) :   1.1953 B( 53-C , 82-H ) :   0.9880 B( 54-C , 55-C ) :   1.3529
B( 54-C , 62-C ) :   1.1442 B( 55-C , 56-C ) :   1.2023 B( 55-C , 83-H ) :   1.0053
B( 56-C , 57-C ) :   1.3407 B( 56-C , 60-C ) :   1.1242 B( 57-C , 58-C ) :   1.1860
B( 57-C , 84-H ) :   1.0046 B( 58-C , 59-C ) :   1.4641 B( 58-C , 64-C ) :   1.0763
B( 59-C , 60-C ) :   1.1217 B( 59-C , 85-H ) :   1.0101 B( 60-C , 61-C ) :   1.4361
B( 61-C , 62-C ) :   1.1386 B( 61-C , 86-H ) :   1.0033 B( 62-C , 63-C ) :   1.3997
B( 63-C , 87-H ) :   1.0140 B( 64-C , 65-C ) :   1.9443 B( 64-C , 88-H ) :   0.9669
B( 65-C , 89-H ) :   0.9525 B( 65-C , 90-H ) :   0.9494

-----------------------------------------------------------------------------
         ABSORPTION SPECTRUM VIA TRANSITION ELECTRIC DIPOLE MOMENTS
-----------------------------------------------------------------------------
State   Energy  Wavelength   fosc         T2         TX        TY        TZ
        (cm-1)    (nm)                  (au**2)     (au)      (au)      (au)
-----------------------------------------------------------------------------
   0    5674.4   1762.3   0.022248587   1.29081  -0.97000  -0.19467   0.55858
   1   11087.1    901.9   0.740304737  21.98196  -4.61514   0.82598  -0.01505
   2   13015.6    768.3   0.130388387   3.29801  -1.15999  -0.37284   1.34664
   3   13641.1    733.1   0.041699641   1.00637  -0.72816  -0.17169   0.66834
   4   16772.7    596.2   0.007904778   0.15515   0.14507   0.17405  -0.32220
   5   19586.7    510.6   0.597242288  10.03841   1.98055  -1.39937   2.03901
   6   20075.4    498.1   0.069909652   1.14643   0.29944   0.38486  -0.95323
   7   21512.2    464.9   0.139835865   2.13997  -0.63686  -0.77160   1.06725
   8   21995.9    454.6   0.331257979   4.95793  -0.15719  -1.29051   1.80770
   9   22851.9    437.6   0.220947579   3.18304  -0.30946  -1.15628   1.32299
  10   23872.7    418.9   0.379448394   5.23271   1.46889  -0.94074   1.47990
  11   24785.1    403.5   0.379289993   5.03798   0.87370   1.35365  -1.56277
  12   25068.3    398.9   0.257347717   3.37964  -0.66206   1.12540  -1.29414
  13   25341.6    394.6   0.738819298   9.59800   0.32142  -1.98904   2.35339
  14   26262.5    380.8   0.389823163   4.88661  -1.54941  -0.79357   1.36242
  15   27089.5    369.1   0.014576256   0.17714   0.37406   0.12101  -0.15026
  16   27490.9    363.8   0.020554796   0.24615  -0.01883   0.19659  -0.45513
  17   27825.6    359.4   0.108777383   1.28697   1.11588   0.01805  -0.20359
  18   28126.3    355.5   0.041560670   0.48646  -0.66325   0.11542   0.18231
  19   28168.6    355.0   0.101381405   1.18486  -0.19554  -0.76952   0.74463
  20   28602.7    349.6   0.038659480   0.44496  -0.25523   0.28941  -0.54411
  21   29148.4    343.1   0.016541340   0.18682  -0.17056  -0.29236   0.26881
  22   29439.4    339.7   0.015916838   0.17799  -0.34804  -0.20162   0.12732
  23   29584.4    338.0   0.249080503   2.77174  -0.49894   1.27838  -0.94263
  24   29901.5    334.4   0.892918020   9.83093  -2.72159  -0.72074   1.38001
  25   30818.2    324.5   0.001223747   0.01307  -0.07591   0.04535  -0.07248
  26   30891.0    323.7   0.001707567   0.01820   0.11372   0.07118  -0.01415
  27   30991.6    322.7   0.116978099   1.24261   1.06479   0.03876  -0.32761
  28   31505.8    317.4   0.000321440   0.00336  -0.04983  -0.01430   0.02591
  29   31735.4    315.1   0.081064614   0.84094  -0.67568  -0.33924   0.51895
  30   32046.6    312.0   0.002736740   0.02811   0.10779   0.11710  -0.05276
  31   32789.2    305.0   0.019878950   0.19959   0.15076  -0.32255   0.26986
  32   32892.7    304.0   0.028326582   0.28351   0.43256  -0.26038   0.16913
  33   33322.9    300.1   0.010587497   0.10460   0.19274   0.14921  -0.21257
  34   33357.2    299.8   0.045678209   0.45081   0.41966  -0.38260   0.35821
  35   33609.9    297.5   0.010021707   0.09816   0.07282  -0.22286   0.20784
  36   33912.0    294.9   0.026909002   0.26123  -0.12015   0.41594  -0.27164
  37   34139.9    292.9   0.033976228   0.32763   0.46453  -0.01617  -0.33404
  38   34274.1    291.8   0.428614533   4.11696   0.77260   1.02097  -1.57406
  39   34300.9    291.5   0.052861134   0.50735  -0.30028   0.52835  -0.37153
  40   34481.3    290.0   0.000864581   0.00825   0.04996  -0.07371   0.01802
  41   34787.2    287.5   0.029374010   0.27798  -0.50024   0.16227  -0.03754
  42   34885.5    286.7   0.043318146   0.40879   0.47574   0.12220  -0.40930
  43   35177.8    284.3   0.008484244   0.07940   0.20844  -0.16617   0.09133
  44   35299.9    283.3   0.041277251   0.38496   0.28702   0.33271  -0.43804
  45   35677.5    280.3   0.000135423   0.00125  -0.02610  -0.01816   0.01544
  46   36079.7    277.2   0.009018813   0.08229  -0.05595   0.21876  -0.17693
  47   36545.8    273.6   0.017609682   0.15863  -0.35766   0.16780  -0.05055
  48   36877.7    271.2   0.017588760   0.15702  -0.21086  -0.16472   0.29227
  49   36905.3    271.0   0.022981090   0.20500   0.42561  -0.15034   0.03542
  50   37387.6    267.5   0.087511360   0.77057   0.34952  -0.55855   0.58003
  51   37479.4    266.8   0.039836736   0.34992  -0.52483  -0.09037   0.25749
  52   37576.6    266.1   0.191137125   1.67457  -0.67885  -0.60968   0.91762
  53   37655.5    265.6   0.042530652   0.37183  -0.17295  -0.39324   0.43276
  54   37873.0    264.0   0.031806864   0.27648   0.25260   0.36156  -0.28627
  55   38155.3    262.1   0.114266678   0.98592  -0.63462   0.41799  -0.63911
  56   38452.0    260.1   0.050337980   0.43097  -0.36367  -0.23588   0.49303
  57   38576.1    259.2   0.103635542   0.88444   0.56395  -0.46300   0.59332
  58   38672.1    258.6   0.113953347   0.97007  -0.64394  -0.44988   0.59416
  59   38881.7    257.2   0.095433092   0.80803  -0.15701   0.62722  -0.62448
  60   38972.6    256.6   0.030121672   0.25445  -0.15469   0.28839  -0.38386
  61   39335.1    254.2   0.009189817   0.07691  -0.24443  -0.00877   0.13073
  62   39528.0    253.0   0.058097745   0.48387  -0.28721   0.39622  -0.49435
  63   39638.9    252.3   0.019050712   0.15822  -0.20681  -0.14575   0.30693
  64   39892.3    250.7   0.091251300   0.75305   0.48598  -0.54095   0.47356
  65   39966.9    250.2   0.181529721   1.49528   0.58649  -0.59864   0.89048
  66   40239.8    248.5   0.049837307   0.40773  -0.06891   0.30110  -0.55886

FINAL SINGLE POINT ENERGY     -7797.377359199315

DIPOLE MOMENT
-------------
                                X             Y             Z
Electronic contribution:    190.43576     -13.16812       4.76163
Nuclear contribution   :   -190.23282      15.57534      -7.87413
                        -----------------------------------------
Total Dipole Moment    :      0.20294       2.40722      -3.11249
                        -----------------------------------------
Magnitude (a.u.)       :      3.93999
Magnitude (Debye)      :     10.01465

Rotational constants in cm-1:     0.001072     0.000347     0.000266
Rotational constants in MHz :    32.132443    10.403178     7.961633

                             ****ORCA TERMINATED NORMALLY****
TOTAL RUN TIME: 0 days 0 hours 11 minutes 25 seconds 640 msec
