                         Program Version 4.2.0 -  RELEASE  -
|  1> # ORCA input file
|  2> # SCF done       -182.963715353798          0.000487577165
|  3> ! CAM-B3LYP def2-SVP def2/J RIJCOSX Grid4 TightSCF
|  4> %maxcore 5000
|  5> %tddft
|  6>     Mode sTDDFT
|  7>     Ethresh 5.0
|  8>     maxcore 5000
|  9> end
| 10>
| 11> %pal
| 12>   nprocs 6
| 13>   end
| 14> * xyz 0 1
| 15>    C      -14.28556        18.13796        -4.11305
| 16>    C      -14.28015        19.05268        -5.14127
| 17>    C      -15.08663        20.20725        -5.17597
| 18>    N      -15.72162        21.15942        -5.27239
| 19>    C      -13.47225        18.97154        -6.29033
| 20>    N      -12.83098        18.96177        -7.24523
| 21>    C      -15.06160        18.24434        -2.88722
| 22>    C      -14.76054        17.13470        -2.05681
| 23>    C      -15.33395        16.95217        -0.82301
| 24>    C      -16.24777        17.91506        -0.38080
| 25>    C      -16.54385        19.01956        -1.21504
| 26>    C      -15.96592        19.20253        -2.46448
| 27>    S      -17.70231        20.08443        -0.47660
| 28>    C      -17.77131        19.04552         0.92226
| 29>    C      -16.96872        17.95756         0.84332
| 30>   Br      -18.89800        19.49436         2.35275
| 31>    C      -13.79333        16.26812        -2.74553
| 32>    O      -13.40684        15.16632        -2.39028
| 33>    C      -13.48306        16.93310        -4.01599
| 34>    C      -12.71492        16.41659        -5.02606
| 35>    N      -11.78243        15.44291        -5.00251
| 36>    C      -10.97490        14.91803        -4.03254
| 37>    S      -10.93113        15.42727        -2.38667
| 38>    C       -9.66183        14.29594        -2.08161
| 39>    N       -9.14317        14.24340        -0.78715
| 40>    O       -8.25813        13.43871        -0.55598
| 41>    O       -9.61397        15.02628         0.02315
| 42>    C       -9.31921        13.54134        -3.17950
| 43>    C      -10.03507        13.91481        -4.32118
| 44>    C       -9.81014        13.32843        -5.63191
| 45>    C       -9.73802        14.01418        -6.78484
| 46>    C       -9.53903        13.38608        -8.06320
| 47>    C       -9.40451        14.03786        -9.22588
| 48>    C       -9.40970        15.53249        -9.35586
| 49>    C       -9.23655        13.30759       -10.54005
| 50>    N       -9.46898        11.88961       -10.50575
| 51>    C       -8.57263        10.95955       -10.09540
| 52>    C       -7.28748        11.19380        -9.71850
| 53>    C       -6.33491        10.21385        -9.36011
| 54>    C       -6.43502         8.84835        -9.30254
| 55>    C       -5.37259         7.97688        -8.94411
| 56>    C       -5.68133         6.65316        -8.96651
| 57>    C       -7.01844         6.38093        -9.33807
| 58>    S       -7.86530         7.88067        -9.65821
| 59>    C       -7.64009         5.15852        -9.45787
| 60>    C       -7.08644         3.87334        -9.24834
| 61>    C       -7.95648         2.85382        -9.46050
| 62>    C       -9.26912         3.25830        -9.84298
| 63>    S       -9.32252         5.01819        -9.94044
| 64>    C      -10.32228         2.41410       -10.02000
| 65>    C      -11.66095         2.76176       -10.40785
| 66>    C      -11.89116         3.85453       -11.20040
| 67>    S      -13.52500         4.09026       -11.65371
| 68>    C      -13.97512         2.68430       -10.73916
| 69>    C      -12.89427         2.05299       -10.10405
| 70>    C      -13.16067         0.91352        -9.29899
| 71>    C      -12.04313         0.29049        -8.50113
| 72>    C      -11.58398         1.22111        -7.37624
| 73>    C      -14.45258         0.40816        -9.20268
| 74>    C      -14.75718        -0.86056        -8.44609
| 75>    C      -14.96562        -0.61370        -6.95017
| 76>    C      -15.53291         1.06595        -9.83864
| 77>    C      -16.94213         0.75512        -9.87114
| 78>    C      -17.63422         1.62176       -10.65642
| 79>    S      -16.68094         2.86463       -11.37210
| 80>    C      -15.26694         2.20373       -10.61376
| 81>    C      -17.66289        -0.29537        -9.15038
| 82>    C      -18.55722        -1.08808        -9.72305
| 83>    H      -15.08194        16.09776        -0.21492
| 84>    H      -16.22607        20.05974        -3.06256
| 85>    H      -16.88729        17.21445         1.61541
| 86>    H      -12.86211        16.81655        -6.02197
| 87>    H      -11.56058        15.04526        -5.91207
| 88>    H       -8.56267        12.77865        -3.15141
| 89>    H       -9.64240        12.25924        -5.64073
| 90>    H       -9.78992        15.09519        -6.78023
| 91>    H       -9.50615        12.30519        -8.05093
| 92>    H       -8.76979        15.99609        -8.60876
| 93>    H      -10.41776        15.92777        -9.22838
| 94>    H       -9.05620        15.83094       -10.33936
| 95>    H       -8.22193        13.48654       -10.91487
| 96>    H       -9.93014        13.74397       -11.26740
| 97>    H      -10.42870        11.59497       -10.58154
| 98>    H       -8.95596         9.95120       -10.12018
| 99>    H       -6.93473        12.21397        -9.67349
|100>    H       -5.35966        10.59997        -9.08855
|101>    H       -4.40342         8.36614        -8.68416
|102>    H       -4.98962         5.86562        -8.72700
|103>    H       -6.06319         3.74268        -8.94403
|104>    H       -7.71135         1.81222        -9.34704
|105>    H      -10.09948         1.37039        -9.86645
|106>    H      -11.15414         4.51674       -11.60855
|107>    H      -11.20669         0.04398        -9.15522
|108>    H      -12.36623        -0.64423        -8.05119
|109>    H      -11.20968         2.16242        -7.76909
|110>    H      -10.79170         0.74933        -6.79860
|111>    H      -12.41522         1.44033        -6.70975
|112>    H      -13.95980        -1.59182        -8.58873
|113>    H      -15.65980        -1.30272        -8.86824
|114>    H      -15.69856         0.17435        -6.79090
|115>    H      -15.31776        -1.52138        -6.46420
|116>    H      -14.03965        -0.30656        -6.47182
|117>    H      -18.69290         1.61885       -10.82942
|118>    H      -17.48177        -0.36289        -8.08648
|119>    H      -18.75569        -1.04623       -10.78109
|120>    H      -19.10885        -1.82027        -9.15865
|121> *
|122>
|123>                          ****END OF INPUT****

CARTESIAN COORDINATES (ANGSTROEM)
---------------------------------
  C    -14.285560   18.137960   -4.113050
  C    -14.280150   19.052680   -5.141270
  C    -15.086630   20.207250   -5.175970
  N    -15.721620   21.159420   -5.272390
  C    -13.472250   18.971540   -6.290330
  N    -12.830980   18.961770   -7.245230
  C    -15.061600   18.244340   -2.887220
  C    -14.760540   17.134700   -2.056810
  C    -15.333950   16.952170   -0.823010
  C    -16.247770   17.915060   -0.380800
  C    -16.543850   19.019560   -1.215040
  C    -15.965920   19.202530   -2.464480
  S    -17.702310   20.084430   -0.476600
  C    -17.771310   19.045520    0.922260
  C    -16.968720   17.957560    0.843320
  Br   -18.898000   19.494360    2.352750
  C    -13.793330   16.268120   -2.745530
  O    -13.406840   15.166320   -2.390280
  C    -13.483060   16.933100   -4.015990
  C    -12.714920   16.416590   -5.026060
  N    -11.782430   15.442910   -5.002510
  C    -10.974900   14.918030   -4.032540
  S    -10.931130   15.427270   -2.386670
  C     -9.661830   14.295940   -2.081610
  N     -9.143170   14.243400   -0.787150
  O     -8.258130   13.438710   -0.555980
  O     -9.613970   15.026280    0.023150
  C     -9.319210   13.541340   -3.179500
  C    -10.035070   13.914810   -4.321180
  C     -9.810140   13.328430   -5.631910
  C     -9.738020   14.014180   -6.784840
  C     -9.539030   13.386080   -8.063200
  C     -9.404510   14.037860   -9.225880
  C     -9.409700   15.532490   -9.355860
  C     -9.236550   13.307590  -10.540050
  N     -9.468980   11.889610  -10.505750
  C     -8.572630   10.959550  -10.095400
  C     -7.287480   11.193800   -9.718500
  C     -6.334910   10.213850   -9.360110
  C     -6.435020    8.848350   -9.302540
  C     -5.372590    7.976880   -8.944110
  C     -5.681330    6.653160   -8.966510
  C     -7.018440    6.380930   -9.338070
  S     -7.865300    7.880670   -9.658210
  C     -7.640090    5.158520   -9.457870
  C     -7.086440    3.873340   -9.248340
  C     -7.956480    2.853820   -9.460500
  C     -9.269120    3.258300   -9.842980
  S     -9.322520    5.018190   -9.940440
  C    -10.322280    2.414100  -10.020000
  C    -11.660950    2.761760  -10.407850
  C    -11.891160    3.854530  -11.200400
  S    -13.525000    4.090260  -11.653710
  C    -13.975120    2.684300  -10.739160
  C    -12.894270    2.052990  -10.104050
  C    -13.160670    0.913520   -9.298990
  C    -12.043130    0.290490   -8.501130
  C    -11.583980    1.221110   -7.376240
  C    -14.452580    0.408160   -9.202680
  C    -14.757180   -0.860560   -8.446090
  C    -14.965620   -0.613700   -6.950170
  C    -15.532910    1.065950   -9.838640
  C    -16.942130    0.755120   -9.871140
  C    -17.634220    1.621760  -10.656420
  S    -16.680940    2.864630  -11.372100
  C    -15.266940    2.203730  -10.613760
  C    -17.662890   -0.295370   -9.150380
  C    -18.557220   -1.088080   -9.723050
  H    -15.081940   16.097760   -0.214920
  H    -16.226070   20.059740   -3.062560
  H    -16.887290   17.214450    1.615410
  H    -12.862110   16.816550   -6.021970
  H    -11.560580   15.045260   -5.912070
  H     -8.562670   12.778650   -3.151410
  H     -9.642400   12.259240   -5.640730
  H     -9.789920   15.095190   -6.780230
  H     -9.506150   12.305190   -8.050930
  H     -8.769790   15.996090   -8.608760
  H    -10.417760   15.927770   -9.228380
  H     -9.056200   15.830940  -10.339360
  H     -8.221930   13.486540  -10.914870
  H     -9.930140   13.743970  -11.267400
  H    -10.428700   11.594970  -10.581540
  H     -8.955960    9.951200  -10.120180
  H     -6.934730   12.213970   -9.673490
  H     -5.359660   10.599970   -9.088550
  H     -4.403420    8.366140   -8.684160
  H     -4.989620    5.865620   -8.727000
  H     -6.063190    3.742680   -8.944030
  H     -7.711350    1.812220   -9.347040
  H    -10.099480    1.370390   -9.866450
  H    -11.154140    4.516740  -11.608550
  H    -11.206690    0.043980   -9.155220
  H    -12.366230   -0.644230   -8.051190
  H    -11.209680    2.162420   -7.769090
  H    -10.791700    0.749330   -6.798600
  H    -12.415220    1.440330   -6.709750
  H    -13.959800   -1.591820   -8.588730
  H    -15.659800   -1.302720   -8.868240
  H    -15.698560    0.174350   -6.790900
  H    -15.317760   -1.521380   -6.464200
  H    -14.039650   -0.306560   -6.471820
  H    -18.692900    1.618850  -10.829420
  H    -17.481770   -0.362890   -8.086480
  H    -18.755690   -1.046230  -10.781090
  H    -19.108850   -1.820270   -9.158650

 Total Charge           Charge          ....    0
 Multiplicity           Mult            ....    1
 Number of Electrons    NEL             ....  546
 Basis Dimension        Dim             .... 1184

ORBITAL ENERGIES
----------------

  NO   OCC          E(Eh)            E(eV)
   0   2.0000    -482.887243    -13140.0299
   1   2.0000     -88.988354     -2421.4962
   2   2.0000     -88.978179     -2421.2194
   3   2.0000     -88.940718     -2420.2000
   4   2.0000     -88.940424     -2420.1920
   5   2.0000     -88.932241     -2419.9693
   6   2.0000     -88.929039     -2419.8822
   7   2.0000     -62.564980     -1702.4797
   8   2.0000     -56.398936     -1534.6931
   9   2.0000     -56.396207     -1534.6188
  10   2.0000     -56.396178     -1534.6180
  11   2.0000     -19.233259      -523.3636
  12   2.0000     -19.233009      -523.3568
  13   2.0000     -19.223009      -523.0847
  14   2.0000     -14.645009      -398.5109
  15   2.0000     -14.510303      -394.8454
  16   2.0000     -14.442114      -392.9899
  17   2.0000     -14.425495      -392.5377
  18   2.0000     -14.418955      -392.3597
  19   2.0000     -10.372769      -282.2574
  20   2.0000     -10.372036      -282.2375
  21   2.0000     -10.369220      -282.1608
  22   2.0000     -10.361423      -281.9486
  23   2.0000     -10.350420      -281.6492
  24   2.0000     -10.346543      -281.5437
  25   2.0000     -10.338668      -281.3295
  26   2.0000     -10.328958      -281.0652
  27   2.0000     -10.328105      -281.0420
  28   2.0000     -10.322646      -280.8935
  29   2.0000     -10.322112      -280.8790
  30   2.0000     -10.314423      -280.6697
  31   2.0000     -10.311693      -280.5954
  32   2.0000     -10.310714      -280.5688
  33   2.0000     -10.309965      -280.5484
  34   2.0000     -10.304309      -280.3945
  35   2.0000     -10.304089      -280.3885
  36   2.0000     -10.303837      -280.3817
  37   2.0000     -10.302795      -280.3533
  38   2.0000     -10.299173      -280.2547
  39   2.0000     -10.298866      -280.2464
  40   2.0000     -10.296548      -280.1833
  41   2.0000     -10.296499      -280.1820
  42   2.0000     -10.295934      -280.1666
  43   2.0000     -10.293873      -280.1105
  44   2.0000     -10.292134      -280.0632
  45   2.0000     -10.290268      -280.0124
  46   2.0000     -10.287394      -279.9342
  47   2.0000     -10.286983      -279.9230
  48   2.0000     -10.285507      -279.8829
  49   2.0000     -10.283282      -279.8223
  50   2.0000     -10.280860      -279.7564
  51   2.0000     -10.280101      -279.7358
  52   2.0000     -10.275636      -279.6143
  53   2.0000     -10.272873      -279.5391
  54   2.0000     -10.272722      -279.5350
  55   2.0000     -10.272682      -279.5339
  56   2.0000     -10.272255      -279.5223
  57   2.0000     -10.270961      -279.4871
  58   2.0000     -10.270437      -279.4728
  59   2.0000     -10.269647      -279.4513
  60   2.0000     -10.268627      -279.4236
  61   2.0000     -10.267860      -279.4027
  62   2.0000     -10.267439      -279.3912
  63   2.0000     -10.265705      -279.3440
  64   2.0000     -10.264230      -279.3039
  65   2.0000     -10.264113      -279.3007
  66   2.0000     -10.257500      -279.1208
  67   2.0000     -10.256311      -279.0884
  68   2.0000     -10.255216      -279.0586
  69   2.0000     -10.254280      -279.0331
  70   2.0000     -10.251241      -278.9504
  71   2.0000     -10.243868      -278.7498
  72   2.0000      -8.794428      -239.3086
  73   2.0000      -8.082564      -219.9377
  74   2.0000      -8.074099      -219.7074
  75   2.0000      -8.036965      -218.6969
  76   2.0000      -8.036698      -218.6897
  77   2.0000      -8.028056      -218.4545
  78   2.0000      -8.024932      -218.3695
  79   2.0000      -6.630773      -180.4325
  80   2.0000      -6.616143      -180.0344
  81   2.0000      -6.615935      -180.0287
  82   2.0000      -6.051986      -164.6829
  83   2.0000      -6.047414      -164.5585
  84   2.0000      -6.044668      -164.4838
  85   2.0000      -6.043783      -164.4597
  86   2.0000      -6.039512      -164.3435
  87   2.0000      -6.035345      -164.2301
  88   2.0000      -6.006481      -163.4447
  89   2.0000      -6.006159      -163.4359
  90   2.0000      -6.002274      -163.3302
  91   2.0000      -6.002001      -163.3227
  92   2.0000      -5.998576      -163.2295
  93   2.0000      -5.998401      -163.2248
  94   2.0000      -5.997825      -163.2091
  95   2.0000      -5.994783      -163.1263
  96   2.0000      -5.993862      -163.1013
  97   2.0000      -5.990702      -163.0153
  98   2.0000      -5.988978      -162.9684
  99   2.0000      -5.985726      -162.8799
 100   2.0000      -2.746602       -74.7388
 101   2.0000      -2.742561       -74.6289
 102   2.0000      -2.742373       -74.6238
 103   2.0000      -2.730761       -74.3078
 104   2.0000      -2.730744       -74.3073
 105   2.0000      -1.313674       -35.7469
 106   2.0000      -1.139690       -31.0125
 107   2.0000      -1.132315       -30.8119
 108   2.0000      -1.105756       -30.0892
 109   2.0000      -1.041060       -28.3287
 110   2.0000      -1.027976       -27.9726
 111   2.0000      -1.018549       -27.7161
 112   2.0000      -1.007918       -27.4268
 113   2.0000      -1.000772       -27.2324
 114   2.0000      -0.993655       -27.0387
 115   2.0000      -0.991151       -26.9706
 116   2.0000      -0.978231       -26.6190
 117   2.0000      -0.961758       -26.1708
 118   2.0000      -0.953636       -25.9497
 119   2.0000      -0.946449       -25.7542
 120   2.0000      -0.935478       -25.4557
 121   2.0000      -0.914883       -24.8952
 122   2.0000      -0.914429       -24.8829
 123   2.0000      -0.912675       -24.8352
 124   2.0000      -0.896932       -24.4068
 125   2.0000      -0.889632       -24.2081
 126   2.0000      -0.889393       -24.2016
 127   2.0000      -0.884064       -24.0566
 128   2.0000      -0.880552       -23.9610
 129   2.0000      -0.870338       -23.6831
 130   2.0000      -0.856772       -23.3140
 131   2.0000      -0.854598       -23.2548
 132   2.0000      -0.852097       -23.1867
 133   2.0000      -0.844296       -22.9745
 134   2.0000      -0.837127       -22.7794
 135   2.0000      -0.832753       -22.6604
 136   2.0000      -0.822117       -22.3709
 137   2.0000      -0.813175       -22.1276
 138   2.0000      -0.808346       -21.9962
 139   2.0000      -0.806453       -21.9447
 140   2.0000      -0.804035       -21.8789
 141   2.0000      -0.793398       -21.5895
 142   2.0000      -0.787982       -21.4421
 143   2.0000      -0.775522       -21.1030
 144   2.0000      -0.769692       -20.9444
 145   2.0000      -0.768191       -20.9035
 146   2.0000      -0.752763       -20.4837
 147   2.0000      -0.749331       -20.3903
 148   2.0000      -0.721887       -19.6436
 149   2.0000      -0.713888       -19.4259
 150   2.0000      -0.712078       -19.3766
 151   2.0000      -0.709541       -19.3076
 152   2.0000      -0.698434       -19.0054
 153   2.0000      -0.693399       -18.8684
 154   2.0000      -0.690057       -18.7774
 155   2.0000      -0.680936       -18.5292
 156   2.0000      -0.679634       -18.4938
 157   2.0000      -0.670926       -18.2568
 158   2.0000      -0.668553       -18.1923
 159   2.0000      -0.663185       -18.0462
 160   2.0000      -0.657391       -17.8885
 161   2.0000      -0.645954       -17.5773
 162   2.0000      -0.639379       -17.3984
 163   2.0000      -0.636475       -17.3194
 164   2.0000      -0.633471       -17.2376
 165   2.0000      -0.630480       -17.1562
 166   2.0000      -0.629439       -17.1279
 167   2.0000      -0.626028       -17.0351
 168   2.0000      -0.623642       -16.9702
 169   2.0000      -0.617966       -16.8157
 170   2.0000      -0.615099       -16.7377
 171   2.0000      -0.608424       -16.5561
 172   2.0000      -0.605656       -16.4807
 173   2.0000      -0.601101       -16.3568
 174   2.0000      -0.597637       -16.2625
 175   2.0000      -0.596167       -16.2225
 176   2.0000      -0.586659       -15.9638
 177   2.0000      -0.582993       -15.8640
 178   2.0000      -0.574316       -15.6279
 179   2.0000      -0.572103       -15.5677
 180   2.0000      -0.564018       -15.3477
 181   2.0000      -0.562407       -15.3039
 182   2.0000      -0.556712       -15.1489
 183   2.0000      -0.555067       -15.1041
 184   2.0000      -0.552083       -15.0230
 185   2.0000      -0.547123       -14.8880
 186   2.0000      -0.545432       -14.8420
 187   2.0000      -0.540985       -14.7209
 188   2.0000      -0.536707       -14.6045
 189   2.0000      -0.533162       -14.5081
 190   2.0000      -0.530537       -14.4367
 191   2.0000      -0.527116       -14.3435
 192   2.0000      -0.523241       -14.2381
 193   2.0000      -0.521192       -14.1823
 194   2.0000      -0.517839       -14.0911
 195   2.0000      -0.517236       -14.0747
 196   2.0000      -0.515385       -14.0244
 197   2.0000      -0.511370       -13.9151
 198   2.0000      -0.510969       -13.9042
 199   2.0000      -0.507472       -13.8090
 200   2.0000      -0.505680       -13.7603
 201   2.0000      -0.502786       -13.6815
 202   2.0000      -0.498531       -13.5657
 203   2.0000      -0.497907       -13.5488
 204   2.0000      -0.496061       -13.4985
 205   2.0000      -0.494119       -13.4457
 206   2.0000      -0.487697       -13.2709
 207   2.0000      -0.486847       -13.2478
 208   2.0000      -0.482390       -13.1265
 209   2.0000      -0.480709       -13.0808
 210   2.0000      -0.480249       -13.0682
 211   2.0000      -0.478103       -13.0098
 212   2.0000      -0.474511       -12.9121
 213   2.0000      -0.473023       -12.8716
 214   2.0000      -0.470826       -12.8118
 215   2.0000      -0.469751       -12.7826
 216   2.0000      -0.463778       -12.6200
 217   2.0000      -0.462800       -12.5934
 218   2.0000      -0.461689       -12.5632
 219   2.0000      -0.457929       -12.4609
 220   2.0000      -0.455674       -12.3995
 221   2.0000      -0.451090       -12.2748
 222   2.0000      -0.449483       -12.2310
 223   2.0000      -0.449250       -12.2247
 224   2.0000      -0.446804       -12.1582
 225   2.0000      -0.444979       -12.1085
 226   2.0000      -0.443506       -12.0684
 227   2.0000      -0.443019       -12.0552
 228   2.0000      -0.439367       -11.9558
 229   2.0000      -0.437675       -11.9097
 230   2.0000      -0.434906       -11.8344
 231   2.0000      -0.433852       -11.8057
 232   2.0000      -0.432405       -11.7663
 233   2.0000      -0.431457       -11.7405
 234   2.0000      -0.427107       -11.6222
 235   2.0000      -0.421768       -11.4769
 236   2.0000      -0.419814       -11.4237
 237   2.0000      -0.417902       -11.3717
 238   2.0000      -0.417114       -11.3503
 239   2.0000      -0.414576       -11.2812
 240   2.0000      -0.413444       -11.2504
 241   2.0000      -0.412968       -11.2374
 242   2.0000      -0.411191       -11.1891
 243   2.0000      -0.406866       -11.0714
 244   2.0000      -0.405288       -11.0284
 245   2.0000      -0.396618       -10.7925
 246   2.0000      -0.390394       -10.6231
 247   2.0000      -0.384170       -10.4538
 248   2.0000      -0.380869       -10.3640
 249   2.0000      -0.379629       -10.3302
 250   2.0000      -0.376685       -10.2501
 251   2.0000      -0.375714       -10.2237
 252   2.0000      -0.374453       -10.1894
 253   2.0000      -0.373261       -10.1570
 254   2.0000      -0.365395        -9.9429
 255   2.0000      -0.361759        -9.8440
 256   2.0000      -0.359473        -9.7817
 257   2.0000      -0.354224        -9.6389
 258   2.0000      -0.346528        -9.4295
 259   2.0000      -0.340566        -9.2673
 260   2.0000      -0.328646        -8.9429
 261   2.0000      -0.325721        -8.8633
 262   2.0000      -0.318419        -8.6646
 263   2.0000      -0.316116        -8.6020
 264   2.0000      -0.310607        -8.4520
 265   2.0000      -0.308728        -8.4009
 266   2.0000      -0.304061        -8.2739
 267   2.0000      -0.296883        -8.0786
 268   2.0000      -0.277228        -7.5438
 269   2.0000      -0.272905        -7.4261
 270   2.0000      -0.256654        -6.9839
 271   2.0000      -0.250873        -6.8266
 272   2.0000      -0.195031        -5.3071
 273   0.0000      -0.091507        -2.4900
 274   0.0000      -0.060626        -1.6497
 275   0.0000      -0.051100        -1.3905
 276   0.0000      -0.042180        -1.1478
 277   0.0000      -0.025252        -0.6871

MULLIKEN ATOMIC CHARGES
-----------------------
   0 C :    0.309293
   1 C :   -0.345968
   2 C :   -0.182174
   3 N :    0.148534
   4 C :   -0.202126
   5 N :    0.139478
   6 C :    0.005901
   7 C :   -0.003348
   8 C :   -0.069580
   9 C :    0.119379
  10 C :   -0.092565
  11 C :   -0.018785
  12 S :    0.188415
  13 C :   -0.123727
  14 C :    0.038571
  15 Br:    0.027187
  16 C :    0.134247
  17 O :   -0.169795
  18 C :   -0.123378
  19 C :    0.005432
  20 N :    0.038926
  21 C :   -0.094364
  22 S :    0.230516
  23 C :   -0.017436
  24 N :    0.276194
  25 O :   -0.251469
  26 O :   -0.267641
  27 C :    0.013806
  28 C :    0.096555
  29 C :   -0.041188
  30 C :   -0.029855
  31 C :    0.013139
  32 C :   -0.223971
  33 C :    0.076278
  34 C :    0.203104
  35 N :   -0.155081
  36 C :    0.054796
  37 C :   -0.054705
  38 C :    0.008265
  39 C :   -0.040262
  40 C :    0.040774
  41 C :    0.012292
  42 C :   -0.028419
  43 S :    0.018074
  44 C :   -0.061300
  45 C :    0.038001
  46 C :    0.018837
  47 C :   -0.021886
  48 S :    0.054865
  49 C :   -0.062420
  50 C :    0.068675
  51 C :   -0.137793
  52 S :    0.121642
  53 C :   -0.154054
  54 C :    0.122319
  55 C :   -0.117467
  56 C :    0.046508
  57 C :    0.024502
  58 C :   -0.119742
  59 C :    0.012524
  60 C :    0.034817
  61 C :    0.106903
  62 C :    0.041739
  63 C :   -0.111919
  64 S :    0.113236
  65 C :   -0.140950
  66 C :   -0.037776
  67 C :   -0.022660
  68 H :   -0.006438
  69 H :   -0.006253
  70 H :    0.000682
  71 H :    0.043505
  72 H :    0.145233
  73 H :    0.008883
  74 H :    0.017087
  75 H :   -0.004439
  76 H :   -0.013804
  77 H :    0.041120
  78 H :    0.038247
  79 H :    0.017442
  80 H :    0.036537
  81 H :    0.024678
  82 H :    0.126125
  83 H :    0.016148
  84 H :   -0.027668
  85 H :   -0.020267
  86 H :   -0.020250
  87 H :   -0.021567
  88 H :   -0.020343
  89 H :   -0.018928
  90 H :   -0.020931
  91 H :    0.029215
  92 H :    0.002337
  93 H :   -0.013283
  94 H :    0.034912
  95 H :    0.006684
  96 H :    0.007637
  97 H :    0.008707
  98 H :    0.009251
  99 H :    0.014305
 100 H :    0.011889
 101 H :    0.006697
 102 H :    0.015509
 103 H :    0.013382
 104 H :    0.018988
 105 H :    0.019049
Sum of atomic charges:   -0.0000000

LOEWDIN ATOMIC CHARGES
----------------------
   0 C :    0.084959
   1 C :   -0.151268
   2 C :   -0.019696
   3 N :   -0.053530
   4 C :   -0.021206
   5 N :   -0.064175
   6 C :   -0.024787
   7 C :   -0.048232
   8 C :    0.023038
   9 C :   -0.030468
  10 C :   -0.145605
  11 C :   -0.006267
  12 S :    0.434114
  13 C :   -0.270154
  14 C :   -0.069441
  15 Br:    0.139269
  16 C :    0.063267
  17 O :   -0.172458
  18 C :   -0.146645
  19 C :    0.097243
  20 N :    0.084892
  21 C :   -0.116786
  22 S :    0.548303
  23 C :   -0.214486
  24 N :    0.275117
  25 O :   -0.217209
  26 O :   -0.234042
  27 C :   -0.009799
  28 C :   -0.091754
  29 C :   -0.020111
  30 C :   -0.037323
  31 C :   -0.058771
  32 C :   -0.032277
  33 C :   -0.050982
  34 C :    0.037059
  35 N :    0.002015
  36 C :    0.038321
  37 C :   -0.137276
  38 C :   -0.039049
  39 C :   -0.175808
  40 C :   -0.024648
  41 C :   -0.058334
  42 C :   -0.171992
  43 S :    0.353023
  44 C :   -0.194999
  45 C :   -0.034270
  46 C :   -0.042501
  47 C :   -0.142509
  48 S :    0.357815
  49 C :   -0.065349
  50 C :   -0.066923
  51 C :   -0.182952
  52 S :    0.410912
  53 C :   -0.176931
  54 C :   -0.038802
  55 C :   -0.020484
  56 C :   -0.029772
  57 C :   -0.050443
  58 C :   -0.022843
  59 C :   -0.032392
  60 C :   -0.052172
  61 C :   -0.044647
  62 C :   -0.062979
  63 C :   -0.167336
  64 S :    0.401574
  65 C :   -0.178812
  66 C :   -0.020244
  67 C :   -0.047934
  68 H :    0.042714
  69 H :    0.041279
  70 H :    0.040160
  71 H :    0.044262
  72 H :    0.100191
  73 H :    0.045958
  74 H :    0.038102
  75 H :    0.022916
  76 H :    0.029373
  77 H :    0.038342
  78 H :    0.041614
  79 H :    0.032609
  80 H :    0.037597
  81 H :    0.034723
  82 H :    0.081608
  83 H :    0.011859
  84 H :    0.022602
  85 H :    0.033527
  86 H :    0.030456
  87 H :    0.028400
  88 H :    0.029647
  89 H :    0.029771
  90 H :    0.029060
  91 H :    0.011079
  92 H :    0.022722
  93 H :    0.023758
  94 H :    0.027879
  95 H :    0.022419
  96 H :    0.021831
  97 H :    0.025857
  98 H :    0.030212
  99 H :    0.021647
 100 H :    0.023779
 101 H :    0.022438
 102 H :    0.022475
 103 H :    0.031136
 104 H :    0.022184
 105 H :    0.022764

  Mayer bond orders larger than 0.100000
B(  0-C ,  1-C ) :   1.6189 B(  0-C ,  6-C ) :   1.0162 B(  0-C , 18-C ) :   1.1078
B(  1-C ,  2-C ) :   1.1445 B(  1-C ,  4-C ) :   1.1457 B(  2-C ,  3-N ) :   2.9688
B(  4-C ,  5-N ) :   2.9721 B(  6-C ,  7-C ) :   1.2727 B(  6-C , 11-C ) :   1.4116
B(  7-C ,  8-C ) :   1.4272 B(  7-C , 16-C ) :   0.9433 B(  8-C ,  9-C ) :   1.2411
B(  8-C , 68-H ) :   1.0182 B(  9-C , 10-C ) :   1.3063 B(  9-C , 14-C ) :   1.1659
B( 10-C , 11-C ) :   1.3303 B( 10-C , 12-S ) :   1.0859 B( 11-C , 69-H ) :   0.9804
B( 12-S , 13-C ) :   1.0885 B( 13-C , 14-C ) :   1.6157 B( 13-C , 15-Br) :   1.0207
B( 14-C , 70-H ) :   0.9999 B( 16-C , 17-O ) :   2.1715 B( 16-C , 18-C ) :   0.9717
B( 18-C , 19-C ) :   1.4994 B( 19-C , 20-N ) :   1.3296 B( 19-C , 71-H ) :   0.9291
B( 20-N , 21-C ) :   1.1616 B( 20-N , 72-H ) :   0.8757 B( 21-C , 22-S ) :   1.1627
B( 21-C , 28-C ) :   1.3954 B( 22-S , 23-C ) :   1.1378 B( 23-C , 24-N ) :   0.9740
B( 23-C , 27-C ) :   1.4349 B( 24-N , 25-O ) :   1.5343 B( 24-N , 26-O ) :   1.5110
B( 25-O , 26-O ) :   0.2582 B( 27-C , 28-C ) :   1.2850 B( 27-C , 73-H ) :   1.0075
B( 28-C , 29-C ) :   0.9957 B( 29-C , 30-C ) :   1.7441 B( 29-C , 74-H ) :   0.9732
B( 30-C , 31-C ) :   1.1016 B( 30-C , 75-H ) :   0.9615 B( 31-C , 32-C ) :   1.8063
B( 31-C , 76-H ) :   0.9682 B( 32-C , 33-C ) :   1.0721 B( 32-C , 34-C ) :   1.0028
B( 33-C , 77-H ) :   0.9485 B( 33-C , 78-H ) :   0.9481 B( 33-C , 79-H ) :   0.9561
B( 34-C , 35-N ) :   1.0472 B( 34-C , 80-H ) :   0.9113 B( 34-C , 81-H ) :   0.9382
B( 35-N , 36-C ) :   1.2223 B( 35-N , 82-H ) :   0.9409 B( 36-C , 37-C ) :   1.6044
B( 36-C , 83-H ) :   0.9485 B( 37-C , 38-C ) :   1.2058 B( 37-C , 84-H ) :   0.9562
B( 38-C , 39-C ) :   1.6044 B( 38-C , 85-H ) :   0.9574 B( 39-C , 40-C ) :   1.1465
B( 39-C , 43-S ) :   1.0081 B( 40-C , 41-C ) :   1.5992 B( 40-C , 86-H ) :   0.9969
B( 41-C , 42-C ) :   1.1759 B( 41-C , 87-H ) :   0.9918 B( 42-C , 43-S ) :   1.0346
B( 42-C , 44-C ) :   1.5401 B( 44-C , 45-C ) :   1.1711 B( 44-C , 48-S ) :   1.0193
B( 45-C , 46-C ) :   1.6140 B( 45-C , 88-H ) :   0.9921 B( 46-C , 47-C ) :   1.1161
B( 46-C , 89-H ) :   0.9978 B( 47-C , 48-S ) :   1.0224 B( 47-C , 49-C ) :   1.6698
B( 49-C , 50-C ) :   1.0371 B( 49-C , 90-H ) :   0.9592 B( 50-C , 51-C ) :   1.5890
B( 50-C , 54-C ) :   1.1445 B( 51-C , 52-S ) :   1.1134 B( 51-C , 91-H ) :   0.9474
B( 52-S , 53-C ) :   1.0793 B( 53-C , 54-C ) :   1.3773 B( 53-C , 65-C ) :   1.3781
B( 54-C , 55-C ) :   1.2401 B( 55-C , 56-C ) :   1.0694 B( 55-C , 58-C ) :   1.5196
B( 56-C , 57-C ) :   1.1065 B( 56-C , 92-H ) :   0.9229 B( 56-C , 93-H ) :   0.9094
B( 57-C , 94-H ) :   0.9653 B( 57-C , 95-H ) :   0.9657 B( 57-C , 96-H ) :   0.9545
B( 58-C , 59-C ) :   1.0542 B( 58-C , 61-C ) :   1.2655 B( 59-C , 60-C ) :   1.1018
B( 59-C , 97-H ) :   0.9202 B( 59-C , 98-H ) :   0.9156 B( 60-C , 99-H ) :   0.9596
B( 60-C ,100-H ) :   0.9646 B( 60-C ,101-H ) :   0.9635 B( 61-C , 62-C ) :   1.1572
B( 61-C , 65-C ) :   1.3726 B( 62-C , 63-C ) :   1.6408 B( 62-C , 66-C ) :   1.0010
B( 63-C , 64-S ) :   1.1049 B( 63-C ,102-H ) :   0.9647 B( 64-S , 65-C ) :   1.0786
B( 66-C , 67-C ) :   1.9842 B( 66-C ,103-H ) :   0.9487 B( 67-C ,104-H ) :   0.9595
B( 67-C ,105-H ) :   0.9521

-----------------------------------------------------------------------------
         ABSORPTION SPECTRUM VIA TRANSITION ELECTRIC DIPOLE MOMENTS
-----------------------------------------------------------------------------
State   Energy  Wavelength   fosc         T2         TX        TY        TZ
        (cm-1)    (nm)                  (au**2)     (au)      (au)      (au)
-----------------------------------------------------------------------------
   0   14214.9    703.5   0.003435194   0.07956  -0.05857   0.25939   0.09405
   1   17367.3    575.8   1.155826893  21.90969  -1.71735  -4.32663  -0.49058
   2   20897.8    478.5   0.001186832   0.01870   0.12529  -0.00426  -0.05460
   3   22870.9    437.2   0.205321468   2.95547   1.42366  -0.96022  -0.08156
   4   22953.2    435.7   0.309109769   4.43348   1.57588  -1.38823   0.15137
   5   24935.3    401.0   0.000509003   0.00672   0.04196   0.03306  -0.06218
   6   26443.7    378.2   0.038305879   0.47689   0.66758   0.16567   0.06146
   7   26947.6    371.1   0.005505351   0.06726  -0.20427   0.11703  -0.10879
   8   27685.7    361.2   0.085287792   1.01416  -0.42455   0.52162  -0.74955
   9   28246.9    354.0   0.274295014   3.19685   1.12365  -0.25093  -1.36795
  10   29208.8    342.4   0.401719920   4.52778   1.79972  -0.48022  -1.02868
  11   29283.4    341.5   0.201652606   2.26703  -0.68856   1.06297  -0.81426
  12   29792.1    335.7   0.000081459   0.00090   0.01241  -0.02494   0.01114
  13   31041.6    322.1   0.312388964   3.31304  -1.70799   0.61902  -0.11241
  14   31166.9    320.9   0.150349596   1.58812  -0.56035   0.85159  -0.74089
  15   31301.6    319.5   0.019727081   0.20748   0.29148  -0.34906   0.02592
  16   31535.7    317.1   0.055061264   0.57480   0.62304  -0.43033  -0.03801
  17   31862.2    313.9   0.011897172   0.12293   0.01653   0.34551  -0.05726
  18   32585.3    306.9   0.008273100   0.08358   0.23690  -0.12527  -0.10849
  19   32713.0    305.7   0.311512240   3.13495  -0.29500   0.14055  -1.74016
  20   33310.3    300.2   0.007511249   0.07424   0.03002   0.19690  -0.18592
  21   33662.3    297.1   0.021964509   0.21481   0.21826   0.11216  -0.39318
  22   33807.9    295.8   0.253625002   2.46973   1.52103   0.38656  -0.08235
  23   33910.5    294.9   0.375621528   3.64663   0.26413  -0.90403   1.66120
  24   34459.7    290.2   0.002312860   0.02210   0.01409  -0.04231   0.14180
  25   34527.7    289.6   0.004439605   0.04233  -0.13137   0.05708  -0.14770
  26   35728.6    279.9   0.019152934   0.17648   0.38018  -0.16382   0.07146
  27   36073.2    277.2   0.205820705   1.87837  -1.15607   0.45963   0.57500
  28   36175.6    276.4   0.005420229   0.04933  -0.10437  -0.01453   0.19550
  29   36365.8    275.0   0.000108599   0.00098   0.01169   0.00906  -0.02765
  30   36377.7    274.9   0.020267964   0.18342   0.21609   0.09079  -0.35844
  31   36969.1    270.5   0.240087561   2.13799  -0.23594  -0.08132  -1.44073
  32   37237.3    268.5   0.100456273   0.88813   0.42684  -0.18806  -0.81888
  33   37953.8    263.5   0.013286756   0.11525  -0.20135   0.14058   0.23441
  34   38651.3    258.7   0.137999605   1.17541   0.42768  -0.80373   0.58866
  35   38671.5    258.6   0.020889506   0.17783   0.10578  -0.08519  -0.39923
  36   39168.8    255.3   0.024635196   0.20706  -0.27678   0.34640   0.10227
  37   39355.3    254.1   0.008270838   0.06919   0.19061  -0.12645  -0.12986
  38   39793.0    251.3   0.218200171   1.80520  -1.15342  -0.67502  -0.13841
  39   39874.6    250.8   0.216826491   1.79016   0.75556  -0.92251  -0.60684
  40   40018.7    249.9   0.054627044   0.44939   0.14497  -0.23730  -0.60997
  41   40203.1    248.7   0.000075052   0.00061   0.00740  -0.02348  -0.00289

FINAL SINGLE POINT ENERGY     -7500.868350088464

DIPOLE MOMENT
-------------
                                X             Y             Z
Electronic contribution:    -96.98725     203.19636     141.04434
Nuclear contribution   :     96.64475    -203.71434    -141.68709
                        -----------------------------------------
Total Dipole Moment    :     -0.34249      -0.51798      -0.64275
                        -----------------------------------------
Magnitude (a.u.)       :      0.89371
Magnitude (Debye)      :      2.27164

Rotational constants in cm-1:     0.000831     0.000227     0.000198
Rotational constants in MHz :    24.919220     6.812901     5.944139

                             ****ORCA TERMINATED NORMALLY****
TOTAL RUN TIME: 0 days 0 hours 9 minutes 21 seconds 275 msec
