                         Program Version 4.2.0 -  RELEASE  -
|  1> # ORCA input file
|  2> # SCF done       -212.164520995899          0.000586814895
|  3> ! CAM-B3LYP def2-SVP def2/J RIJCOSX Grid4 TightSCF
|  4> %maxcore 5000
|  5> %tddft
|  6>     Mode sTDDFT
|  7>     Ethresh 5.0
|  8>     maxcore 5000
|  9> end
| 10>
| 11> %pal
| 12>   nprocs 6
| 13>   end
| 14> * xyz 0 1
| 15>    C       -7.19046         1.32297        -6.00503
| 16>    C       -6.25904         1.94328        -6.78929
| 17>    F       -6.56036         3.09154        -7.41380
| 18>    C       -4.97498         1.38796        -6.95280
| 19>    F       -4.08048         2.01799        -7.72975
| 20>    C       -4.63919         0.21944        -6.32875
| 21>    C       -5.57686        -0.44363        -5.51378
| 22>    C       -6.87621         0.11622        -5.34819
| 23>    C       -7.83552        -0.53338        -4.53730
| 24>    C       -7.50560        -1.70674        -3.91198
| 25>    C       -6.20579        -2.25680        -4.08260
| 26>    C       -5.25882        -1.65386        -4.85760
| 27>    C       -6.10350        -3.51994        -3.31888
| 28>    O       -5.12754        -4.23766        -3.25695
| 29>    C       -7.42634        -3.70796        -2.68169
| 30>    C       -8.27380        -2.59288        -3.03751
| 31>    C       -9.57003        -2.37007        -2.63957
| 32>    C      -10.33137        -3.20515        -1.79710
| 33>    N      -11.02617        -3.82239        -1.12123
| 34>    C      -10.33382        -1.24984        -3.02473
| 35>    N      -11.01069        -0.36337        -3.29958
| 36>    C       -7.77695        -4.79005        -1.90928
| 37>    C       -6.92978        -5.85908        -1.57954
| 38>    C       -7.39500        -6.93448        -0.87138
| 39>    C       -6.61689        -8.04887        -0.52591
| 40>    O       -7.19580        -9.10694         0.10068
| 41>    C       -6.25304       -10.06080         0.31945
| 42>    C       -5.02773        -9.60296        -0.19044
| 43>    C       -5.25559        -8.32540        -0.72570
| 44>    O       -4.36080        -7.52800        -1.31381
| 45>    O       -3.81156       -10.20008        -0.23163
| 46>    C       -6.65733       -11.25728         0.93234
| 47>    C       -5.84895       -12.30184         1.30673
| 48>    C       -6.31123       -13.49784         1.85316
| 49>    C       -5.47303       -14.53415         2.21744
| 50>    C       -5.81794       -15.78554         2.76333
| 51>    C       -4.74705       -16.59495         3.03552
| 52>    C       -3.50396       -16.01438         2.73353
| 53>    S       -3.72936       -14.42450         2.04985
| 54>    C       -2.22162       -16.50971         2.94630
| 55>    C       -1.82016       -17.78389         3.38934
| 56>    C       -0.46287       -17.91686         3.51016
| 57>    C        0.25817       -16.74432         3.20627
| 58>    S       -0.83769       -15.48787         2.69318
| 59>    C        1.62080       -16.50396         3.32293
| 60>    C        2.12404       -15.21584         3.21371
| 61>    C        3.43063       -14.79410         3.32757
| 62>    C        3.70904       -13.42175         3.35590
| 63>    O        2.67483       -12.54329         3.37758
| 64>    C        3.15822       -11.27688         3.45199
| 65>    C        4.56456       -11.34524         3.45026
| 66>    C        4.91357       -12.69807         3.40505
| 67>    O        6.15127       -13.23013         3.40193
| 68>    O        5.46963       -10.33626         3.50520
| 69>    C        2.31104       -10.16424         3.53949
| 70>    C        0.93538       -10.17244         3.64566
| 71>    C        0.16319       -11.31926         3.83789
| 72>    C       -1.20780       -11.46962         3.88354
| 73>    C       -1.74408       -12.70343         4.48757
| 74>    O       -1.11743       -13.69630         4.80789
| 75>    C       -3.19967       -12.49362         4.61296
| 76>    C       -4.14433       -13.32710         5.13464
| 77>    C       -5.50191       -12.93826         5.09140
| 78>    C       -5.84546       -11.67688         4.52883
| 79>    C       -7.20168       -11.30097         4.47056
| 80>    C       -8.17106       -12.14513         4.93447
| 81>    C       -7.82946       -13.39477         5.48595
| 82>    C       -6.52188       -13.78234         5.56895
| 83>    F       -8.80224       -14.21070         5.92255
| 84>    F       -9.46367       -11.79440         4.85830
| 85>    C       -4.84006       -10.82816         4.00885
| 86>    C       -3.53329       -11.23565         4.03804
| 87>    C       -2.30903       -10.63148         3.50402
| 88>    C       -2.29229        -9.55986         2.63668
| 89>    C       -1.19403        -9.17428         1.84513
| 90>    N       -0.37155        -8.83923         1.11647
| 91>    C       -3.42124        -8.78107         2.33677
| 92>    N       -4.31157        -8.10981         2.05301
| 93>    H       -8.16944         1.76162        -5.89057
| 94>    H       -3.65175        -0.19341        -6.46381
| 95>    H       -8.80950        -0.08329        -4.43583
| 96>    H       -4.28041        -2.09588        -4.96939
| 97>    H       -8.78940        -4.84100        -1.52875
| 98>    H       -5.90129        -5.83479        -1.90499
| 99>    H       -8.43093        -6.96970        -0.55828
|100>    H       -3.48336        -7.93080        -1.25011
|101>    H       -3.88166       -11.13075         0.00719
|102>    H       -7.72049       -11.33645         1.11401
|103>    H       -4.77424       -12.22519         1.19843
|104>    H       -7.37421       -13.63635         1.99169
|105>    H       -6.84330       -16.05522         2.94494
|106>    H       -4.82638       -17.57891         3.46195
|107>    H       -2.52703       -18.56578         3.60258
|108>    H        0.03047       -18.81448         3.83920
|109>    H        2.27406       -17.33144         3.56222
|110>    H        1.38709       -14.43646         3.06277
|111>    H        4.25872       -15.47917         3.41297
|112>    H        6.79392       -12.50888         3.43153
|113>    H        5.01786        -9.48530         3.49747
|114>    H        2.80145        -9.20021         3.50035
|115>    H        0.44348        -9.21105         3.62923
|116>    H        0.69173       -12.23076         4.08858
|117>    H       -3.86366       -14.28127         5.55515
|118>    H       -7.48030       -10.34831         4.04812
|119>    H       -6.27494       -14.74230         5.99474
|120>    H       -5.13757        -9.87910         3.59409
|121> *
|122>
|123>                          ****END OF INPUT****

CARTESIAN COORDINATES (ANGSTROEM)
---------------------------------
  C     -7.190460    1.322970   -6.005030
  C     -6.259040    1.943280   -6.789290
  F     -6.560360    3.091540   -7.413800
  C     -4.974980    1.387960   -6.952800
  F     -4.080480    2.017990   -7.729750
  C     -4.639190    0.219440   -6.328750
  C     -5.576860   -0.443630   -5.513780
  C     -6.876210    0.116220   -5.348190
  C     -7.835520   -0.533380   -4.537300
  C     -7.505600   -1.706740   -3.911980
  C     -6.205790   -2.256800   -4.082600
  C     -5.258820   -1.653860   -4.857600
  C     -6.103500   -3.519940   -3.318880
  O     -5.127540   -4.237660   -3.256950
  C     -7.426340   -3.707960   -2.681690
  C     -8.273800   -2.592880   -3.037510
  C     -9.570030   -2.370070   -2.639570
  C    -10.331370   -3.205150   -1.797100
  N    -11.026170   -3.822390   -1.121230
  C    -10.333820   -1.249840   -3.024730
  N    -11.010690   -0.363370   -3.299580
  C     -7.776950   -4.790050   -1.909280
  C     -6.929780   -5.859080   -1.579540
  C     -7.395000   -6.934480   -0.871380
  C     -6.616890   -8.048870   -0.525910
  O     -7.195800   -9.106940    0.100680
  C     -6.253040  -10.060800    0.319450
  C     -5.027730   -9.602960   -0.190440
  C     -5.255590   -8.325400   -0.725700
  O     -4.360800   -7.528000   -1.313810
  O     -3.811560  -10.200080   -0.231630
  C     -6.657330  -11.257280    0.932340
  C     -5.848950  -12.301840    1.306730
  C     -6.311230  -13.497840    1.853160
  C     -5.473030  -14.534150    2.217440
  C     -5.817940  -15.785540    2.763330
  C     -4.747050  -16.594950    3.035520
  C     -3.503960  -16.014380    2.733530
  S     -3.729360  -14.424500    2.049850
  C     -2.221620  -16.509710    2.946300
  C     -1.820160  -17.783890    3.389340
  C     -0.462870  -17.916860    3.510160
  C      0.258170  -16.744320    3.206270
  S     -0.837690  -15.487870    2.693180
  C      1.620800  -16.503960    3.322930
  C      2.124040  -15.215840    3.213710
  C      3.430630  -14.794100    3.327570
  C      3.709040  -13.421750    3.355900
  O      2.674830  -12.543290    3.377580
  C      3.158220  -11.276880    3.451990
  C      4.564560  -11.345240    3.450260
  C      4.913570  -12.698070    3.405050
  O      6.151270  -13.230130    3.401930
  O      5.469630  -10.336260    3.505200
  C      2.311040  -10.164240    3.539490
  C      0.935380  -10.172440    3.645660
  C      0.163190  -11.319260    3.837890
  C     -1.207800  -11.469620    3.883540
  C     -1.744080  -12.703430    4.487570
  O     -1.117430  -13.696300    4.807890
  C     -3.199670  -12.493620    4.612960
  C     -4.144330  -13.327100    5.134640
  C     -5.501910  -12.938260    5.091400
  C     -5.845460  -11.676880    4.528830
  C     -7.201680  -11.300970    4.470560
  C     -8.171060  -12.145130    4.934470
  C     -7.829460  -13.394770    5.485950
  C     -6.521880  -13.782340    5.568950
  F     -8.802240  -14.210700    5.922550
  F     -9.463670  -11.794400    4.858300
  C     -4.840060  -10.828160    4.008850
  C     -3.533290  -11.235650    4.038040
  C     -2.309030  -10.631480    3.504020
  C     -2.292290   -9.559860    2.636680
  C     -1.194030   -9.174280    1.845130
  N     -0.371550   -8.839230    1.116470
  C     -3.421240   -8.781070    2.336770
  N     -4.311570   -8.109810    2.053010
  H     -8.169440    1.761620   -5.890570
  H     -3.651750   -0.193410   -6.463810
  H     -8.809500   -0.083290   -4.435830
  H     -4.280410   -2.095880   -4.969390
  H     -8.789400   -4.841000   -1.528750
  H     -5.901290   -5.834790   -1.904990
  H     -8.430930   -6.969700   -0.558280
  H     -3.483360   -7.930800   -1.250110
  H     -3.881660  -11.130750    0.007190
  H     -7.720490  -11.336450    1.114010
  H     -4.774240  -12.225190    1.198430
  H     -7.374210  -13.636350    1.991690
  H     -6.843300  -16.055220    2.944940
  H     -4.826380  -17.578910    3.461950
  H     -2.527030  -18.565780    3.602580
  H      0.030470  -18.814480    3.839200
  H      2.274060  -17.331440    3.562220
  H      1.387090  -14.436460    3.062770
  H      4.258720  -15.479170    3.412970
  H      6.793920  -12.508880    3.431530
  H      5.017860   -9.485300    3.497470
  H      2.801450   -9.200210    3.500350
  H      0.443480   -9.211050    3.629230
  H      0.691730  -12.230760    4.088580
  H     -3.863660  -14.281270    5.555150
  H     -7.480300  -10.348310    4.048120
  H     -6.274940  -14.742300    5.994740
  H     -5.137570   -9.879100    3.594090

 Total Charge           Charge          ....    0
 Multiplicity           Mult            ....    1
 Number of Electrons    NEL             ....  548
 Basis Dimension        Dim             .... 1240

ORBITAL ENERGIES
----------------

  NO   OCC          E(Eh)            E(eV)
   0   2.0000     -88.963509     -2420.8202
   1   2.0000     -88.954544     -2420.5762
   2   2.0000     -24.796846      -674.7565
   3   2.0000     -24.795416      -674.7176
   4   2.0000     -24.787589      -674.5046
   5   2.0000     -24.786426      -674.4729
   6   2.0000     -19.299537      -525.1671
   7   2.0000     -19.292417      -524.9734
   8   2.0000     -19.287027      -524.8267
   9   2.0000     -19.280072      -524.6374
  10   2.0000     -19.269767      -524.3570
  11   2.0000     -19.265667      -524.2455
  12   2.0000     -19.204736      -522.5874
  13   2.0000     -19.199166      -522.4359
  14   2.0000     -14.410383      -392.1265
  15   2.0000     -14.404626      -391.9698
  16   2.0000     -14.401344      -391.8805
  17   2.0000     -14.399584      -391.8326
  18   2.0000     -10.377755      -282.3931
  19   2.0000     -10.377355      -282.3822
  20   2.0000     -10.369616      -282.1716
  21   2.0000     -10.368683      -282.1462
  22   2.0000     -10.362273      -281.9718
  23   2.0000     -10.352786      -281.7136
  24   2.0000     -10.351887      -281.6892
  25   2.0000     -10.350023      -281.6385
  26   2.0000     -10.350005      -281.6379
  27   2.0000     -10.349965      -281.6369
  28   2.0000     -10.349019      -281.6111
  29   2.0000     -10.348609      -281.6000
  30   2.0000     -10.347444      -281.5683
  31   2.0000     -10.335965      -281.2559
  32   2.0000     -10.330055      -281.0951
  33   2.0000     -10.329276      -281.0739
  34   2.0000     -10.327888      -281.0361
  35   2.0000     -10.325117      -280.9607
  36   2.0000     -10.323816      -280.9253
  37   2.0000     -10.321768      -280.8696
  38   2.0000     -10.320316      -280.8301
  39   2.0000     -10.317576      -280.7555
  40   2.0000     -10.315257      -280.6924
  41   2.0000     -10.310778      -280.5705
  42   2.0000     -10.309149      -280.5262
  43   2.0000     -10.304916      -280.4110
  44   2.0000     -10.304226      -280.3923
  45   2.0000     -10.303623      -280.3758
  46   2.0000     -10.303609      -280.3755
  47   2.0000     -10.303339      -280.3681
  48   2.0000     -10.301927      -280.3297
  49   2.0000     -10.301182      -280.3094
  50   2.0000     -10.300525      -280.2915
  51   2.0000     -10.299541      -280.2648
  52   2.0000     -10.299102      -280.2528
  53   2.0000     -10.298636      -280.2401
  54   2.0000     -10.297868      -280.2192
  55   2.0000     -10.297587      -280.2116
  56   2.0000     -10.297573      -280.2112
  57   2.0000     -10.297192      -280.2008
  58   2.0000     -10.296812      -280.1905
  59   2.0000     -10.296628      -280.1855
  60   2.0000     -10.293617      -280.1035
  61   2.0000     -10.293426      -280.0984
  62   2.0000     -10.292743      -280.0798
  63   2.0000     -10.292625      -280.0766
  64   2.0000     -10.292254      -280.0665
  65   2.0000     -10.289335      -279.9871
  66   2.0000     -10.288995      -279.9778
  67   2.0000     -10.288544      -279.9655
  68   2.0000     -10.287713      -279.9429
  69   2.0000     -10.287540      -279.9382
  70   2.0000     -10.287260      -279.9306
  71   2.0000     -10.287111      -279.9265
  72   2.0000     -10.283642      -279.8321
  73   2.0000     -10.282854      -279.8107
  74   2.0000     -10.279716      -279.7253
  75   2.0000     -10.277730      -279.6712
  76   2.0000     -10.277437      -279.6633
  77   2.0000     -10.268445      -279.4186
  78   2.0000      -8.058704      -219.2885
  79   2.0000      -8.050347      -219.0611
  80   2.0000      -6.028370      -164.0403
  81   2.0000      -6.024395      -163.9321
  82   2.0000      -6.019932      -163.8107
  83   2.0000      -6.019892      -163.8096
  84   2.0000      -6.015791      -163.6980
  85   2.0000      -6.011661      -163.5856
  86   2.0000      -1.318324       -35.8734
  87   2.0000      -1.309255       -35.6266
  88   2.0000      -1.303540       -35.4711
  89   2.0000      -1.294458       -35.2240
  90   2.0000      -1.224904       -33.3313
  91   2.0000      -1.214309       -33.0430
  92   2.0000      -1.179147       -32.0862
  93   2.0000      -1.172812       -31.9138
  94   2.0000      -1.158755       -31.5313
  95   2.0000      -1.154756       -31.4225
  96   2.0000      -1.117006       -30.3953
  97   2.0000      -1.113803       -30.3081
  98   2.0000      -1.011796       -27.5324
  99   2.0000      -1.009892       -27.4806
 100   2.0000      -1.004041       -27.3213
 101   2.0000      -0.997870       -27.1534
 102   2.0000      -0.990272       -26.9467
 103   2.0000      -0.987259       -26.8647
 104   2.0000      -0.987024       -26.8583
 105   2.0000      -0.979317       -26.6486
 106   2.0000      -0.973105       -26.4795
 107   2.0000      -0.966426       -26.2978
 108   2.0000      -0.937779       -25.5183
 109   2.0000      -0.935067       -25.4445
 110   2.0000      -0.923841       -25.1390
 111   2.0000      -0.922519       -25.1030
 112   2.0000      -0.913827       -24.8665
 113   2.0000      -0.910485       -24.7755
 114   2.0000      -0.905987       -24.6531
 115   2.0000      -0.897153       -24.4128
 116   2.0000      -0.891362       -24.2552
 117   2.0000      -0.889969       -24.2173
 118   2.0000      -0.885322       -24.0908
 119   2.0000      -0.881852       -23.9964
 120   2.0000      -0.878046       -23.8929
 121   2.0000      -0.872231       -23.7346
 122   2.0000      -0.863753       -23.5039
 123   2.0000      -0.852792       -23.2056
 124   2.0000      -0.848589       -23.0913
 125   2.0000      -0.834886       -22.7184
 126   2.0000      -0.831419       -22.6241
 127   2.0000      -0.827642       -22.5213
 128   2.0000      -0.826433       -22.4884
 129   2.0000      -0.813917       -22.1478
 130   2.0000      -0.799681       -21.7604
 131   2.0000      -0.786598       -21.4044
 132   2.0000      -0.771042       -20.9811
 133   2.0000      -0.758678       -20.6447
 134   2.0000      -0.754600       -20.5337
 135   2.0000      -0.751815       -20.4579
 136   2.0000      -0.745040       -20.2736
 137   2.0000      -0.732783       -19.9400
 138   2.0000      -0.731728       -19.9113
 139   2.0000      -0.728379       -19.8202
 140   2.0000      -0.717578       -19.5263
 141   2.0000      -0.712376       -19.3847
 142   2.0000      -0.709588       -19.3089
 143   2.0000      -0.708932       -19.2910
 144   2.0000      -0.703142       -19.1335
 145   2.0000      -0.700880       -19.0719
 146   2.0000      -0.694440       -18.8967
 147   2.0000      -0.681492       -18.5443
 148   2.0000      -0.679094       -18.4791
 149   2.0000      -0.673518       -18.3274
 150   2.0000      -0.671505       -18.2726
 151   2.0000      -0.667013       -18.1503
 152   2.0000      -0.655678       -17.8419
 153   2.0000      -0.651746       -17.7349
 154   2.0000      -0.647611       -17.6224
 155   2.0000      -0.646198       -17.5839
 156   2.0000      -0.643114       -17.5000
 157   2.0000      -0.635980       -17.3059
 158   2.0000      -0.635364       -17.2891
 159   2.0000      -0.634281       -17.2597
 160   2.0000      -0.632469       -17.2103
 161   2.0000      -0.627232       -17.0679
 162   2.0000      -0.626896       -17.0587
 163   2.0000      -0.623374       -16.9629
 164   2.0000      -0.620491       -16.8844
 165   2.0000      -0.609092       -16.5742
 166   2.0000      -0.606852       -16.5133
 167   2.0000      -0.600556       -16.3420
 168   2.0000      -0.597838       -16.2680
 169   2.0000      -0.591113       -16.0850
 170   2.0000      -0.584694       -15.9103
 171   2.0000      -0.583874       -15.8880
 172   2.0000      -0.581521       -15.8240
 173   2.0000      -0.578218       -15.7341
 174   2.0000      -0.577260       -15.7080
 175   2.0000      -0.575542       -15.6613
 176   2.0000      -0.574057       -15.6209
 177   2.0000      -0.571941       -15.5633
 178   2.0000      -0.567471       -15.4417
 179   2.0000      -0.563005       -15.3201
 180   2.0000      -0.557425       -15.1683
 181   2.0000      -0.551124       -14.9969
 182   2.0000      -0.550128       -14.9698
 183   2.0000      -0.547354       -14.8942
 184   2.0000      -0.545545       -14.8450
 185   2.0000      -0.544907       -14.8277
 186   2.0000      -0.541294       -14.7294
 187   2.0000      -0.536060       -14.5869
 188   2.0000      -0.535978       -14.5847
 189   2.0000      -0.534043       -14.5321
 190   2.0000      -0.533357       -14.5134
 191   2.0000      -0.528893       -14.3919
 192   2.0000      -0.526875       -14.3370
 193   2.0000      -0.526439       -14.3251
 194   2.0000      -0.522357       -14.2141
 195   2.0000      -0.520638       -14.1673
 196   2.0000      -0.518814       -14.1177
 197   2.0000      -0.516823       -14.0635
 198   2.0000      -0.514553       -14.0017
 199   2.0000      -0.512663       -13.9503
 200   2.0000      -0.510449       -13.8900
 201   2.0000      -0.508202       -13.8289
 202   2.0000      -0.506897       -13.7934
 203   2.0000      -0.505761       -13.7625
 204   2.0000      -0.503773       -13.7084
 205   2.0000      -0.500917       -13.6306
 206   2.0000      -0.499411       -13.5897
 207   2.0000      -0.497814       -13.5462
 208   2.0000      -0.496584       -13.5127
 209   2.0000      -0.492127       -13.3914
 210   2.0000      -0.491658       -13.3787
 211   2.0000      -0.491193       -13.3660
 212   2.0000      -0.486267       -13.2320
 213   2.0000      -0.484800       -13.1921
 214   2.0000      -0.483689       -13.1618
 215   2.0000      -0.483478       -13.1561
 216   2.0000      -0.482432       -13.1276
 217   2.0000      -0.481672       -13.1070
 218   2.0000      -0.476617       -12.9694
 219   2.0000      -0.473666       -12.8891
 220   2.0000      -0.473568       -12.8864
 221   2.0000      -0.470852       -12.8125
 222   2.0000      -0.469298       -12.7702
 223   2.0000      -0.468358       -12.7447
 224   2.0000      -0.462782       -12.5929
 225   2.0000      -0.459394       -12.5007
 226   2.0000      -0.455784       -12.4025
 227   2.0000      -0.454758       -12.3746
 228   2.0000      -0.452984       -12.3263
 229   2.0000      -0.450129       -12.2486
 230   2.0000      -0.446648       -12.1539
 231   2.0000      -0.446466       -12.1490
 232   2.0000      -0.443219       -12.0606
 233   2.0000      -0.438541       -11.9333
 234   2.0000      -0.435889       -11.8611
 235   2.0000      -0.435522       -11.8512
 236   2.0000      -0.433746       -11.8028
 237   2.0000      -0.432392       -11.7660
 238   2.0000      -0.429645       -11.6912
 239   2.0000      -0.429531       -11.6881
 240   2.0000      -0.426716       -11.6115
 241   2.0000      -0.424540       -11.5523
 242   2.0000      -0.421939       -11.4815
 243   2.0000      -0.419945       -11.4273
 244   2.0000      -0.416874       -11.3437
 245   2.0000      -0.415626       -11.3098
 246   2.0000      -0.414388       -11.2761
 247   2.0000      -0.411362       -11.1937
 248   2.0000      -0.409450       -11.1417
 249   2.0000      -0.408468       -11.1150
 250   2.0000      -0.403780       -10.9874
 251   2.0000      -0.399525       -10.8716
 252   2.0000      -0.392613       -10.6835
 253   2.0000      -0.386001       -10.5036
 254   2.0000      -0.382112       -10.3978
 255   2.0000      -0.378549       -10.3008
 256   2.0000      -0.369697       -10.0600
 257   2.0000      -0.360696        -9.8150
 258   2.0000      -0.347820        -9.4647
 259   2.0000      -0.343263        -9.3407
 260   2.0000      -0.335950        -9.1417
 261   2.0000      -0.331315        -9.0155
 262   2.0000      -0.328012        -8.9257
 263   2.0000      -0.323053        -8.7907
 264   2.0000      -0.318938        -8.6787
 265   2.0000      -0.313653        -8.5349
 266   2.0000      -0.304202        -8.2778
 267   2.0000      -0.300678        -8.1819
 268   2.0000      -0.294211        -8.0059
 269   2.0000      -0.293462        -7.9855
 270   2.0000      -0.286621        -7.7994
 271   2.0000      -0.261951        -7.1280
 272   2.0000      -0.243572        -6.6279
 273   2.0000      -0.209088        -5.6896
 274   0.0000      -0.114629        -3.1192
 275   0.0000      -0.089265        -2.4290
 276   0.0000      -0.075603        -2.0573
 277   0.0000      -0.051975        -1.4143
 278   0.0000      -0.045740        -1.2446

MULLIKEN ATOMIC CHARGES
-----------------------
   0 C :   -0.109713
   1 C :    0.240228
   2 F :   -0.175353
   3 C :    0.237676
   4 F :   -0.176853
   5 C :   -0.106428
   6 C :    0.117336
   7 C :    0.112344
   8 C :   -0.088625
   9 C :    0.046112
  10 C :    0.001338
  11 C :   -0.087704
  12 C :    0.141831
  13 O :   -0.149622
  14 C :   -0.079726
  15 C :    0.342991
  16 C :   -0.367015
  17 C :   -0.189278
  18 N :    0.138200
  19 C :   -0.184315
  20 N :    0.136084
  21 C :   -0.031955
  22 C :   -0.025237
  23 C :    0.004555
  24 C :    0.130510
  25 O :   -0.210955
  26 C :    0.144928
  27 C :    0.069509
  28 C :    0.113339
  29 O :   -0.134863
  30 O :   -0.185289
  31 C :   -0.029078
  32 C :   -0.007650
  33 C :    0.002699
  34 C :   -0.030161
  35 C :    0.045522
  36 C :    0.017845
  37 C :   -0.036651
  38 S :    0.055752
  39 C :   -0.036818
  40 C :    0.029032
  41 C :    0.034345
  42 C :   -0.025184
  43 S :    0.120726
  44 C :    0.012824
  45 C :    0.024419
  46 C :   -0.056755
  47 C :    0.120503
  48 O :   -0.236083
  49 C :    0.116207
  50 C :    0.095322
  51 C :    0.080194
  52 O :   -0.169995
  53 O :   -0.185908
  54 C :   -0.033513
  55 C :    0.005728
  56 C :    0.010361
  57 C :   -0.112847
  58 C :    0.121997
  59 O :   -0.166477
  60 C :    0.047749
  61 C :   -0.111312
  62 C :    0.134017
  63 C :    0.129411
  64 C :   -0.124592
  65 C :    0.237880
  66 C :    0.228649
  67 C :   -0.110439
  68 F :   -0.177362
  69 F :   -0.175970
  70 C :   -0.104674
  71 C :    0.027224
  72 C :    0.312026
  73 C :   -0.391936
  74 C :   -0.221478
  75 N :    0.155527
  76 C :   -0.141097
  77 N :    0.100195
  78 H :    0.004656
  79 H :   -0.004803
  80 H :   -0.009795
  81 H :   -0.015780
  82 H :    0.004964
  83 H :    0.042495
  84 H :    0.009783
  85 H :    0.204160
  86 H :    0.196127
  87 H :    0.003894
  88 H :   -0.029891
  89 H :   -0.005853
  90 H :   -0.006635
  91 H :   -0.010830
  92 H :   -0.012605
  93 H :   -0.011115
  94 H :   -0.014006
  95 H :    0.029336
  96 H :    0.002536
  97 H :    0.196415
  98 H :    0.199192
  99 H :   -0.020670
 100 H :    0.001788
 101 H :    0.030144
 102 H :   -0.019170
 103 H :    0.002901
 104 H :   -0.011000
 105 H :   -0.010461
Sum of atomic charges:   -0.0000000

LOEWDIN ATOMIC CHARGES
----------------------
   0 C :   -0.030169
   1 C :    0.063530
   2 F :   -0.053248
   3 C :    0.065157
   4 F :   -0.053953
   5 C :   -0.035043
   6 C :   -0.009706
   7 C :   -0.008313
   8 C :    0.013665
   9 C :   -0.020860
  10 C :   -0.048761
  11 C :    0.023844
  12 C :    0.080766
  13 O :   -0.146764
  14 C :   -0.107559
  15 C :    0.075138
  16 C :   -0.151055
  17 C :   -0.020198
  18 N :   -0.062890
  19 C :   -0.017185
  20 N :   -0.066143
  21 C :    0.067076
  22 C :   -0.033108
  23 C :    0.025807
  24 C :    0.005553
  25 O :    0.004646
  26 C :    0.005187
  27 C :   -0.005358
  28 C :    0.031195
  29 O :   -0.007586
  30 O :   -0.034259
  31 C :   -0.023224
  32 C :   -0.047186
  33 C :   -0.038574
  34 C :   -0.149310
  35 C :   -0.029339
  36 C :   -0.037696
  37 C :   -0.167327
  38 S :    0.399910
  39 C :   -0.181415
  40 C :   -0.028777
  41 C :   -0.037500
  42 C :   -0.131821
  43 S :    0.447826
  44 C :   -0.055145
  45 C :   -0.006538
  46 C :   -0.051317
  47 C :    0.041327
  48 O :    0.007861
  49 C :   -0.009728
  50 C :    0.004536
  51 C :   -0.012158
  52 O :   -0.042829
  53 O :   -0.047593
  54 C :   -0.010319
  55 C :   -0.045649
  56 C :    0.046843
  57 C :   -0.109851
  58 C :    0.066923
  59 O :   -0.166376
  60 C :   -0.053047
  61 C :    0.015490
  62 C :   -0.010865
  63 C :   -0.007100
  64 C :   -0.031588
  65 C :    0.059410
  66 C :    0.058476
  67 C :   -0.034167
  68 F :   -0.056185
  69 F :   -0.053983
  70 C :    0.003316
  71 C :   -0.022848
  72 C :    0.062290
  73 C :   -0.164898
  74 C :   -0.025218
  75 N :   -0.070943
  76 C :   -0.013637
  77 N :   -0.077525
  78 H :    0.046693
  79 H :    0.043228
  80 H :    0.038844
  81 H :    0.038072
  82 H :    0.040265
  83 H :    0.035611
  84 H :    0.044754
  85 H :    0.112904
  86 H :    0.092738
  87 H :    0.043855
  88 H :    0.006310
  89 H :    0.037092
  90 H :    0.035909
  91 H :    0.033900
  92 H :    0.032356
  93 H :    0.034301
  94 H :    0.033100
  95 H :    0.024132
  96 H :    0.040298
  97 H :    0.106164
  98 H :    0.103820
  99 H :    0.035183
 100 H :    0.034490
 101 H :    0.035615
 102 H :    0.035993
 103 H :    0.045283
 104 H :    0.040954
 105 H :    0.036197

  Mayer bond orders larger than 0.100000
B(  0-C ,  1-C ) :   1.4391 B(  0-C ,  5-C ) :   0.1096 B(  0-C ,  7-C ) :   1.1884
B(  0-C , 78-H ) :   1.0071 B(  1-C ,  2-F ) :   1.1302 B(  1-C ,  3-C ) :   1.1946
B(  3-C ,  4-F ) :   1.1277 B(  3-C ,  5-C ) :   1.4400 B(  5-C ,  6-C ) :   1.1927
B(  5-C , 79-H ) :   1.0076 B(  6-C ,  7-C ) :   1.2604 B(  6-C , 11-C ) :   1.1821
B(  7-C ,  8-C ) :   1.2122 B(  8-C ,  9-C ) :   1.4532 B(  8-C , 80-H ) :   0.9887
B(  9-C , 10-C ) :   1.2249 B(  9-C , 15-C ) :   0.9750 B( 10-C , 11-C ) :   1.4775
B( 10-C , 12-C ) :   0.9325 B( 11-C , 81-H ) :   1.0159 B( 12-C , 13-O ) :   2.2076
B( 12-C , 14-C ) :   0.9590 B( 14-C , 15-C ) :   1.0959 B( 14-C , 21-C ) :   1.4596
B( 15-C , 16-C ) :   1.5986 B( 16-C , 17-C ) :   1.1505 B( 16-C , 19-C ) :   1.1510
B( 17-C , 18-N ) :   2.9587 B( 19-C , 20-N ) :   2.9551 B( 21-C , 22-C ) :   1.2164
B( 21-C , 82-H ) :   0.9623 B( 22-C , 23-C ) :   1.4707 B( 22-C , 83-H ) :   0.9751
B( 23-C , 24-C ) :   1.1900 B( 23-C , 84-H ) :   0.9719 B( 24-C , 25-O ) :   1.0991
B( 24-C , 28-C ) :   1.3382 B( 25-O , 26-C ) :   1.1130 B( 26-C , 27-C ) :   1.2771
B( 26-C , 31-C ) :   1.2165 B( 27-C , 28-C ) :   1.2683 B( 27-C , 30-O ) :   1.2048
B( 28-C , 29-O ) :   1.2993 B( 29-O , 85-H ) :   0.9385 B( 30-O , 86-H ) :   0.9541
B( 31-C , 32-C ) :   1.5207 B( 31-C , 87-H ) :   0.9632 B( 32-C , 33-C ) :   1.2359
B( 32-C , 88-H ) :   0.9445 B( 33-C , 34-C ) :   1.4749 B( 33-C , 89-H ) :   0.9936
B( 34-C , 35-C ) :   1.1930 B( 34-C , 38-S ) :   1.0477 B( 35-C , 36-C ) :   1.5241
B( 35-C , 90-H ) :   1.0001 B( 36-C , 37-C ) :   1.2380 B( 36-C , 91-H ) :   0.9959
B( 37-C , 38-S ) :   1.0755 B( 37-C , 39-C ) :   1.4087 B( 39-C , 40-C ) :   1.2388
B( 39-C , 43-S ) :   1.0892 B( 40-C , 41-C ) :   1.5297 B( 40-C , 92-H ) :   0.9943
B( 41-C , 42-C ) :   1.1952 B( 41-C , 93-H ) :   0.9972 B( 42-C , 43-S ) :   1.0990
B( 42-C , 44-C ) :   1.4346 B( 44-C , 45-C ) :   1.2687 B( 44-C , 94-H ) :   0.9854
B( 45-C , 46-C ) :   1.4673 B( 45-C , 95-H ) :   0.9620 B( 46-C , 47-C ) :   1.2672
B( 46-C , 96-H ) :   0.9806 B( 47-C , 48-O ) :   1.1133 B( 47-C , 51-C ) :   1.2731
B( 48-O , 49-C ) :   1.0743 B( 49-C , 50-C ) :   1.2092 B( 49-C , 54-C ) :   1.2703
B( 50-C , 51-C ) :   1.3134 B( 50-C , 53-O ) :   1.2517 B( 51-C , 52-O ) :   1.2860
B( 52-O , 97-H ) :   0.9518 B( 53-O , 98-H ) :   0.9531 B( 54-C , 55-C ) :   1.5039
B( 54-C , 99-H ) :   0.9642 B( 55-C , 56-C ) :   1.2523 B( 55-C ,100-H ) :   0.9578
B( 56-C , 57-C ) :   1.4831 B( 56-C ,101-H ) :   0.9287 B( 57-C , 58-C ) :   0.9831
B( 57-C , 72-C ) :   1.0931 B( 58-C , 59-O ) :   2.1811 B( 58-C , 60-C ) :   0.9163
B( 60-C , 61-C ) :   1.4650 B( 60-C , 71-C ) :   1.2283 B( 61-C , 62-C ) :   1.1702
B( 61-C ,102-H ) :   1.0189 B( 62-C , 63-C ) :   1.2772 B( 62-C , 67-C ) :   1.1905
B( 63-C , 64-C ) :   1.1845 B( 63-C , 70-C ) :   1.1933 B( 64-C , 65-C ) :   1.4321
B( 64-C , 67-C ) :   0.1109 B( 64-C ,103-H ) :   1.0072 B( 65-C , 66-C ) :   1.1940
B( 65-C , 69-F ) :   1.1298 B( 66-C , 67-C ) :   1.4371 B( 66-C , 68-F ) :   1.1292
B( 67-C ,104-H ) :   1.0063 B( 70-C , 71-C ) :   1.4497 B( 70-C ,105-H ) :   0.9945
B( 71-C , 72-C ) :   0.9887 B( 72-C , 73-C ) :   1.5617 B( 73-C , 74-C ) :   1.1719
B( 73-C , 76-C ) :   1.1548 B( 74-C , 75-N ) :   3.0075 B( 76-C , 77-N ) :   2.8781

-----------------------------------------------------------------------------
         ABSORPTION SPECTRUM VIA TRANSITION ELECTRIC DIPOLE MOMENTS
-----------------------------------------------------------------------------
State   Energy  Wavelength   fosc         T2         TX        TY        TZ
        (cm-1)    (nm)                  (au**2)     (au)      (au)      (au)
-----------------------------------------------------------------------------
   0    7003.5   1427.9   0.325648093  15.30777  -2.99657   1.28551  -2.16236
   1   11959.3    836.2   0.307440700   8.46311   1.79999  -2.19197   0.64687
   2   14587.9    685.5   2.032096312  45.85920   2.83491  -5.86537   1.84930
   3   16229.8    616.2   0.022465690   0.45570  -0.52044  -0.29353   0.31415
   4   17957.4    556.9   0.010238215   0.18770  -0.38434  -0.19974  -0.00911
   5   18594.9    537.8   0.011222204   0.19868  -0.08022  -0.20802  -0.38597
   6   20247.1    493.9   0.636902732  10.35587   2.81863   1.44239  -0.57505
   7   22507.2    444.3   0.154189844   2.25532  -1.31320  -0.71994   0.11186
   8   22684.1    440.8   0.092781971   1.34654   0.37829   1.08002  -0.19235
   9   23417.2    427.0   0.144915522   2.03730   1.41498   0.10204   0.15725
  10   23719.9    421.6   0.081340554   1.12894   0.84952   0.25030   0.58703
  11   24353.3    410.6   0.016169157   0.21858  -0.43985  -0.15597   0.02790
  12   24386.4    410.1   0.058159962   0.78515  -0.79770  -0.27333  -0.27224
  13   25077.7    398.8   0.119168910   1.56441  -1.04196  -0.35870   0.59165
  14   26047.1    383.9   0.123093595   1.55579   0.99229   0.65732  -0.37294
  15   26612.6    375.8   0.251988129   3.11723   1.28794   1.00728  -0.66621
  16   26755.8    373.8   0.028278967   0.34795  -0.23877  -0.44289   0.30788
  17   26774.8    373.5   0.003173120   0.03902   0.09492   0.15663  -0.07397
  18   27033.5    369.9   0.036264863   0.44163  -0.58881   0.04193  -0.30525
  19   27918.6    358.2   0.035163197   0.41464  -0.39015   0.50284  -0.09784
  20   28275.0    353.7   0.071027660   0.82699   0.57627   0.70222   0.04232
  21   28577.9    349.9   0.130134811   1.49913  -1.20686  -0.20402   0.03145
  22   28879.0    346.3   0.025870643   0.29492  -0.46175  -0.15574   0.23969
  23   29339.3    340.8   0.169930212   1.90676  -1.02216  -0.60576   0.70356
  24   29937.2    334.0   0.011732377   0.12902  -0.06143  -0.24343   0.25688
  25   30126.0    331.9   0.170472919   1.86290  -1.26795  -0.13930   0.48560
  26   30362.3    329.4   0.096690239   1.04839  -0.66281  -0.69525   0.35454
  27   30745.6    325.2   0.032608957   0.34916  -0.40085   0.28408   0.32830
  28   31293.6    319.6   0.187897365   1.97670  -1.22345  -0.68533   0.10097
  29   31659.0    315.9   0.034564460   0.35942   0.44256  -0.29162   0.28022
  30   32069.5    311.8   0.007013340   0.07200  -0.06723  -0.07144  -0.24975
  31   32193.8    310.6   0.016359400   0.16729  -0.09076   0.21878  -0.33345
  32   32311.2    309.5   0.233963959   2.38381  -0.52824  -1.12407   0.91720
  33   32376.4    308.9   0.018536101   0.18848  -0.17807  -0.30109   0.25714
  34   32479.7    307.9   0.032698311   0.33143  -0.31644  -0.41939   0.23538
  35   32639.0    306.4   0.063205918   0.63752  -0.68876  -0.23991   0.32494
  36   32717.6    305.6   0.010435247   0.10500   0.06000   0.20603  -0.24281
  37   32942.8    303.6   0.030872290   0.30852  -0.43794  -0.26221   0.21904
  38   33170.7    301.5   0.001994495   0.01979   0.12971  -0.04062  -0.03634
  39   33506.7    298.4   0.026494754   0.26032   0.50725   0.00774  -0.05434
  40   33868.4    295.3   0.136325866   1.32513  -0.64995  -0.69131   0.65176
  41   34225.9    292.2   0.200814141   1.93159   1.31138   0.23969  -0.39296
  42   34439.9    290.4   0.117419684   1.12242  -0.43754  -0.95850   0.11069
  43   34596.2    289.0   0.149052018   1.41835   0.12834   1.10966  -0.41297
  44   34759.1    287.7   0.054241805   0.51374  -0.08454  -0.52409   0.48158
  45   35044.9    285.3   0.143286592   1.34604   0.58940   0.89893  -0.43655
  46   35298.2    283.3   0.098007053   0.91407  -0.95052  -0.06673   0.07836
  47   35603.0    280.9   0.219839396   2.03280   0.69875   1.07069  -0.63101
  48   36204.7    276.2   0.421013051   3.82830   1.44162   0.94079  -0.93003
  49   36340.2    275.2   0.110486823   1.00092   0.95640  -0.11875  -0.26856
  50   36600.8    273.2   0.008739722   0.07861  -0.05096   0.27496   0.02031
  51   36651.6    272.8   0.003107413   0.02791   0.01802  -0.16498  -0.01923
  52   37075.3    269.7   0.026336376   0.23385   0.40834   0.24406  -0.08687
  53   37110.5    269.5   0.030420919   0.26987   0.20548  -0.47657  -0.02304
  54   37359.1    267.7   0.020829029   0.18355  -0.41201   0.02333  -0.11511
  55   37503.3    266.6   0.053888476   0.47305   0.53636  -0.02775  -0.42964
  56   37885.8    264.0   0.077529292   0.67370  -0.03871  -0.74215   0.34843
  57   38096.7    262.5   0.084878730   0.73348  -0.60744  -0.14569   0.58589
  58   38246.6    261.5   0.006893548   0.05934  -0.20803  -0.04376   0.11894
  59   38476.6    259.9   0.040648499   0.34780  -0.11212   0.56446   0.12886
  60   38720.9    258.3   0.010225495   0.08694   0.22473   0.13424  -0.13571
  61   39088.9    255.8   0.079344730   0.66825  -0.69966   0.42273  -0.00434
  62   39233.7    254.9   0.007967375   0.06685  -0.08579  -0.20820   0.12707
  63   39581.9    252.6   0.079101798   0.65791  -0.61649   0.51525  -0.11119
  64   39599.2    252.5   0.056271803   0.46782   0.66920  -0.02561  -0.13905
  65   39855.3    250.9   0.129380700   1.06871   0.73037   0.46293  -0.56653
  66   39979.0    250.1   0.004526107   0.03727  -0.13780  -0.12943   0.03909
  67   40062.4    249.6   0.078670824   0.64648  -0.32581  -0.70341   0.21339
  68   40230.5    248.6   0.035941203   0.29411  -0.37131  -0.39055  -0.06094

FINAL SINGLE POINT ENERGY     -4315.046973308816

DIPOLE MOMENT
-------------
                                X             Y             Z
Electronic contribution:    -27.96868      43.66859     -19.36112
Nuclear contribution   :     32.45710     -48.87345      21.42701
                        -----------------------------------------
Total Dipole Moment    :      4.48843      -5.20486       2.06589
                        -----------------------------------------
Magnitude (a.u.)       :      7.17666
Magnitude (Debye)      :     18.24163

Rotational constants in cm-1:     0.001152     0.000309     0.000257
Rotational constants in MHz :    34.533106     9.251501     7.713264

                             ****ORCA TERMINATED NORMALLY****
TOTAL RUN TIME: 0 days 0 hours 16 minutes 1 seconds 682 msec
