                         Program Version 4.2.0 -  RELEASE  -
|  1> # ORCA input file
|  2> # SCF done       -206.330267216090          0.000993490197
|  3> ! CAM-B3LYP def2-SVP def2/J RIJCOSX Grid4 TightSCF
|  4> %maxcore 5000
|  5> %tddft
|  6>     Mode sTDDFT
|  7>     Ethresh 5.0
|  8>     maxcore 5000
|  9> end
| 10>
| 11> %pal
| 12>   nprocs 6
| 13>   end
| 14> * xyz 0 1
| 15>    C       -9.63164         0.31354         5.52160
| 16>    C       -9.02103         1.53655         5.54496
| 17>    F       -9.29867         2.40931         6.52189
| 18>    C       -8.09589         1.89524         4.54475
| 19>    F       -7.51406         3.10150         4.58933
| 20>    C       -7.79346         1.02540         3.53435
| 21>    C       -8.40576        -0.24145         3.48343
| 22>    C       -9.34251        -0.60532         4.49340
| 23>    C       -9.97189        -1.87176         4.46129
| 24>    C       -9.67716        -2.74518         3.44886
| 25>    C       -8.73779        -2.37349         2.44411
| 26>    C       -8.11103        -1.16085         2.45135
| 27>    C       -8.60875        -3.47868         1.48214
| 28>    O       -7.88549        -3.52434         0.49436
| 29>    C       -9.52355        -4.52638         1.94326
| 30>    C      -10.17027        -4.09105         3.15716
| 31>    C      -11.08425        -4.78697         3.90685
| 32>    C      -11.54343        -6.08181         3.59273
| 33>    N      -11.94862        -7.13367         3.37442
| 34>    C      -11.68147        -4.29493         5.08467
| 35>    N      -12.20266        -3.94759         6.04703
| 36>    C       -9.67982        -5.70203         1.24631
| 37>    N       -9.03324        -5.89499         0.09357
| 38>    C       -9.07129        -7.00922        -0.68453
| 39>    S       -9.65928        -8.52259        -0.06346
| 40>    C       -9.22202        -9.28185        -1.55871
| 41>    N       -9.47852       -10.65424        -1.69500
| 42>    O       -9.16298       -11.18577        -2.74207
| 43>    O       -9.99790       -11.21026        -0.74366
| 44>    C       -8.66160        -8.42457        -2.46676
| 45>    C       -8.58398        -7.10058        -1.99255
| 46>    C       -8.07544        -6.01898        -2.80092
| 47>    C       -8.40241        -4.72212        -2.65751
| 48>    C       -7.88421        -3.61165        -3.41202
| 49>    C       -7.10381        -3.64366        -4.55447
| 50>    F       -6.77575        -4.81894        -5.12500
| 51>    C       -6.63104        -2.49061        -5.20652
| 52>    F       -5.94227        -2.72439        -6.34221
| 53>    C       -6.85936        -1.19381        -4.77149
| 54>    C       -7.65635        -1.13061        -3.60183
| 55>    C       -8.16211        -2.30034        -2.96037
| 56>    N       -8.87176        -1.90421        -1.89546
| 57>    N       -8.77195        -0.60444        -1.90969
| 58>    N       -8.07651        -0.07954        -2.87970
| 59>    C       -9.40981         0.20963        -0.92087
| 60>    C       -6.37436         0.00115        -5.45551
| 61>    C       -5.20510        -0.02818        -6.22810
| 62>    C       -4.80204         1.10267        -6.89871
| 63>    C       -5.56951         2.27732        -6.82889
| 64>    C       -6.71346         2.32477        -6.04411
| 65>    C       -7.10370         1.19243        -5.36036
| 66>    C       -4.97266         3.27142        -7.69003
| 67>    C       -3.84244         2.70886        -8.31165
| 68>    C       -3.62756         1.28290        -7.84062
| 69>    C       -2.26555         1.22677        -7.11762
| 70>    C       -1.88810        -0.11464        -6.50247
| 71>    C       -3.77837         0.24817        -8.97619
| 72>    C       -2.72193         0.28658       -10.07298
| 73>    C       -3.08127         3.46130        -9.17144
| 74>    C       -3.45621         4.78395        -9.46622
| 75>    C       -4.58260         5.32690        -8.82704
| 76>    C       -5.33859         4.58646        -7.94483
| 77>    C       -2.73391         5.59782       -10.40464
| 78>    C       -1.78982         5.17046       -11.28105
| 79>    C       -1.14668         6.01593       -12.20754
| 80>    C       -0.24602         5.58761       -13.14390
| 81>    C        0.42291         6.37948       -14.11456
| 82>    C        1.24973         5.68316       -14.93600
| 83>    C        1.29103         4.29060       -14.66930
| 84>    S        0.23862         3.90397       -13.32210
| 85>    C        2.01517         3.32757       -15.32940
| 86>    C        2.89104         3.51119       -16.43626
| 87>    C        3.46457         2.37455       -16.88825
| 88>    C        3.08614         1.19169       -16.16895
| 89>    S        1.95334         1.63351       -14.88144
| 90>    C        3.48909        -0.06695       -16.38948
| 91>    H      -10.33694         0.05455         6.29573
| 92>    H       -7.08032         1.31405         2.77805
| 93>    H      -10.67438        -2.11744         5.24091
| 94>    H       -7.39306        -0.90867         1.68529
| 95>    H      -10.33758        -6.49254         1.58446
| 96>    H       -8.41880        -5.11129        -0.19192
| 97>    H       -8.34147        -8.74046        -3.44333
| 98>    H       -7.41102        -6.33082        -3.59256
| 99>    H       -9.12172        -4.40653        -1.91582
|100>    H       -9.42374        -0.33111         0.02397
|101>    H      -10.43610         0.43330        -1.21918
|102>    H       -8.85411         1.14027        -0.82739
|103>    H       -4.62449        -0.93204        -6.29428
|104>    H       -7.30138         3.22835        -5.98274
|105>    H       -7.99728         1.21100        -4.75832
|106>    H       -2.28133         1.98451        -6.32900
|107>    H       -1.49368         1.52054        -7.83095
|108>    H       -2.56173        -0.37609        -5.69153
|109>    H       -0.88150        -0.05125        -6.09346
|110>    H       -1.90093        -0.90928        -7.24331
|111>    H       -4.76124         0.40302        -9.42987
|112>    H       -3.78642        -0.74582        -8.52656
|113>    H       -2.78489         1.20654       -10.64699
|114>    H       -2.88745        -0.54363       -10.75663
|115>    H       -1.71908         0.19044        -9.66563
|116>    H       -2.18378         3.05779        -9.61082
|117>    H       -4.86072         6.34880        -9.04314
|118>    H       -6.19915         5.02158        -7.45866
|119>    H       -3.01289         6.64462       -10.43124
|120>    H       -1.50869         4.12646       -11.31749
|121>    H       -1.38608         7.07145       -12.19139
|122>    H        0.26309         7.44219       -14.17001
|123>    H        1.82997         6.12494       -15.72624
|124>    H        3.06204         4.48565       -16.85876
|125>    H        4.15077         2.31724       -17.71452
|126>    H        4.17833        -0.29095       -17.18436
|127>    H        3.14099        -0.88624       -15.78772
|128> *
|129>
|130>                          ****END OF INPUT****

CARTESIAN COORDINATES (ANGSTROEM)
---------------------------------
  C     -9.631640    0.313540    5.521600
  C     -9.021030    1.536550    5.544960
  F     -9.298670    2.409310    6.521890
  C     -8.095890    1.895240    4.544750
  F     -7.514060    3.101500    4.589330
  C     -7.793460    1.025400    3.534350
  C     -8.405760   -0.241450    3.483430
  C     -9.342510   -0.605320    4.493400
  C     -9.971890   -1.871760    4.461290
  C     -9.677160   -2.745180    3.448860
  C     -8.737790   -2.373490    2.444110
  C     -8.111030   -1.160850    2.451350
  C     -8.608750   -3.478680    1.482140
  O     -7.885490   -3.524340    0.494360
  C     -9.523550   -4.526380    1.943260
  C    -10.170270   -4.091050    3.157160
  C    -11.084250   -4.786970    3.906850
  C    -11.543430   -6.081810    3.592730
  N    -11.948620   -7.133670    3.374420
  C    -11.681470   -4.294930    5.084670
  N    -12.202660   -3.947590    6.047030
  C     -9.679820   -5.702030    1.246310
  N     -9.033240   -5.894990    0.093570
  C     -9.071290   -7.009220   -0.684530
  S     -9.659280   -8.522590   -0.063460
  C     -9.222020   -9.281850   -1.558710
  N     -9.478520  -10.654240   -1.695000
  O     -9.162980  -11.185770   -2.742070
  O     -9.997900  -11.210260   -0.743660
  C     -8.661600   -8.424570   -2.466760
  C     -8.583980   -7.100580   -1.992550
  C     -8.075440   -6.018980   -2.800920
  C     -8.402410   -4.722120   -2.657510
  C     -7.884210   -3.611650   -3.412020
  C     -7.103810   -3.643660   -4.554470
  F     -6.775750   -4.818940   -5.125000
  C     -6.631040   -2.490610   -5.206520
  F     -5.942270   -2.724390   -6.342210
  C     -6.859360   -1.193810   -4.771490
  C     -7.656350   -1.130610   -3.601830
  C     -8.162110   -2.300340   -2.960370
  N     -8.871760   -1.904210   -1.895460
  N     -8.771950   -0.604440   -1.909690
  N     -8.076510   -0.079540   -2.879700
  C     -9.409810    0.209630   -0.920870
  C     -6.374360    0.001150   -5.455510
  C     -5.205100   -0.028180   -6.228100
  C     -4.802040    1.102670   -6.898710
  C     -5.569510    2.277320   -6.828890
  C     -6.713460    2.324770   -6.044110
  C     -7.103700    1.192430   -5.360360
  C     -4.972660    3.271420   -7.690030
  C     -3.842440    2.708860   -8.311650
  C     -3.627560    1.282900   -7.840620
  C     -2.265550    1.226770   -7.117620
  C     -1.888100   -0.114640   -6.502470
  C     -3.778370    0.248170   -8.976190
  C     -2.721930    0.286580  -10.072980
  C     -3.081270    3.461300   -9.171440
  C     -3.456210    4.783950   -9.466220
  C     -4.582600    5.326900   -8.827040
  C     -5.338590    4.586460   -7.944830
  C     -2.733910    5.597820  -10.404640
  C     -1.789820    5.170460  -11.281050
  C     -1.146680    6.015930  -12.207540
  C     -0.246020    5.587610  -13.143900
  C      0.422910    6.379480  -14.114560
  C      1.249730    5.683160  -14.936000
  C      1.291030    4.290600  -14.669300
  S      0.238620    3.903970  -13.322100
  C      2.015170    3.327570  -15.329400
  C      2.891040    3.511190  -16.436260
  C      3.464570    2.374550  -16.888250
  C      3.086140    1.191690  -16.168950
  S      1.953340    1.633510  -14.881440
  C      3.489090   -0.066950  -16.389480
  H    -10.336940    0.054550    6.295730
  H     -7.080320    1.314050    2.778050
  H    -10.674380   -2.117440    5.240910
  H     -7.393060   -0.908670    1.685290
  H    -10.337580   -6.492540    1.584460
  H     -8.418800   -5.111290   -0.191920
  H     -8.341470   -8.740460   -3.443330
  H     -7.411020   -6.330820   -3.592560
  H     -9.121720   -4.406530   -1.915820
  H     -9.423740   -0.331110    0.023970
  H    -10.436100    0.433300   -1.219180
  H     -8.854110    1.140270   -0.827390
  H     -4.624490   -0.932040   -6.294280
  H     -7.301380    3.228350   -5.982740
  H     -7.997280    1.211000   -4.758320
  H     -2.281330    1.984510   -6.329000
  H     -1.493680    1.520540   -7.830950
  H     -2.561730   -0.376090   -5.691530
  H     -0.881500   -0.051250   -6.093460
  H     -1.900930   -0.909280   -7.243310
  H     -4.761240    0.403020   -9.429870
  H     -3.786420   -0.745820   -8.526560
  H     -2.784890    1.206540  -10.646990
  H     -2.887450   -0.543630  -10.756630
  H     -1.719080    0.190440   -9.665630
  H     -2.183780    3.057790   -9.610820
  H     -4.860720    6.348800   -9.043140
  H     -6.199150    5.021580   -7.458660
  H     -3.012890    6.644620  -10.431240
  H     -1.508690    4.126460  -11.317490
  H     -1.386080    7.071450  -12.191390
  H      0.263090    7.442190  -14.170010
  H      1.829970    6.124940  -15.726240
  H      3.062040    4.485650  -16.858760
  H      4.150770    2.317240  -17.714520
  H      4.178330   -0.290950  -17.184360
  H      3.140990   -0.886240  -15.787720

 Total Charge           Charge          ....    0
 Multiplicity           Mult            ....    1
 Number of Electrons    NEL             ....  548
 Basis Dimension        Dim             .... 1261

ORBITAL ENERGIES
----------------

  NO   OCC          E(Eh)            E(eV)
   0   2.0000     -88.994109     -2421.6528
   1   2.0000     -88.936271     -2420.0790
   2   2.0000     -88.932695     -2419.9817
   3   2.0000     -24.807008      -675.0330
   4   2.0000     -24.805538      -674.9930
   5   2.0000     -24.798639      -674.8053
   6   2.0000     -24.791953      -674.6233
   7   2.0000     -19.241674      -523.5926
   8   2.0000     -19.241113      -523.5773
   9   2.0000     -19.236274      -523.4456
  10   2.0000     -14.653290      -398.7363
  11   2.0000     -14.549543      -395.9132
  12   2.0000     -14.501804      -394.6142
  13   2.0000     -14.450054      -393.2060
  14   2.0000     -14.449441      -393.1893
  15   2.0000     -14.424131      -392.5006
  16   2.0000     -14.419986      -392.3878
  17   2.0000     -10.390854      -282.7495
  18   2.0000     -10.389806      -282.7210
  19   2.0000     -10.383615      -282.5525
  20   2.0000     -10.375939      -282.3436
  21   2.0000     -10.375160      -282.3224
  22   2.0000     -10.375056      -282.3196
  23   2.0000     -10.371153      -282.2134
  24   2.0000     -10.352013      -281.6926
  25   2.0000     -10.350880      -281.6618
  26   2.0000     -10.347073      -281.5582
  27   2.0000     -10.332172      -281.1527
  28   2.0000     -10.326383      -280.9952
  29   2.0000     -10.323282      -280.9108
  30   2.0000     -10.320835      -280.8442
  31   2.0000     -10.319980      -280.8209
  32   2.0000     -10.317413      -280.7511
  33   2.0000     -10.314934      -280.6836
  34   2.0000     -10.314320      -280.6669
  35   2.0000     -10.313709      -280.6503
  36   2.0000     -10.313171      -280.6356
  37   2.0000     -10.311947      -280.6024
  38   2.0000     -10.311115      -280.5797
  39   2.0000     -10.310787      -280.5708
  40   2.0000     -10.309396      -280.5329
  41   2.0000     -10.306265      -280.4477
  42   2.0000     -10.305671      -280.4316
  43   2.0000     -10.304587      -280.4021
  44   2.0000     -10.304354      -280.3957
  45   2.0000     -10.303686      -280.3776
  46   2.0000     -10.303273      -280.3663
  47   2.0000     -10.301358      -280.3142
  48   2.0000     -10.299713      -280.2694
  49   2.0000     -10.296767      -280.1893
  50   2.0000     -10.296067      -280.1702
  51   2.0000     -10.284779      -279.8631
  52   2.0000     -10.282795      -279.8091
  53   2.0000     -10.281956      -279.7862
  54   2.0000     -10.279379      -279.7161
  55   2.0000     -10.279280      -279.7134
  56   2.0000     -10.275847      -279.6200
  57   2.0000     -10.272444      -279.5274
  58   2.0000     -10.271838      -279.5109
  59   2.0000     -10.269303      -279.4419
  60   2.0000     -10.268699      -279.4255
  61   2.0000     -10.267977      -279.4059
  62   2.0000     -10.266570      -279.3676
  63   2.0000     -10.266283      -279.3598
  64   2.0000     -10.266113      -279.3551
  65   2.0000     -10.265373      -279.3350
  66   2.0000     -10.264905      -279.3223
  67   2.0000     -10.264748      -279.3180
  68   2.0000     -10.264512      -279.3116
  69   2.0000     -10.264382      -279.3080
  70   2.0000     -10.263628      -279.2875
  71   2.0000     -10.263253      -279.2773
  72   2.0000     -10.259997      -279.1887
  73   2.0000     -10.258569      -279.1499
  74   2.0000     -10.249810      -278.9115
  75   2.0000     -10.248268      -278.8696
  76   2.0000      -8.089233      -220.1192
  77   2.0000      -8.032483      -218.5750
  78   2.0000      -8.029440      -218.4922
  79   2.0000      -6.058822      -164.8689
  80   2.0000      -6.054445      -164.7498
  81   2.0000      -6.050865      -164.6524
  82   2.0000      -6.002266      -163.3300
  83   2.0000      -5.999262      -163.2482
  84   2.0000      -5.998353      -163.2235
  85   2.0000      -5.995388      -163.1428
  86   2.0000      -5.993213      -163.0836
  87   2.0000      -5.989925      -162.9941
  88   2.0000      -1.329192       -36.1692
  89   2.0000      -1.323038       -36.0017
  90   2.0000      -1.318719       -35.8842
  91   2.0000      -1.314314       -35.7643
  92   2.0000      -1.298579       -35.3361
  93   2.0000      -1.227468       -33.4011
  94   2.0000      -1.151301       -31.3285
  95   2.0000      -1.142269       -31.0827
  96   2.0000      -1.108619       -30.1671
  97   2.0000      -1.028097       -27.9759
  98   2.0000      -1.014144       -27.5963
  99   2.0000      -1.013414       -27.5764
 100   2.0000      -1.000990       -27.2383
 101   2.0000      -1.000825       -27.2338
 102   2.0000      -0.995104       -27.0781
 103   2.0000      -0.990017       -26.9397
 104   2.0000      -0.986268       -26.8377
 105   2.0000      -0.981575       -26.7100
 106   2.0000      -0.963461       -26.2171
 107   2.0000      -0.942979       -25.6598
 108   2.0000      -0.941015       -25.6063
 109   2.0000      -0.935509       -25.4565
 110   2.0000      -0.926238       -25.2042
 111   2.0000      -0.916655       -24.9435
 112   2.0000      -0.909637       -24.7525
 113   2.0000      -0.902376       -24.5549
 114   2.0000      -0.897323       -24.4174
 115   2.0000      -0.896507       -24.3952
 116   2.0000      -0.884512       -24.0688
 117   2.0000      -0.874027       -23.7835
 118   2.0000      -0.867290       -23.6002
 119   2.0000      -0.860626       -23.4188
 120   2.0000      -0.850694       -23.1485
 121   2.0000      -0.843884       -22.9633
 122   2.0000      -0.839128       -22.8338
 123   2.0000      -0.834004       -22.6944
 124   2.0000      -0.830617       -22.6022
 125   2.0000      -0.827579       -22.5196
 126   2.0000      -0.824380       -22.4325
 127   2.0000      -0.820715       -22.3328
 128   2.0000      -0.818274       -22.2664
 129   2.0000      -0.811939       -22.0940
 130   2.0000      -0.796711       -21.6796
 131   2.0000      -0.777999       -21.1704
 132   2.0000      -0.773925       -21.0596
 133   2.0000      -0.765314       -20.8253
 134   2.0000      -0.764322       -20.7982
 135   2.0000      -0.753341       -20.4995
 136   2.0000      -0.744984       -20.2721
 137   2.0000      -0.740874       -20.1602
 138   2.0000      -0.733030       -19.9467
 139   2.0000      -0.728516       -19.8239
 140   2.0000      -0.727789       -19.8042
 141   2.0000      -0.716405       -19.4944
 142   2.0000      -0.708313       -19.2742
 143   2.0000      -0.702024       -19.1030
 144   2.0000      -0.701251       -19.0820
 145   2.0000      -0.692491       -18.8436
 146   2.0000      -0.688962       -18.7476
 147   2.0000      -0.680647       -18.5213
 148   2.0000      -0.671838       -18.2816
 149   2.0000      -0.667610       -18.1666
 150   2.0000      -0.666331       -18.1318
 151   2.0000      -0.662776       -18.0351
 152   2.0000      -0.656945       -17.8764
 153   2.0000      -0.651397       -17.7254
 154   2.0000      -0.650032       -17.6883
 155   2.0000      -0.645926       -17.5765
 156   2.0000      -0.642210       -17.4754
 157   2.0000      -0.638394       -17.3716
 158   2.0000      -0.634479       -17.2651
 159   2.0000      -0.631973       -17.1968
 160   2.0000      -0.629007       -17.1162
 161   2.0000      -0.624120       -16.9832
 162   2.0000      -0.622295       -16.9335
 163   2.0000      -0.614745       -16.7281
 164   2.0000      -0.613711       -16.6999
 165   2.0000      -0.612834       -16.6761
 166   2.0000      -0.609894       -16.5961
 167   2.0000      -0.604527       -16.4500
 168   2.0000      -0.602046       -16.3825
 169   2.0000      -0.593906       -16.1610
 170   2.0000      -0.592813       -16.1313
 171   2.0000      -0.592399       -16.1200
 172   2.0000      -0.589031       -16.0283
 173   2.0000      -0.586174       -15.9506
 174   2.0000      -0.582312       -15.8455
 175   2.0000      -0.579273       -15.7628
 176   2.0000      -0.575681       -15.6651
 177   2.0000      -0.572096       -15.5675
 178   2.0000      -0.567234       -15.4352
 179   2.0000      -0.564341       -15.3565
 180   2.0000      -0.562671       -15.3111
 181   2.0000      -0.560704       -15.2575
 182   2.0000      -0.555230       -15.1086
 183   2.0000      -0.554236       -15.0815
 184   2.0000      -0.550992       -14.9933
 185   2.0000      -0.547353       -14.8942
 186   2.0000      -0.544208       -14.8086
 187   2.0000      -0.543146       -14.7798
 188   2.0000      -0.539749       -14.6873
 189   2.0000      -0.538972       -14.6662
 190   2.0000      -0.534678       -14.5493
 191   2.0000      -0.534487       -14.5441
 192   2.0000      -0.530484       -14.4352
 193   2.0000      -0.529003       -14.3949
 194   2.0000      -0.525331       -14.2950
 195   2.0000      -0.520224       -14.1560
 196   2.0000      -0.519251       -14.1295
 197   2.0000      -0.518831       -14.1181
 198   2.0000      -0.514477       -13.9996
 199   2.0000      -0.512911       -13.9570
 200   2.0000      -0.512530       -13.9467
 201   2.0000      -0.510054       -13.8793
 202   2.0000      -0.509007       -13.8508
 203   2.0000      -0.505345       -13.7511
 204   2.0000      -0.504769       -13.7355
 205   2.0000      -0.500477       -13.6187
 206   2.0000      -0.497618       -13.5409
 207   2.0000      -0.495708       -13.4889
 208   2.0000      -0.493039       -13.4163
 209   2.0000      -0.491080       -13.3630
 210   2.0000      -0.489208       -13.3120
 211   2.0000      -0.487751       -13.2724
 212   2.0000      -0.481162       -13.0931
 213   2.0000      -0.480688       -13.0802
 214   2.0000      -0.480584       -13.0773
 215   2.0000      -0.479309       -13.0426
 216   2.0000      -0.473464       -12.8836
 217   2.0000      -0.473298       -12.8791
 218   2.0000      -0.470430       -12.8010
 219   2.0000      -0.465979       -12.6799
 220   2.0000      -0.465142       -12.6572
 221   2.0000      -0.458800       -12.4846
 222   2.0000      -0.457649       -12.4533
 223   2.0000      -0.456477       -12.4214
 224   2.0000      -0.454894       -12.3783
 225   2.0000      -0.453770       -12.3477
 226   2.0000      -0.449960       -12.2440
 227   2.0000      -0.448794       -12.2123
 228   2.0000      -0.448702       -12.2098
 229   2.0000      -0.444830       -12.1044
 230   2.0000      -0.442693       -12.0463
 231   2.0000      -0.439511       -11.9597
 232   2.0000      -0.437841       -11.9143
 233   2.0000      -0.433813       -11.8046
 234   2.0000      -0.433626       -11.7996
 235   2.0000      -0.433480       -11.7956
 236   2.0000      -0.431368       -11.7381
 237   2.0000      -0.423790       -11.5319
 238   2.0000      -0.421624       -11.4730
 239   2.0000      -0.418542       -11.3891
 240   2.0000      -0.416757       -11.3405
 241   2.0000      -0.415905       -11.3173
 242   2.0000      -0.413490       -11.2516
 243   2.0000      -0.412489       -11.2244
 244   2.0000      -0.404138       -10.9971
 245   2.0000      -0.402314       -10.9475
 246   2.0000      -0.398467       -10.8428
 247   2.0000      -0.393284       -10.7018
 248   2.0000      -0.390971       -10.6389
 249   2.0000      -0.390357       -10.6222
 250   2.0000      -0.389034       -10.5862
 251   2.0000      -0.388133       -10.5616
 252   2.0000      -0.382379       -10.4051
 253   2.0000      -0.379928       -10.3384
 254   2.0000      -0.376560       -10.2467
 255   2.0000      -0.371476       -10.1084
 256   2.0000      -0.371134       -10.0991
 257   2.0000      -0.370066       -10.0700
 258   2.0000      -0.360154        -9.8003
 259   2.0000      -0.351029        -9.5520
 260   2.0000      -0.347783        -9.4637
 261   2.0000      -0.338859        -9.2208
 262   2.0000      -0.332290        -9.0421
 263   2.0000      -0.328266        -8.9326
 264   2.0000      -0.323772        -8.8103
 265   2.0000      -0.320887        -8.7318
 266   2.0000      -0.316512        -8.6127
 267   2.0000      -0.313191        -8.5224
 268   2.0000      -0.309470        -8.4211
 269   2.0000      -0.306581        -8.3425
 270   2.0000      -0.292211        -7.9515
 271   2.0000      -0.273886        -7.4528
 272   2.0000      -0.254011        -6.9120
 273   2.0000      -0.209073        -5.6892
 274   0.0000      -0.096875        -2.6361
 275   0.0000      -0.074206        -2.0192
 276   0.0000      -0.066497        -1.8095
 277   0.0000      -0.054036        -1.4704
 278   0.0000      -0.052042        -1.4161

MULLIKEN ATOMIC CHARGES
-----------------------
   0 C :   -0.112932
   1 C :    0.245727
   2 F :   -0.168766
   3 C :    0.241524
   4 F :   -0.170099
   5 C :   -0.111584
   6 C :    0.115401
   7 C :    0.119939
   8 C :   -0.088376
   9 C :    0.046480
  10 C :    0.004015
  11 C :   -0.099510
  12 C :    0.174090
  13 O :   -0.199378
  14 C :   -0.136695
  15 C :    0.335302
  16 C :   -0.349885
  17 C :   -0.199479
  18 N :    0.150513
  19 C :   -0.182672
  20 N :    0.150038
  21 C :    0.029904
  22 N :   -0.012592
  23 C :   -0.128590
  24 S :    0.186112
  25 C :    0.005476
  26 N :    0.274180
  27 O :   -0.243937
  28 O :   -0.254699
  29 C :    0.008309
  30 C :    0.127361
  31 C :   -0.011760
  32 C :   -0.027654
  33 C :    0.002349
  34 C :    0.153748
  35 F :   -0.179860
  36 C :    0.145726
  37 F :   -0.180618
  38 C :    0.038015
  39 C :   -0.034241
  40 C :   -0.023676
  41 N :   -0.061440
  42 N :   -0.076861
  43 N :   -0.066837
  44 C :    0.149054
  45 C :    0.062792
  46 C :   -0.112160
  47 C :    0.026736
  48 C :    0.102190
  49 C :   -0.061881
  50 C :   -0.002896
  51 C :    0.090153
  52 C :    0.038272
  53 C :   -0.123259
  54 C :    0.054258
  55 C :    0.033460
  56 C :    0.049171
  57 C :    0.033931
  58 C :   -0.104490
  59 C :    0.128614
  60 C :   -0.018055
  61 C :   -0.049471
  62 C :   -0.014661
  63 C :    0.014953
  64 C :   -0.014768
  65 C :   -0.019936
  66 C :    0.036283
  67 C :    0.026506
  68 C :   -0.044392
  69 S :    0.057945
  70 C :   -0.069115
  71 C :    0.030926
  72 C :    0.047312
  73 C :   -0.062042
  74 S :    0.074820
  75 C :   -0.032657
  76 H :    0.011028
  77 H :   -0.001514
  78 H :   -0.004678
  79 H :   -0.008745
  80 H :    0.046145
  81 H :    0.184556
  82 H :    0.015535
  83 H :    0.010454
  84 H :   -0.002505
  85 H :    0.044771
  86 H :    0.054726
  87 H :    0.051525
  88 H :   -0.023309
  89 H :   -0.038658
  90 H :   -0.021129
  91 H :    0.005530
  92 H :    0.004675
  93 H :    0.017266
  94 H :    0.011593
  95 H :    0.006450
  96 H :    0.006366
  97 H :    0.006692
  98 H :    0.017450
  99 H :    0.014443
 100 H :    0.004031
 101 H :   -0.035997
 102 H :   -0.031481
 103 H :   -0.038079
 104 H :   -0.027512
 105 H :    0.000372
 106 H :   -0.020339
 107 H :   -0.014342
 108 H :   -0.016200
 109 H :   -0.013790
 110 H :   -0.012855
 111 H :    0.018223
 112 H :    0.019645
Sum of atomic charges:   -0.0000000

LOEWDIN ATOMIC CHARGES
----------------------
   0 C :   -0.027654
   1 C :    0.067823
   2 F :   -0.046920
   3 C :    0.068772
   4 F :   -0.048293
   5 C :   -0.035826
   6 C :   -0.011880
   7 C :   -0.006954
   8 C :    0.020120
   9 C :   -0.019809
  10 C :   -0.050823
  11 C :    0.021825
  12 C :    0.091499
  13 O :   -0.162457
  14 C :   -0.147017
  15 C :    0.077437
  16 C :   -0.149548
  17 C :   -0.021680
  18 N :   -0.051523
  19 C :   -0.019448
  20 N :   -0.055054
  21 C :    0.114257
  22 N :    0.084766
  23 C :   -0.114314
  24 S :    0.477026
  25 C :   -0.201127
  26 N :    0.273232
  27 O :   -0.209917
  28 O :   -0.221969
  29 C :    0.003159
  30 C :   -0.080716
  31 C :   -0.018090
  32 C :   -0.012884
  33 C :   -0.061300
  34 C :    0.070928
  35 F :   -0.050919
  36 C :    0.060501
  37 F :   -0.052305
  38 C :   -0.034993
  39 C :   -0.047169
  40 C :   -0.045060
  41 N :   -0.090431
  42 N :    0.153124
  43 N :   -0.088725
  44 C :    0.031923
  45 C :   -0.028569
  46 C :   -0.013662
  47 C :    0.001602
  48 C :   -0.008896
  49 C :   -0.024953
  50 C :   -0.006064
  51 C :   -0.019518
  52 C :    0.008027
  53 C :   -0.032478
  54 C :   -0.014187
  55 C :   -0.058951
  56 C :   -0.014565
  57 C :   -0.058700
  58 C :   -0.017683
  59 C :   -0.024792
  60 C :   -0.019194
  61 C :   -0.020456
  62 C :   -0.016351
  63 C :   -0.032143
  64 C :   -0.056398
  65 C :   -0.145067
  66 C :   -0.034657
  67 C :   -0.032886
  68 C :   -0.179729
  69 S :    0.357464
  70 C :   -0.180780
  71 C :   -0.026609
  72 C :   -0.034610
  73 C :   -0.138870
  74 S :    0.347210
  75 C :   -0.081277
  76 H :    0.049106
  77 H :    0.044305
  78 H :    0.041293
  79 H :    0.039028
  80 H :    0.036948
  81 H :    0.090522
  82 H :    0.048855
  83 H :    0.033111
  84 H :    0.029176
  85 H :    0.037296
  86 H :    0.041277
  87 H :    0.041690
  88 H :    0.021470
  89 H :    0.025572
  90 H :    0.024895
  91 H :    0.027718
  92 H :    0.019574
  93 H :    0.023399
  94 H :    0.027719
  95 H :    0.021117
  96 H :    0.028484
  97 H :    0.020514
  98 H :    0.023726
  99 H :    0.028962
 100 H :    0.020224
 101 H :    0.022669
 102 H :    0.024867
 103 H :    0.025763
 104 H :    0.025790
 105 H :    0.019653
 106 H :    0.031100
 107 H :    0.032656
 108 H :    0.030483
 109 H :    0.031507
 110 H :    0.032525
 111 H :    0.027763
 112 H :    0.025398

  Mayer bond orders larger than 0.100000
B(  0-C ,  1-C ) :   1.4352 B(  0-C ,  5-C ) :   0.1086 B(  0-C ,  7-C ) :   1.1904
B(  0-C , 76-H ) :   1.0079 B(  1-C ,  2-F ) :   1.1372 B(  1-C ,  3-C ) :   1.1943
B(  3-C ,  4-F ) :   1.1357 B(  3-C ,  5-C ) :   1.4381 B(  5-C ,  6-C ) :   1.1910
B(  5-C , 77-H ) :   1.0091 B(  6-C ,  7-C ) :   1.2632 B(  6-C , 11-C ) :   1.1786
B(  7-C ,  8-C ) :   1.2043 B(  8-C ,  9-C ) :   1.4616 B(  8-C , 78-H ) :   0.9896
B(  9-C , 10-C ) :   1.2257 B(  9-C , 15-C ) :   0.9809 B( 10-C , 11-C ) :   1.4663
B( 10-C , 12-C ) :   0.9672 B( 11-C , 79-H ) :   1.0164 B( 12-C , 13-O ) :   2.0584
B( 12-C , 14-C ) :   0.9997 B( 13-O , 81-H ) :   0.1357 B( 14-C , 15-C ) :   1.1114
B( 14-C , 21-C ) :   1.4329 B( 15-C , 16-C ) :   1.6239 B( 16-C , 17-C ) :   1.1489
B( 16-C , 19-C ) :   1.1491 B( 17-C , 18-N ) :   2.9558 B( 19-C , 20-N ) :   2.9597
B( 21-C , 22-N ) :   1.3528 B( 21-C , 80-H ) :   0.9290 B( 22-N , 23-C ) :   1.1647
B( 22-N , 81-H ) :   0.8267 B( 23-C , 24-S ) :   1.1428 B( 23-C , 30-C ) :   1.3994
B( 24-S , 25-C ) :   1.0912 B( 25-C , 26-N ) :   0.9602 B( 25-C , 29-C ) :   1.4926
B( 26-N , 27-O ) :   1.5406 B( 26-N , 28-O ) :   1.5180 B( 27-O , 28-O ) :   0.2642
B( 29-C , 30-C ) :   1.2155 B( 29-C , 82-H ) :   1.0078 B( 30-C , 31-C ) :   1.0612
B( 31-C , 32-C ) :   1.6876 B( 31-C , 83-H ) :   0.9644 B( 32-C , 33-C ) :   1.1513
B( 32-C , 84-H ) :   0.9588 B( 33-C , 34-C ) :   1.3669 B( 33-C , 38-C ) :   0.1278
B( 33-C , 40-C ) :   1.1603 B( 34-C , 35-F ) :   1.1236 B( 34-C , 36-C ) :   1.1719
B( 36-C , 37-F ) :   1.1155 B( 36-C , 38-C ) :   1.4184 B( 38-C , 39-C ) :   1.1857
B( 38-C , 45-C ) :   1.0010 B( 39-C , 40-C ) :   1.2163 B( 39-C , 43-N ) :   1.4631
B( 40-C , 41-N ) :   1.4811 B( 41-N , 42-N ) :   1.2243 B( 41-N , 43-N ) :   0.1643
B( 42-N , 43-N ) :   1.2257 B( 42-N , 44-C ) :   0.9528 B( 44-C , 85-H ) :   0.9665
B( 44-C , 86-H ) :   0.9670 B( 44-C , 87-H ) :   0.9673 B( 45-C , 46-C ) :   1.3035
B( 45-C , 50-C ) :   1.3704 B( 46-C , 47-C ) :   1.4083 B( 46-C , 88-H ) :   0.9877
B( 47-C , 48-C ) :   1.3868 B( 47-C , 53-C ) :   0.9263 B( 48-C , 49-C ) :   1.3300
B( 48-C , 51-C ) :   0.9984 B( 49-C , 50-C ) :   1.3851 B( 49-C , 89-H ) :   0.9929
B( 50-C , 90-H ) :   0.9772 B( 51-C , 52-C ) :   1.3752 B( 51-C , 61-C ) :   1.3347
B( 52-C , 53-C ) :   0.9286 B( 52-C , 58-C ) :   1.4155 B( 53-C , 54-C ) :   1.0088
B( 53-C , 56-C ) :   1.0084 B( 54-C , 55-C ) :   1.1130 B( 54-C , 91-H ) :   0.9376
B( 54-C , 92-H ) :   0.9404 B( 55-C , 93-H ) :   0.9602 B( 55-C , 94-H ) :   0.9599
B( 55-C , 95-H ) :   0.9620 B( 56-C , 57-C ) :   1.1115 B( 56-C , 96-H ) :   0.9380
B( 56-C , 97-H ) :   0.9397 B( 57-C , 98-H ) :   0.9615 B( 57-C , 99-H ) :   0.9600
B( 57-C ,100-H ) :   0.9615 B( 58-C , 59-C ) :   1.2936 B( 58-C ,101-H ) :   0.9897
B( 59-C , 60-C ) :   1.3296 B( 59-C , 62-C ) :   1.0654 B( 60-C , 61-C ) :   1.3797
B( 60-C ,102-H ) :   0.9933 B( 61-C ,103-H ) :   0.9923 B( 62-C , 63-C ) :   1.6636
B( 62-C ,104-H ) :   0.9862 B( 63-C , 64-C ) :   1.1406 B( 63-C ,105-H ) :   0.9634
B( 64-C , 65-C ) :   1.5855 B( 64-C ,106-H ) :   0.9838 B( 65-C , 66-C ) :   1.1277
B( 65-C , 69-S ) :   1.0235 B( 66-C , 67-C ) :   1.6125 B( 66-C ,107-H ) :   0.9982
B( 67-C , 68-C ) :   1.1677 B( 67-C ,108-H ) :   0.9930 B( 68-C , 69-S ) :   1.0360
B( 68-C , 70-C ) :   1.5613 B( 70-C , 71-C ) :   1.1527 B( 70-C , 74-S ) :   1.0402
B( 71-C , 72-C ) :   1.6609 B( 71-C ,109-H ) :   0.9916 B( 72-C , 73-C ) :   1.0800
B( 72-C ,110-H ) :   0.9935 B( 73-C , 74-S ) :   1.0076 B( 73-C , 75-C ) :   1.8637
B( 75-C ,111-H ) :   0.9507 B( 75-C ,112-H ) :   0.9417

-----------------------------------------------------------------------------
         ABSORPTION SPECTRUM VIA TRANSITION ELECTRIC DIPOLE MOMENTS
-----------------------------------------------------------------------------
State   Energy  Wavelength   fosc         T2         TX        TY        TZ
        (cm-1)    (nm)                  (au**2)     (au)      (au)      (au)
-----------------------------------------------------------------------------
   0   17728.6    564.1   1.354515668  25.15271   3.13125  -0.32270  -3.90433
   1   18696.0    534.9   0.401339295   7.06704  -2.02854   0.65789   1.58721
   2   20677.0    483.6   0.383861786   6.11172   0.54892  -0.67519  -2.31398
   3   23129.3    432.4   0.024869538   0.35398  -0.28059   0.41159   0.32534
   4   24230.2    412.7   0.480732625   6.53164   0.12220  -2.54825   0.15205
   5   25373.4    394.1   0.026178334   0.33966   0.49786   0.01679  -0.30250
   6   25995.1    384.7   0.430686956   5.45439   0.01599  -2.12725  -0.96382
   7   26874.7    372.1   0.666712178   8.16715   0.84058   2.38167  -1.33724
   8   28213.1    354.4   0.012009279   0.14013   0.06881   0.36788  -0.00799
   9   28830.8    346.9   0.468808786   5.35321  -0.43517  -2.14728   0.74367
  10   29675.7    337.0   0.076270484   0.84612  -0.38113  -0.77644   0.31305
  11   30181.5    331.3   0.093508138   1.01996  -0.28219  -0.80682  -0.53793
  12   30632.8    326.4   0.224214225   2.40964  -0.52955  -1.33182   0.59622
  13   30907.4    323.5   0.058353079   0.62155   0.06577  -0.78419   0.04762
  14   31275.0    319.7   0.275617917   2.90125   0.40558   1.63483   0.25316
  15   31486.1    317.6   0.199506191   2.08599  -0.29079  -1.32563  -0.49409
  16   32708.1    305.7   0.043248073   0.43530   0.18271   0.62218   0.12168
  17   33271.9    300.6   0.015894451   0.15727  -0.10964   0.32915   0.19212
  18   34166.8    292.7   0.097466105   0.93913   0.27142   0.80279  -0.47010
  19   34345.7    291.2   0.004487620   0.04301   0.05784   0.16101  -0.11724
  20   34690.1    288.3   0.029225632   0.27735   0.45954   0.07662  -0.24558
  21   34792.9    287.4   0.333973539   3.16007  -0.76944  -1.59927  -0.10181
  22   34899.8    286.5   0.508192815   4.79382  -0.97999  -1.95368   0.12871
  23   35318.9    283.1   0.023131428   0.21561  -0.27795  -0.27002   0.25582
  24   35571.0    281.1   0.017064692   0.15794   0.27425   0.24632  -0.14849
  25   35624.3    280.7   0.091483401   0.84542  -0.37141  -0.83961  -0.05026
  26   35809.4    279.3   0.045409561   0.41747   0.00507  -0.61229   0.20626
  27   36180.4    276.4   0.010902112   0.09920  -0.02755  -0.29068  -0.11810
  28   36242.0    275.9   0.074849621   0.67991  -0.43938  -0.57169   0.40003
  29   36474.4    274.2   0.018399328   0.16607  -0.24509   0.20464   0.25322
  30   36520.7    273.8   0.022966070   0.20703   0.01778  -0.45450  -0.01175
  31   36892.2    271.1   0.026084145   0.23277   0.22551   0.41117  -0.11337
  32   37989.1    263.2   0.055134374   0.47779  -0.07281  -0.68572   0.04768
  33   38287.1    261.2   0.029917496   0.25725  -0.38803  -0.19617   0.26115
  34   38429.8    260.2   0.179132428   1.53455  -0.59694   0.68576   0.84140
  35   38573.2    259.2   0.067732799   0.57808  -0.34477  -0.26646   0.62307
  36   39071.8    255.9   0.030787154   0.25941  -0.02241  -0.50530  -0.05984
  37   39300.7    254.4   0.094907790   0.79502  -0.51386   0.32440   0.65248
  38   39644.3    252.2   0.012898622   0.10711   0.11345  -0.23438  -0.19826
  39   39761.1    251.5   0.039326425   0.32561   0.33328   0.14903  -0.43855
  40   39943.9    250.4   0.112088979   0.92382   0.07974   0.88072  -0.37657
  41   40116.2    249.3   0.183205886   1.50347   0.56754  -0.64094  -0.87782

FINAL SINGLE POINT ENERGY     -4468.842333515644

DIPOLE MOMENT
-------------
                                X             Y             Z
Electronic contribution:    -63.34410     -53.52823     100.26825
Nuclear contribution   :     64.97947      57.33006    -101.59727
                        -----------------------------------------
Total Dipole Moment    :      1.63537       3.80183      -1.32902
                        -----------------------------------------
Magnitude (a.u.)       :      4.34680
Magnitude (Debye)      :     11.04868

Rotational constants in cm-1:     0.001178     0.000227     0.000196
Rotational constants in MHz :    35.320674     6.793364     5.871549

                             ****ORCA TERMINATED NORMALLY****
TOTAL RUN TIME: 0 days 0 hours 11 minutes 19 seconds 679 msec
