                         Program Version 4.2.0 -  RELEASE  -
|  1> # ORCA input file
|  2> # SCF done       -178.151212597386          0.000657506762
|  3> ! CAM-B3LYP def2-SVP def2/J RIJCOSX Grid4 TightSCF
|  4> %maxcore 5000
|  5> %tddft
|  6>     Mode sTDDFT
|  7>     Ethresh 5.0
|  8>     maxcore 5000
|  9> end
| 10>
| 11> %pal
| 12>   nprocs 6
| 13>   end
| 14> * xyz 0 1
| 15>    C       -8.69807       -15.93889         0.64708
| 16>    C       -8.97687       -16.43210         1.89095
| 17>    F       -9.36230       -17.70664         2.03874
| 18>    C       -8.86380       -15.61068         3.03020
| 19>    F       -9.14383       -16.12086         4.23716
| 20>    C       -8.47435       -14.30569         2.90966
| 21>    C       -8.18234       -13.76786         1.64177
| 22>    C       -8.29387       -14.59798         0.48881
| 23>    C       -8.00150       -14.08189        -0.79427
| 24>    C       -7.60967       -12.77446        -0.92142
| 25>    C       -7.50684       -11.95274         0.23594
| 26>    C       -7.78269       -12.42130         1.48722
| 27>    C       -7.08416       -10.60217        -0.16604
| 28>    O       -6.99280        -9.62021         0.54958
| 29>    C       -6.88701       -10.65403        -1.62266
| 30>    C       -7.23723       -11.98399        -2.08923
| 31>    C       -7.18920       -12.45244        -3.37931
| 32>    C       -7.54736       -13.76306        -3.75788
| 33>    N       -7.83140       -14.80854        -4.13814
| 34>    C       -6.77981       -11.71104        -4.50471
| 35>    N       -6.45620       -11.16287        -5.46190
| 36>    C       -6.58081        -9.59761        -2.43933
| 37>    N       -6.09846        -8.37515        -2.13286
| 38>    C       -5.38476        -7.89958        -1.06649
| 39>    S       -4.57361        -8.91199         0.06864
| 40>    C       -3.82650        -7.51610         0.75848
| 41>    N       -2.97186        -7.70843         1.84921
| 42>    O       -2.44910        -6.72576         2.34198
| 43>    O       -2.80734        -8.85853         2.21960
| 44>    C       -4.19307        -6.33787         0.15817
| 45>    C       -5.08809        -6.53561        -0.90482
| 46>    C       -5.65264        -5.49508        -1.72606
| 47>    C       -5.17161        -4.24147        -1.82250
| 48>    C       -5.76233        -3.25558        -2.67759
| 49>    C       -5.26642        -2.03124        -2.92384
| 50>    C       -3.99374        -1.51795        -2.32252
| 51>    C       -5.93056        -1.16117        -3.96488
| 52>    N       -5.40002        -1.47957        -5.27691
| 53>    C       -5.87909        -2.51131        -6.00813
| 54>    C       -5.18755        -3.15595        -6.98428
| 55>    C       -5.73963        -4.18697        -7.76568
| 56>    C       -5.05277        -4.90803        -8.70616
| 57>    C       -5.54565        -5.97583        -9.49520
| 58>    C       -4.62503        -6.52832       -10.33115
| 59>    C       -3.34556        -5.93037       -10.25362
| 60>    S       -3.35413        -4.62924        -9.08816
| 61>    C       -2.20909        -6.27965       -10.95686
| 62>    C       -2.05554        -7.33513       -11.88248
| 63>    C       -0.80372        -7.44343       -12.40643
| 64>    C        0.10781        -6.46949       -11.93298
| 65>    S       -0.69029        -5.42915       -10.76501
| 66>    C        1.44572        -6.30146       -12.19079
| 67>    C        2.21271        -6.94267       -13.18096
| 68>    S        3.95654        -7.04503       -12.90974
| 69>    C        1.91645        -7.52261       -14.40373
| 70>    C        0.77900        -7.63401       -15.31769
| 71>    O       -0.36085        -7.23703       -15.23192
| 72>    N        1.27776        -8.30228       -16.44014
| 73>    C        0.46172        -8.61759       -17.58498
| 74>    C        2.63521        -8.57742       -16.37481
| 75>    O        3.27545        -9.12053       -17.24384
| 76>    C        3.05333        -8.04819       -15.07067
| 77>    C        4.24632        -7.88789       -14.41727
| 78>    C        5.54395        -8.30478       -14.85613
| 79>    C        6.67067        -8.10956       -14.17388
| 80>    H       -8.78831       -16.58189        -0.21448
| 81>    H       -8.39164       -13.68997         3.79153
| 82>    H       -8.09564       -14.73682        -1.64499
| 83>    H       -7.69257       -11.77563         2.34734
| 84>    H       -6.76161        -9.71431        -3.50044
| 85>    H       -6.18811        -7.68912        -2.87497
| 86>    H       -3.83879        -5.38413         0.50199
| 87>    H       -6.53124        -5.75256        -2.30577
| 88>    H       -4.28939        -3.96099        -1.26893
| 89>    H       -6.67821        -3.55324        -3.17335
| 90>    H       -4.01975        -1.60139        -1.23775
| 91>    H       -3.83501        -0.47359        -2.57880
| 92>    H       -3.13718        -2.09185        -2.67705
| 93>    H       -5.74857        -0.10198        -3.76646
| 94>    H       -7.00876        -1.33465        -3.98618
| 95>    H       -4.41907        -1.26939        -5.40605
| 96>    H       -6.90557        -2.78224        -5.79940
| 97>    H       -4.15738        -2.88493        -7.17381
| 98>    H       -6.77778        -4.44764        -7.60378
| 99>    H       -6.56748        -6.30336        -9.41528
|100>    H       -4.82729        -7.34596       -10.99876
|101>    H       -2.86704        -7.99592       -12.12870
|102>    H       -0.50468        -8.21151       -13.09157
|103>    H        1.98999        -5.62411       -11.54551
|104>    H       -0.04137        -9.57729       -17.44644
|105>    H        1.10522        -8.67332       -18.46148
|106>    H       -0.28798        -7.83684       -17.70723
|107>    H        5.54341        -8.80550       -15.81574
|108>    H        6.66816        -7.60863       -13.21904
|109>    H        7.62235        -8.43955       -14.54990
|110> *
|111>
|112>                          ****END OF INPUT****

CARTESIAN COORDINATES (ANGSTROEM)
---------------------------------
  C     -8.698070  -15.938890    0.647080
  C     -8.976870  -16.432100    1.890950
  F     -9.362300  -17.706640    2.038740
  C     -8.863800  -15.610680    3.030200
  F     -9.143830  -16.120860    4.237160
  C     -8.474350  -14.305690    2.909660
  C     -8.182340  -13.767860    1.641770
  C     -8.293870  -14.597980    0.488810
  C     -8.001500  -14.081890   -0.794270
  C     -7.609670  -12.774460   -0.921420
  C     -7.506840  -11.952740    0.235940
  C     -7.782690  -12.421300    1.487220
  C     -7.084160  -10.602170   -0.166040
  O     -6.992800   -9.620210    0.549580
  C     -6.887010  -10.654030   -1.622660
  C     -7.237230  -11.983990   -2.089230
  C     -7.189200  -12.452440   -3.379310
  C     -7.547360  -13.763060   -3.757880
  N     -7.831400  -14.808540   -4.138140
  C     -6.779810  -11.711040   -4.504710
  N     -6.456200  -11.162870   -5.461900
  C     -6.580810   -9.597610   -2.439330
  N     -6.098460   -8.375150   -2.132860
  C     -5.384760   -7.899580   -1.066490
  S     -4.573610   -8.911990    0.068640
  C     -3.826500   -7.516100    0.758480
  N     -2.971860   -7.708430    1.849210
  O     -2.449100   -6.725760    2.341980
  O     -2.807340   -8.858530    2.219600
  C     -4.193070   -6.337870    0.158170
  C     -5.088090   -6.535610   -0.904820
  C     -5.652640   -5.495080   -1.726060
  C     -5.171610   -4.241470   -1.822500
  C     -5.762330   -3.255580   -2.677590
  C     -5.266420   -2.031240   -2.923840
  C     -3.993740   -1.517950   -2.322520
  C     -5.930560   -1.161170   -3.964880
  N     -5.400020   -1.479570   -5.276910
  C     -5.879090   -2.511310   -6.008130
  C     -5.187550   -3.155950   -6.984280
  C     -5.739630   -4.186970   -7.765680
  C     -5.052770   -4.908030   -8.706160
  C     -5.545650   -5.975830   -9.495200
  C     -4.625030   -6.528320  -10.331150
  C     -3.345560   -5.930370  -10.253620
  S     -3.354130   -4.629240   -9.088160
  C     -2.209090   -6.279650  -10.956860
  C     -2.055540   -7.335130  -11.882480
  C     -0.803720   -7.443430  -12.406430
  C      0.107810   -6.469490  -11.932980
  S     -0.690290   -5.429150  -10.765010
  C      1.445720   -6.301460  -12.190790
  C      2.212710   -6.942670  -13.180960
  S      3.956540   -7.045030  -12.909740
  C      1.916450   -7.522610  -14.403730
  C      0.779000   -7.634010  -15.317690
  O     -0.360850   -7.237030  -15.231920
  N      1.277760   -8.302280  -16.440140
  C      0.461720   -8.617590  -17.584980
  C      2.635210   -8.577420  -16.374810
  O      3.275450   -9.120530  -17.243840
  C      3.053330   -8.048190  -15.070670
  C      4.246320   -7.887890  -14.417270
  C      5.543950   -8.304780  -14.856130
  C      6.670670   -8.109560  -14.173880
  H     -8.788310  -16.581890   -0.214480
  H     -8.391640  -13.689970    3.791530
  H     -8.095640  -14.736820   -1.644990
  H     -7.692570  -11.775630    2.347340
  H     -6.761610   -9.714310   -3.500440
  H     -6.188110   -7.689120   -2.874970
  H     -3.838790   -5.384130    0.501990
  H     -6.531240   -5.752560   -2.305770
  H     -4.289390   -3.960990   -1.268930
  H     -6.678210   -3.553240   -3.173350
  H     -4.019750   -1.601390   -1.237750
  H     -3.835010   -0.473590   -2.578800
  H     -3.137180   -2.091850   -2.677050
  H     -5.748570   -0.101980   -3.766460
  H     -7.008760   -1.334650   -3.986180
  H     -4.419070   -1.269390   -5.406050
  H     -6.905570   -2.782240   -5.799400
  H     -4.157380   -2.884930   -7.173810
  H     -6.777780   -4.447640   -7.603780
  H     -6.567480   -6.303360   -9.415280
  H     -4.827290   -7.345960  -10.998760
  H     -2.867040   -7.995920  -12.128700
  H     -0.504680   -8.211510  -13.091570
  H      1.989990   -5.624110  -11.545510
  H     -0.041370   -9.577290  -17.446440
  H      1.105220   -8.673320  -18.461480
  H     -0.287980   -7.836840  -17.707230
  H      5.543410   -8.805500  -15.815740
  H      6.668160   -7.608630  -13.219040
  H      7.622350   -8.439550  -14.549900

 Total Charge           Charge          ....    0
 Multiplicity           Mult            ....    1
 Number of Electrons    NEL             ....  482
 Basis Dimension        Dim             .... 1076

ORBITAL ENERGIES
----------------

  NO   OCC          E(Eh)            E(eV)
   0   2.0000     -88.993037     -2421.6236
   1   2.0000     -88.948457     -2420.4106
   2   2.0000     -88.938122     -2420.1293
   3   2.0000     -88.932061     -2419.9644
   4   2.0000     -24.801900      -674.8940
   5   2.0000     -24.800832      -674.8649
   6   2.0000     -19.241564      -523.5896
   7   2.0000     -19.241436      -523.5861
   8   2.0000     -19.226981      -523.1927
   9   2.0000     -19.188875      -522.1558
  10   2.0000     -19.187339      -522.1140
  11   2.0000     -14.653147      -398.7324
  12   2.0000     -14.520279      -395.1169
  13   2.0000     -14.449362      -393.1871
  14   2.0000     -14.434939      -392.7947
  15   2.0000     -14.428462      -392.6184
  16   2.0000     -14.421995      -392.4424
  17   2.0000     -10.385769      -282.6112
  18   2.0000     -10.384758      -282.5836
  19   2.0000     -10.378877      -282.4236
  20   2.0000     -10.377139      -282.3763
  21   2.0000     -10.374438      -282.3028
  22   2.0000     -10.371389      -282.2198
  23   2.0000     -10.371095      -282.2118
  24   2.0000     -10.354162      -281.7511
  25   2.0000     -10.350543      -281.6526
  26   2.0000     -10.347841      -281.5791
  27   2.0000     -10.331324      -281.1296
  28   2.0000     -10.328320      -281.0479
  29   2.0000     -10.327994      -281.0390
  30   2.0000     -10.325075      -280.9596
  31   2.0000     -10.315357      -280.6951
  32   2.0000     -10.314980      -280.6849
  33   2.0000     -10.313558      -280.6462
  34   2.0000     -10.312487      -280.6170
  35   2.0000     -10.311163      -280.5810
  36   2.0000     -10.310912      -280.5742
  37   2.0000     -10.310179      -280.5542
  38   2.0000     -10.308851      -280.5181
  39   2.0000     -10.307738      -280.4878
  40   2.0000     -10.307698      -280.4867
  41   2.0000     -10.305205      -280.4189
  42   2.0000     -10.304747      -280.4064
  43   2.0000     -10.304352      -280.3957
  44   2.0000     -10.302675      -280.3500
  45   2.0000     -10.302627      -280.3487
  46   2.0000     -10.299438      -280.2620
  47   2.0000     -10.298769      -280.2437
  48   2.0000     -10.298418      -280.2342
  49   2.0000     -10.294887      -280.1381
  50   2.0000     -10.293819      -280.1091
  51   2.0000     -10.287496      -279.9370
  52   2.0000     -10.287368      -279.9335
  53   2.0000     -10.286590      -279.9123
  54   2.0000     -10.286204      -279.9018
  55   2.0000     -10.281907      -279.7849
  56   2.0000     -10.276874      -279.6480
  57   2.0000     -10.276227      -279.6304
  58   2.0000     -10.271963      -279.5143
  59   2.0000     -10.269371      -279.4438
  60   2.0000     -10.268021      -279.4070
  61   2.0000     -10.267742      -279.3995
  62   2.0000     -10.265942      -279.3505
  63   2.0000     -10.263707      -279.2897
  64   2.0000     -10.262366      -279.2532
  65   2.0000      -8.087630      -220.0756
  66   2.0000      -8.044155      -218.8926
  67   2.0000      -8.034379      -218.6266
  68   2.0000      -8.028665      -218.4711
  69   2.0000      -6.057111      -164.8224
  70   2.0000      -6.052611      -164.6999
  71   2.0000      -6.049546      -164.6165
  72   2.0000      -6.013550      -163.6370
  73   2.0000      -6.009387      -163.5237
  74   2.0000      -6.006002      -163.4316
  75   2.0000      -6.004085      -163.3795
  76   2.0000      -6.000182      -163.2733
  77   2.0000      -5.998416      -163.2252
  78   2.0000      -5.995272      -163.1397
  79   2.0000      -5.994417      -163.1164
  80   2.0000      -5.989485      -162.9822
  81   2.0000      -1.324206       -36.0335
  82   2.0000      -1.322496       -35.9869
  83   2.0000      -1.309334       -35.6288
  84   2.0000      -1.144332       -31.1389
  85   2.0000      -1.141428       -31.0598
  86   2.0000      -1.134822       -30.8801
  87   2.0000      -1.113457       -30.2987
  88   2.0000      -1.110430       -30.2163
  89   2.0000      -1.051506       -28.6129
  90   2.0000      -1.029403       -28.0115
  91   2.0000      -1.026239       -27.9254
  92   2.0000      -1.014821       -27.6147
  93   2.0000      -1.011595       -27.5269
  94   2.0000      -1.003073       -27.2950
  95   2.0000      -0.987792       -26.8792
  96   2.0000      -0.985726       -26.8230
  97   2.0000      -0.976538       -26.5729
  98   2.0000      -0.961534       -26.1647
  99   2.0000      -0.942560       -25.6484
 100   2.0000      -0.938098       -25.5269
 101   2.0000      -0.921509       -25.0755
 102   2.0000      -0.909031       -24.7360
 103   2.0000      -0.900810       -24.5123
 104   2.0000      -0.897395       -24.4194
 105   2.0000      -0.892453       -24.2849
 106   2.0000      -0.886752       -24.1297
 107   2.0000      -0.875706       -23.8292
 108   2.0000      -0.871608       -23.7177
 109   2.0000      -0.860998       -23.4290
 110   2.0000      -0.852754       -23.2046
 111   2.0000      -0.846157       -23.0251
 112   2.0000      -0.836113       -22.7518
 113   2.0000      -0.831871       -22.6364
 114   2.0000      -0.824345       -22.4316
 115   2.0000      -0.814115       -22.1532
 116   2.0000      -0.805313       -21.9137
 117   2.0000      -0.798963       -21.7409
 118   2.0000      -0.786534       -21.4027
 119   2.0000      -0.777612       -21.1599
 120   2.0000      -0.775947       -21.1146
 121   2.0000      -0.775120       -21.0921
 122   2.0000      -0.760921       -20.7057
 123   2.0000      -0.740874       -20.1602
 124   2.0000      -0.735145       -20.0043
 125   2.0000      -0.728456       -19.8223
 126   2.0000      -0.724224       -19.7071
 127   2.0000      -0.718941       -19.5634
 128   2.0000      -0.705897       -19.2084
 129   2.0000      -0.698888       -19.0177
 130   2.0000      -0.696634       -18.9564
 131   2.0000      -0.681547       -18.5458
 132   2.0000      -0.680369       -18.5138
 133   2.0000      -0.671061       -18.2605
 134   2.0000      -0.667794       -18.1716
 135   2.0000      -0.662221       -18.0200
 136   2.0000      -0.655197       -17.8288
 137   2.0000      -0.653127       -17.7725
 138   2.0000      -0.652323       -17.7506
 139   2.0000      -0.647846       -17.6288
 140   2.0000      -0.637928       -17.3589
 141   2.0000      -0.635342       -17.2885
 142   2.0000      -0.634325       -17.2609
 143   2.0000      -0.628627       -17.1058
 144   2.0000      -0.624036       -16.9809
 145   2.0000      -0.617410       -16.8006
 146   2.0000      -0.615728       -16.7548
 147   2.0000      -0.608050       -16.5459
 148   2.0000      -0.604777       -16.4568
 149   2.0000      -0.598701       -16.2915
 150   2.0000      -0.594887       -16.1877
 151   2.0000      -0.593311       -16.1448
 152   2.0000      -0.588872       -16.0240
 153   2.0000      -0.583107       -15.8672
 154   2.0000      -0.577425       -15.7125
 155   2.0000      -0.576573       -15.6893
 156   2.0000      -0.574350       -15.6289
 157   2.0000      -0.571364       -15.5476
 158   2.0000      -0.565125       -15.3778
 159   2.0000      -0.558302       -15.1922
 160   2.0000      -0.557813       -15.1789
 161   2.0000      -0.557318       -15.1654
 162   2.0000      -0.553260       -15.0550
 163   2.0000      -0.550316       -14.9749
 164   2.0000      -0.550271       -14.9736
 165   2.0000      -0.546060       -14.8590
 166   2.0000      -0.544762       -14.8237
 167   2.0000      -0.537397       -14.6233
 168   2.0000      -0.533094       -14.5062
 169   2.0000      -0.532665       -14.4945
 170   2.0000      -0.528128       -14.3711
 171   2.0000      -0.527121       -14.3437
 172   2.0000      -0.524407       -14.2698
 173   2.0000      -0.520670       -14.1682
 174   2.0000      -0.516685       -14.0597
 175   2.0000      -0.511155       -13.9092
 176   2.0000      -0.509668       -13.8688
 177   2.0000      -0.507696       -13.8151
 178   2.0000      -0.507447       -13.8083
 179   2.0000      -0.505804       -13.7636
 180   2.0000      -0.501276       -13.6404
 181   2.0000      -0.498548       -13.5662
 182   2.0000      -0.497952       -13.5500
 183   2.0000      -0.491823       -13.3832
 184   2.0000      -0.490687       -13.3523
 185   2.0000      -0.486941       -13.2503
 186   2.0000      -0.485339       -13.2067
 187   2.0000      -0.479573       -13.0498
 188   2.0000      -0.478043       -13.0082
 189   2.0000      -0.475352       -12.9350
 190   2.0000      -0.473005       -12.8711
 191   2.0000      -0.470798       -12.8111
 192   2.0000      -0.469195       -12.7674
 193   2.0000      -0.467551       -12.7227
 194   2.0000      -0.465977       -12.6799
 195   2.0000      -0.463848       -12.6219
 196   2.0000      -0.460044       -12.5184
 197   2.0000      -0.458128       -12.4663
 198   2.0000      -0.457843       -12.4585
 199   2.0000      -0.454999       -12.3812
 200   2.0000      -0.454102       -12.3567
 201   2.0000      -0.452077       -12.3016
 202   2.0000      -0.451043       -12.2735
 203   2.0000      -0.449944       -12.2436
 204   2.0000      -0.447736       -12.1835
 205   2.0000      -0.443498       -12.0682
 206   2.0000      -0.438435       -11.9304
 207   2.0000      -0.435655       -11.8548
 208   2.0000      -0.434140       -11.8136
 209   2.0000      -0.433441       -11.7945
 210   2.0000      -0.427438       -11.6312
 211   2.0000      -0.424059       -11.5392
 212   2.0000      -0.420478       -11.4418
 213   2.0000      -0.417576       -11.3628
 214   2.0000      -0.414890       -11.2897
 215   2.0000      -0.412878       -11.2350
 216   2.0000      -0.400706       -10.9038
 217   2.0000      -0.394321       -10.7300
 218   2.0000      -0.391367       -10.6496
 219   2.0000      -0.389553       -10.6003
 220   2.0000      -0.388706       -10.5772
 221   2.0000      -0.381632       -10.3847
 222   2.0000      -0.372798       -10.1443
 223   2.0000      -0.370093       -10.0707
 224   2.0000      -0.365507        -9.9459
 225   2.0000      -0.357527        -9.7288
 226   2.0000      -0.342310        -9.3147
 227   2.0000      -0.340039        -9.2529
 228   2.0000      -0.336298        -9.1511
 229   2.0000      -0.331869        -9.0306
 230   2.0000      -0.326153        -8.8751
 231   2.0000      -0.323689        -8.8080
 232   2.0000      -0.322896        -8.7864
 233   2.0000      -0.315342        -8.5809
 234   2.0000      -0.309996        -8.4354
 235   2.0000      -0.309269        -8.4156
 236   2.0000      -0.303686        -8.2637
 237   2.0000      -0.294446        -8.0123
 238   2.0000      -0.274925        -7.4811
 239   2.0000      -0.257899        -7.0178
 240   2.0000      -0.198907        -5.4125
 241   0.0000      -0.096875        -2.6361
 242   0.0000      -0.069444        -1.8897
 243   0.0000      -0.066321        -1.8047
 244   0.0000      -0.054183        -1.4744
 245   0.0000      -0.041316        -1.1243

MULLIKEN ATOMIC CHARGES
-----------------------
   0 C :   -0.109354
   1 C :    0.244850
   2 F :   -0.170008
   3 C :    0.240392
   4 F :   -0.170706
   5 C :   -0.107285
   6 C :    0.117935
   7 C :    0.115110
   8 C :   -0.084972
   9 C :    0.045973
  10 C :    0.005694
  11 C :   -0.082266
  12 C :    0.138625
  13 O :   -0.161530
  14 C :   -0.130956
  15 C :    0.315471
  16 C :   -0.350101
  17 C :   -0.179428
  18 N :    0.151263
  19 C :   -0.203915
  20 N :    0.148652
  21 C :    0.005592
  22 N :    0.020255
  23 C :   -0.077402
  24 S :    0.228947
  25 C :   -0.017287
  26 N :    0.275678
  27 O :   -0.248914
  28 O :   -0.260814
  29 C :    0.006867
  30 C :    0.125770
  31 C :   -0.061081
  32 C :    0.022748
  33 C :    0.030713
  34 C :   -0.214340
  35 C :    0.082318
  36 C :    0.188640
  37 N :   -0.136570
  38 C :    0.057445
  39 C :   -0.022232
  40 C :   -0.008481
  41 C :   -0.039037
  42 C :    0.046537
  43 C :    0.013986
  44 C :   -0.032118
  45 S :    0.062009
  46 C :   -0.059542
  47 C :    0.012984
  48 C :    0.080030
  49 C :   -0.051625
  50 S :    0.076423
  51 C :    0.033983
  52 C :   -0.149464
  53 S :    0.113316
  54 C :    0.012585
  55 C :    0.163624
  56 O :   -0.178048
  57 N :   -0.310695
  58 C :    0.138381
  59 C :    0.178496
  60 O :   -0.176328
  61 C :   -0.006504
  62 C :   -0.143766
  63 C :    0.006341
  64 C :   -0.016195
  65 H :    0.008581
  66 H :    0.002161
  67 H :   -0.004711
  68 H :   -0.007069
  69 H :    0.042357
  70 H :    0.160346
  71 H :    0.005899
  72 H :   -0.024061
  73 H :   -0.009201
  74 H :   -0.036868
  75 H :    0.043713
  76 H :    0.010892
  77 H :    0.041840
  78 H :    0.015910
  79 H :    0.022362
  80 H :    0.118809
  81 H :   -0.003982
  82 H :   -0.012148
  83 H :   -0.023145
  84 H :   -0.016756
  85 H :   -0.013466
  86 H :   -0.014333
  87 H :   -0.018931
  88 H :   -0.015858
  89 H :    0.030719
  90 H :    0.043258
  91 H :    0.042701
  92 H :    0.015955
  93 H :    0.020262
  94 H :    0.028098
Sum of atomic charges:   -0.0000000

LOEWDIN ATOMIC CHARGES
----------------------
   0 C :   -0.028270
   1 C :    0.067322
   2 F :   -0.048228
   3 C :    0.069519
   4 F :   -0.048242
   5 C :   -0.032462
   6 C :   -0.007569
   7 C :   -0.007582
   8 C :    0.021099
   9 C :   -0.025550
  10 C :   -0.051224
  11 C :    0.030461
  12 C :    0.063084
  13 O :   -0.167065
  14 C :   -0.144799
  15 C :    0.082897
  16 C :   -0.147578
  17 C :   -0.018536
  18 N :   -0.051742
  19 C :   -0.023575
  20 N :   -0.055948
  21 C :    0.097592
  22 N :    0.082404
  23 C :   -0.116201
  24 S :    0.535693
  25 C :   -0.205294
  26 N :    0.274682
  27 O :   -0.214831
  28 O :   -0.227570
  29 C :   -0.009355
  30 C :   -0.086954
  31 C :   -0.039238
  32 C :   -0.007973
  33 C :   -0.047572
  34 C :   -0.037932
  35 C :   -0.055465
  36 C :    0.045207
  37 N :    0.000114
  38 C :    0.046485
  39 C :   -0.117506
  40 C :   -0.031319
  41 C :   -0.175695
  42 C :   -0.022056
  43 C :   -0.047758
  44 C :   -0.157828
  45 S :    0.359990
  46 C :   -0.199386
  47 C :   -0.014243
  48 C :   -0.033989
  49 C :   -0.111910
  50 S :    0.366542
  51 C :   -0.119481
  52 C :   -0.112371
  53 S :    0.425444
  54 C :   -0.126165
  55 C :    0.083966
  56 O :   -0.172873
  57 N :   -0.042535
  58 C :    0.034456
  59 C :    0.084213
  60 O :   -0.177524
  61 C :   -0.090735
  62 C :   -0.142631
  63 C :   -0.034360
  64 C :   -0.039629
  65 H :    0.048099
  66 H :    0.045742
  67 H :    0.040468
  68 H :    0.041449
  69 H :    0.045761
  70 H :    0.107819
  71 H :    0.042555
  72 H :    0.021174
  73 H :    0.028036
  74 H :    0.021713
  75 H :    0.041910
  76 H :    0.028868
  77 H :    0.040724
  78 H :    0.026878
  79 H :    0.032594
  80 H :    0.079341
  81 H :    0.024675
  82 H :    0.019333
  83 H :    0.029864
  84 H :    0.032130
  85 H :    0.031687
  86 H :    0.032688
  87 H :    0.031340
  88 H :    0.026609
  89 H :    0.027002
  90 H :    0.034188
  91 H :    0.033719
  92 H :    0.043134
  93 H :    0.017917
  94 H :    0.028162

  Mayer bond orders larger than 0.100000
B(  0-C ,  1-C ) :   1.4386 B(  0-C ,  5-C ) :   0.1084 B(  0-C ,  7-C ) :   1.1882
B(  0-C , 65-H ) :   1.0075 B(  1-C ,  2-F ) :   1.1363 B(  1-C ,  3-C ) :   1.1924
B(  3-C ,  4-F ) :   1.1346 B(  3-C ,  5-C ) :   1.4392 B(  5-C ,  6-C ) :   1.1940
B(  5-C , 66-H ) :   1.0080 B(  6-C ,  7-C ) :   1.2587 B(  6-C , 11-C ) :   1.1831
B(  7-C ,  8-C ) :   1.2156 B(  8-C ,  9-C ) :   1.4473 B(  8-C , 67-H ) :   0.9900
B(  9-C , 10-C ) :   1.2224 B(  9-C , 15-C ) :   0.9957 B( 10-C , 11-C ) :   1.4745
B( 10-C , 12-C ) :   0.9419 B( 11-C , 68-H ) :   1.0183 B( 12-C , 13-O ) :   2.1907
B( 12-C , 14-C ) :   0.9570 B( 14-C , 15-C ) :   1.1086 B( 14-C , 21-C ) :   1.5164
B( 15-C , 16-C ) :   1.6249 B( 16-C , 17-C ) :   1.1494 B( 16-C , 19-C ) :   1.1425
B( 17-C , 18-N ) :   2.9606 B( 19-C , 20-N ) :   2.9676 B( 21-C , 22-N ) :   1.3200
B( 21-C , 69-H ) :   0.9240 B( 22-N , 23-C ) :   1.1420 B( 22-N , 70-H ) :   0.8979
B( 23-C , 24-S ) :   1.1583 B( 23-C , 30-C ) :   1.3877 B( 24-S , 25-C ) :   1.1374
B( 25-C , 26-N ) :   0.9662 B( 25-C , 29-C ) :   1.4625 B( 26-N , 27-O ) :   1.5349
B( 26-N , 28-O ) :   1.5161 B( 27-O , 28-O ) :   0.2610 B( 29-C , 30-C ) :   1.2628
B( 29-C , 71-H ) :   0.9991 B( 30-C , 31-C ) :   1.0315 B( 31-C , 32-C ) :   1.7384
B( 31-C , 72-H ) :   0.9718 B( 32-C , 33-C ) :   1.1078 B( 32-C , 73-H ) :   0.9694
B( 33-C , 34-C ) :   1.7692 B( 33-C , 74-H ) :   0.9730 B( 34-C , 35-C ) :   1.0742
B( 34-C , 36-C ) :   1.0363 B( 35-C , 75-H ) :   0.9457 B( 35-C , 76-H ) :   0.9538
B( 35-C , 77-H ) :   0.9505 B( 36-C , 37-N ) :   1.0277 B( 36-C , 78-H ) :   0.9377
B( 36-C , 79-H ) :   0.9408 B( 37-N , 38-C ) :   1.2227 B( 37-N , 80-H ) :   0.9381
B( 38-C , 39-C ) :   1.6050 B( 38-C , 81-H ) :   0.9659 B( 39-C , 40-C ) :   1.1721
B( 39-C , 82-H ) :   0.9624 B( 40-C , 41-C ) :   1.5857 B( 40-C , 83-H ) :   0.9776
B( 41-C , 42-C ) :   1.1456 B( 41-C , 45-S ) :   1.0088 B( 42-C , 43-C ) :   1.5878
B( 42-C , 84-H ) :   0.9980 B( 43-C , 44-C ) :   1.1914 B( 43-C , 85-H ) :   0.9948
B( 44-C , 45-S ) :   1.0609 B( 44-C , 46-C ) :   1.4954 B( 46-C , 47-C ) :   1.1994
B( 46-C , 50-S ) :   1.0307 B( 47-C , 48-C ) :   1.5898 B( 47-C , 86-H ) :   0.9932
B( 48-C , 49-C ) :   1.1785 B( 48-C , 87-H ) :   0.9817 B( 49-C , 50-S ) :   1.0579
B( 49-C , 51-C ) :   1.5439 B( 51-C , 52-C ) :   1.2100 B( 51-C , 88-H ) :   0.9324
B( 52-C , 53-S ) :   1.1181 B( 52-C , 54-C ) :   1.4680 B( 53-S , 62-C ) :   1.0824
B( 54-C , 55-C ) :   0.9247 B( 54-C , 61-C ) :   1.2212 B( 55-C , 56-O ) :   2.1659
B( 55-C , 57-N ) :   1.0539 B( 57-N , 58-C ) :   0.9467 B( 57-N , 59-C ) :   1.0808
B( 58-C , 89-H ) :   0.9818 B( 58-C , 90-H ) :   0.9652 B( 58-C , 91-H ) :   0.9658
B( 59-C , 60-O ) :   2.1793 B( 59-C , 61-C ) :   0.9084 B( 61-C , 62-C ) :   1.5562
B( 62-C , 63-C ) :   1.1396 B( 63-C , 64-C ) :   1.8974 B( 63-C , 92-H ) :   0.9569
B( 64-C , 93-H ) :   0.9559 B( 64-C , 94-H ) :   0.9512

-----------------------------------------------------------------------------
         ABSORPTION SPECTRUM VIA TRANSITION ELECTRIC DIPOLE MOMENTS
-----------------------------------------------------------------------------
State   Energy  Wavelength   fosc         T2         TX        TY        TZ
        (cm-1)    (nm)                  (au**2)     (au)      (au)      (au)
-----------------------------------------------------------------------------
   0   12696.1    787.6   0.058710955   1.52239  -0.82616  -0.01336   0.91634
   1   14766.3    677.2   1.601974086  35.71573  -4.26232   1.74334   3.80908
   2   20178.3    495.6   0.017367646   0.28336   0.32532  -0.42034  -0.02885
   3   21641.1    462.1   0.034732308   0.52836  -0.31471   0.61773  -0.21846
   4   22486.8    444.7   0.629480851   9.21573   1.09409   2.74990   0.67581
   5   23292.9    429.3   0.036932765   0.52199  -0.40899  -0.44955  -0.39066
   6   24537.6    407.5   0.009963964   0.13368  -0.28469   0.06464  -0.22013
   7   25114.3    398.2   0.111001211   1.45506  -1.09156  -0.23661  -0.45560
   8   26338.9    379.7   0.025495784   0.31867   0.18110   0.44149   0.30160
   9   27683.4    361.2   0.074179559   0.88215  -0.28798  -0.47542  -0.75709
  10   27858.6    359.0   0.042576296   0.50314  -0.12751  -0.35450   0.60101
  11   27947.9    357.8   0.057581805   0.67828   0.49689   0.65620   0.02815
  12   29363.4    340.6   0.288232178   3.23155  -0.56195  -1.23857   1.17546
  13   30179.9    331.3   0.167605642   1.82830   0.76442  -0.96977   0.55090
  14   30617.8    326.6   0.170428266   1.83249   0.25633  -0.45995   1.24709
  15   31574.7    316.7   0.003289943   0.03430  -0.11052  -0.04898   0.14032
  16   31623.8    316.2   0.077537017   0.80718  -0.69945  -0.54648   0.13898
  17   31741.2    315.0   0.009833132   0.10199   0.03140  -0.26887   0.16944
  18   32479.7    307.9   0.159853552   1.62027   0.48618   1.16300   0.17698
  19   32573.9    307.0   0.017581202   0.17769  -0.39299  -0.14223   0.05494
  20   32999.7    303.0   0.004373769   0.04363  -0.14665  -0.06217  -0.13514
  21   33105.1    302.1   0.019067590   0.18962  -0.12538  -0.26370   0.32305
  22   33402.5    299.4   0.061166604   0.60285  -0.06877   0.58901  -0.50119
  23   33507.8    298.4   0.005758451   0.05658  -0.11414   0.18152   0.10296
  24   34153.7    292.8   0.659114096   6.35328   0.52369   1.07498  -2.21888
  25   34615.3    288.9   0.138147778   1.31387  -0.08474   0.19299   1.12669
  26   35035.0    285.4   0.058331294   0.54812  -0.05083  -0.60620   0.42197
  27   35533.3    281.4   0.295692472   2.73956  -0.04131   1.62640  -0.30442
  28   36134.0    276.7   0.047870616   0.43614   0.47136   0.46176   0.02720
  29   36443.5    274.4   0.122067944   1.10270  -0.46739  -0.75504  -0.56051
  30   36513.5    273.9   0.054833595   0.49439   0.48509   0.42155   0.28525
  31   36766.8    272.0   0.049545298   0.44363  -0.32872   0.29945   0.49589
  32   36884.1    271.1   0.105043464   0.93757   0.00050   0.83357   0.49269
  33   37581.3    266.1   0.001408533   0.01234   0.02428   0.03187   0.10360
  34   37784.1    264.7   0.184593902   1.60836   1.24887  -0.16092   0.15094
  35   38661.9    258.7   0.092902009   0.79108   0.15540  -0.58229   0.65411
  36   38922.5    256.9   0.108525077   0.91792   0.76495   0.50481   0.27918
  37   39488.7    253.2   0.199228976   1.66094   0.19879  -0.09624   1.26971
  38   39544.9    252.9   0.008446977   0.07032   0.08988  -0.01450   0.24906
  39   39884.5    250.7   0.000603631   0.00498  -0.01029  -0.06566   0.02377
  40   39990.2    250.1   0.203828871   1.67798   0.11645   1.19290  -0.49133
  41   40005.4    250.0   0.063947678   0.52624   0.09441   0.71833   0.03646
  42   40180.8    248.9   0.004205596   0.03446  -0.14400  -0.11688  -0.00777

FINAL SINGLE POINT ENERGY     -4340.159349702008

DIPOLE MOMENT
-------------
                                X             Y             Z
Electronic contribution:    -18.15403     -67.35581      48.31991
Nuclear contribution   :     15.23417      70.29000     -45.65857
                        -----------------------------------------
Total Dipole Moment    :     -2.91986       2.93419       2.66134
                        -----------------------------------------
Magnitude (a.u.)       :      4.92116
Magnitude (Debye)      :     12.50859

Rotational constants in cm-1:     0.001116     0.000290     0.000257
Rotational constants in MHz :    33.449600     8.706932     7.707622

                             ****ORCA TERMINATED NORMALLY****
TOTAL RUN TIME: 0 days 0 hours 7 minutes 48 seconds 144 msec
