                         Program Version 4.2.0 -  RELEASE  -
|  1> # ORCA input file
|  2> # SCF done       -188.940697569914          0.000761550298
|  3> ! CAM-B3LYP def2-SVP def2/J RIJCOSX Grid4 TightSCF
|  4> %maxcore 5000
|  5> %tddft
|  6>     Mode sTDDFT
|  7>     Ethresh 5.0
|  8>     maxcore 5000
|  9> end
| 10>
| 11> %pal
| 12>   nprocs 6
| 13>   end
| 14> * xyz 0 1
| 15>    C      -14.92115         4.21956        -0.05362
| 16>    C      -16.21726         4.33813         0.36293
| 17>    F      -17.09953         5.03718        -0.36717
| 18>    C      -16.64391         3.73128         1.56049
| 19>    F      -17.92158         3.86619         1.94671
| 20>    C      -15.76840         3.01116         2.32402
| 21>    C      -14.42654         2.86861         1.92025
| 22>    C      -13.99282         3.48465         0.71047
| 23>    C      -12.65239         3.35384         0.28208
| 24>    C      -11.77562         2.62470         1.03888
| 25>    C      -12.21777         2.00383         2.24372
| 26>    C      -13.50522         2.11803         2.68420
| 27>    C      -11.10150         1.24916         2.82688
| 28>    O      -11.08253         0.60549         3.86754
| 29>    C       -9.97032         1.42606         1.90562
| 30>    C      -10.37502         2.28559         0.81459
| 31>    C       -9.61905         2.67212        -0.25954
| 32>    C       -8.30913         2.22003        -0.50586
| 33>    N       -7.25151         1.85353        -0.76773
| 34>    C      -10.05305         3.54125        -1.28224
| 35>    N      -10.30488         4.26961        -2.13316
| 36>    C       -8.78374         0.77801         2.09965
| 37>    N       -8.59213        -0.04876         3.14675
| 38>    C       -7.58105        -0.96175         3.23051
| 39>    S       -6.92440        -1.41506         4.76686
| 40>    C       -5.77296        -2.42839         3.95503
| 41>    N       -4.87673        -3.16500         4.74391
| 42>    O       -4.07193        -3.87342         4.17084
| 43>    O       -4.97826        -3.03855         5.95088
| 44>    C       -5.89080        -2.41375         2.59055
| 45>    C       -6.94093        -1.58628         2.15208
| 46>    C       -7.43240        -1.44564         0.80690
| 47>    C       -6.74856        -1.61879        -0.33801
| 48>    C       -7.30003        -1.34685        -1.62733
| 49>    C       -8.52935        -0.79438        -1.97215
| 50>    C       -9.58865        -0.56251        -1.08716
| 51>    N      -10.48666        -0.40042        -0.38789
| 52>    C       -8.64597        -0.54855        -3.36726
| 53>    C       -7.52201        -0.98978        -4.05680
| 54>    S       -6.29755        -1.62302        -3.03076
| 55>    S       -7.60771        -0.82014        -5.77911
| 56>    C       -9.17687        -0.10430        -5.57462
| 57>    C       -9.60565         0.01490        -4.25837
| 58>    C      -10.85175         0.69030        -4.18023
| 59>    C      -11.50842         1.08414        -3.01294
| 60>    N      -12.06542         1.46479        -2.08129
| 61>    C      -11.36384         1.02045        -5.44298
| 62>    S      -10.28994         0.51659        -6.73562
| 63>    C      -12.57981         1.67775        -5.67693
| 64>    C      -13.18620         1.89992        -6.88777
| 65>    C      -14.43086         2.55267        -7.08006
| 66>    C      -14.85849         2.57771        -8.37169
| 67>    C      -13.97996         1.94628        -9.27853
| 68>    S      -12.56175         1.35001        -8.42850
| 69>    C      -14.15263         1.73662       -10.63043
| 70>    C      -15.24051         2.14322       -11.43888
| 71>    C      -15.16973         1.72804       -12.73215
| 72>    C      -14.00668         0.97347       -13.04092
| 73>    S      -12.99433         0.84760       -11.58924
| 74>    C      -13.54891         0.38190       -14.18360
| 75>    N      -14.20772         0.18247       -15.35205
| 76>    C      -13.52282        -0.14134       -16.51591
| 77>    C      -12.17521        -0.03670       -16.71850
| 78>    S      -11.72079        -0.50461       -18.30523
| 79>    C      -13.35305        -0.85079       -18.72008
| 80>    C      -14.21226        -0.60469       -17.69044
| 81>    N      -15.57932        -0.82081       -17.66177
| 82>    C      -16.10675        -0.97687       -16.32856
| 83>    C      -15.65227         0.19029       -15.44455
| 84>    C      -16.43030        -0.70722       -18.74334
| 85>    C      -16.16383        -0.18363       -19.93360
| 86>    H      -14.60971         4.68760        -0.97419
| 87>    H      -16.11208         2.55034         3.23697
| 88>    H      -12.35537         3.81457        -0.64518
| 89>    H      -13.82065         1.63330         3.59581
| 90>    H       -7.94827         0.90522         1.42503
| 91>    H       -9.35853        -0.04092         3.83716
| 92>    H       -5.26679        -3.00646         1.94719
| 93>    H       -8.47010        -1.15549         0.74116
| 94>    H       -5.70885        -1.91400        -0.32408
| 95>    H      -13.10186         2.02165        -4.79303
| 96>    H      -14.96968         2.97301        -6.24969
| 97>    H      -15.78429         3.02084        -8.69244
| 98>    H      -16.04483         2.73690       -11.04326
| 99>    H      -15.89904         2.00081       -13.47310
|100>    H      -12.53920        -0.00403       -14.16797
|101>    H      -11.41993         0.31059       -16.04466
|102>    H      -13.57838        -1.23751       -19.69127
|103>    H      -15.74115        -1.91535       -15.88949
|104>    H      -17.19606        -1.00766       -16.36368
|105>    H      -16.06710         0.06875       -14.44359
|106>    H      -16.00513         1.13458       -15.87758
|107>    H      -17.41696        -1.10121       -18.53435
|108>    H      -15.21326         0.24805       -20.18453
|109>    H      -16.92034        -0.16954       -20.69517
|110> *
|111>
|112>                          ****END OF INPUT****

CARTESIAN COORDINATES (ANGSTROEM)
---------------------------------
  C    -14.921150    4.219560   -0.053620
  C    -16.217260    4.338130    0.362930
  F    -17.099530    5.037180   -0.367170
  C    -16.643910    3.731280    1.560490
  F    -17.921580    3.866190    1.946710
  C    -15.768400    3.011160    2.324020
  C    -14.426540    2.868610    1.920250
  C    -13.992820    3.484650    0.710470
  C    -12.652390    3.353840    0.282080
  C    -11.775620    2.624700    1.038880
  C    -12.217770    2.003830    2.243720
  C    -13.505220    2.118030    2.684200
  C    -11.101500    1.249160    2.826880
  O    -11.082530    0.605490    3.867540
  C     -9.970320    1.426060    1.905620
  C    -10.375020    2.285590    0.814590
  C     -9.619050    2.672120   -0.259540
  C     -8.309130    2.220030   -0.505860
  N     -7.251510    1.853530   -0.767730
  C    -10.053050    3.541250   -1.282240
  N    -10.304880    4.269610   -2.133160
  C     -8.783740    0.778010    2.099650
  N     -8.592130   -0.048760    3.146750
  C     -7.581050   -0.961750    3.230510
  S     -6.924400   -1.415060    4.766860
  C     -5.772960   -2.428390    3.955030
  N     -4.876730   -3.165000    4.743910
  O     -4.071930   -3.873420    4.170840
  O     -4.978260   -3.038550    5.950880
  C     -5.890800   -2.413750    2.590550
  C     -6.940930   -1.586280    2.152080
  C     -7.432400   -1.445640    0.806900
  C     -6.748560   -1.618790   -0.338010
  C     -7.300030   -1.346850   -1.627330
  C     -8.529350   -0.794380   -1.972150
  C     -9.588650   -0.562510   -1.087160
  N    -10.486660   -0.400420   -0.387890
  C     -8.645970   -0.548550   -3.367260
  C     -7.522010   -0.989780   -4.056800
  S     -6.297550   -1.623020   -3.030760
  S     -7.607710   -0.820140   -5.779110
  C     -9.176870   -0.104300   -5.574620
  C     -9.605650    0.014900   -4.258370
  C    -10.851750    0.690300   -4.180230
  C    -11.508420    1.084140   -3.012940
  N    -12.065420    1.464790   -2.081290
  C    -11.363840    1.020450   -5.442980
  S    -10.289940    0.516590   -6.735620
  C    -12.579810    1.677750   -5.676930
  C    -13.186200    1.899920   -6.887770
  C    -14.430860    2.552670   -7.080060
  C    -14.858490    2.577710   -8.371690
  C    -13.979960    1.946280   -9.278530
  S    -12.561750    1.350010   -8.428500
  C    -14.152630    1.736620  -10.630430
  C    -15.240510    2.143220  -11.438880
  C    -15.169730    1.728040  -12.732150
  C    -14.006680    0.973470  -13.040920
  S    -12.994330    0.847600  -11.589240
  C    -13.548910    0.381900  -14.183600
  N    -14.207720    0.182470  -15.352050
  C    -13.522820   -0.141340  -16.515910
  C    -12.175210   -0.036700  -16.718500
  S    -11.720790   -0.504610  -18.305230
  C    -13.353050   -0.850790  -18.720080
  C    -14.212260   -0.604690  -17.690440
  N    -15.579320   -0.820810  -17.661770
  C    -16.106750   -0.976870  -16.328560
  C    -15.652270    0.190290  -15.444550
  C    -16.430300   -0.707220  -18.743340
  C    -16.163830   -0.183630  -19.933600
  H    -14.609710    4.687600   -0.974190
  H    -16.112080    2.550340    3.236970
  H    -12.355370    3.814570   -0.645180
  H    -13.820650    1.633300    3.595810
  H     -7.948270    0.905220    1.425030
  H     -9.358530   -0.040920    3.837160
  H     -5.266790   -3.006460    1.947190
  H     -8.470100   -1.155490    0.741160
  H     -5.708850   -1.914000   -0.324080
  H    -13.101860    2.021650   -4.793030
  H    -14.969680    2.973010   -6.249690
  H    -15.784290    3.020840   -8.692440
  H    -16.044830    2.736900  -11.043260
  H    -15.899040    2.000810  -13.473100
  H    -12.539200   -0.004030  -14.167970
  H    -11.419930    0.310590  -16.044660
  H    -13.578380   -1.237510  -19.691270
  H    -15.741150   -1.915350  -15.889490
  H    -17.196060   -1.007660  -16.363680
  H    -16.067100    0.068750  -14.443590
  H    -16.005130    1.134580  -15.877580
  H    -17.416960   -1.101210  -18.534350
  H    -15.213260    0.248050  -20.184530
  H    -16.920340   -0.169540  -20.695170

 Total Charge           Charge          ....    0
 Multiplicity           Mult            ....    1
 Number of Electrons    NEL             ....  540
 Basis Dimension        Dim             .... 1142

ORBITAL ENERGIES
----------------

  NO   OCC          E(Eh)            E(eV)
   0   2.0000     -88.987969     -2421.4857
   1   2.0000     -88.977851     -2421.2104
   2   2.0000     -88.975089     -2421.1352
   3   2.0000     -88.970085     -2420.9991
   4   2.0000     -88.959179     -2420.7023
   5   2.0000     -88.949141     -2420.4292
   6   2.0000     -88.945842     -2420.3394
   7   2.0000     -24.788468      -674.5285
   8   2.0000     -24.787496      -674.5021
   9   2.0000     -19.239753      -523.5403
  10   2.0000     -19.239256      -523.5268
  11   2.0000     -19.218177      -522.9532
  12   2.0000     -14.651216      -398.6799
  13   2.0000     -14.484155      -394.1339
  14   2.0000     -14.476225      -393.9181
  15   2.0000     -14.449040      -393.1784
  16   2.0000     -14.410410      -392.1272
  17   2.0000     -14.409323      -392.0976
  18   2.0000     -14.396953      -391.7610
  19   2.0000     -14.392157      -391.6305
  20   2.0000     -10.370152      -282.1862
  21   2.0000     -10.369252      -282.1617
  22   2.0000     -10.368779      -282.1488
  23   2.0000     -10.364672      -282.0371
  24   2.0000     -10.354324      -281.7555
  25   2.0000     -10.347746      -281.5765
  26   2.0000     -10.338709      -281.3306
  27   2.0000     -10.332751      -281.1684
  28   2.0000     -10.329414      -281.0776
  29   2.0000     -10.329282      -281.0741
  30   2.0000     -10.328462      -281.0517
  31   2.0000     -10.327356      -281.0217
  32   2.0000     -10.326323      -280.9935
  33   2.0000     -10.324132      -280.9339
  34   2.0000     -10.321956      -280.8747
  35   2.0000     -10.320927      -280.8467
  36   2.0000     -10.320550      -280.8365
  37   2.0000     -10.319614      -280.8110
  38   2.0000     -10.313985      -280.6578
  39   2.0000     -10.313399      -280.6418
  40   2.0000     -10.312640      -280.6212
  41   2.0000     -10.312100      -280.6065
  42   2.0000     -10.310612      -280.5660
  43   2.0000     -10.309986      -280.5490
  44   2.0000     -10.309857      -280.5455
  45   2.0000     -10.306755      -280.4611
  46   2.0000     -10.302518      -280.3458
  47   2.0000     -10.301724      -280.3242
  48   2.0000     -10.299939      -280.2756
  49   2.0000     -10.299755      -280.2706
  50   2.0000     -10.298617      -280.2396
  51   2.0000     -10.297831      -280.2182
  52   2.0000     -10.297705      -280.2148
  53   2.0000     -10.296542      -280.1832
  54   2.0000     -10.296211      -280.1741
  55   2.0000     -10.296133      -280.1720
  56   2.0000     -10.295208      -280.1469
  57   2.0000     -10.294591      -280.1301
  58   2.0000     -10.292365      -280.0695
  59   2.0000     -10.291171      -280.0370
  60   2.0000     -10.290346      -280.0145
  61   2.0000     -10.290128      -280.0086
  62   2.0000     -10.290116      -280.0083
  63   2.0000     -10.288768      -279.9716
  64   2.0000     -10.287232      -279.9298
  65   2.0000     -10.285990      -279.8960
  66   2.0000     -10.283489      -279.8280
  67   2.0000     -10.282092      -279.7899
  68   2.0000     -10.277346      -279.6608
  69   2.0000     -10.275348      -279.6064
  70   2.0000     -10.250687      -278.9354
  71   2.0000      -8.083675      -219.9680
  72   2.0000      -8.073375      -219.6877
  73   2.0000      -8.070115      -219.5990
  74   2.0000      -8.065059      -219.4614
  75   2.0000      -8.054911      -219.1853
  76   2.0000      -8.045466      -218.9283
  77   2.0000      -8.041929      -218.8320
  78   2.0000      -6.053182      -164.7154
  79   2.0000      -6.048856      -164.5977
  80   2.0000      -6.045312      -164.5013
  81   2.0000      -6.042873      -164.4349
  82   2.0000      -6.040107      -164.3597
  83   2.0000      -6.038708      -164.3216
  84   2.0000      -6.035935      -164.2462
  85   2.0000      -6.035030      -164.2215
  86   2.0000      -6.034716      -164.2130
  87   2.0000      -6.030879      -164.1086
  88   2.0000      -6.030395      -164.0954
  89   2.0000      -6.026570      -163.9913
  90   2.0000      -6.024376      -163.9316
  91   2.0000      -6.020026      -163.8132
  92   2.0000      -6.016970      -163.7301
  93   2.0000      -6.015387      -163.6870
  94   2.0000      -6.011694      -163.5865
  95   2.0000      -6.011314      -163.5762
  96   2.0000      -6.007611      -163.4754
  97   2.0000      -6.006052      -163.4330
  98   2.0000      -6.002851      -163.3459
  99   2.0000      -1.321303       -35.9545
 100   2.0000      -1.310256       -35.6539
 101   2.0000      -1.295457       -35.2512
 102   2.0000      -1.140452       -31.0333
 103   2.0000      -1.132894       -30.8276
 104   2.0000      -1.102552       -30.0020
 105   2.0000      -1.091220       -29.6936
 106   2.0000      -1.057300       -28.7706
 107   2.0000      -1.029948       -28.0263
 108   2.0000      -1.010584       -27.4994
 109   2.0000      -1.006660       -27.3926
 110   2.0000      -1.000841       -27.2343
 111   2.0000      -0.995877       -27.0992
 112   2.0000      -0.993316       -27.0295
 113   2.0000      -0.990195       -26.9446
 114   2.0000      -0.981156       -26.6986
 115   2.0000      -0.979459       -26.6524
 116   2.0000      -0.973293       -26.4847
 117   2.0000      -0.971232       -26.4286
 118   2.0000      -0.968032       -26.3415
 119   2.0000      -0.941615       -25.6226
 120   2.0000      -0.920093       -25.0370
 121   2.0000      -0.916207       -24.9313
 122   2.0000      -0.899247       -24.4698
 123   2.0000      -0.897545       -24.4234
 124   2.0000      -0.887962       -24.1627
 125   2.0000      -0.884177       -24.0597
 126   2.0000      -0.880005       -23.9462
 127   2.0000      -0.877774       -23.8854
 128   2.0000      -0.868106       -23.6224
 129   2.0000      -0.861106       -23.4319
 130   2.0000      -0.853476       -23.2243
 131   2.0000      -0.852487       -23.1973
 132   2.0000      -0.849584       -23.1184
 133   2.0000      -0.845708       -23.0129
 134   2.0000      -0.829490       -22.5716
 135   2.0000      -0.828164       -22.5355
 136   2.0000      -0.823434       -22.4068
 137   2.0000      -0.819104       -22.2890
 138   2.0000      -0.805725       -21.9249
 139   2.0000      -0.798118       -21.7179
 140   2.0000      -0.791677       -21.5426
 141   2.0000      -0.775987       -21.1157
 142   2.0000      -0.762226       -20.7412
 143   2.0000      -0.756815       -20.5940
 144   2.0000      -0.747238       -20.3334
 145   2.0000      -0.736001       -20.0276
 146   2.0000      -0.731914       -19.9164
 147   2.0000      -0.720033       -19.5931
 148   2.0000      -0.710428       -19.3317
 149   2.0000      -0.707575       -19.2541
 150   2.0000      -0.704480       -19.1699
 151   2.0000      -0.696422       -18.9506
 152   2.0000      -0.691187       -18.8082
 153   2.0000      -0.685044       -18.6410
 154   2.0000      -0.680356       -18.5134
 155   2.0000      -0.676561       -18.4102
 156   2.0000      -0.672913       -18.3109
 157   2.0000      -0.657971       -17.9043
 158   2.0000      -0.654565       -17.8116
 159   2.0000      -0.652597       -17.7581
 160   2.0000      -0.647229       -17.6120
 161   2.0000      -0.642891       -17.4940
 162   2.0000      -0.641561       -17.4578
 163   2.0000      -0.636437       -17.3183
 164   2.0000      -0.633217       -17.2307
 165   2.0000      -0.632255       -17.2045
 166   2.0000      -0.630038       -17.1442
 167   2.0000      -0.622962       -16.9516
 168   2.0000      -0.616980       -16.7889
 169   2.0000      -0.615109       -16.7380
 170   2.0000      -0.612235       -16.6598
 171   2.0000      -0.608857       -16.5678
 172   2.0000      -0.598425       -16.2840
 173   2.0000      -0.593084       -16.1386
 174   2.0000      -0.590253       -16.0616
 175   2.0000      -0.589570       -16.0430
 176   2.0000      -0.579342       -15.7647
 177   2.0000      -0.576550       -15.6887
 178   2.0000      -0.576254       -15.6807
 179   2.0000      -0.574918       -15.6443
 180   2.0000      -0.571252       -15.5445
 181   2.0000      -0.564737       -15.3673
 182   2.0000      -0.562304       -15.3011
 183   2.0000      -0.554874       -15.0989
 184   2.0000      -0.546438       -14.8693
 185   2.0000      -0.544698       -14.8220
 186   2.0000      -0.542015       -14.7490
 187   2.0000      -0.541550       -14.7363
 188   2.0000      -0.540001       -14.6942
 189   2.0000      -0.537029       -14.6133
 190   2.0000      -0.532766       -14.4973
 191   2.0000      -0.532383       -14.4869
 192   2.0000      -0.529543       -14.4096
 193   2.0000      -0.524076       -14.2608
 194   2.0000      -0.522907       -14.2290
 195   2.0000      -0.518409       -14.1066
 196   2.0000      -0.517318       -14.0769
 197   2.0000      -0.511121       -13.9083
 198   2.0000      -0.508068       -13.8252
 199   2.0000      -0.506442       -13.7810
 200   2.0000      -0.505404       -13.7528
 201   2.0000      -0.504227       -13.7207
 202   2.0000      -0.500418       -13.6171
 203   2.0000      -0.497977       -13.5506
 204   2.0000      -0.496689       -13.5156
 205   2.0000      -0.494205       -13.4480
 206   2.0000      -0.492698       -13.4070
 207   2.0000      -0.491145       -13.3647
 208   2.0000      -0.488624       -13.2961
 209   2.0000      -0.486124       -13.2281
 210   2.0000      -0.481469       -13.1014
 211   2.0000      -0.480811       -13.0835
 212   2.0000      -0.479416       -13.0456
 213   2.0000      -0.476937       -12.9781
 214   2.0000      -0.474960       -12.9243
 215   2.0000      -0.471422       -12.8280
 216   2.0000      -0.468745       -12.7552
 217   2.0000      -0.464559       -12.6413
 218   2.0000      -0.462654       -12.5895
 219   2.0000      -0.459159       -12.4943
 220   2.0000      -0.458600       -12.4791
 221   2.0000      -0.453165       -12.3312
 222   2.0000      -0.448975       -12.2172
 223   2.0000      -0.448640       -12.2081
 224   2.0000      -0.447638       -12.1808
 225   2.0000      -0.447533       -12.1780
 226   2.0000      -0.444195       -12.0872
 227   2.0000      -0.441339       -12.0095
 228   2.0000      -0.439179       -11.9507
 229   2.0000      -0.437657       -11.9093
 230   2.0000      -0.432995       -11.7824
 231   2.0000      -0.430948       -11.7267
 232   2.0000      -0.429634       -11.6909
 233   2.0000      -0.428924       -11.6716
 234   2.0000      -0.427583       -11.6351
 235   2.0000      -0.426372       -11.6022
 236   2.0000      -0.423452       -11.5227
 237   2.0000      -0.418954       -11.4003
 238   2.0000      -0.417577       -11.3628
 239   2.0000      -0.416882       -11.3439
 240   2.0000      -0.415225       -11.2988
 241   2.0000      -0.412576       -11.2268
 242   2.0000      -0.404990       -11.0203
 243   2.0000      -0.396409       -10.7868
 244   2.0000      -0.396294       -10.7837
 245   2.0000      -0.393841       -10.7170
 246   2.0000      -0.386770       -10.5246
 247   2.0000      -0.382485       -10.4079
 248   2.0000      -0.379735       -10.3331
 249   2.0000      -0.379160       -10.3175
 250   2.0000      -0.373953       -10.1758
 251   2.0000      -0.368319       -10.0225
 252   2.0000      -0.367505       -10.0003
 253   2.0000      -0.362140        -9.8543
 254   2.0000      -0.349574        -9.5124
 255   2.0000      -0.343986        -9.3603
 256   2.0000      -0.341973        -9.3056
 257   2.0000      -0.338318        -9.2061
 258   2.0000      -0.335311        -9.1243
 259   2.0000      -0.328795        -8.9470
 260   2.0000      -0.325427        -8.8553
 261   2.0000      -0.310028        -8.4363
 262   2.0000      -0.306299        -8.3348
 263   2.0000      -0.297549        -8.0967
 264   2.0000      -0.292084        -7.9480
 265   2.0000      -0.280532        -7.6337
 266   2.0000      -0.269074        -7.3219
 267   2.0000      -0.260838        -7.0978
 268   2.0000      -0.258875        -7.0443
 269   2.0000      -0.208148        -5.6640
 270   0.0000      -0.076203        -2.0736
 271   0.0000      -0.073712        -2.0058
 272   0.0000      -0.055127        -1.5001
 273   0.0000      -0.050710        -1.3799
 274   0.0000      -0.040715        -1.1079

MULLIKEN ATOMIC CHARGES
-----------------------
   0 C :   -0.105509
   1 C :    0.238156
   2 F :   -0.177277
   3 C :    0.237437
   4 F :   -0.177047
   5 C :   -0.108561
   6 C :    0.121907
   7 C :    0.107044
   8 C :   -0.034582
   9 C :    0.039048
  10 C :    0.012262
  11 C :   -0.092470
  12 C :    0.177581
  13 O :   -0.213585
  14 C :   -0.101964
  15 C :    0.387464
  16 C :   -0.362011
  17 C :   -0.203454
  18 N :    0.133018
  19 C :   -0.186812
  20 N :    0.146464
  21 C :   -0.023750
  22 N :   -0.015780
  23 C :   -0.106932
  24 S :    0.207856
  25 C :   -0.012787
  26 N :    0.277205
  27 O :   -0.245047
  28 O :   -0.258786
  29 C :    0.003626
  30 C :    0.122027
  31 C :   -0.089356
  32 C :    0.065903
  33 C :   -0.090457
  34 C :   -0.038726
  35 C :   -0.273713
  36 N :    0.159963
  37 C :    0.137357
  38 C :   -0.231434
  39 S :    0.168588
  40 S :    0.177648
  41 C :   -0.233296
  42 C :    0.171617
  43 C :   -0.042737
  44 C :   -0.286692
  45 N :    0.156383
  46 C :   -0.059663
  47 S :    0.138482
  48 C :   -0.057171
  49 C :   -0.020438
  50 C :    0.022128
  51 C :    0.039126
  52 C :   -0.049163
  53 S :    0.052827
  54 C :   -0.033190
  55 C :    0.003282
  56 C :    0.034462
  57 C :   -0.108772
  58 S :    0.081293
  59 C :    0.112900
  60 N :   -0.201476
  61 C :    0.156148
  62 C :   -0.213093
  63 S :    0.122071
  64 C :   -0.197149
  65 C :    0.168496
  66 N :   -0.217784
  67 C :    0.148162
  68 C :    0.122998
  69 C :    0.068452
  70 C :   -0.083105
  71 H :    0.001318
  72 H :   -0.004538
  73 H :   -0.008459
  74 H :   -0.015986
  75 H :    0.066388
  76 H :    0.171330
  77 H :    0.013549
  78 H :    0.046307
  79 H :   -0.017544
  80 H :    0.004628
  81 H :   -0.011384
  82 H :   -0.015865
  83 H :   -0.014256
  84 H :   -0.009251
  85 H :    0.010833
  86 H :    0.019714
  87 H :    0.021978
  88 H :    0.029535
  89 H :    0.025466
  90 H :    0.038258
  91 H :    0.037076
  92 H :    0.003658
  93 H :    0.022733
  94 H :    0.018898
Sum of atomic charges:    0.0000000

LOEWDIN ATOMIC CHARGES
----------------------
   0 C :   -0.026633
   1 C :    0.063361
   2 F :   -0.054581
   3 C :    0.064824
   4 F :   -0.054110
   5 C :   -0.034383
   6 C :   -0.008523
   7 C :   -0.004576
   8 C :    0.040851
   9 C :   -0.011771
  10 C :   -0.046363
  11 C :    0.026098
  12 C :    0.099740
  13 O :   -0.175414
  14 C :   -0.133971
  15 C :    0.094676
  16 C :   -0.149622
  17 C :   -0.014478
  18 N :   -0.070420
  19 C :   -0.016435
  20 N :   -0.065582
  21 C :    0.114852
  22 N :    0.061256
  23 C :   -0.113626
  24 S :    0.477162
  25 C :   -0.200807
  26 N :    0.273457
  27 O :   -0.211213
  28 O :   -0.224087
  29 C :    0.002106
  30 C :   -0.084808
  31 C :   -0.013834
  32 C :   -0.039041
  33 C :   -0.124463
  34 C :   -0.103671
  35 C :   -0.023702
  36 N :   -0.053066
  37 C :   -0.057649
  38 C :   -0.335378
  39 S :    0.458128
  40 S :    0.415818
  41 C :   -0.341918
  42 C :   -0.059131
  43 C :   -0.124235
  44 C :   -0.019021
  45 N :   -0.071358
  46 C :   -0.117189
  47 S :    0.435343
  48 C :   -0.099661
  49 C :   -0.131492
  50 C :   -0.048486
  51 C :   -0.023321
  52 C :   -0.206211
  53 S :    0.360103
  54 C :   -0.157566
  55 C :   -0.044794
  56 C :   -0.035163
  57 C :   -0.206726
  58 S :    0.366726
  59 C :    0.023122
  60 N :    0.006241
  61 C :   -0.030405
  62 C :   -0.232238
  63 S :    0.445446
  64 C :   -0.214005
  65 C :   -0.025885
  66 N :   -0.033711
  67 C :    0.047191
  68 C :    0.040370
  69 C :    0.023957
  70 C :   -0.128977
  71 H :    0.046434
  72 H :    0.043036
  73 H :    0.039500
  74 H :    0.038081
  75 H :    0.044340
  76 H :    0.087930
  77 H :    0.046367
  78 H :    0.038810
  79 H :    0.029771
  80 H :    0.045826
  81 H :    0.033997
  82 H :    0.031491
  83 H :    0.031854
  84 H :    0.031290
  85 H :    0.030773
  86 H :    0.022079
  87 H :    0.025601
  88 H :    0.026163
  89 H :    0.033692
  90 H :    0.036025
  91 H :    0.026776
  92 H :    0.025178
  93 H :    0.021176
  94 H :    0.026680

  Mayer bond orders larger than 0.100000
B(  0-C ,  1-C ) :   1.4372 B(  0-C ,  5-C ) :   0.1093 B(  0-C ,  7-C ) :   1.1901
B(  0-C , 71-H ) :   1.0079 B(  1-C ,  2-F ) :   1.1274 B(  1-C ,  3-C ) :   1.1960
B(  3-C ,  4-F ) :   1.1276 B(  3-C ,  5-C ) :   1.4411 B(  5-C ,  6-C ) :   1.1904
B(  5-C , 72-H ) :   1.0069 B(  6-C ,  7-C ) :   1.2579 B(  6-C , 11-C ) :   1.1850
B(  7-C ,  8-C ) :   1.2174 B(  8-C ,  9-C ) :   1.4678 B(  8-C , 73-H ) :   0.9808
B(  9-C , 10-C ) :   1.2227 B(  9-C , 15-C ) :   0.9988 B( 10-C , 11-C ) :   1.4629
B( 10-C , 12-C ) :   0.9723 B( 11-C , 74-H ) :   1.0172 B( 12-C , 13-O ) :   2.0732
B( 12-C , 14-C ) :   0.9856 B( 13-O , 76-H ) :   0.1325 B( 14-C , 15-C ) :   1.0906
B( 14-C , 21-C ) :   1.4906 B( 15-C , 16-C ) :   1.6298 B( 16-C , 17-C ) :   1.1640
B( 16-C , 19-C ) :   1.1445 B( 17-C , 18-N ) :   2.9100 B( 19-C , 20-N ) :   2.9503
B( 21-C , 22-N ) :   1.3097 B( 21-C , 75-H ) :   0.9266 B( 22-N , 23-C ) :   1.1502
B( 22-N , 76-H ) :   0.8383 B( 23-C , 24-S ) :   1.1465 B( 23-C , 30-C ) :   1.3875
B( 24-S , 25-C ) :   1.0992 B( 25-C , 26-N ) :   0.9598 B( 25-C , 29-C ) :   1.4916
B( 26-N , 27-O ) :   1.5408 B( 26-N , 28-O ) :   1.5173 B( 27-O , 28-O ) :   0.2632
B( 29-C , 30-C ) :   1.2334 B( 29-C , 77-H ) :   1.0031 B( 30-C , 31-C ) :   1.0651
B( 31-C , 32-C ) :   1.7352 B( 31-C , 78-H ) :   0.9353 B( 32-C , 33-C ) :   1.1324
B( 32-C , 79-H ) :   0.9483 B( 33-C , 34-C ) :   1.4831 B( 33-C , 39-S ) :   1.1293
B( 34-C , 35-C ) :   1.1936 B( 34-C , 37-C ) :   1.2739 B( 35-C , 36-N ) :   2.8471
B( 37-C , 38-C ) :   1.4070 B( 37-C , 42-C ) :   1.0642 B( 38-C , 39-S ) :   1.0923
B( 38-C , 40-S ) :   1.0830 B( 40-S , 41-C ) :   1.0740 B( 41-C , 42-C ) :   1.4155
B( 41-C , 47-S ) :   1.0791 B( 42-C , 43-C ) :   1.2533 B( 43-C , 44-C ) :   1.2029
B( 43-C , 46-C ) :   1.4299 B( 44-C , 45-N ) :   2.9017 B( 46-C , 47-S ) :   1.1024
B( 46-C , 48-C ) :   1.2388 B( 48-C , 49-C ) :   1.5347 B( 48-C , 80-H ) :   0.9600
B( 49-C , 50-C ) :   1.1517 B( 49-C , 53-S ) :   1.0543 B( 50-C , 51-C ) :   1.5798
B( 50-C , 81-H ) :   1.0007 B( 51-C , 52-C ) :   1.1988 B( 51-C , 82-H ) :   0.9913
B( 52-C , 53-S ) :   1.0200 B( 52-C , 54-C ) :   1.4979 B( 54-C , 55-C ) :   1.1921
B( 54-C , 58-S ) :   1.0733 B( 55-C , 56-C ) :   1.6027 B( 55-C , 83-H ) :   0.9931
B( 56-C , 57-C ) :   1.1318 B( 56-C , 84-H ) :   0.9919 B( 57-C , 58-S ) :   1.0085
B( 57-C , 59-C ) :   1.5733 B( 59-C , 60-N ) :   1.1961 B( 59-C , 85-H ) :   0.9415
B( 60-N , 61-C ) :   1.0429 B( 60-N , 68-C ) :   0.9652 B( 61-C , 62-C ) :   1.5045
B( 61-C , 65-C ) :   1.2489 B( 62-C , 63-S ) :   1.1516 B( 62-C , 86-H ) :   0.9749
B( 63-S , 64-C ) :   1.1535 B( 64-C , 65-C ) :   1.5238 B( 64-C , 87-H ) :   0.9750
B( 65-C , 66-N ) :   1.0531 B( 66-N , 67-C ) :   0.9972 B( 66-N , 69-C ) :   1.0774
B( 67-C , 68-C ) :   1.0764 B( 67-C , 88-H ) :   0.9396 B( 67-C , 89-H ) :   0.9407
B( 68-C , 90-H ) :   0.9358 B( 68-C , 91-H ) :   0.9395 B( 69-C , 70-C ) :   1.9196
B( 69-C , 92-H ) :   0.9591 B( 70-C , 93-H ) :   0.9578 B( 70-C , 94-H ) :   0.9477

-----------------------------------------------------------------------------
         ABSORPTION SPECTRUM VIA TRANSITION ELECTRIC DIPOLE MOMENTS
-----------------------------------------------------------------------------
State   Energy  Wavelength   fosc         T2         TX        TY        TZ
        (cm-1)    (nm)                  (au**2)     (au)      (au)      (au)
-----------------------------------------------------------------------------
   0   15357.0    651.2   1.601363003  34.32890   1.46423   0.10344   5.67223
   1   18045.6    554.2   0.000977493   0.01783  -0.05705   0.07116  -0.09754
   2   22130.3    451.9   0.010073674   0.14986   0.18646  -0.32393   0.10077
   3   22525.4    443.9   0.259065371   3.78627   1.30166  -1.41959   0.27699
   4   23705.8    421.8   0.007133324   0.09906   0.27269  -0.15268   0.03733
   5   25628.8    390.2   0.005023894   0.06453  -0.12697   0.04583  -0.21520
   6   26675.4    374.9   0.085537023   1.05565  -0.13636   0.19232   1.00003
   7   27050.0    369.7   0.064332608   0.78296  -0.55798   0.52135   0.44700
   8   27112.8    368.8   0.024204878   0.29390   0.40580  -0.35562  -0.05259
   9   27645.8    361.7   0.192710988   2.29485   1.30874  -0.49084   0.58407
  10   28381.5    352.3   0.083974409   0.97407   0.59837  -0.63245   0.46478
  11   28604.0    349.6   0.528093590   6.07799  -1.30861   1.51089  -1.44317
  12   29049.0    344.2   0.274732678   3.11354   0.56979  -0.13018  -1.66491
  13   29610.0    337.7   0.338768668   3.76652  -1.72763   0.82531   0.31730
  14   29795.9    335.6   0.228986691   2.53005   1.33520  -0.79352  -0.34294
  15   30032.3    333.0   0.072572480   0.79553  -0.40893   0.19910  -0.76725
  16   31009.2    322.5   0.001116131   0.01185   0.02823  -0.10286   0.02176
  17   31633.6    316.1   0.139418515   1.45093  -0.94076   0.44788  -0.60440
  18   32423.5    308.4   0.406346489   4.12584  -1.64437   0.68110  -0.97877
  19   32638.2    306.4   0.085615752   0.86358  -0.73625   0.28146  -0.49223
  20   33402.5    299.4   0.056100969   0.55293   0.12464   0.06570  -0.73012
  21   33472.6    298.8   0.059527959   0.58547   0.01254   0.01294  -0.76495
  22   34145.0    292.9   0.160850691   1.55086  -1.22560   0.05538   0.21375
  23   34463.3    290.2   0.075025821   0.71669   0.31510  -0.05898  -0.78353
  24   34749.4    287.8   0.015097933   0.14304  -0.27755   0.04515   0.25291
  25   34796.2    287.4   0.028700346   0.27154   0.45416   0.18919   0.17172
  26   34884.1    286.7   0.682631306   6.44220  -2.17767   0.33942   1.25886
  27   34963.7    286.0   0.025223837   0.23750   0.44110  -0.19011  -0.08243
  28   35261.6    283.6   0.011160820   0.10420  -0.28218   0.05178   0.14797
  29   35385.2    282.6   0.004916456   0.04574  -0.19707  -0.05387   0.06328
  30   35495.9    281.7   0.013258613   0.12297  -0.30143  -0.16396   0.07230
  31   35591.5    281.0   0.093130354   0.86143  -0.69901   0.01573   0.61038
  32   36249.2    275.9   0.051595989   0.46859   0.62493  -0.17955  -0.21404
  33   36437.3    274.4   0.038726583   0.34990  -0.45569   0.13177   0.35338
  34   37275.3    268.3   0.009477364   0.08370  -0.26254   0.07476   0.09586
  35   37373.7    267.6   0.037970468   0.33447   0.43563  -0.25394   0.28322
  36   37527.4    266.5   0.025930051   0.22747   0.31805  -0.34766   0.07384
  37   38172.5    262.0   0.165995094   1.43159   0.17751  -0.70395   0.95107
  38   38284.8    261.2   0.024756133   0.21288   0.42411  -0.16183  -0.08257
  39   38823.9    257.6   0.041678614   0.35342   0.19743  -0.20868   0.52047
  40   39112.1    255.7   0.034995840   0.29457   0.46943   0.06526   0.26446
  41   39485.9    253.3   0.029892386   0.24923  -0.24596   0.07011  -0.42874
  42   39555.6    252.8   0.120064828   0.99927   0.47876  -0.55315   0.68124
  43   39851.5    250.9   0.050888388   0.42039   0.21324  -0.19515   0.58037
  44   39923.1    250.5   0.017105506   0.14105  -0.26509   0.09338  -0.24913
  45   40095.8    249.4   0.001513131   0.01242  -0.06037  -0.03392   0.08734
  46   40220.7    248.6   0.046763708   0.38277   0.23400  -0.43158   0.37650

FINAL SINGLE POINT ENERGY     -5603.992159275822

DIPOLE MOMENT
-------------
                                X             Y             Z
Electronic contribution:     34.07332       5.09328      91.19612
Nuclear contribution   :    -36.72096      -5.51547     -96.25578
                        -----------------------------------------
Total Dipole Moment    :     -2.64765      -0.42220      -5.05965
                        -----------------------------------------
Magnitude (a.u.)       :      5.72611
Magnitude (Debye)      :     14.55462

Rotational constants in cm-1:     0.001289     0.000274     0.000233
Rotational constants in MHz :    38.641494     8.225133     6.978538

                             ****ORCA TERMINATED NORMALLY****
TOTAL RUN TIME: 0 days 0 hours 9 minutes 23 seconds 421 msec
