                         Program Version 4.2.0 -  RELEASE  -
|  1> # ORCA input file
|  2> # SCF done       -178.790870080113          0.000616660315
|  3> ! CAM-B3LYP def2-SVP def2/J RIJCOSX Grid4 TightSCF
|  4> %maxcore 5000
|  5> %tddft
|  6>     Mode sTDDFT
|  7>     Ethresh 5.0
|  8>     maxcore 5000
|  9> end
| 10>
| 11> %pal
| 12>   nprocs 6
| 13>   end
| 14> * xyz 0 1
| 15>    C        5.67829        -1.47658        -0.80067
| 16>    C        6.10170        -0.30462        -1.36322
| 17>    F        7.40549         0.00152        -1.38013
| 18>    C        5.17633         0.59370        -1.93018
| 19>    F        5.61859         1.73547        -2.47476
| 20>    C        3.83933         0.30818        -1.92665
| 21>    C        3.37233        -0.89002        -1.35333
| 22>    C        4.30724        -1.79966        -0.78023
| 23>    C        3.86134        -3.00894        -0.19698
| 24>    C        2.52325        -3.29675        -0.18402
| 25>    C        1.59468        -2.37946        -0.75736
| 26>    C        1.99552        -1.20731        -1.33106
| 27>    C        0.23842        -2.91882        -0.59819
| 28>    O       -0.81848        -2.41088        -0.96274
| 29>    C        0.38644        -4.19928         0.09748
| 30>    C        1.78688        -4.44435         0.34528
| 31>    C        2.34199        -5.54008         0.95484
| 32>    C        3.72453        -5.71407         1.16615
| 33>    N        4.83805        -5.90851         1.36673
| 34>    C        1.59720        -6.63284         1.44267
| 35>    N        1.02751        -7.54219         1.85055
| 36>    C       -0.70803        -4.96062         0.43532
| 37>    N       -1.93869        -4.54263         0.12152
| 38>    C       -3.10891        -5.16200         0.41400
| 39>    S       -3.14445        -6.67001         1.27480
| 40>    C       -4.87666        -6.63840         1.20497
| 41>    N       -5.56528        -7.71126         1.79217
| 42>    O       -6.77956        -7.69339         1.75579
| 43>    O       -4.88214        -8.58412         2.29757
| 44>    C       -5.38650        -5.54345         0.56464
| 45>    C       -4.38239        -4.67048         0.09404
| 46>    C       -4.61536        -3.44822        -0.62418
| 47>    C       -5.83754        -2.90151        -0.78715
| 48>    C       -6.10393        -1.70919        -1.51813
| 49>    C       -7.32589        -1.06534        -1.67388
| 50>    C       -8.53913        -1.60720        -1.04822
| 51>    O       -8.69750        -2.76439        -0.73218
| 52>    O       -9.50320        -0.70081        -0.80938
| 53>    C       -7.23508         0.11555        -2.49240
| 54>    C       -5.93695         0.32152        -2.90852
| 55>    S       -4.83681        -0.84713        -2.33705
| 56>    C       -8.34685         0.93445        -2.85114
| 57>    C       -8.41627         1.94292        -3.76652
| 58>    C       -9.60371         2.68278        -4.03815
| 59>    C       -9.48349         3.61244        -5.01950
| 60>    C       -8.19362         3.67887        -5.59632
| 61>    S       -7.13133         2.51560        -4.82377
| 62>    C       -7.77429         4.49897        -6.62209
| 63>    C       -8.54363         5.46966        -7.30848
| 64>    C       -7.87500         6.11468        -8.30066
| 65>    C       -6.52815         5.70360        -8.46731
| 66>    S       -6.15171         4.45948        -7.26794
| 67>    C       -5.55250         6.12375        -9.33024
| 68>    C       -5.65425         7.01455       -10.42664
| 69>    C       -4.54828         7.55526       -11.08960
| 70>    C       -5.00141         8.38657       -12.14361
| 71>    C       -4.32741         9.14886       -13.07257
| 72>    C       -5.09164         9.86511       -14.00708
| 73>    C       -4.72791        10.70974       -15.04754
| 74>    C       -5.90560        11.18386       -15.70404
| 75>    C       -7.00216        10.62956       -15.06752
| 76>    C       -6.54127         9.79779       -13.99971
| 77>    C       -7.21555         9.03858       -13.08093
| 78>    C       -6.45048         8.32513       -12.13410
| 79>    C       -6.83011         7.49422       -11.09593
| 80>    C       -5.88035        12.08628       -16.83126
| 81>    C       -6.94905        12.55575       -17.46914
| 82>    H        6.40010        -2.15348        -0.37093
| 83>    H        3.14371         1.00672        -2.36466
| 84>    H        4.59357        -3.67594         0.22815
| 85>    H        1.27271        -0.52967        -1.75930
| 86>    H       -0.62046        -5.90140         0.96309
| 87>    H       -1.95453        -3.63420        -0.37835
| 88>    H       -6.44303        -5.39550         0.43555
| 89>    H       -3.75647        -2.94971        -1.05540
| 90>    H       -6.70841        -3.37201        -0.35761
| 91>    H      -10.25262        -1.14439        -0.38063
| 92>    H       -5.56492         1.12461        -3.51123
| 93>    H       -9.27156         0.71932        -2.33922
| 94>    H      -10.50940         2.49026        -3.49073
| 95>    H      -10.28493         4.24852        -5.34976
| 96>    H       -9.56737         5.66826        -7.04603
| 97>    H       -8.30597         6.90502        -8.88581
| 98>    H       -4.55943         5.72714        -9.15674
| 99>    H       -3.51983         7.38168       -10.83143
|100>    H       -3.24777         9.19769       -13.08938
|101>    H       -3.72337        10.97498       -15.32680
|102>    H       -8.03518        10.78363       -15.31700
|103>    H       -8.29529         8.98345       -13.06740
|104>    H       -7.84111         7.21164       -10.87073
|105>    H       -4.89133        12.38579       -17.15559
|106>    H       -7.95086        12.28766       -17.18085
|107>    H       -6.85691        13.22879       -18.30370
|108> *
|109>
|110>                          ****END OF INPUT****

CARTESIAN COORDINATES (ANGSTROEM)
---------------------------------
  C      5.678290   -1.476580   -0.800670
  C      6.101700   -0.304620   -1.363220
  F      7.405490    0.001520   -1.380130
  C      5.176330    0.593700   -1.930180
  F      5.618590    1.735470   -2.474760
  C      3.839330    0.308180   -1.926650
  C      3.372330   -0.890020   -1.353330
  C      4.307240   -1.799660   -0.780230
  C      3.861340   -3.008940   -0.196980
  C      2.523250   -3.296750   -0.184020
  C      1.594680   -2.379460   -0.757360
  C      1.995520   -1.207310   -1.331060
  C      0.238420   -2.918820   -0.598190
  O     -0.818480   -2.410880   -0.962740
  C      0.386440   -4.199280    0.097480
  C      1.786880   -4.444350    0.345280
  C      2.341990   -5.540080    0.954840
  C      3.724530   -5.714070    1.166150
  N      4.838050   -5.908510    1.366730
  C      1.597200   -6.632840    1.442670
  N      1.027510   -7.542190    1.850550
  C     -0.708030   -4.960620    0.435320
  N     -1.938690   -4.542630    0.121520
  C     -3.108910   -5.162000    0.414000
  S     -3.144450   -6.670010    1.274800
  C     -4.876660   -6.638400    1.204970
  N     -5.565280   -7.711260    1.792170
  O     -6.779560   -7.693390    1.755790
  O     -4.882140   -8.584120    2.297570
  C     -5.386500   -5.543450    0.564640
  C     -4.382390   -4.670480    0.094040
  C     -4.615360   -3.448220   -0.624180
  C     -5.837540   -2.901510   -0.787150
  C     -6.103930   -1.709190   -1.518130
  C     -7.325890   -1.065340   -1.673880
  C     -8.539130   -1.607200   -1.048220
  O     -8.697500   -2.764390   -0.732180
  O     -9.503200   -0.700810   -0.809380
  C     -7.235080    0.115550   -2.492400
  C     -5.936950    0.321520   -2.908520
  S     -4.836810   -0.847130   -2.337050
  C     -8.346850    0.934450   -2.851140
  C     -8.416270    1.942920   -3.766520
  C     -9.603710    2.682780   -4.038150
  C     -9.483490    3.612440   -5.019500
  C     -8.193620    3.678870   -5.596320
  S     -7.131330    2.515600   -4.823770
  C     -7.774290    4.498970   -6.622090
  C     -8.543630    5.469660   -7.308480
  C     -7.875000    6.114680   -8.300660
  C     -6.528150    5.703600   -8.467310
  S     -6.151710    4.459480   -7.267940
  C     -5.552500    6.123750   -9.330240
  C     -5.654250    7.014550  -10.426640
  C     -4.548280    7.555260  -11.089600
  C     -5.001410    8.386570  -12.143610
  C     -4.327410    9.148860  -13.072570
  C     -5.091640    9.865110  -14.007080
  C     -4.727910   10.709740  -15.047540
  C     -5.905600   11.183860  -15.704040
  C     -7.002160   10.629560  -15.067520
  C     -6.541270    9.797790  -13.999710
  C     -7.215550    9.038580  -13.080930
  C     -6.450480    8.325130  -12.134100
  C     -6.830110    7.494220  -11.095930
  C     -5.880350   12.086280  -16.831260
  C     -6.949050   12.555750  -17.469140
  H      6.400100   -2.153480   -0.370930
  H      3.143710    1.006720   -2.364660
  H      4.593570   -3.675940    0.228150
  H      1.272710   -0.529670   -1.759300
  H     -0.620460   -5.901400    0.963090
  H     -1.954530   -3.634200   -0.378350
  H     -6.443030   -5.395500    0.435550
  H     -3.756470   -2.949710   -1.055400
  H     -6.708410   -3.372010   -0.357610
  H    -10.252620   -1.144390   -0.380630
  H     -5.564920    1.124610   -3.511230
  H     -9.271560    0.719320   -2.339220
  H    -10.509400    2.490260   -3.490730
  H    -10.284930    4.248520   -5.349760
  H     -9.567370    5.668260   -7.046030
  H     -8.305970    6.905020   -8.885810
  H     -4.559430    5.727140   -9.156740
  H     -3.519830    7.381680  -10.831430
  H     -3.247770    9.197690  -13.089380
  H     -3.723370   10.974980  -15.326800
  H     -8.035180   10.783630  -15.317000
  H     -8.295290    8.983450  -13.067400
  H     -7.841110    7.211640  -10.870730
  H     -4.891330   12.385790  -17.155590
  H     -7.950860   12.287660  -17.180850
  H     -6.856910   13.228790  -18.303700

 Total Charge           Charge          ....    0
 Multiplicity           Mult            ....    1
 Number of Electrons    NEL             ....  488
 Basis Dimension        Dim             .... 1084

ORBITAL ENERGIES
----------------

  NO   OCC          E(Eh)            E(eV)
   0   2.0000     -88.990162     -2421.5454
   1   2.0000     -88.965804     -2420.8826
   2   2.0000     -88.941583     -2420.2235
   3   2.0000     -88.937523     -2420.1130
   4   2.0000     -24.802481      -674.9098
   5   2.0000     -24.801590      -674.8856
   6   2.0000     -19.268715      -524.3284
   7   2.0000     -19.239242      -523.5264
   8   2.0000     -19.238968      -523.5189
   9   2.0000     -19.236983      -523.4649
  10   2.0000     -19.208078      -522.6784
  11   2.0000     -14.650867      -398.6704
  12   2.0000     -14.500644      -394.5826
  13   2.0000     -14.422151      -392.4467
  14   2.0000     -14.417750      -392.3269
  15   2.0000     -10.412522      -283.3391
  16   2.0000     -10.386197      -282.6228
  17   2.0000     -10.385570      -282.6057
  18   2.0000     -10.383964      -282.5620
  19   2.0000     -10.374244      -282.2975
  20   2.0000     -10.372404      -282.2475
  21   2.0000     -10.349711      -281.6299
  22   2.0000     -10.348554      -281.5985
  23   2.0000     -10.345115      -281.5049
  24   2.0000     -10.324438      -280.9422
  25   2.0000     -10.321008      -280.8489
  26   2.0000     -10.318096      -280.7697
  27   2.0000     -10.315981      -280.7121
  28   2.0000     -10.315659      -280.7034
  29   2.0000     -10.313782      -280.6523
  30   2.0000     -10.311422      -280.5881
  31   2.0000     -10.310532      -280.5638
  32   2.0000     -10.309240      -280.5287
  33   2.0000     -10.307889      -280.4919
  34   2.0000     -10.307840      -280.4906
  35   2.0000     -10.306354      -280.4501
  36   2.0000     -10.305094      -280.4159
  37   2.0000     -10.303850      -280.3820
  38   2.0000     -10.303373      -280.3690
  39   2.0000     -10.303373      -280.3690
  40   2.0000     -10.302972      -280.3581
  41   2.0000     -10.302769      -280.3526
  42   2.0000     -10.302109      -280.3346
  43   2.0000     -10.301784      -280.3258
  44   2.0000     -10.296721      -280.1880
  45   2.0000     -10.296446      -280.1805
  46   2.0000     -10.293019      -280.0873
  47   2.0000     -10.291394      -280.0431
  48   2.0000     -10.288634      -279.9680
  49   2.0000     -10.287807      -279.9455
  50   2.0000     -10.287162      -279.9279
  51   2.0000     -10.286047      -279.8976
  52   2.0000     -10.283475      -279.8276
  53   2.0000     -10.281966      -279.7865
  54   2.0000     -10.279770      -279.7268
  55   2.0000     -10.277789      -279.6728
  56   2.0000     -10.277364      -279.6613
  57   2.0000     -10.275487      -279.6102
  58   2.0000     -10.273579      -279.5583
  59   2.0000     -10.270557      -279.4761
  60   2.0000     -10.269712      -279.4531
  61   2.0000     -10.268856      -279.4298
  62   2.0000     -10.267778      -279.4004
  63   2.0000     -10.267471      -279.3921
  64   2.0000     -10.266083      -279.3543
  65   2.0000     -10.265792      -279.3464
  66   2.0000     -10.259387      -279.1721
  67   2.0000      -8.085367      -220.0140
  68   2.0000      -8.061715      -219.3704
  69   2.0000      -8.037488      -218.7112
  70   2.0000      -8.034083      -218.6185
  71   2.0000      -6.055031      -164.7658
  72   2.0000      -6.050647      -164.6465
  73   2.0000      -6.046825      -164.5425
  74   2.0000      -6.030829      -164.1072
  75   2.0000      -6.026570      -163.9913
  76   2.0000      -6.024236      -163.9278
  77   2.0000      -6.007273      -163.4662
  78   2.0000      -6.003921      -163.3750
  79   2.0000      -6.003222      -163.3560
  80   2.0000      -5.999891      -163.2653
  81   2.0000      -5.998392      -163.2246
  82   2.0000      -5.994750      -163.1254
  83   2.0000      -1.324910       -36.0526
  84   2.0000      -1.321086       -35.9486
  85   2.0000      -1.310059       -35.6485
  86   2.0000      -1.196527       -32.5592
  87   2.0000      -1.151801       -31.3421
  88   2.0000      -1.140278       -31.0285
  89   2.0000      -1.107364       -30.1329
  90   2.0000      -1.097046       -29.8521
  91   2.0000      -1.025493       -27.9051
  92   2.0000      -1.011541       -27.5254
  93   2.0000      -1.010066       -27.4853
  94   2.0000      -0.998702       -27.1761
  95   2.0000      -0.995496       -27.0888
  96   2.0000      -0.990235       -26.9457
  97   2.0000      -0.987530       -26.8720
  98   2.0000      -0.986763       -26.8512
  99   2.0000      -0.968037       -26.3416
 100   2.0000      -0.961187       -26.1552
 101   2.0000      -0.937341       -25.5063
 102   2.0000      -0.926034       -25.1987
 103   2.0000      -0.910112       -24.7654
 104   2.0000      -0.902564       -24.5600
 105   2.0000      -0.899300       -24.4712
 106   2.0000      -0.894541       -24.3417
 107   2.0000      -0.886112       -24.1123
 108   2.0000      -0.870865       -23.6974
 109   2.0000      -0.866248       -23.5718
 110   2.0000      -0.865727       -23.5576
 111   2.0000      -0.862709       -23.4755
 112   2.0000      -0.853403       -23.2223
 113   2.0000      -0.846683       -23.0394
 114   2.0000      -0.841852       -22.9080
 115   2.0000      -0.840752       -22.8780
 116   2.0000      -0.819647       -22.3037
 117   2.0000      -0.817567       -22.2471
 118   2.0000      -0.812508       -22.1095
 119   2.0000      -0.800407       -21.7802
 120   2.0000      -0.788233       -21.4489
 121   2.0000      -0.775408       -21.0999
 122   2.0000      -0.772086       -21.0095
 123   2.0000      -0.757098       -20.6017
 124   2.0000      -0.750431       -20.4203
 125   2.0000      -0.748826       -20.3766
 126   2.0000      -0.743295       -20.2261
 127   2.0000      -0.733954       -19.9719
 128   2.0000      -0.726250       -19.7623
 129   2.0000      -0.721854       -19.6427
 130   2.0000      -0.712438       -19.3864
 131   2.0000      -0.699827       -19.0432
 132   2.0000      -0.693834       -18.8802
 133   2.0000      -0.688392       -18.7321
 134   2.0000      -0.681442       -18.5430
 135   2.0000      -0.671182       -18.2638
 136   2.0000      -0.666831       -18.1454
 137   2.0000      -0.661621       -18.0036
 138   2.0000      -0.657444       -17.8900
 139   2.0000      -0.651046       -17.7159
 140   2.0000      -0.648421       -17.6444
 141   2.0000      -0.645650       -17.5690
 142   2.0000      -0.638539       -17.3755
 143   2.0000      -0.632457       -17.2100
 144   2.0000      -0.632262       -17.2047
 145   2.0000      -0.630415       -17.1545
 146   2.0000      -0.629371       -17.1261
 147   2.0000      -0.627302       -17.0697
 148   2.0000      -0.621132       -16.9019
 149   2.0000      -0.618199       -16.8221
 150   2.0000      -0.610894       -16.6233
 151   2.0000      -0.600804       -16.3487
 152   2.0000      -0.596481       -16.2311
 153   2.0000      -0.594656       -16.1814
 154   2.0000      -0.589624       -16.0445
 155   2.0000      -0.588617       -16.0171
 156   2.0000      -0.584896       -15.9158
 157   2.0000      -0.581292       -15.8178
 158   2.0000      -0.579036       -15.7564
 159   2.0000      -0.570895       -15.5348
 160   2.0000      -0.568073       -15.4580
 161   2.0000      -0.562196       -15.2981
 162   2.0000      -0.561109       -15.2686
 163   2.0000      -0.559016       -15.2116
 164   2.0000      -0.558489       -15.1973
 165   2.0000      -0.554811       -15.0972
 166   2.0000      -0.551514       -15.0075
 167   2.0000      -0.551056       -14.9950
 168   2.0000      -0.544740       -14.8231
 169   2.0000      -0.541855       -14.7446
 170   2.0000      -0.539175       -14.6717
 171   2.0000      -0.536882       -14.6093
 172   2.0000      -0.535765       -14.5789
 173   2.0000      -0.535140       -14.5619
 174   2.0000      -0.529176       -14.3996
 175   2.0000      -0.527379       -14.3507
 176   2.0000      -0.521747       -14.1975
 177   2.0000      -0.517199       -14.0737
 178   2.0000      -0.513304       -13.9677
 179   2.0000      -0.509691       -13.8694
 180   2.0000      -0.508756       -13.8439
 181   2.0000      -0.503899       -13.7118
 182   2.0000      -0.500687       -13.6244
 183   2.0000      -0.497594       -13.5402
 184   2.0000      -0.495734       -13.4896
 185   2.0000      -0.493447       -13.4274
 186   2.0000      -0.492296       -13.3961
 187   2.0000      -0.492033       -13.3889
 188   2.0000      -0.490571       -13.3491
 189   2.0000      -0.484616       -13.1871
 190   2.0000      -0.482984       -13.1427
 191   2.0000      -0.478128       -13.0105
 192   2.0000      -0.476623       -12.9696
 193   2.0000      -0.471678       -12.8350
 194   2.0000      -0.469454       -12.7745
 195   2.0000      -0.469130       -12.7657
 196   2.0000      -0.467901       -12.7322
 197   2.0000      -0.463045       -12.6001
 198   2.0000      -0.460347       -12.5267
 199   2.0000      -0.457869       -12.4592
 200   2.0000      -0.455312       -12.3897
 201   2.0000      -0.452885       -12.3236
 202   2.0000      -0.451960       -12.2984
 203   2.0000      -0.450739       -12.2652
 204   2.0000      -0.450490       -12.2585
 205   2.0000      -0.447686       -12.1822
 206   2.0000      -0.442677       -12.0458
 207   2.0000      -0.437988       -11.9183
 208   2.0000      -0.436822       -11.8865
 209   2.0000      -0.431622       -11.7450
 210   2.0000      -0.431556       -11.7432
 211   2.0000      -0.429002       -11.6737
 212   2.0000      -0.424543       -11.5524
 213   2.0000      -0.419245       -11.4082
 214   2.0000      -0.415975       -11.3193
 215   2.0000      -0.415436       -11.3046
 216   2.0000      -0.414475       -11.2784
 217   2.0000      -0.407246       -11.0817
 218   2.0000      -0.401115       -10.9149
 219   2.0000      -0.400561       -10.8998
 220   2.0000      -0.398486       -10.8433
 221   2.0000      -0.393160       -10.6984
 222   2.0000      -0.389001       -10.5853
 223   2.0000      -0.386296       -10.5117
 224   2.0000      -0.381717       -10.3871
 225   2.0000      -0.377919       -10.2837
 226   2.0000      -0.368801       -10.0356
 227   2.0000      -0.368007       -10.0140
 228   2.0000      -0.360207        -9.8017
 229   2.0000      -0.359772        -9.7899
 230   2.0000      -0.357644        -9.7320
 231   2.0000      -0.348014        -9.4699
 232   2.0000      -0.343958        -9.3596
 233   2.0000      -0.334713        -9.1080
 234   2.0000      -0.326983        -8.8977
 235   2.0000      -0.324889        -8.8407
 236   2.0000      -0.321981        -8.7616
 237   2.0000      -0.311377        -8.4730
 238   2.0000      -0.301538        -8.2053
 239   2.0000      -0.290415        -7.9026
 240   2.0000      -0.270535        -7.3616
 241   2.0000      -0.265111        -7.2140
 242   2.0000      -0.250574        -6.8185
 243   2.0000      -0.204264        -5.5583
 244   0.0000      -0.100194        -2.7264
 245   0.0000      -0.094258        -2.5649
 246   0.0000      -0.072267        -1.9665
 247   0.0000      -0.067419        -1.8346
 248   0.0000      -0.051518        -1.4019

MULLIKEN ATOMIC CHARGES
-----------------------
   0 C :   -0.108698
   1 C :    0.245484
   2 F :   -0.170052
   3 C :    0.239043
   4 F :   -0.171577
   5 C :   -0.104510
   6 C :    0.114243
   7 C :    0.112475
   8 C :   -0.081218
   9 C :    0.039582
  10 C :    0.005503
  11 C :   -0.078593
  12 C :    0.172284
  13 O :   -0.220563
  14 C :   -0.137408
  15 C :    0.337106
  16 C :   -0.345481
  17 C :   -0.180490
  18 N :    0.146693
  19 C :   -0.200071
  20 N :    0.148559
  21 C :    0.028553
  22 N :   -0.005696
  23 C :   -0.121326
  24 S :    0.173842
  25 C :    0.011537
  26 N :    0.274810
  27 O :   -0.240971
  28 O :   -0.255872
  29 C :   -0.002621
  30 C :    0.135218
  31 C :   -0.052672
  32 C :    0.016015
  33 C :   -0.128510
  34 C :    0.045529
  35 C :    0.119611
  36 O :   -0.211153
  37 O :   -0.168758
  38 C :    0.110891
  39 C :   -0.146673
  40 S :    0.138351
  41 C :   -0.057365
  42 C :   -0.001405
  43 C :    0.021914
  44 C :    0.033874
  45 C :   -0.046401
  46 S :    0.048735
  47 C :   -0.042911
  48 C :    0.012693
  49 C :    0.029298
  50 C :   -0.065287
  51 S :    0.076389
  52 C :    0.037202
  53 C :    0.060215
  54 C :   -0.033955
  55 C :    0.060716
  56 C :    0.002260
  57 C :    0.052098
  58 C :   -0.021116
  59 C :    0.059078
  60 C :   -0.021973
  61 C :    0.044178
  62 C :    0.001299
  63 C :    0.044062
  64 C :   -0.035022
  65 C :    0.010386
  66 C :   -0.018472
  67 H :    0.009074
  68 H :    0.000524
  69 H :   -0.005009
  70 H :   -0.009562
  71 H :    0.049538
  72 H :    0.184878
  73 H :    0.028587
  74 H :    0.001180
  75 H :    0.018260
  76 H :    0.194235
  77 H :    0.041758
  78 H :   -0.011504
  79 H :   -0.015661
  80 H :   -0.017855
  81 H :   -0.016777
  82 H :   -0.019195
  83 H :   -0.021326
  84 H :   -0.028760
  85 H :   -0.024138
  86 H :   -0.022341
  87 H :   -0.028396
  88 H :   -0.024048
  89 H :   -0.024481
  90 H :   -0.021628
  91 H :    0.008798
  92 H :    0.020942
Sum of atomic charges:   -0.0000000

LOEWDIN ATOMIC CHARGES
----------------------
   0 C :   -0.028252
   1 C :    0.068287
   2 F :   -0.047733
   3 C :    0.068200
   4 F :   -0.048999
   5 C :   -0.032326
   6 C :   -0.010192
   7 C :   -0.006049
   8 C :    0.019771
   9 C :   -0.019915
  10 C :   -0.052203
  11 C :    0.032051
  12 C :    0.095511
  13 O :   -0.177722
  14 C :   -0.146829
  15 C :    0.078088
  16 C :   -0.148624
  17 C :   -0.018996
  18 N :   -0.054795
  19 C :   -0.021401
  20 N :   -0.051798
  21 C :    0.113951
  22 N :    0.083502
  23 C :   -0.117116
  24 S :    0.471285
  25 C :   -0.196780
  26 N :    0.273048
  27 O :   -0.207533
  28 O :   -0.222593
  29 C :    0.007102
  30 C :   -0.079905
  31 C :   -0.033075
  32 C :   -0.023972
  33 C :   -0.138282
  34 C :   -0.099841
  35 C :    0.095732
  36 O :   -0.187002
  37 O :   -0.028814
  38 C :   -0.048845
  39 C :   -0.192807
  40 S :    0.470503
  41 C :   -0.070855
  42 C :   -0.137784
  43 C :   -0.035892
  44 C :   -0.035848
  45 C :   -0.187692
  46 S :    0.365848
  47 C :   -0.175142
  48 C :   -0.031152
  49 C :   -0.038502
  50 C :   -0.153814
  51 S :    0.360115
  52 C :   -0.043779
  53 C :   -0.063310
  54 C :    0.013963
  55 C :   -0.065117
  56 C :    0.074708
  57 C :   -0.070996
  58 C :    0.046255
  59 C :   -0.063615
  60 C :    0.024497
  61 C :   -0.058506
  62 C :    0.073944
  63 C :   -0.063245
  64 C :    0.034058
  65 C :   -0.025444
  66 C :   -0.046170
  67 H :    0.048513
  68 H :    0.045117
  69 H :    0.041099
  70 H :    0.040873
  71 H :    0.036397
  72 H :    0.086442
  73 H :    0.051542
  74 H :    0.021671
  75 H :    0.036286
  76 H :    0.102278
  77 H :    0.011370
  78 H :    0.029259
  79 H :    0.031981
  80 H :    0.030421
  81 H :    0.030730
  82 H :    0.029360
  83 H :    0.030514
  84 H :    0.023533
  85 H :    0.034995
  86 H :    0.025492
  87 H :    0.023465
  88 H :    0.034758
  89 H :    0.022457
  90 H :    0.027040
  91 H :    0.018851
  92 H :    0.024400

  Mayer bond orders larger than 0.100000
B(  0-C ,  1-C ) :   1.4342 B(  0-C ,  5-C ) :   0.1083 B(  0-C ,  7-C ) :   1.1949
B(  0-C , 67-H ) :   1.0071 B(  1-C ,  2-F ) :   1.1357 B(  1-C ,  3-C ) :   1.1947
B(  3-C ,  4-F ) :   1.1334 B(  3-C ,  5-C ) :   1.4400 B(  5-C ,  6-C ) :   1.1918
B(  5-C , 68-H ) :   1.0068 B(  6-C ,  7-C ) :   1.2596 B(  6-C , 11-C ) :   1.1844
B(  7-C ,  8-C ) :   1.2058 B(  8-C ,  9-C ) :   1.4672 B(  8-C , 69-H ) :   0.9894
B(  9-C , 10-C ) :   1.2207 B(  9-C , 15-C ) :   0.9833 B( 10-C , 11-C ) :   1.4684
B( 10-C , 12-C ) :   0.9777 B( 11-C , 70-H ) :   1.0182 B( 12-C , 13-O ) :   2.0402
B( 12-C , 14-C ) :   1.0072 B( 13-O , 72-H ) :   0.1407 B( 14-C , 15-C ) :   1.1037
B( 14-C , 21-C ) :   1.4379 B( 15-C , 16-C ) :   1.6262 B( 16-C , 17-C ) :   1.1462
B( 16-C , 19-C ) :   1.1486 B( 17-C , 18-N ) :   2.9604 B( 19-C , 20-N ) :   2.9557
B( 21-C , 22-N ) :   1.3528 B( 21-C , 71-H ) :   0.9297 B( 22-N , 23-C ) :   1.1875
B( 22-N , 72-H ) :   0.8240 B( 23-C , 24-S ) :   1.1307 B( 23-C , 30-C ) :   1.3791
B( 24-S , 25-C ) :   1.0831 B( 25-C , 26-N ) :   0.9593 B( 25-C , 29-C ) :   1.5060
B( 26-N , 27-O ) :   1.5391 B( 26-N , 28-O ) :   1.5163 B( 27-O , 28-O ) :   0.2645
B( 29-C , 30-C ) :   1.2135 B( 29-C , 73-H ) :   1.0020 B( 30-C , 31-C ) :   1.0773
B( 31-C , 32-C ) :   1.6967 B( 31-C , 74-H ) :   0.9690 B( 32-C , 33-C ) :   1.1462
B( 32-C , 75-H ) :   0.9548 B( 33-C , 34-C ) :   1.4826 B( 33-C , 40-S ) :   1.1612
B( 34-C , 35-C ) :   0.9471 B( 34-C , 38-C ) :   1.1857 B( 35-C , 36-O ) :   2.0702
B( 35-C , 37-O ) :   1.2432 B( 37-O , 76-H ) :   0.9373 B( 38-C , 39-C ) :   1.5120
B( 38-C , 41-C ) :   1.1102 B( 39-C , 40-S ) :   1.1479 B( 39-C , 77-H ) :   0.9461
B( 41-C , 42-C ) :   1.6240 B( 41-C , 78-H ) :   0.9498 B( 42-C , 43-C ) :   1.1246
B( 42-C , 46-S ) :   1.0240 B( 43-C , 44-C ) :   1.6049 B( 43-C , 79-H ) :   0.9996
B( 44-C , 45-C ) :   1.1767 B( 44-C , 80-H ) :   0.9915 B( 45-C , 46-S ) :   1.0258
B( 45-C , 47-C ) :   1.5231 B( 47-C , 48-C ) :   1.1810 B( 47-C , 51-S ) :   1.0524
B( 48-C , 49-C ) :   1.6142 B( 48-C , 81-H ) :   0.9918 B( 49-C , 50-C ) :   1.1380
B( 49-C , 82-H ) :   0.9899 B( 50-C , 51-S ) :   1.0196 B( 50-C , 52-C ) :   1.5899
B( 52-C , 53-C ) :   1.1545 B( 52-C , 83-H ) :   0.9522 B( 53-C , 54-C ) :   1.4306
B( 53-C , 64-C ) :   1.1446 B( 54-C , 55-C ) :   1.1228 B( 54-C , 84-H ) :   1.0195
B( 55-C , 56-C ) :   1.4141 B( 55-C , 63-C ) :   1.1381 B( 56-C , 57-C ) :   1.1566
B( 56-C , 85-H ) :   1.0044 B( 57-C , 58-C ) :   1.3904 B( 57-C , 61-C ) :   1.1338
B( 58-C , 59-C ) :   1.1650 B( 58-C , 86-H ) :   1.0129 B( 59-C , 60-C ) :   1.4938
B( 59-C , 65-C ) :   1.0747 B( 60-C , 61-C ) :   1.1101 B( 60-C , 87-H ) :   1.0110
B( 61-C , 62-C ) :   1.4477 B( 62-C , 63-C ) :   1.1321 B( 62-C , 88-H ) :   1.0029
B( 63-C , 64-C ) :   1.4264 B( 64-C , 89-H ) :   1.0044 B( 65-C , 66-C ) :   1.9455
B( 65-C , 90-H ) :   0.9659 B( 66-C , 91-H ) :   0.9531 B( 66-C , 92-H ) :   0.9498

-----------------------------------------------------------------------------
         ABSORPTION SPECTRUM VIA TRANSITION ELECTRIC DIPOLE MOMENTS
-----------------------------------------------------------------------------
State   Energy  Wavelength   fosc         T2         TX        TY        TZ
        (cm-1)    (nm)                  (au**2)     (au)      (au)      (au)
-----------------------------------------------------------------------------
   0    5905.8   1693.2   0.009252126   0.51575  -0.22347  -0.42999   0.53002
   1   15142.2    660.4   0.414538314   9.01265  -0.58338   1.97874  -2.18104
   2   15423.1    648.4   0.015426642   0.32929   0.43752   0.24924  -0.27521
   3   16212.2    616.8   1.842169388  37.40785   0.64516   3.90985  -4.65883
   4   20127.8    496.8   0.008583157   0.14039  -0.37128  -0.03108   0.03966
   5   21141.0    473.0   0.944501287  14.70793  -3.77985  -0.51413   0.39543
   6   21531.8    464.4   0.029273696   0.44758  -0.07654   0.56898  -0.34348
   7   22280.1    448.8   0.230948149   3.41251   0.02064  -1.18058   1.42068
   8   25542.5    391.5   0.065494318   0.84414   0.25596   0.76736  -0.43565
   9   25669.4    389.6   0.003402147   0.04363   0.19294   0.08004   0.00017
  10   25873.1    386.5   0.029079780   0.37001   0.58633  -0.09445  -0.13157
  11   26627.0    375.6   0.021419336   0.26483   0.40902   0.31056   0.03295
  12   27166.8    368.1   0.099129857   1.20127  -1.02455  -0.36775   0.12781
  13   28190.6    354.7   0.174336862   2.03592  -1.12443   0.85140   0.21604
  14   28805.4    347.2   0.147846191   1.68971   0.05587  -0.86972   0.96446
  15   29084.9    343.8   0.016191869   0.18328   0.22813   0.16887  -0.32050
  16   29489.1    339.1   0.112956557   1.26103  -0.84886   0.62218  -0.39161
  17   29905.2    334.4   0.086453876   0.95173  -0.50158  -0.74642   0.37816
  18   30057.5    332.7   0.056631660   0.62027  -0.19045  -0.33811   0.68533
  19   30887.0    323.8   0.425592607   4.53622  -1.18246  -1.59970   0.76089
  20   31198.7    320.5   0.112018475   1.18203  -0.87002  -0.38246   0.52804
  21   31913.2    313.4   0.223741117   2.30808  -0.54452  -1.22719   0.71105
  22   32483.1    307.9   0.042143508   0.42712   0.42667  -0.48931   0.07514
  23   32499.5    307.7   0.154265817   1.56267   0.51752  -0.78471   0.82406
  24   32925.1    303.7   0.000516272   0.00516  -0.00672   0.06704  -0.02494
  25   33283.8    300.4   0.019302264   0.19092   0.41392  -0.10430   0.09334
  26   33291.3    300.4   0.026354642   0.26062  -0.47112   0.14625  -0.13142
  27   33425.9    299.2   0.278284760   2.74083   0.03451   1.05452  -1.27579
  28   33809.4    295.8   0.041896502   0.40796   0.15530  -0.44016   0.43600
  29   33861.5    295.3   0.000532915   0.00518  -0.00991  -0.04175   0.05779
  30   34320.8    291.4   0.284865250   2.73249   0.18229  -1.45939   0.75461
  31   34347.9    291.1   0.494384027   4.73849  -0.65538  -1.87404   0.89271
  32   34824.3    287.2   0.186920207   1.76705   0.49771   1.11281  -0.53009
  33   35102.9    284.9   0.292518660   2.74338   0.23034  -1.46564   0.73636
  34   35394.7    282.5   0.045389695   0.42218   0.35001  -0.35205   0.41920
  35   35422.0    282.3   0.032962854   0.30636   0.19033  -0.41553   0.31220
  36   36475.1    274.2   0.000042322   0.00038   0.00900  -0.01013   0.01409
  37   36899.6    271.0   0.070643516   0.63027   0.39161  -0.54427   0.42507
  38   37462.9    266.9   0.000046948   0.00041   0.02029   0.00096   0.00028
  39   37591.8    266.0   0.053044308   0.46454  -0.54663   0.35034  -0.20734
  40   37737.8    265.0   0.025268282   0.22043  -0.45489   0.10053  -0.05830
  41   38033.8    262.9   0.155784549   1.34843  -1.13631   0.16825  -0.17005
  42   38143.3    262.2   0.006977932   0.06023   0.24520  -0.00581  -0.00824
  43   38642.3    258.8   0.096374701   0.82106   0.69965  -0.46850   0.33475
  44   38795.5    257.8   0.006582500   0.05586  -0.19359   0.10486  -0.08593
  45   39339.5    254.2   0.331685515   2.77570   0.39098  -1.05268   1.23073
  46   39384.9    253.9   0.091561539   0.76535   0.38493  -0.58195   0.52775
  47   39466.4    253.4   0.064045810   0.53424  -0.25544  -0.40964   0.54881
  48   39781.4    251.4   0.041146377   0.34051  -0.58052  -0.01793   0.05638
  49   39907.9    250.6   0.013012432   0.10734  -0.04280   0.21575  -0.24283
  50   40033.3    249.8   0.011339705   0.09325   0.22428  -0.18616   0.09106

FINAL SINGLE POINT ENERGY     -4380.595450847458

DIPOLE MOMENT
-------------
                                X             Y             Z
Electronic contribution:     53.76706     -66.84673      68.66847
Nuclear contribution   :    -54.89543      71.39318     -71.40877
                        -----------------------------------------
Total Dipole Moment    :     -1.12837       4.54646      -2.74029
                        -----------------------------------------
Magnitude (a.u.)       :      5.42703
Magnitude (Debye)      :     13.79443

Rotational constants in cm-1:     0.000965     0.000267     0.000213
Rotational constants in MHz :    28.940016     7.993296     6.391362

                             ****ORCA TERMINATED NORMALLY****
TOTAL RUN TIME: 0 days 0 hours 9 minutes 22 seconds 412 msec
