                         Program Version 4.2.0 -  RELEASE  -
|  1> # ORCA input file
|  2> # SCF done       -210.262915377466          0.000819314903
|  3> ! CAM-B3LYP def2-SVP def2/J RIJCOSX Grid4 TightSCF
|  4> %maxcore 5000
|  5> %tddft
|  6>     Mode sTDDFT
|  7>     Ethresh 5.0
|  8>     maxcore 5000
|  9> end
| 10>
| 11> %pal
| 12>   nprocs 6
| 13>   end
| 14> * xyz 0 1
| 15>    C      -12.90757        -7.20700        -3.54821
| 16>    C      -12.77544        -6.69069        -4.80706
| 17>    F      -13.83615        -6.62964        -5.62486
| 18>    C      -11.52898        -6.21726        -5.26069
| 19>    F      -11.42727        -5.71702        -6.50090
| 20>    C      -10.43103        -6.26447        -4.44785
| 21>    C      -10.53586        -6.78869        -3.14544
| 22>    C      -11.79531        -7.26987        -2.68562
| 23>    C      -11.92424        -7.80171        -1.38059
| 24>    C      -10.82855        -7.84377        -0.56071
| 25>    C       -9.57655        -7.35771        -1.02876
| 26>    C       -9.41761        -6.84756        -2.28346
| 27>    C       -8.56635        -7.52449         0.03191
| 28>    O       -7.36938        -7.31117        -0.07574
| 29>    C       -9.27385        -8.09800         1.18180
| 30>    C      -10.65519        -8.31263         0.81393
| 31>    C      -11.65708        -8.80079         1.61568
| 32>    C      -11.50954        -9.18040         2.96533
| 33>    N      -11.47393        -9.49234         4.07050
| 34>    C      -12.99112        -8.97202         1.19340
| 35>    N      -14.09118        -9.13939         0.90911
| 36>    C       -8.67747        -8.50295         2.35903
| 37>    C       -7.43081        -8.12444         2.85769
| 38>    S       -6.72106        -9.10680         4.14643
| 39>    C       -6.59335        -7.03555         2.61526
| 40>    S       -6.63848        -5.62829         1.62794
| 41>    C       -5.11714        -5.14715         2.35997
| 42>    N       -4.61857        -5.93808         3.23406
| 43>    C       -5.43061        -7.00638         3.42237
| 44>    C       -5.31580        -8.09130         4.30276
| 45>    C       -4.20581        -8.32929         5.11444
| 46>    C       -4.03674        -9.39141         5.96961
| 47>    C       -2.86592        -9.70821         6.66576
| 48>    C       -1.60300        -9.16498         6.50894
| 49>    C       -0.43719        -9.58155         7.19740
| 50>    C        0.71337        -8.96187         6.80035
| 51>    C        0.51557        -8.01367         5.77696
| 52>    S       -1.17634        -7.92602         5.35237
| 53>    C        1.42249        -7.21613         5.10057
| 54>    C        2.82682        -7.13589         5.20970
| 55>    C        3.39510        -6.26157         4.33176
| 56>    C        2.46903        -5.59689         3.48628
| 57>    S        0.84370        -6.12431         3.86249
| 58>    C        2.76701        -4.69110         2.49860
| 59>    C        1.85294        -4.02449         1.66663
| 60>    C        2.19465        -3.15210         0.62363
| 61>    C        3.53329        -2.88729         0.30802
| 62>    N        4.64424        -2.70728         0.08253
| 63>    C        1.06101        -2.61820        -0.03494
| 64>    C       -0.12029        -3.09604         0.52686
| 65>    S        0.11322        -4.18965         1.83292
| 66>    S       -1.57799        -2.50500        -0.20280
| 67>    C       -0.59657        -1.59310        -1.29840
| 68>    C        0.77879        -1.73556        -1.11917
| 69>    C        1.49950        -0.99122        -2.08502
| 70>    C        2.89512        -0.85480        -2.13714
| 71>    N        4.02893        -0.70075        -2.21592
| 72>    C        0.66436        -0.31217        -2.96781
| 73>    S       -1.02439        -0.54463        -2.58634
| 74>    C        1.01199         0.54322        -4.04855
| 75>    C        2.10567         0.51443        -4.84938
| 76>    C        2.44575         1.73996        -5.63956
| 77>    O        1.72712         2.69136        -5.82791
| 78>    C        3.84131         1.54286        -6.06950
| 79>    C        4.67883         2.42135        -6.69583
| 80>    C        6.00410         2.02211        -6.97791
| 81>    C        6.44093         0.72002        -6.59412
| 82>    C        7.76858         0.33413        -6.86846
| 83>    C        8.62066         1.19741        -7.49796
| 84>    C        8.18705         2.48388        -7.87890
| 85>    C        6.90681         2.88897        -7.62469
| 86>    F        9.04421         3.30892        -8.49383
| 87>    F        9.88030         0.82901        -7.76139
| 88>    C        5.55040        -0.16994        -5.95229
| 89>    C        4.26560         0.23301        -5.70451
| 90>    C        3.14569        -0.46816        -5.08708
| 91>    C        3.02776        -1.82737        -4.98923
| 92>    C        1.86282        -2.48794        -4.55324
| 93>    N        0.92898        -3.06516        -4.21748
| 94>    C        4.03347        -2.73233        -5.39289
| 95>    N        4.80621        -3.51259        -5.72360
| 96>    H      -13.86980        -7.56520        -3.21698
| 97>    H       -9.48287        -5.89839        -4.80952
| 98>    H      -12.88991        -8.16335        -1.06662
| 99>    H       -8.45385        -6.48985        -2.61252
|100>    H       -9.21354        -9.21225         2.97703
|101>    H       -4.64067        -4.23666         2.05302
|102>    H       -3.44232        -7.57191         5.01518
|103>    H       -4.88091       -10.05483         6.11396
|104>    H       -2.93006       -10.51965         7.37967
|105>    H       -0.48095       -10.33804         7.96123
|106>    H        1.68610        -9.16808         7.20935
|107>    H        3.37688        -7.72782         5.91903
|108>    H        4.45091        -6.07071         4.25784
|109>    H        3.81174        -4.46469         2.32655
|110>    H        0.32684         1.36541        -4.23693
|111>    H        4.33641         3.40787        -6.96897
|112>    H        8.11515        -0.64733        -6.58513
|113>    H        6.59111         3.87690        -7.92145
|114>    H        5.90804        -1.14240        -5.65463
|115> *
|116>
|117>                          ****END OF INPUT****

CARTESIAN COORDINATES (ANGSTROEM)
---------------------------------
  C    -12.907570   -7.207000   -3.548210
  C    -12.775440   -6.690690   -4.807060
  F    -13.836150   -6.629640   -5.624860
  C    -11.528980   -6.217260   -5.260690
  F    -11.427270   -5.717020   -6.500900
  C    -10.431030   -6.264470   -4.447850
  C    -10.535860   -6.788690   -3.145440
  C    -11.795310   -7.269870   -2.685620
  C    -11.924240   -7.801710   -1.380590
  C    -10.828550   -7.843770   -0.560710
  C     -9.576550   -7.357710   -1.028760
  C     -9.417610   -6.847560   -2.283460
  C     -8.566350   -7.524490    0.031910
  O     -7.369380   -7.311170   -0.075740
  C     -9.273850   -8.098000    1.181800
  C    -10.655190   -8.312630    0.813930
  C    -11.657080   -8.800790    1.615680
  C    -11.509540   -9.180400    2.965330
  N    -11.473930   -9.492340    4.070500
  C    -12.991120   -8.972020    1.193400
  N    -14.091180   -9.139390    0.909110
  C     -8.677470   -8.502950    2.359030
  C     -7.430810   -8.124440    2.857690
  S     -6.721060   -9.106800    4.146430
  C     -6.593350   -7.035550    2.615260
  S     -6.638480   -5.628290    1.627940
  C     -5.117140   -5.147150    2.359970
  N     -4.618570   -5.938080    3.234060
  C     -5.430610   -7.006380    3.422370
  C     -5.315800   -8.091300    4.302760
  C     -4.205810   -8.329290    5.114440
  C     -4.036740   -9.391410    5.969610
  C     -2.865920   -9.708210    6.665760
  C     -1.603000   -9.164980    6.508940
  C     -0.437190   -9.581550    7.197400
  C      0.713370   -8.961870    6.800350
  C      0.515570   -8.013670    5.776960
  S     -1.176340   -7.926020    5.352370
  C      1.422490   -7.216130    5.100570
  C      2.826820   -7.135890    5.209700
  C      3.395100   -6.261570    4.331760
  C      2.469030   -5.596890    3.486280
  S      0.843700   -6.124310    3.862490
  C      2.767010   -4.691100    2.498600
  C      1.852940   -4.024490    1.666630
  C      2.194650   -3.152100    0.623630
  C      3.533290   -2.887290    0.308020
  N      4.644240   -2.707280    0.082530
  C      1.061010   -2.618200   -0.034940
  C     -0.120290   -3.096040    0.526860
  S      0.113220   -4.189650    1.832920
  S     -1.577990   -2.505000   -0.202800
  C     -0.596570   -1.593100   -1.298400
  C      0.778790   -1.735560   -1.119170
  C      1.499500   -0.991220   -2.085020
  C      2.895120   -0.854800   -2.137140
  N      4.028930   -0.700750   -2.215920
  C      0.664360   -0.312170   -2.967810
  S     -1.024390   -0.544630   -2.586340
  C      1.011990    0.543220   -4.048550
  C      2.105670    0.514430   -4.849380
  C      2.445750    1.739960   -5.639560
  O      1.727120    2.691360   -5.827910
  C      3.841310    1.542860   -6.069500
  C      4.678830    2.421350   -6.695830
  C      6.004100    2.022110   -6.977910
  C      6.440930    0.720020   -6.594120
  C      7.768580    0.334130   -6.868460
  C      8.620660    1.197410   -7.497960
  C      8.187050    2.483880   -7.878900
  C      6.906810    2.888970   -7.624690
  F      9.044210    3.308920   -8.493830
  F      9.880300    0.829010   -7.761390
  C      5.550400   -0.169940   -5.952290
  C      4.265600    0.233010   -5.704510
  C      3.145690   -0.468160   -5.087080
  C      3.027760   -1.827370   -4.989230
  C      1.862820   -2.487940   -4.553240
  N      0.928980   -3.065160   -4.217480
  C      4.033470   -2.732330   -5.392890
  N      4.806210   -3.512590   -5.723600
  H    -13.869800   -7.565200   -3.216980
  H     -9.482870   -5.898390   -4.809520
  H    -12.889910   -8.163350   -1.066620
  H     -8.453850   -6.489850   -2.612520
  H     -9.213540   -9.212250    2.977030
  H     -4.640670   -4.236660    2.053020
  H     -3.442320   -7.571910    5.015180
  H     -4.880910  -10.054830    6.113960
  H     -2.930060  -10.519650    7.379670
  H     -0.480950  -10.338040    7.961230
  H      1.686100   -9.168080    7.209350
  H      3.376880   -7.727820    5.919030
  H      4.450910   -6.070710    4.257840
  H      3.811740   -4.464690    2.326550
  H      0.326840    1.365410   -4.236930
  H      4.336410    3.407870   -6.968970
  H      8.115150   -0.647330   -6.585130
  H      6.591110    3.876900   -7.921450
  H      5.908040   -1.142400   -5.654630

 Total Charge           Charge          ....    0
 Multiplicity           Mult            ....    1
 Number of Electrons    NEL             ....  598
 Basis Dimension        Dim             .... 1257

ORBITAL ENERGIES
----------------

  NO   OCC          E(Eh)            E(eV)
   0   2.0000     -88.999282     -2421.7936
   1   2.0000     -88.998899     -2421.7832
   2   2.0000     -88.993865     -2421.6462
   3   2.0000     -88.975458     -2421.1453
   4   2.0000     -88.973820     -2421.1007
   5   2.0000     -88.969942     -2420.9952
   6   2.0000     -88.968202     -2420.9479
   7   2.0000     -24.799103      -674.8179
   8   2.0000     -24.797993      -674.7877
   9   2.0000     -24.793664      -674.6699
  10   2.0000     -24.792084      -674.6269
  11   2.0000     -19.225698      -523.1578
  12   2.0000     -19.210672      -522.7490
  13   2.0000     -14.424391      -392.5076
  14   2.0000     -14.423895      -392.4941
  15   2.0000     -14.422907      -392.4673
  16   2.0000     -14.419033      -392.3618
  17   2.0000     -14.410170      -392.1207
  18   2.0000     -14.409668      -392.1070
  19   2.0000     -14.408400      -392.0725
  20   2.0000     -10.382352      -282.5182
  21   2.0000     -10.381698      -282.5004
  22   2.0000     -10.376311      -282.3538
  23   2.0000     -10.376037      -282.3463
  24   2.0000     -10.374937      -282.3164
  25   2.0000     -10.358877      -281.8794
  26   2.0000     -10.352974      -281.7187
  27   2.0000     -10.350871      -281.6615
  28   2.0000     -10.348476      -281.5963
  29   2.0000     -10.347550      -281.5711
  30   2.0000     -10.346107      -281.5319
  31   2.0000     -10.342917      -281.4451
  32   2.0000     -10.342819      -281.4424
  33   2.0000     -10.342264      -281.4273
  34   2.0000     -10.336381      -281.2672
  35   2.0000     -10.334944      -281.2281
  36   2.0000     -10.334128      -281.2059
  37   2.0000     -10.334029      -281.2032
  38   2.0000     -10.333671      -281.1935
  39   2.0000     -10.332905      -281.1726
  40   2.0000     -10.331982      -281.1475
  41   2.0000     -10.330601      -281.1099
  42   2.0000     -10.327959      -281.0380
  43   2.0000     -10.325231      -280.9638
  44   2.0000     -10.325048      -280.9588
  45   2.0000     -10.322320      -280.8846
  46   2.0000     -10.321922      -280.8738
  47   2.0000     -10.320973      -280.8479
  48   2.0000     -10.320748      -280.8418
  49   2.0000     -10.319508      -280.8081
  50   2.0000     -10.318361      -280.7769
  51   2.0000     -10.318251      -280.7739
  52   2.0000     -10.315013      -280.6858
  53   2.0000     -10.313432      -280.6427
  54   2.0000     -10.312170      -280.6084
  55   2.0000     -10.311937      -280.6021
  56   2.0000     -10.311896      -280.6010
  57   2.0000     -10.310076      -280.5514
  58   2.0000     -10.309942      -280.5478
  59   2.0000     -10.309595      -280.5383
  60   2.0000     -10.309164      -280.5266
  61   2.0000     -10.308404      -280.5059
  62   2.0000     -10.308363      -280.5048
  63   2.0000     -10.306020      -280.4411
  64   2.0000     -10.305222      -280.4193
  65   2.0000     -10.304324      -280.3949
  66   2.0000     -10.303840      -280.3817
  67   2.0000     -10.303558      -280.3741
  68   2.0000     -10.302227      -280.3379
  69   2.0000     -10.302208      -280.3373
  70   2.0000     -10.300716      -280.2967
  71   2.0000     -10.300164      -280.2817
  72   2.0000     -10.298487      -280.2361
  73   2.0000     -10.297648      -280.2132
  74   2.0000     -10.295961      -280.1673
  75   2.0000     -10.295890      -280.1654
  76   2.0000     -10.295282      -280.1489
  77   2.0000     -10.295247      -280.1479
  78   2.0000     -10.295140      -280.1450
  79   2.0000     -10.291136      -280.0361
  80   2.0000     -10.286238      -279.9028
  81   2.0000      -8.094642      -220.2664
  82   2.0000      -8.093932      -220.2471
  83   2.0000      -8.088697      -220.1046
  84   2.0000      -8.070649      -219.6135
  85   2.0000      -8.068606      -219.5579
  86   2.0000      -8.066339      -219.4963
  87   2.0000      -8.064082      -219.4348
  88   2.0000      -6.064190      -165.0150
  89   2.0000      -6.063879      -165.0065
  90   2.0000      -6.059924      -164.8989
  91   2.0000      -6.059679      -164.8923
  92   2.0000      -6.058294      -164.8546
  93   2.0000      -6.056291      -164.8000
  94   2.0000      -6.054798      -164.7594
  95   2.0000      -6.053964      -164.7367
  96   2.0000      -6.050326      -164.6377
  97   2.0000      -6.040008      -164.3570
  98   2.0000      -6.038008      -164.3025
  99   2.0000      -6.036099      -164.2506
 100   2.0000      -6.036030      -164.2487
 101   2.0000      -6.033727      -164.1861
 102   2.0000      -6.033589      -164.1823
 103   2.0000      -6.032446      -164.1512
 104   2.0000      -6.031891      -164.1361
 105   2.0000      -6.030658      -164.1026
 106   2.0000      -6.029561      -164.0727
 107   2.0000      -6.027264      -164.0102
 108   2.0000      -6.025278      -163.9561
 109   2.0000      -1.321751       -35.9667
 110   2.0000      -1.315383       -35.7934
 111   2.0000      -1.306825       -35.5605
 112   2.0000      -1.300530       -35.3892
 113   2.0000      -1.141560       -31.0634
 114   2.0000      -1.125674       -30.6312
 115   2.0000      -1.079690       -29.3799
 116   2.0000      -1.053523       -28.6678
 117   2.0000      -1.028876       -27.9971
 118   2.0000      -1.021625       -27.7998
 119   2.0000      -1.016368       -27.6568
 120   2.0000      -1.013334       -27.5742
 121   2.0000      -1.008185       -27.4341
 122   2.0000      -1.004994       -27.3473
 123   2.0000      -0.999202       -27.1897
 124   2.0000      -0.998254       -27.1639
 125   2.0000      -0.996442       -27.1146
 126   2.0000      -0.991980       -26.9932
 127   2.0000      -0.989954       -26.9380
 128   2.0000      -0.987914       -26.8825
 129   2.0000      -0.985149       -26.8073
 130   2.0000      -0.974738       -26.5240
 131   2.0000      -0.962446       -26.1895
 132   2.0000      -0.936782       -25.4911
 133   2.0000      -0.934991       -25.4424
 134   2.0000      -0.924489       -25.1566
 135   2.0000      -0.916071       -24.9276
 136   2.0000      -0.912657       -24.8347
 137   2.0000      -0.907805       -24.7026
 138   2.0000      -0.898473       -24.4487
 139   2.0000      -0.897433       -24.4204
 140   2.0000      -0.894446       -24.3391
 141   2.0000      -0.887236       -24.1429
 142   2.0000      -0.886320       -24.1180
 143   2.0000      -0.878017       -23.8920
 144   2.0000      -0.876678       -23.8556
 145   2.0000      -0.872536       -23.7429
 146   2.0000      -0.858240       -23.3539
 147   2.0000      -0.845018       -22.9941
 148   2.0000      -0.842860       -22.9354
 149   2.0000      -0.840013       -22.8579
 150   2.0000      -0.835438       -22.7334
 151   2.0000      -0.834351       -22.7038
 152   2.0000      -0.831380       -22.6230
 153   2.0000      -0.817918       -22.2567
 154   2.0000      -0.806075       -21.9344
 155   2.0000      -0.793842       -21.6015
 156   2.0000      -0.777247       -21.1500
 157   2.0000      -0.770691       -20.9716
 158   2.0000      -0.761001       -20.7079
 159   2.0000      -0.757283       -20.6067
 160   2.0000      -0.745633       -20.2897
 161   2.0000      -0.735127       -20.0038
 162   2.0000      -0.726895       -19.7798
 163   2.0000      -0.722370       -19.6567
 164   2.0000      -0.720337       -19.6014
 165   2.0000      -0.713582       -19.4176
 166   2.0000      -0.711412       -19.3585
 167   2.0000      -0.705639       -19.2014
 168   2.0000      -0.702649       -19.1201
 169   2.0000      -0.701108       -19.0781
 170   2.0000      -0.689273       -18.7561
 171   2.0000      -0.687713       -18.7136
 172   2.0000      -0.679573       -18.4921
 173   2.0000      -0.676685       -18.4135
 174   2.0000      -0.672482       -18.2992
 175   2.0000      -0.661628       -18.0038
 176   2.0000      -0.659030       -17.9331
 177   2.0000      -0.654939       -17.8218
 178   2.0000      -0.652807       -17.7638
 179   2.0000      -0.650203       -17.6929
 180   2.0000      -0.646607       -17.5951
 181   2.0000      -0.644974       -17.5506
 182   2.0000      -0.641751       -17.4629
 183   2.0000      -0.635977       -17.3058
 184   2.0000      -0.629399       -17.1268
 185   2.0000      -0.625200       -17.0126
 186   2.0000      -0.620205       -16.8766
 187   2.0000      -0.614973       -16.7343
 188   2.0000      -0.610231       -16.6052
 189   2.0000      -0.604102       -16.4384
 190   2.0000      -0.599949       -16.3254
 191   2.0000      -0.592284       -16.1169
 192   2.0000      -0.588181       -16.0052
 193   2.0000      -0.586106       -15.9487
 194   2.0000      -0.583641       -15.8817
 195   2.0000      -0.582380       -15.8474
 196   2.0000      -0.580184       -15.7876
 197   2.0000      -0.573636       -15.6094
 198   2.0000      -0.570984       -15.5373
 199   2.0000      -0.569063       -15.4850
 200   2.0000      -0.561103       -15.2684
 201   2.0000      -0.555647       -15.1199
 202   2.0000      -0.554142       -15.0790
 203   2.0000      -0.550027       -14.9670
 204   2.0000      -0.548806       -14.9338
 205   2.0000      -0.547689       -14.9034
 206   2.0000      -0.547010       -14.8849
 207   2.0000      -0.544285       -14.8107
 208   2.0000      -0.542571       -14.7641
 209   2.0000      -0.541935       -14.7468
 210   2.0000      -0.541808       -14.7433
 211   2.0000      -0.539582       -14.6828
 212   2.0000      -0.534704       -14.5500
 213   2.0000      -0.533246       -14.5104
 214   2.0000      -0.532128       -14.4799
 215   2.0000      -0.530980       -14.4487
 216   2.0000      -0.527686       -14.3591
 217   2.0000      -0.526675       -14.3316
 218   2.0000      -0.525201       -14.2914
 219   2.0000      -0.523327       -14.2405
 220   2.0000      -0.520252       -14.1568
 221   2.0000      -0.519807       -14.1447
 222   2.0000      -0.516341       -14.0504
 223   2.0000      -0.515067       -14.0157
 224   2.0000      -0.513111       -13.9625
 225   2.0000      -0.510868       -13.9014
 226   2.0000      -0.507288       -13.8040
 227   2.0000      -0.505450       -13.7540
 228   2.0000      -0.503343       -13.6966
 229   2.0000      -0.498191       -13.5565
 230   2.0000      -0.495551       -13.4846
 231   2.0000      -0.494985       -13.4692
 232   2.0000      -0.490700       -13.3526
 233   2.0000      -0.490375       -13.3438
 234   2.0000      -0.489185       -13.3114
 235   2.0000      -0.487729       -13.2718
 236   2.0000      -0.484652       -13.1880
 237   2.0000      -0.482297       -13.1240
 238   2.0000      -0.478634       -13.0243
 239   2.0000      -0.473599       -12.8873
 240   2.0000      -0.471239       -12.8231
 241   2.0000      -0.468798       -12.7566
 242   2.0000      -0.466828       -12.7030
 243   2.0000      -0.465196       -12.6586
 244   2.0000      -0.464497       -12.6396
 245   2.0000      -0.461850       -12.5676
 246   2.0000      -0.458466       -12.4755
 247   2.0000      -0.456577       -12.4241
 248   2.0000      -0.456236       -12.4148
 249   2.0000      -0.451361       -12.2821
 250   2.0000      -0.450647       -12.2627
 251   2.0000      -0.449303       -12.2262
 252   2.0000      -0.446657       -12.1542
 253   2.0000      -0.444379       -12.0922
 254   2.0000      -0.442301       -12.0356
 255   2.0000      -0.441822       -12.0226
 256   2.0000      -0.440582       -11.9888
 257   2.0000      -0.440161       -11.9774
 258   2.0000      -0.438806       -11.9405
 259   2.0000      -0.438392       -11.9293
 260   2.0000      -0.437157       -11.8956
 261   2.0000      -0.433940       -11.8081
 262   2.0000      -0.433411       -11.7937
 263   2.0000      -0.431714       -11.7475
 264   2.0000      -0.428380       -11.6568
 265   2.0000      -0.426393       -11.6027
 266   2.0000      -0.424526       -11.5519
 267   2.0000      -0.422788       -11.5047
 268   2.0000      -0.420591       -11.4449
 269   2.0000      -0.417391       -11.3578
 270   2.0000      -0.415570       -11.3082
 271   2.0000      -0.409667       -11.1476
 272   2.0000      -0.408310       -11.1107
 273   2.0000      -0.403109       -10.9692
 274   2.0000      -0.400709       -10.9038
 275   2.0000      -0.395326       -10.7574
 276   2.0000      -0.389033       -10.5861
 277   2.0000      -0.386904       -10.5282
 278   2.0000      -0.386341       -10.5129
 279   2.0000      -0.378596       -10.3021
 280   2.0000      -0.372564       -10.1380
 281   2.0000      -0.362230        -9.8568
 282   2.0000      -0.361741        -9.8435
 283   2.0000      -0.356766        -9.7081
 284   2.0000      -0.351313        -9.5597
 285   2.0000      -0.346201        -9.4206
 286   2.0000      -0.342772        -9.3273
 287   2.0000      -0.338350        -9.2070
 288   2.0000      -0.327824        -8.9205
 289   2.0000      -0.326432        -8.8827
 290   2.0000      -0.323135        -8.7929
 291   2.0000      -0.318616        -8.6700
 292   2.0000      -0.309329        -8.4173
 293   2.0000      -0.305697        -8.3184
 294   2.0000      -0.303399        -8.2559
 295   2.0000      -0.294407        -8.0112
 296   2.0000      -0.293674        -7.9913
 297   2.0000      -0.269844        -7.3428
 298   2.0000      -0.228383        -6.2146
 299   0.0000      -0.121146        -3.2965
 300   0.0000      -0.103460        -2.8153
 301   0.0000      -0.083395        -2.2693
 302   0.0000      -0.062882        -1.7111
 303   0.0000      -0.059407        -1.6165

MULLIKEN ATOMIC CHARGES
-----------------------
   0 C :   -0.110197
   1 C :    0.240599
   2 F :   -0.174299
   3 C :    0.238130
   4 F :   -0.174454
   5 C :   -0.108486
   6 C :    0.121390
   7 C :    0.115680
   8 C :   -0.091317
   9 C :    0.050851
  10 C :    0.006185
  11 C :   -0.092445
  12 C :    0.125537
  13 O :   -0.180906
  14 C :   -0.104017
  15 C :    0.322852
  16 C :   -0.361894
  17 C :   -0.200879
  18 N :    0.154114
  19 C :   -0.179159
  20 N :    0.138769
  21 C :    0.025435
  22 C :   -0.198024
  23 S :    0.154317
  24 C :    0.045859
  25 S :    0.174760
  26 C :    0.007985
  27 N :   -0.054991
  28 C :    0.037007
  29 C :   -0.080830
  30 C :   -0.047561
  31 C :    0.025601
  32 C :    0.003777
  33 C :   -0.019193
  34 C :    0.035938
  35 C :    0.036377
  36 C :   -0.037582
  37 S :    0.076286
  38 C :   -0.021956
  39 C :    0.038838
  40 C :    0.038888
  41 C :   -0.030239
  42 S :    0.064162
  43 C :   -0.029661
  44 C :   -0.074222
  45 C :   -0.024365
  46 C :   -0.326076
  47 N :    0.202942
  48 C :    0.175047
  49 C :   -0.223273
  50 S :    0.154070
  51 S :    0.196935
  52 C :   -0.208550
  53 C :    0.140791
  54 C :    0.010879
  55 C :   -0.331722
  56 N :    0.235720
  57 C :   -0.138617
  58 S :    0.204542
  59 C :    0.042965
  60 C :   -0.114517
  61 C :    0.132765
  62 O :   -0.133795
  63 C :    0.021621
  64 C :   -0.083271
  65 C :    0.114685
  66 C :    0.109812
  67 C :   -0.103340
  68 C :    0.242239
  69 C :    0.238769
  70 C :   -0.101986
  71 F :   -0.171158
  72 F :   -0.169219
  73 C :   -0.067798
  74 C :    0.037225
  75 C :    0.273666
  76 C :   -0.307506
  77 C :   -0.188031
  78 N :    0.164484
  79 C :   -0.180627
  80 N :    0.165931
  81 H :    0.005491
  82 H :   -0.004285
  83 H :   -0.008273
  84 H :   -0.016832
  85 H :    0.017692
  86 H :    0.032427
  87 H :    0.028619
  88 H :    0.002867
  89 H :   -0.005404
  90 H :   -0.002067
  91 H :   -0.005615
  92 H :   -0.003700
  93 H :    0.004637
  94 H :    0.020178
  95 H :    0.032114
  96 H :   -0.008730
  97 H :    0.008516
  98 H :   -0.000920
  99 H :    0.005023
Sum of atomic charges:   -0.0000000

LOEWDIN ATOMIC CHARGES
----------------------
   0 C :   -0.029414
   1 C :    0.064287
   2 F :   -0.051748
   3 C :    0.066078
   4 F :   -0.052169
   5 C :   -0.035143
   6 C :   -0.009326
   7 C :   -0.008794
   8 C :    0.015790
   9 C :   -0.022287
  10 C :   -0.048122
  11 C :    0.022062
  12 C :    0.063569
  13 O :   -0.176232
  14 C :   -0.112843
  15 C :    0.075965
  16 C :   -0.147951
  17 C :   -0.023472
  18 N :   -0.057907
  19 C :   -0.017428
  20 N :   -0.060961
  21 C :    0.034797
  22 C :   -0.190153
  23 S :    0.453403
  24 C :   -0.172677
  25 S :    0.468911
  26 C :   -0.108819
  27 N :   -0.091433
  28 C :   -0.073700
  29 C :   -0.131238
  30 C :   -0.056168
  31 C :   -0.008923
  32 C :   -0.059487
  33 C :   -0.131160
  34 C :   -0.025755
  35 C :   -0.028742
  36 C :   -0.176299
  37 S :    0.419327
  38 C :   -0.164679
  39 C :   -0.028845
  40 C :   -0.018497
  41 C :   -0.143953
  42 S :    0.380704
  43 C :   -0.063048
  44 C :   -0.131464
  45 C :   -0.100390
  46 C :   -0.042230
  47 N :   -0.038715
  48 C :   -0.057262
  49 C :   -0.333394
  50 S :    0.452017
  51 S :    0.431921
  52 C :   -0.317216
  53 C :   -0.056635
  54 C :   -0.077151
  55 C :   -0.032497
  56 N :   -0.023792
  57 C :   -0.146052
  58 S :    0.480925
  59 C :    0.030694
  60 C :   -0.064931
  61 C :    0.086826
  62 O :   -0.133688
  63 C :   -0.055581
  64 C :    0.033174
  65 C :   -0.008487
  66 C :   -0.003124
  67 C :   -0.027566
  68 C :    0.068163
  69 C :    0.067814
  70 C :   -0.032498
  71 F :   -0.048464
  72 F :   -0.047174
  73 C :    0.024620
  74 C :   -0.015142
  75 C :    0.070392
  76 C :   -0.120844
  77 C :   -0.015310
  78 N :   -0.044992
  79 C :   -0.015850
  80 N :   -0.041154
  81 H :    0.046964
  82 H :    0.043337
  83 H :    0.039232
  84 H :    0.037555
  85 H :    0.043904
  86 H :    0.016378
  87 H :    0.021798
  88 H :    0.031854
  89 H :    0.038314
  90 H :    0.037165
  91 H :    0.035441
  92 H :    0.036796
  93 H :    0.040281
  94 H :    0.051909
  95 H :    0.049213
  96 H :    0.040895
  97 H :    0.048601
  98 H :    0.044787
  99 H :    0.043107

  Mayer bond orders larger than 0.100000
B(  0-C ,  1-C ) :   1.4372 B(  0-C ,  5-C ) :   0.1089 B(  0-C ,  7-C ) :   1.1914
B(  0-C , 81-H ) :   1.0070 B(  1-C ,  2-F ) :   1.1309 B(  1-C ,  3-C ) :   1.1963
B(  3-C ,  4-F ) :   1.1310 B(  3-C ,  5-C ) :   1.4393 B(  5-C ,  6-C ) :   1.1944
B(  5-C , 82-H ) :   1.0073 B(  6-C ,  7-C ) :   1.2614 B(  6-C , 11-C ) :   1.1797
B(  7-C ,  8-C ) :   1.2073 B(  8-C ,  9-C ) :   1.4582 B(  8-C , 83-H ) :   0.9903
B(  9-C , 10-C ) :   1.2218 B(  9-C , 15-C ) :   0.9761 B( 10-C , 11-C ) :   1.4775
B( 10-C , 12-C ) :   0.9319 B( 11-C , 84-H ) :   1.0167 B( 12-C , 13-O ) :   2.1490
B( 12-C , 14-C ) :   0.9999 B( 14-C , 15-C ) :   1.1047 B( 14-C , 21-C ) :   1.4668
B( 15-C , 16-C ) :   1.6129 B( 16-C , 17-C ) :   1.1457 B( 16-C , 19-C ) :   1.1501
B( 17-C , 18-N ) :   2.9791 B( 19-C , 20-N ) :   2.9573 B( 21-C , 22-C ) :   1.3170
B( 21-C , 85-H ) :   0.9247 B( 22-C , 23-S ) :   1.0813 B( 22-C , 24-C ) :   1.3762
B( 23-S , 29-C ) :   1.1306 B( 24-C , 25-S ) :   1.1156 B( 24-C , 28-C ) :   1.2891
B( 25-S , 26-C ) :   1.1110 B( 26-C , 27-N ) :   1.7506 B( 26-C , 86-H ) :   0.9633
B( 27-N , 28-C ) :   1.3265 B( 28-C , 29-C ) :   1.3196 B( 29-C , 30-C ) :   1.2975
B( 30-C , 31-C ) :   1.4877 B( 30-C , 87-H ) :   0.9405 B( 31-C , 32-C ) :   1.2676
B( 31-C , 88-H ) :   0.9701 B( 32-C , 33-C ) :   1.5026 B( 32-C , 89-H ) :   0.9648
B( 33-C , 34-C ) :   1.1718 B( 33-C , 37-S ) :   1.0639 B( 34-C , 35-C ) :   1.5658
B( 34-C , 90-H ) :   0.9995 B( 35-C , 36-C ) :   1.2024 B( 35-C , 91-H ) :   0.9948
B( 36-C , 37-S ) :   1.0476 B( 36-C , 38-C ) :   1.4845 B( 38-C , 39-C ) :   1.1931
B( 38-C , 42-S ) :   1.0528 B( 39-C , 40-C ) :   1.5840 B( 39-C , 92-H ) :   0.9942
B( 40-C , 41-C ) :   1.1466 B( 40-C , 93-H ) :   0.9999 B( 41-C , 42-S ) :   1.0417
B( 41-C , 43-C ) :   1.5476 B( 43-C , 44-C ) :   1.2274 B( 43-C , 94-H ) :   0.9628
B( 44-C , 45-C ) :   1.4369 B( 44-C , 50-S ) :   1.0997 B( 45-C , 46-C ) :   1.1930
B( 45-C , 48-C ) :   1.2767 B( 46-C , 47-N ) :   2.9754 B( 48-C , 49-C ) :   1.3967
B( 48-C , 53-C ) :   1.0574 B( 49-C , 50-S ) :   1.0992 B( 49-C , 51-S ) :   1.0799
B( 51-S , 52-C ) :   1.0918 B( 52-C , 53-C ) :   1.3955 B( 52-C , 58-S ) :   1.1074
B( 53-C , 54-C ) :   1.2889 B( 54-C , 55-C ) :   1.1944 B( 54-C , 57-C ) :   1.4661
B( 55-C , 56-N ) :   2.9585 B( 57-C , 58-S ) :   1.1354 B( 57-C , 59-C ) :   1.0943
B( 59-C , 60-C ) :   1.7303 B( 59-C , 95-H ) :   0.9242 B( 60-C , 61-C ) :   0.9285
B( 60-C , 75-C ) :   1.0170 B( 61-C , 62-O ) :   2.2776 B( 61-C , 63-C ) :   0.9240
B( 63-C , 64-C ) :   1.4642 B( 63-C , 74-C ) :   1.2214 B( 64-C , 65-C ) :   1.1991
B( 64-C , 96-H ) :   1.0163 B( 65-C , 66-C ) :   1.2561 B( 65-C , 70-C ) :   1.1910
B( 66-C , 67-C ) :   1.1891 B( 66-C , 73-C ) :   1.2177 B( 67-C , 68-C ) :   1.4424
B( 67-C , 70-C ) :   0.1084 B( 67-C , 97-H ) :   1.0069 B( 68-C , 69-C ) :   1.1903
B( 68-C , 72-F ) :   1.1361 B( 69-C , 70-C ) :   1.4457 B( 69-C , 71-F ) :   1.1338
B( 70-C , 98-H ) :   1.0062 B( 73-C , 74-C ) :   1.4590 B( 73-C , 99-H ) :   0.9930
B( 74-C , 75-C ) :   1.0001 B( 75-C , 76-C ) :   1.6636 B( 76-C , 77-C ) :   1.1692
B( 76-C , 79-C ) :   1.1375 B( 77-C , 78-N ) :   2.9933 B( 79-C , 80-N ) :   2.9952

-----------------------------------------------------------------------------
         ABSORPTION SPECTRUM VIA TRANSITION ELECTRIC DIPOLE MOMENTS
-----------------------------------------------------------------------------
State   Energy  Wavelength   fosc         T2         TX        TY        TZ
        (cm-1)    (nm)                  (au**2)     (au)      (au)      (au)
-----------------------------------------------------------------------------
   0    9886.2   1011.5   1.009545693  33.61805  -5.44630  -1.98878   0.02545
   1   16786.0    595.7   0.026872649   0.52703   0.23430  -0.29275   0.62164
   2   17730.7    564.0   0.012815150   0.23794  -0.35054  -0.24322   0.23646
   3   19524.5    512.2   1.339193606  22.58076   1.94623  -1.88822   3.90225
   4   23284.9    429.5   0.524912783   7.42144   0.44235   1.20994  -2.40038
   5   23685.9    422.2   0.193109594   2.68404  -1.14409  -0.07952   1.16995
   6   25055.5    399.1   0.202228052   2.65714  -0.51709   1.05003  -1.13455
   7   25408.5    393.6   0.019733455   0.25568  -0.35431  -0.32085   0.16494
   8   25683.9    389.3   0.046587563   0.59715  -0.16625  -0.58353   0.47854
   9   25706.6    389.0   0.032332776   0.41407   0.36836  -0.07705   0.52196
  10   26164.0    382.2   0.189579984   2.38542  -0.35289   0.75037  -1.30301
  11   26277.6    380.6   0.076310337   0.95604   0.92834   0.25623  -0.16904
  12   27127.9    368.6   0.008044798   0.09763  -0.06902   0.28761  -0.10071
  13   27411.4    364.8   0.077828697   0.93473   0.11795   0.83900  -0.46572
  14   27575.7    362.6   0.106548030   1.27202  -0.68727   0.89413   0.01413
  15   27826.0    359.4   0.019422295   0.22979  -0.13635  -0.44037   0.13141
  16   28006.9    357.1   0.001320848   0.01553   0.08680   0.02099   0.08690
  17   28991.8    344.9   0.159113027   1.80679  -0.21526  -1.14882   0.66383
  18   29271.2    341.6   0.021764367   0.24478  -0.46249  -0.07062   0.16093
  19   29604.1    337.8   0.006450152   0.07173   0.17402  -0.14765   0.14017
  20   30532.6    327.5   0.013185584   0.14217  -0.28376  -0.20798  -0.13563
  21   30929.1    323.3   0.000417011   0.00444   0.03825   0.04596  -0.02938
  22   31471.9    317.7   0.180602698   1.88919  -0.10313  -0.48649   1.28136
  23   31635.1    316.1   0.006645525   0.06916  -0.01448   0.02787   0.26109
  24   31713.1    315.3   0.002617231   0.02717  -0.08940  -0.12146  -0.06653
  25   31947.4    313.0   0.033236291   0.34249   0.14982  -0.15786  -0.54326
  26   32208.8    310.5   0.000847061   0.00866  -0.01936   0.08573  -0.03055
  27   32738.4    305.5   0.026597923   0.26746   0.48288   0.10679  -0.15130
  28   33069.1    302.4   0.247604550   2.46497   0.97987   1.02590  -0.67257
  29   33138.8    301.8   0.129239887   1.28391  -0.25612  -0.45710   1.00468
  30   33279.0    300.5   0.209889767   2.07633  -0.04780   0.54704  -1.33221
  31   33544.5    298.1   0.725764541   7.12279  -1.87149  -1.56151   1.08719
  32   33694.0    296.8   0.011556782   0.11292  -0.09112  -0.32055  -0.04314
  33   33921.5    294.8   0.066475167   0.64515   0.48868   0.60413   0.20341
  34   34073.0    293.5   0.010665074   0.10305   0.18133   0.23716  -0.11800
  35   34439.5    290.4   0.034555861   0.33032  -0.46161  -0.23897  -0.24522
  36   34667.5    288.5   0.013538403   0.12856   0.23017   0.16983  -0.21621
  37   34975.8    285.9   0.082130162   0.77306   0.46359  -0.31490   0.67748
  38   35223.9    283.9   0.018591883   0.17376  -0.38522   0.13385   0.08635
  39   35310.5    283.2   0.221685086   2.06685  -0.49439  -0.70005   1.15427
  40   35484.0    281.8   0.019797789   0.18368  -0.23630  -0.15658  -0.32144
  41   35593.3    281.0   0.008646852   0.07998  -0.25350   0.06964   0.10423
  42   35825.4    279.1   0.023734562   0.21811   0.42591  -0.04606  -0.18596
  43   35902.9    278.5   0.033580290   0.30791  -0.29237  -0.36053   0.30406
  44   36115.1    276.9   0.015742237   0.14350   0.10507  -0.04094  -0.36164
  45   36157.0    276.6   0.103919666   0.94619  -0.80999  -0.18918  -0.50430
  46   36315.9    275.4   0.061781619   0.56006   0.62028   0.18343  -0.37639
  47   36654.6    272.8   0.061161353   0.54932   0.57754   0.30776  -0.34792
  48   36729.0    272.3   0.182646571   1.63711   1.02492   0.47955  -0.59723
  49   37233.3    268.6   0.252210253   2.23001  -1.06389  -0.71874   0.76261
  50   37528.1    266.5   0.006559926   0.05755   0.14336   0.13507  -0.13693
  51   39104.8    255.7   0.028817842   0.24261  -0.10201  -0.34912   0.33214
  52   39219.8    255.0   0.083862669   0.70395  -0.47278   0.66542   0.19399
  53   39473.0    253.3   0.073559702   0.61350  -0.43848   0.23916  -0.60335
  54   39613.9    252.4   0.089084898   0.74034  -0.59264  -0.42251  -0.45892
  55   39640.5    252.3   0.097409363   0.80898   0.85548  -0.23615   0.14617
  56   39948.9    250.3   0.140862256   1.16082   0.78868  -0.59140  -0.43480
  57   40202.8    248.7   0.104377716   0.85473   0.91144   0.13387  -0.07796

FINAL SINGLE POINT ENERGY     -6051.275784645817

DIPOLE MOMENT
-------------
                                X             Y             Z
Electronic contribution:     -2.85919      24.73336     -40.69428
Nuclear contribution   :      5.16235     -24.13972      42.91227
                        -----------------------------------------
Total Dipole Moment    :      2.30316       0.59363       2.21799
                        -----------------------------------------
Magnitude (a.u.)       :      3.25214
Magnitude (Debye)      :      8.26628

Rotational constants in cm-1:     0.000729     0.000252     0.000194
Rotational constants in MHz :    21.865167     7.557785     5.804140

                             ****ORCA TERMINATED NORMALLY****
TOTAL RUN TIME: 0 days 0 hours 26 minutes 13 seconds 40 msec
