                         Program Version 4.2.0 -  RELEASE  -
|  1> # ORCA input file
|  2> # SCF done       -204.746229606067          0.000736201694
|  3> ! CAM-B3LYP def2-SVP def2/J RIJCOSX Grid4 TightSCF
|  4> %maxcore 5000
|  5> %tddft
|  6>     Mode sTDDFT
|  7>     Ethresh 5.0
|  8>     maxcore 5000
|  9> end
| 10>
| 11> %pal
| 12>   nprocs 6
| 13>   end
| 14> * xyz 0 1
| 15>    C      -21.87053       -12.39906         9.81295
| 16>    C      -22.39223       -13.21936        10.77377
| 17>    F      -23.57390       -13.82247        10.57560
| 18>    C      -21.69992       -13.44160        11.97969
| 19>    F      -22.23555       -14.25151        12.90565
| 20>    C      -20.49411       -12.84006        12.20897
| 21>    C      -19.93110       -11.98909        11.23892
| 22>    C      -20.63009       -11.76342        10.01866
| 23>    C      -20.08504       -10.91008         9.03039
| 24>    C      -18.88027       -10.30115         9.25748
| 25>    C      -18.19000       -10.53256        10.47938
| 26>    C      -18.68791       -11.35058        11.45029
| 27>    C      -16.92930        -9.76013        10.47952
| 28>    O      -16.09878        -9.74192        11.36684
| 29>    C      -16.90787        -9.03514         9.19405
| 30>    C      -18.08689        -9.37737         8.44504
| 31>    C      -18.43871        -8.93161         7.19022
| 32>    C      -17.69452        -8.04014         6.39344
| 33>    N      -17.15537        -7.31811         5.67923
| 34>    C      -19.61574        -9.31466         6.51841
| 35>    N      -20.55430        -9.58498         5.91327
| 36>    C      -15.90854        -8.16076         8.80698
| 37>    C      -14.79952        -7.82953         9.57406
| 38>    C      -13.83836        -6.92506         9.15674
| 39>    C      -12.70732        -6.50252         9.88592
| 40>    C      -11.94343        -5.57224         9.23792
| 41>    C      -12.43999        -5.21982         7.96703
| 42>    S      -13.89463        -6.11789         7.60552
| 43>    C      -11.93245        -4.26044         7.10072
| 44>    C      -10.84988        -3.38761         7.33234
| 45>    C      -10.65820        -2.46481         6.34688
| 46>    C      -11.56796        -2.58369         5.27149
| 47>    S      -12.67025        -3.92506         5.55395
| 48>    C      -11.61725        -1.74359         4.18940
| 49>    N      -12.44067        -1.85331         3.12980
| 50>    C      -12.58960        -0.89721         2.18666
| 51>    S      -11.85719         0.66581         2.36404
| 52>    C      -12.60770         1.29867         0.90989
| 53>    C      -13.35440         0.26762         0.28610
| 54>    C      -13.36070        -0.96243         1.01742
| 55>    N      -14.05083        -2.03533         0.59799
| 56>    C      -14.70606        -1.88006        -0.52907
| 57>    C      -14.69798        -0.67186        -1.25239
| 58>    N      -14.03836         0.39390        -0.85500
| 59>    C      -12.55094         2.63161         0.54035
| 60>    C      -11.99128         3.64978         1.30111
| 61>    C      -12.09761         5.04329         1.13289
| 62>    C      -11.62418         5.78096         2.19281
| 63>    C      -11.10857         4.99705         3.23436
| 64>    S      -11.16328         3.31028         2.79888
| 65>    C      -10.70420         5.28203         4.54006
| 66>    C      -10.65327         6.46658         5.28529
| 67>    C      -10.38480         6.26468         6.62022
| 68>    C      -10.21353         4.91573         6.97847
| 69>    S      -10.33256         3.91167         5.55716
| 70>    C      -10.07823         4.33948         8.24072
| 71>    C      -10.03716         2.96090         8.35708
| 72>    C      -10.14605         2.06930         9.41208
| 73>    C      -10.47578         0.68252         9.03118
| 74>    O      -10.44000         0.20072         7.91269
| 75>    C      -10.88881         0.00871        10.27463
| 76>    C      -11.40932        -1.24051        10.43832
| 77>    C      -11.76393        -1.67067        11.73633
| 78>    C      -11.56746        -0.78888        12.83716
| 79>    C      -11.91542        -1.22672        14.13003
| 80>    C      -12.43100        -2.47907        14.32037
| 81>    C      -12.62929        -3.34606        13.22909
| 82>    C      -12.30595        -2.94994        11.96160
| 83>    F      -13.13724        -4.57081        13.43804
| 84>    F      -12.75583        -2.89302        15.55357
| 85>    C      -11.03700         0.50825        12.63013
| 86>    C      -10.70297         0.90493        11.36384
| 87>    C      -10.15696         2.16540        10.84207
| 88>    C       -9.64273         3.17235        11.62798
| 89>    C       -8.94523         4.29230        11.14196
| 90>    N       -8.34367         5.21500        10.81441
| 91>    C       -9.67705         3.16859        13.03518
| 92>    N       -9.68446         3.22972        14.18264
| 93>    H      -22.41414       -12.23948         8.89483
| 94>    H      -19.97599       -13.01978        13.13795
| 95>    H      -20.64064       -10.76081         8.11893
| 96>    H      -18.14196       -11.50774        12.36811
| 97>    H      -15.99301        -7.68329         7.83822
| 98>    H      -14.67917        -8.28010        10.54873
| 99>    H      -12.49877        -6.88686        10.86841
|100>    H      -11.04141        -5.14538         9.63969
|101>    H      -10.24774        -3.44893         8.22048
|102>    H       -9.91930        -1.68626         6.37958
|103>    H      -10.95331        -0.88940         4.18335
|104>    H      -13.02037        -2.68245         3.02761
|105>    H      -15.26230        -2.73725        -0.87985
|106>    H      -15.24699        -0.57438        -2.17793
|107>    H      -13.06460         2.89126        -0.37526
|108>    H      -12.55846         5.47242         0.26064
|109>    H      -11.66934         6.85392         2.24869
|110>    H      -10.83631         7.43123         4.84582
|111>    H      -10.33103         7.05274         7.35026
|112>    H      -10.07084         4.99654         9.09509
|113>    H      -10.04155         2.42650         7.40697
|114>    H      -11.55767        -1.88922         9.58796
|115>    H      -11.77278        -0.57538        14.97812
|116>    H      -12.47193        -3.62323        11.13450
|117>    H      -10.91965         1.15555        13.48403
|118> *
|119>
|120>                          ****END OF INPUT****

CARTESIAN COORDINATES (ANGSTROEM)
---------------------------------
  C    -21.870530  -12.399060    9.812950
  C    -22.392230  -13.219360   10.773770
  F    -23.573900  -13.822470   10.575600
  C    -21.699920  -13.441600   11.979690
  F    -22.235550  -14.251510   12.905650
  C    -20.494110  -12.840060   12.208970
  C    -19.931100  -11.989090   11.238920
  C    -20.630090  -11.763420   10.018660
  C    -20.085040  -10.910080    9.030390
  C    -18.880270  -10.301150    9.257480
  C    -18.190000  -10.532560   10.479380
  C    -18.687910  -11.350580   11.450290
  C    -16.929300   -9.760130   10.479520
  O    -16.098780   -9.741920   11.366840
  C    -16.907870   -9.035140    9.194050
  C    -18.086890   -9.377370    8.445040
  C    -18.438710   -8.931610    7.190220
  C    -17.694520   -8.040140    6.393440
  N    -17.155370   -7.318110    5.679230
  C    -19.615740   -9.314660    6.518410
  N    -20.554300   -9.584980    5.913270
  C    -15.908540   -8.160760    8.806980
  C    -14.799520   -7.829530    9.574060
  C    -13.838360   -6.925060    9.156740
  C    -12.707320   -6.502520    9.885920
  C    -11.943430   -5.572240    9.237920
  C    -12.439990   -5.219820    7.967030
  S    -13.894630   -6.117890    7.605520
  C    -11.932450   -4.260440    7.100720
  C    -10.849880   -3.387610    7.332340
  C    -10.658200   -2.464810    6.346880
  C    -11.567960   -2.583690    5.271490
  S    -12.670250   -3.925060    5.553950
  C    -11.617250   -1.743590    4.189400
  N    -12.440670   -1.853310    3.129800
  C    -12.589600   -0.897210    2.186660
  S    -11.857190    0.665810    2.364040
  C    -12.607700    1.298670    0.909890
  C    -13.354400    0.267620    0.286100
  C    -13.360700   -0.962430    1.017420
  N    -14.050830   -2.035330    0.597990
  C    -14.706060   -1.880060   -0.529070
  C    -14.697980   -0.671860   -1.252390
  N    -14.038360    0.393900   -0.855000
  C    -12.550940    2.631610    0.540350
  C    -11.991280    3.649780    1.301110
  C    -12.097610    5.043290    1.132890
  C    -11.624180    5.780960    2.192810
  C    -11.108570    4.997050    3.234360
  S    -11.163280    3.310280    2.798880
  C    -10.704200    5.282030    4.540060
  C    -10.653270    6.466580    5.285290
  C    -10.384800    6.264680    6.620220
  C    -10.213530    4.915730    6.978470
  S    -10.332560    3.911670    5.557160
  C    -10.078230    4.339480    8.240720
  C    -10.037160    2.960900    8.357080
  C    -10.146050    2.069300    9.412080
  C    -10.475780    0.682520    9.031180
  O    -10.440000    0.200720    7.912690
  C    -10.888810    0.008710   10.274630
  C    -11.409320   -1.240510   10.438320
  C    -11.763930   -1.670670   11.736330
  C    -11.567460   -0.788880   12.837160
  C    -11.915420   -1.226720   14.130030
  C    -12.431000   -2.479070   14.320370
  C    -12.629290   -3.346060   13.229090
  C    -12.305950   -2.949940   11.961600
  F    -13.137240   -4.570810   13.438040
  F    -12.755830   -2.893020   15.553570
  C    -11.037000    0.508250   12.630130
  C    -10.702970    0.904930   11.363840
  C    -10.156960    2.165400   10.842070
  C     -9.642730    3.172350   11.627980
  C     -8.945230    4.292300   11.141960
  N     -8.343670    5.215000   10.814410
  C     -9.677050    3.168590   13.035180
  N     -9.684460    3.229720   14.182640
  H    -22.414140  -12.239480    8.894830
  H    -19.975990  -13.019780   13.137950
  H    -20.640640  -10.760810    8.118930
  H    -18.141960  -11.507740   12.368110
  H    -15.993010   -7.683290    7.838220
  H    -14.679170   -8.280100   10.548730
  H    -12.498770   -6.886860   10.868410
  H    -11.041410   -5.145380    9.639690
  H    -10.247740   -3.448930    8.220480
  H     -9.919300   -1.686260    6.379580
  H    -10.953310   -0.889400    4.183350
  H    -13.020370   -2.682450    3.027610
  H    -15.262300   -2.737250   -0.879850
  H    -15.246990   -0.574380   -2.177930
  H    -13.064600    2.891260   -0.375260
  H    -12.558460    5.472420    0.260640
  H    -11.669340    6.853920    2.248690
  H    -10.836310    7.431230    4.845820
  H    -10.331030    7.052740    7.350260
  H    -10.070840    4.996540    9.095090
  H    -10.041550    2.426500    7.406970
  H    -11.557670   -1.889220    9.587960
  H    -11.772780   -0.575380   14.978120
  H    -12.471930   -3.623230   11.134500
  H    -10.919650    1.155550   13.484030

 Total Charge           Charge          ....    0
 Multiplicity           Mult            ....    1
 Number of Electrons    NEL             ....  566
 Basis Dimension        Dim             .... 1237

ORBITAL ENERGIES
----------------

  NO   OCC          E(Eh)            E(eV)
   0   2.0000     -89.008242     -2422.0374
   1   2.0000     -88.977310     -2421.1957
   2   2.0000     -88.974188     -2421.1107
   3   2.0000     -88.963951     -2420.8322
   4   2.0000     -88.961832     -2420.7745
   5   2.0000     -24.793150      -674.6559
   6   2.0000     -24.790178      -674.5750
   7   2.0000     -24.787747      -674.5089
   8   2.0000     -24.786825      -674.4838
   9   2.0000     -19.204625      -522.5844
  10   2.0000     -19.200373      -522.4687
  11   2.0000     -14.523171      -395.1956
  12   2.0000     -14.459492      -393.4628
  13   2.0000     -14.453412      -393.2973
  14   2.0000     -14.402827      -391.9208
  15   2.0000     -14.399586      -391.8327
  16   2.0000     -14.399211      -391.8225
  17   2.0000     -14.398940      -391.8151
  18   2.0000     -10.390120      -282.7295
  19   2.0000     -10.373889      -282.2879
  20   2.0000     -10.372960      -282.2626
  21   2.0000     -10.369665      -282.1729
  22   2.0000     -10.368874      -282.1514
  23   2.0000     -10.364860      -282.0422
  24   2.0000     -10.353789      -281.7409
  25   2.0000     -10.350841      -281.6607
  26   2.0000     -10.350399      -281.6487
  27   2.0000     -10.347468      -281.5689
  28   2.0000     -10.346226      -281.5351
  29   2.0000     -10.345743      -281.5220
  30   2.0000     -10.343559      -281.4626
  31   2.0000     -10.343141      -281.4512
  32   2.0000     -10.336238      -281.2633
  33   2.0000     -10.335180      -281.2346
  34   2.0000     -10.330011      -281.0939
  35   2.0000     -10.329956      -281.0924
  36   2.0000     -10.328889      -281.0634
  37   2.0000     -10.327293      -281.0199
  38   2.0000     -10.327031      -281.0128
  39   2.0000     -10.325837      -280.9803
  40   2.0000     -10.324609      -280.9469
  41   2.0000     -10.324085      -280.9326
  42   2.0000     -10.322684      -280.8945
  43   2.0000     -10.322462      -280.8885
  44   2.0000     -10.315522      -280.6996
  45   2.0000     -10.310764      -280.5701
  46   2.0000     -10.310365      -280.5593
  47   2.0000     -10.309420      -280.5336
  48   2.0000     -10.306964      -280.4667
  49   2.0000     -10.305896      -280.4377
  50   2.0000     -10.304891      -280.4103
  51   2.0000     -10.303825      -280.3813
  52   2.0000     -10.303728      -280.3787
  53   2.0000     -10.302737      -280.3517
  54   2.0000     -10.301458      -280.3169
  55   2.0000     -10.301085      -280.3068
  56   2.0000     -10.299431      -280.2618
  57   2.0000     -10.297924      -280.2208
  58   2.0000     -10.297259      -280.2027
  59   2.0000     -10.296938      -280.1939
  60   2.0000     -10.296408      -280.1795
  61   2.0000     -10.296354      -280.1780
  62   2.0000     -10.293818      -280.1090
  63   2.0000     -10.293493      -280.1002
  64   2.0000     -10.293271      -280.0941
  65   2.0000     -10.292595      -280.0758
  66   2.0000     -10.292412      -280.0708
  67   2.0000     -10.290389      -280.0157
  68   2.0000     -10.289585      -279.9938
  69   2.0000     -10.288843      -279.9736
  70   2.0000     -10.287763      -279.9443
  71   2.0000     -10.287482      -279.9366
  72   2.0000     -10.283186      -279.8197
  73   2.0000     -10.278858      -279.7019
  74   2.0000     -10.278094      -279.6812
  75   2.0000     -10.277940      -279.6770
  76   2.0000     -10.276404      -279.6352
  77   2.0000     -10.275748      -279.6173
  78   2.0000      -8.102913      -220.4915
  79   2.0000      -8.073692      -219.6963
  80   2.0000      -8.071068      -219.6249
  81   2.0000      -8.059964      -219.3228
  82   2.0000      -8.058370      -219.2794
  83   2.0000      -6.072322      -165.2363
  84   2.0000      -6.067970      -165.1179
  85   2.0000      -6.064911      -165.0346
  86   2.0000      -6.043426      -164.4500
  87   2.0000      -6.040657      -164.3746
  88   2.0000      -6.039354      -164.3392
  89   2.0000      -6.036379      -164.2582
  90   2.0000      -6.034614      -164.2102
  91   2.0000      -6.032293      -164.1470
  92   2.0000      -6.029533      -164.0719
  93   2.0000      -6.027905      -164.0276
  94   2.0000      -6.025545      -163.9634
  95   2.0000      -6.023855      -163.9174
  96   2.0000      -6.021150      -163.8438
  97   2.0000      -6.019610      -163.8019
  98   2.0000      -1.313801       -35.7503
  99   2.0000      -1.309540       -35.6344
 100   2.0000      -1.299057       -35.3491
 101   2.0000      -1.294761       -35.2323
 102   2.0000      -1.128673       -30.7128
 103   2.0000      -1.117901       -30.4196
 104   2.0000      -1.114196       -30.3188
 105   2.0000      -1.105398       -30.0794
 106   2.0000      -1.033671       -28.1276
 107   2.0000      -1.024208       -27.8701
 108   2.0000      -1.019401       -27.7393
 109   2.0000      -1.006889       -27.3988
 110   2.0000      -1.004695       -27.3391
 111   2.0000      -1.004460       -27.3327
 112   2.0000      -0.995143       -27.0792
 113   2.0000      -0.992429       -27.0054
 114   2.0000      -0.991116       -26.9696
 115   2.0000      -0.990807       -26.9612
 116   2.0000      -0.979936       -26.6654
 117   2.0000      -0.978438       -26.6247
 118   2.0000      -0.968793       -26.3622
 119   2.0000      -0.966848       -26.3093
 120   2.0000      -0.927366       -25.2349
 121   2.0000      -0.922329       -25.0978
 122   2.0000      -0.919237       -25.0137
 123   2.0000      -0.911034       -24.7905
 124   2.0000      -0.903206       -24.5775
 125   2.0000      -0.893726       -24.3195
 126   2.0000      -0.887557       -24.1516
 127   2.0000      -0.885782       -24.1034
 128   2.0000      -0.882247       -24.0072
 129   2.0000      -0.879444       -23.9309
 130   2.0000      -0.875455       -23.8223
 131   2.0000      -0.872992       -23.7553
 132   2.0000      -0.868739       -23.6396
 133   2.0000      -0.855127       -23.2692
 134   2.0000      -0.847097       -23.0507
 135   2.0000      -0.844770       -22.9874
 136   2.0000      -0.841390       -22.8954
 137   2.0000      -0.831108       -22.6156
 138   2.0000      -0.830217       -22.5914
 139   2.0000      -0.827047       -22.5051
 140   2.0000      -0.815821       -22.1996
 141   2.0000      -0.803469       -21.8635
 142   2.0000      -0.791325       -21.5331
 143   2.0000      -0.783847       -21.3296
 144   2.0000      -0.775803       -21.1107
 145   2.0000      -0.757860       -20.6224
 146   2.0000      -0.754607       -20.5339
 147   2.0000      -0.752227       -20.4691
 148   2.0000      -0.751457       -20.4482
 149   2.0000      -0.745570       -20.2880
 150   2.0000      -0.727070       -19.7846
 151   2.0000      -0.724101       -19.7038
 152   2.0000      -0.712370       -19.3846
 153   2.0000      -0.708383       -19.2761
 154   2.0000      -0.706462       -19.2238
 155   2.0000      -0.699775       -19.0418
 156   2.0000      -0.694886       -18.9088
 157   2.0000      -0.690341       -18.7851
 158   2.0000      -0.680526       -18.5181
 159   2.0000      -0.679251       -18.4834
 160   2.0000      -0.668021       -18.1778
 161   2.0000      -0.665696       -18.1145
 162   2.0000      -0.662951       -18.0398
 163   2.0000      -0.656128       -17.8542
 164   2.0000      -0.648313       -17.6415
 165   2.0000      -0.648043       -17.6342
 166   2.0000      -0.646126       -17.5820
 167   2.0000      -0.643285       -17.5047
 168   2.0000      -0.642129       -17.4732
 169   2.0000      -0.632927       -17.2228
 170   2.0000      -0.631294       -17.1784
 171   2.0000      -0.629799       -17.1377
 172   2.0000      -0.625801       -17.0289
 173   2.0000      -0.623734       -16.9727
 174   2.0000      -0.623071       -16.9546
 175   2.0000      -0.619869       -16.8675
 176   2.0000      -0.614461       -16.7203
 177   2.0000      -0.607961       -16.5435
 178   2.0000      -0.603554       -16.4235
 179   2.0000      -0.602470       -16.3940
 180   2.0000      -0.600233       -16.3332
 181   2.0000      -0.581995       -15.8369
 182   2.0000      -0.579092       -15.7579
 183   2.0000      -0.578616       -15.7449
 184   2.0000      -0.576857       -15.6971
 185   2.0000      -0.574341       -15.6286
 186   2.0000      -0.572102       -15.5677
 187   2.0000      -0.569185       -15.4883
 188   2.0000      -0.566590       -15.4177
 189   2.0000      -0.563372       -15.3301
 190   2.0000      -0.562461       -15.3053
 191   2.0000      -0.556187       -15.1346
 192   2.0000      -0.548655       -14.9297
 193   2.0000      -0.546904       -14.8820
 194   2.0000      -0.541938       -14.7469
 195   2.0000      -0.540603       -14.7106
 196   2.0000      -0.540297       -14.7022
 197   2.0000      -0.539883       -14.6910
 198   2.0000      -0.536285       -14.5931
 199   2.0000      -0.532945       -14.5022
 200   2.0000      -0.532237       -14.4829
 201   2.0000      -0.526843       -14.3361
 202   2.0000      -0.525455       -14.2984
 203   2.0000      -0.523826       -14.2540
 204   2.0000      -0.523506       -14.2453
 205   2.0000      -0.521095       -14.1797
 206   2.0000      -0.519609       -14.1393
 207   2.0000      -0.519334       -14.1318
 208   2.0000      -0.518394       -14.1062
 209   2.0000      -0.515918       -14.0389
 210   2.0000      -0.514435       -13.9985
 211   2.0000      -0.513489       -13.9727
 212   2.0000      -0.510809       -13.8998
 213   2.0000      -0.506905       -13.7936
 214   2.0000      -0.505665       -13.7598
 215   2.0000      -0.504917       -13.7395
 216   2.0000      -0.499482       -13.5916
 217   2.0000      -0.497784       -13.5454
 218   2.0000      -0.494070       -13.4443
 219   2.0000      -0.492987       -13.4149
 220   2.0000      -0.492210       -13.3937
 221   2.0000      -0.484194       -13.1756
 222   2.0000      -0.484111       -13.1733
 223   2.0000      -0.483334       -13.1522
 224   2.0000      -0.482949       -13.1417
 225   2.0000      -0.481038       -13.0897
 226   2.0000      -0.476693       -12.9715
 227   2.0000      -0.474942       -12.9238
 228   2.0000      -0.473477       -12.8840
 229   2.0000      -0.471359       -12.8263
 230   2.0000      -0.467514       -12.7217
 231   2.0000      -0.465227       -12.6595
 232   2.0000      -0.457951       -12.4615
 233   2.0000      -0.457415       -12.4469
 234   2.0000      -0.455759       -12.4018
 235   2.0000      -0.454842       -12.3769
 236   2.0000      -0.451452       -12.2846
 237   2.0000      -0.450817       -12.2674
 238   2.0000      -0.448176       -12.1955
 239   2.0000      -0.445560       -12.1243
 240   2.0000      -0.438934       -11.9440
 241   2.0000      -0.437986       -11.9182
 242   2.0000      -0.434767       -11.8306
 243   2.0000      -0.434456       -11.8221
 244   2.0000      -0.433723       -11.8022
 245   2.0000      -0.430342       -11.7102
 246   2.0000      -0.427223       -11.6253
 247   2.0000      -0.422896       -11.5076
 248   2.0000      -0.422309       -11.4916
 249   2.0000      -0.419925       -11.4268
 250   2.0000      -0.417878       -11.3711
 251   2.0000      -0.416871       -11.3436
 252   2.0000      -0.415991       -11.3197
 253   2.0000      -0.411962       -11.2100
 254   2.0000      -0.411184       -11.1889
 255   2.0000      -0.409871       -11.1531
 256   2.0000      -0.408378       -11.1125
 257   2.0000      -0.401994       -10.9388
 258   2.0000      -0.393852       -10.7173
 259   2.0000      -0.393835       -10.7168
 260   2.0000      -0.391905       -10.6643
 261   2.0000      -0.384436       -10.4610
 262   2.0000      -0.378423       -10.2974
 263   2.0000      -0.373108       -10.1528
 264   2.0000      -0.370195       -10.0735
 265   2.0000      -0.363587        -9.8937
 266   2.0000      -0.359151        -9.7730
 267   2.0000      -0.355122        -9.6634
 268   2.0000      -0.354082        -9.6351
 269   2.0000      -0.351823        -9.5736
 270   2.0000      -0.341661        -9.2971
 271   2.0000      -0.336159        -9.1473
 272   2.0000      -0.331509        -9.0208
 273   2.0000      -0.327014        -8.8985
 274   2.0000      -0.320748        -8.7280
 275   2.0000      -0.310103        -8.4383
 276   2.0000      -0.307170        -8.3585
 277   2.0000      -0.302720        -8.2374
 278   2.0000      -0.293131        -7.9765
 279   2.0000      -0.287188        -7.8148
 280   2.0000      -0.277066        -7.5393
 281   2.0000      -0.238223        -6.4824
 282   2.0000      -0.218813        -5.9542
 283   0.0000      -0.131603        -3.5811
 284   0.0000      -0.101943        -2.7740
 285   0.0000      -0.078091        -2.1250
 286   0.0000      -0.056414        -1.5351
 287   0.0000      -0.052876        -1.4388

MULLIKEN ATOMIC CHARGES
-----------------------
   0 C :   -0.112375
   1 C :    0.240757
   2 F :   -0.175480
   3 C :    0.238033
   4 F :   -0.176814
   5 C :   -0.107673
   6 C :    0.117800
   7 C :    0.114754
   8 C :   -0.092508
   9 C :    0.046463
  10 C :    0.004501
  11 C :   -0.090232
  12 C :    0.138943
  13 O :   -0.161531
  14 C :   -0.093909
  15 C :    0.337850
  16 C :   -0.369543
  17 C :   -0.187278
  18 N :    0.124502
  19 C :   -0.186589
  20 N :    0.133397
  21 C :   -0.038054
  22 C :   -0.021994
  23 C :    0.002001
  24 C :    0.021782
  25 C :    0.040747
  26 C :   -0.063444
  27 S :    0.112132
  28 C :   -0.043119
  29 C :    0.018211
  30 C :    0.072507
  31 C :   -0.051966
  32 S :    0.105873
  33 C :    0.028839
  34 N :    0.021239
  35 C :   -0.157369
  36 S :    0.107624
  37 C :   -0.137261
  38 C :    0.017369
  39 C :    0.082099
  40 N :   -0.016712
  41 C :    0.026242
  42 C :    0.037448
  43 N :   -0.011482
  44 C :    0.046535
  45 C :   -0.059212
  46 C :    0.052167
  47 C :    0.012492
  48 C :    0.008966
  49 S :    0.041573
  50 C :   -0.047539
  51 C :    0.046325
  52 C :    0.016759
  53 C :   -0.017199
  54 S :    0.062108
  55 C :    0.008049
  56 C :   -0.001469
  57 C :   -0.117369
  58 C :    0.140823
  59 O :   -0.199147
  60 C :    0.022973
  61 C :   -0.097097
  62 C :    0.139246
  63 C :    0.107335
  64 C :   -0.111281
  65 C :    0.237690
  66 C :    0.239157
  67 C :   -0.116101
  68 F :   -0.175584
  69 F :   -0.174579
  70 C :   -0.090025
  71 C :    0.036341
  72 C :    0.313040
  73 C :   -0.360571
  74 C :   -0.200434
  75 N :    0.144595
  76 C :   -0.179293
  77 N :    0.128784
  78 H :    0.003833
  79 H :   -0.004612
  80 H :   -0.010282
  81 H :   -0.015898
  82 H :    0.011586
  83 H :    0.019377
  84 H :    0.005653
  85 H :    0.001539
  86 H :    0.002941
  87 H :    0.019148
  88 H :    0.046645
  89 H :    0.159587
  90 H :    0.025928
  91 H :    0.024722
  92 H :    0.013264
  93 H :    0.001251
  94 H :   -0.004261
  95 H :   -0.004369
  96 H :    0.005339
  97 H :    0.001006
  98 H :    0.014498
  99 H :   -0.046025
 100 H :    0.006189
 101 H :   -0.023170
 102 H :   -0.007731
Sum of atomic charges:   -0.0000000

LOEWDIN ATOMIC CHARGES
----------------------
   0 C :   -0.030795
   1 C :    0.063310
   2 F :   -0.053501
   3 C :    0.064624
   4 F :   -0.053917
   5 C :   -0.034901
   6 C :   -0.010271
   7 C :   -0.008357
   8 C :    0.011982
   9 C :   -0.019721
  10 C :   -0.048567
  11 C :    0.023273
  12 C :    0.080581
  13 O :   -0.156664
  14 C :   -0.107937
  15 C :    0.072481
  16 C :   -0.158595
  17 C :   -0.019497
  18 N :   -0.072942
  19 C :   -0.018427
  20 N :   -0.071327
  21 C :    0.048588
  22 C :   -0.070603
  23 C :   -0.103304
  24 C :   -0.040777
  25 C :   -0.014544
  26 C :   -0.200372
  27 S :    0.413115
  28 C :   -0.141867
  29 C :   -0.047991
  30 C :    0.013658
  31 C :   -0.182778
  32 S :    0.381827
  33 C :    0.006550
  34 N :    0.086529
  35 C :   -0.120456
  36 S :    0.466024
  37 C :   -0.206993
  38 C :   -0.024238
  39 C :   -0.078812
  40 N :   -0.041865
  41 C :    0.004962
  42 C :    0.019272
  43 N :   -0.039071
  44 C :   -0.011030
  45 C :   -0.185998
  46 C :   -0.005215
  47 C :   -0.057097
  48 C :   -0.140506
  49 S :    0.391643
  50 C :   -0.201452
  51 C :   -0.006043
  52 C :   -0.051081
  53 C :   -0.097291
  54 S :    0.404825
  55 C :   -0.076481
  56 C :    0.041162
  57 C :   -0.122073
  58 C :    0.082551
  59 O :   -0.188161
  60 C :   -0.048928
  61 C :    0.012787
  62 C :   -0.012096
  63 C :   -0.007607
  64 C :   -0.029999
  65 C :    0.063607
  66 C :    0.063734
  67 C :   -0.041651
  68 F :   -0.054461
  69 F :   -0.052160
  70 C :    0.009412
  71 C :   -0.014488
  72 C :    0.067737
  73 C :   -0.157807
  74 C :   -0.018228
  75 N :   -0.067397
  76 C :   -0.019131
  77 N :   -0.070437
  78 H :    0.046310
  79 H :    0.043245
  80 H :    0.038608
  81 H :    0.037986
  82 H :    0.030777
  83 H :    0.039971
  84 H :    0.041110
  85 H :    0.034697
  86 H :    0.035788
  87 H :    0.042904
  88 H :    0.037522
  89 H :    0.108136
  90 H :    0.032576
  91 H :    0.032435
  92 H :    0.052625
  93 H :    0.038878
  94 H :    0.036103
  95 H :    0.036536
  96 H :    0.039696
  97 H :    0.035935
  98 H :    0.022353
  99 H :    0.032380
 100 H :    0.047172
 101 H :    0.038851
 102 H :    0.039076

  Mayer bond orders larger than 0.100000
B(  0-C ,  1-C ) :   1.4372 B(  0-C ,  5-C ) :   0.1095 B(  0-C ,  7-C ) :   1.1905
B(  0-C , 78-H ) :   1.0072 B(  1-C ,  2-F ) :   1.1301 B(  1-C ,  3-C ) :   1.1959
B(  3-C ,  4-F ) :   1.1282 B(  3-C ,  5-C ) :   1.4377 B(  5-C ,  6-C ) :   1.1951
B(  5-C , 79-H ) :   1.0077 B(  6-C ,  7-C ) :   1.2622 B(  6-C , 11-C ) :   1.1780
B(  7-C ,  8-C ) :   1.2065 B(  8-C ,  9-C ) :   1.4607 B(  8-C , 80-H ) :   0.9890
B(  9-C , 10-C ) :   1.2227 B(  9-C , 15-C ) :   0.9705 B( 10-C , 11-C ) :   1.4808
B( 10-C , 12-C ) :   0.9324 B( 11-C , 81-H ) :   1.0164 B( 12-C , 13-O ) :   2.1905
B( 12-C , 14-C ) :   0.9684 B( 14-C , 15-C ) :   1.1222 B( 14-C , 21-C ) :   1.4588
B( 15-C , 16-C ) :   1.5753 B( 16-C , 17-C ) :   1.1554 B( 16-C , 19-C ) :   1.1547
B( 17-C , 18-N ) :   2.9519 B( 19-C , 20-N ) :   2.9539 B( 21-C , 22-C ) :   1.2762
B( 21-C , 82-H ) :   0.9429 B( 22-C , 23-C ) :   1.3979 B( 22-C , 83-H ) :   0.9779
B( 23-C , 24-C ) :   1.1934 B( 23-C , 27-S ) :   1.0884 B( 24-C , 25-C ) :   1.5140
B( 24-C , 84-H ) :   1.0032 B( 25-C , 26-C ) :   1.2304 B( 25-C , 85-H ) :   0.9903
B( 26-C , 27-S ) :   1.0507 B( 26-C , 28-C ) :   1.4482 B( 28-C , 29-C ) :   1.2087
B( 28-C , 32-S ) :   1.0844 B( 29-C , 30-C ) :   1.5820 B( 29-C , 86-H ) :   0.9853
B( 30-C , 31-C ) :   1.1741 B( 30-C , 87-H ) :   0.9856 B( 31-C , 32-S ) :   1.0106
B( 31-C , 33-C ) :   1.5652 B( 33-C , 34-N ) :   1.1766 B( 33-C , 88-H ) :   0.9501
B( 34-N , 35-C ) :   1.2833 B( 34-N , 89-H ) :   0.8990 B( 35-C , 36-S ) :   1.1810
B( 35-C , 37-C ) :   0.1002 B( 35-C , 39-C ) :   1.2229 B( 36-S , 37-C ) :   1.0328
B( 37-C , 38-C ) :   1.2594 B( 37-C , 44-C ) :   1.3624 B( 38-C , 39-C ) :   1.2510
B( 38-C , 43-N ) :   1.4857 B( 39-C , 40-N ) :   1.4318 B( 40-N , 41-C ) :   1.6493
B( 41-C , 42-C ) :   1.2263 B( 41-C , 90-H ) :   0.9747 B( 42-C , 43-N ) :   1.6431
B( 42-C , 91-H ) :   0.9752 B( 44-C , 45-C ) :   1.4022 B( 44-C , 92-H ) :   0.9776
B( 45-C , 46-C ) :   1.2249 B( 45-C , 49-S ) :   1.0374 B( 46-C , 47-C ) :   1.5021
B( 46-C , 93-H ) :   0.9979 B( 47-C , 48-C ) :   1.2642 B( 47-C , 94-H ) :   0.9970
B( 48-C , 49-S ) :   1.0926 B( 48-C , 50-C ) :   1.3685 B( 50-C , 51-C ) :   1.2842
B( 50-C , 54-S ) :   1.0513 B( 51-C , 52-C ) :   1.4726 B( 51-C , 95-H ) :   0.9989
B( 52-C , 53-C ) :   1.2380 B( 52-C , 96-H ) :   1.0000 B( 53-C , 54-S ) :   1.0995
B( 53-C , 55-C ) :   1.4004 B( 55-C , 56-C ) :   1.3148 B( 55-C , 97-H ) :   0.9702
B( 56-C , 57-C ) :   1.4444 B( 56-C , 98-H ) :   0.9094 B( 57-C , 58-C ) :   1.0094
B( 57-C , 72-C ) :   1.0935 B( 58-C , 59-O ) :   2.1141 B( 58-C , 60-C ) :   0.9334
B( 60-C , 61-C ) :   1.4846 B( 60-C , 71-C ) :   1.2173 B( 61-C , 62-C ) :   1.1786
B( 61-C , 99-H ) :   1.0143 B( 62-C , 63-C ) :   1.2616 B( 62-C , 67-C ) :   1.1960
B( 63-C , 64-C ) :   1.1955 B( 63-C , 70-C ) :   1.1997 B( 64-C , 65-C ) :   1.4343
B( 64-C , 67-C ) :   0.1109 B( 64-C ,100-H ) :   1.0074 B( 65-C , 66-C ) :   1.1977
B( 65-C , 69-F ) :   1.1307 B( 66-C , 67-C ) :   1.4392 B( 66-C , 68-F ) :   1.1302
B( 67-C ,101-H ) :   1.0038 B( 70-C , 71-C ) :   1.4708 B( 70-C ,102-H ) :   0.9907
B( 71-C , 72-C ) :   0.9761 B( 72-C , 73-C ) :   1.5923 B( 73-C , 74-C ) :   1.1830
B( 73-C , 76-C ) :   1.1364 B( 74-C , 75-N ) :   2.9722 B( 76-C , 77-N ) :   2.9598

-----------------------------------------------------------------------------
         ABSORPTION SPECTRUM VIA TRANSITION ELECTRIC DIPOLE MOMENTS
-----------------------------------------------------------------------------
State   Energy  Wavelength   fosc         T2         TX        TY        TZ
        (cm-1)    (nm)                  (au**2)     (au)      (au)      (au)
-----------------------------------------------------------------------------
   0    5874.2   1702.4   0.460351612  25.79979  -2.31562  -4.32592  -1.31304
   1   11419.0    875.7   0.435661939  12.56018  -0.89140  -1.96031   2.81474
   2   12501.1    799.9   1.146522042  30.19328   1.73263   2.94118  -4.30590
   3   16386.5    610.3   0.211578786   4.25070  -1.39829  -0.14927  -1.50772
   4   17843.7    560.4   0.047628568   0.87873  -0.64148  -0.62307   0.28110
   5   19097.2    523.6   0.570046578   9.82687  -1.47542   1.25143  -2.46656
   6   21053.4    475.0   0.038304420   0.59897   0.02954  -0.39604   0.66426
   7   21972.8    455.1   0.060138555   0.90104   0.67069   0.34972   0.57351
   8   22560.7    443.2   0.040751310   0.59466   0.31178  -0.26030   0.65551
   9   23044.4    433.9   0.010006275   0.14295   0.24309  -0.10247   0.27085
  10   23608.8    423.6   0.479065546   6.68032  -0.17427  -2.27494   1.21433
  11   24254.3    412.3   0.213285007   2.89499   0.62637   0.54702   1.48439
  12   25073.3    398.8   0.016730107   0.21967   0.35589   0.28996   0.09448
  13   25584.7    390.9   0.101117102   1.30113   0.65201   0.90058   0.25489
  14   25716.8    388.9   0.000433707   0.00555  -0.04058  -0.05648  -0.02675
  15   25798.7    387.6   0.086674270   1.10603   0.59189   0.22153   0.84061
  16   26376.5    379.1   0.006086785   0.07597  -0.12941  -0.10798   0.21809
  17   26616.3    375.7   0.265727241   3.28673   1.26581   0.67309   1.10969
  18   26934.2    371.3   0.031225179   0.38166  -0.09018  -0.58382   0.18078
  19   27144.4    368.4   0.016373699   0.19858   0.40282   0.15612   0.10929
  20   27495.0    363.7   0.057093052   0.68361   0.67011   0.47335  -0.10251
  21   27795.7    359.8   0.046564425   0.55151   0.24413   0.60159  -0.36055
  22   28319.7    353.1   0.037876276   0.44030  -0.36867  -0.49093  -0.25174
  23   28451.3    351.5   0.086161846   0.99698  -0.69880  -0.67525  -0.22958
  24   28972.9    345.1   0.004481185   0.05092  -0.20778  -0.08788  -0.00470
  25   29048.2    344.3   0.013009882   0.14744   0.07504  -0.29241  -0.23729
  26   29161.2    342.9   0.021379555   0.24136   0.21771   0.43552  -0.06551
  27   29602.9    337.8   0.144049352   1.60196   0.37209   1.03740  -0.62235
  28   29952.1    333.9   0.038600757   0.42427   0.33145   0.55215  -0.09769
  29   30226.3    330.8   0.013606353   0.14819  -0.22453   0.10769  -0.29357
  30   30316.5    329.9   0.135759966   1.47424  -0.66419  -0.93512   0.39830
  31   30976.8    322.8   0.015499662   0.16473  -0.14452  -0.30671   0.22309
  32   31738.9    315.1   0.037246319   0.38634  -0.51578  -0.24283  -0.24767
  33   31835.7    314.1   0.006197819   0.06409   0.06637   0.19023   0.15329
  34   32038.5    312.1   0.281181652   2.88928  -1.23239  -1.16698   0.09308
  35   32332.3    309.3   0.042483618   0.43257  -0.15431  -0.35732   0.53018
  36   32367.9    308.9   0.009652253   0.09817   0.11606   0.20790  -0.20367
  37   32558.7    307.1   0.021737635   0.21980  -0.02214   0.31770  -0.34405
  38   32843.6    304.5   0.078421544   0.78607   0.19332   0.82656  -0.25590
  39   33004.9    303.0   0.338215641   3.37358  -0.86515  -1.59410   0.28974
  40   33256.6    300.7   0.146906041   1.45425  -0.32564  -1.16064   0.03351
  41   33782.6    296.0   0.062902062   0.61298  -0.01350   0.52965  -0.57643
  42   34112.3    293.1   0.081240785   0.78404   0.12140   0.62419  -0.61619
  43   34300.5    291.5   0.104475798   1.00274  -0.48526  -0.87162   0.08690
  44   34456.5    290.2   0.113921611   1.08846  -0.62076  -0.65386   0.52496
  45   34512.9    289.7   0.189575750   1.80832   0.66594   0.65688  -0.96610
  46   34837.1    287.0   0.040652843   0.38417  -0.02080  -0.43063   0.44530
  47   34994.2    285.8   0.000161935   0.00152  -0.02829  -0.02216   0.01524
  48   35301.7    283.3   0.157817380   1.47175   0.37806   0.23706   1.12811
  49   35835.8    279.1   0.000878093   0.00807  -0.03090  -0.07709  -0.03419
  50   36045.7    277.4   0.001508985   0.01378  -0.00038   0.03864   0.11085
  51   36152.9    276.6   0.025502216   0.23223   0.13166   0.26087  -0.38319
  52   36431.9    274.5   0.042392188   0.38307   0.11173   0.49867  -0.34917
  53   36506.1    273.9   0.025369401   0.22878   0.38284   0.12473   0.25818
  54   37000.3    270.3   0.086749765   0.77186   0.52456   0.70378   0.03726
  55   37092.4    269.6   0.121727214   1.08038   0.43245   0.48868   0.80905
  56   37231.3    268.6   0.151170558   1.33670   0.67030   0.93752  -0.09192
  57   37476.4    266.8   0.045497627   0.39967   0.05466   0.62310  -0.09181
  58   37659.4    265.5   0.031022965   0.27120   0.12005   0.50388  -0.05380
  59   37825.4    264.4   0.109537637   0.95336   0.31200   0.90344   0.19952
  60   37955.1    263.5   0.054983908   0.47691  -0.08908   0.47719  -0.49119
  61   38489.5    259.8   0.079191278   0.67735  -0.20260  -0.74401   0.28766
  62   38614.7    259.0   0.089676352   0.76454  -0.39130  -0.11126  -0.77398
  63   38811.1    257.7   0.007481402   0.06346   0.10908  -0.17005   0.15049
  64   39093.0    255.8   0.053665442   0.45193   0.39282  -0.03158   0.54463
  65   39425.8    253.6   0.038080532   0.31798   0.30490  -0.09348   0.46506
  66   39502.9    253.1   0.024467292   0.20391   0.28098   0.09446   0.34064
  67   39961.6    250.2   0.039086842   0.32201  -0.22351   0.05690  -0.51847
  68   40210.2    248.7   0.111728605   0.91475  -0.26708  -0.08642   0.91431

FINAL SINGLE POINT ENERGY     -5220.705022271504

DIPOLE MOMENT
-------------
                                X             Y             Z
Electronic contribution:    -22.60041     -35.54173      25.73277
Nuclear contribution   :     23.79890      37.86429     -31.00950
                        -----------------------------------------
Total Dipole Moment    :      1.19849       2.32256      -5.27673
                        -----------------------------------------
Magnitude (a.u.)       :      5.88851
Magnitude (Debye)      :     14.96740

Rotational constants in cm-1:     0.000888     0.000300     0.000235
Rotational constants in MHz :    26.627478     8.995844     7.056890

                             ****ORCA TERMINATED NORMALLY****
TOTAL RUN TIME: 0 days 0 hours 12 minutes 46 seconds 872 msec
