                         Program Version 4.2.0 -  RELEASE  -
|  1> # ORCA input file
|  2> # SCF done       -210.152987171362          0.000877677493
|  3> ! CAM-B3LYP def2-SVP def2/J RIJCOSX Grid4 TightSCF
|  4> %maxcore 5000
|  5> %tddft
|  6>     Mode sTDDFT
|  7>     Ethresh 5.0
|  8>     maxcore 5000
|  9> end
| 10>
| 11> %pal
| 12>   nprocs 6
| 13>   end
| 14> * xyz 0 1
| 15>    C       -8.57013       -11.00842        -1.89347
| 16>    C       -9.46042       -11.07446        -2.92900
| 17>    F       -9.90033       -12.26162        -3.36388
| 18>    C       -9.92583        -9.89837        -3.55018
| 19>    F      -10.79738        -9.99157        -4.56311
| 20>    C       -9.49562        -8.67191        -3.12635
| 21>    C       -8.58076        -8.57126        -2.06064
| 22>    C       -8.10784        -9.75981        -1.43310
| 23>    C       -7.19013        -9.68322        -0.35925
| 24>    C       -6.76442        -8.45752         0.07630
| 25>    C       -7.24745        -7.27307        -0.55330
| 26>    C       -8.12790        -7.31616        -1.59600
| 27>    C       -6.66396        -6.10709         0.12181
| 28>    O       -6.84219        -4.92059        -0.13964
| 29>    C       -5.82394        -6.63662         1.19871
| 30>    C       -5.85053        -8.07949         1.15403
| 31>    C       -5.14696        -8.94583         1.94940
| 32>    C       -4.25681        -8.53716         2.96353
| 33>    N       -3.51810        -8.24262         3.79144
| 34>    C       -5.21279       -10.35010         1.84292
| 35>    N       -5.22793       -11.49707         1.80057
| 36>    C       -5.19472        -5.80238         2.09209
| 37>    N       -5.31486        -4.47587         1.97493
| 38>    C       -4.83277        -3.53693         2.82752
| 39>    S       -3.94040        -3.97462         4.25210
| 40>    C       -3.84775        -2.29695         4.67699
| 41>    N       -3.16065        -1.95376         5.85202
| 42>    O       -3.10594        -0.77567         6.14703
| 43>    O       -2.67517        -2.86967         6.48961
| 44>    C       -4.46459        -1.46498         3.78400
| 45>    C       -5.03856        -2.15690         2.69713
| 46>    C       -5.71266        -1.53652         1.58931
| 47>    C       -6.23842        -0.29152         1.63928
| 48>    C       -6.84610         0.40989         0.55721
| 49>    C       -6.64178         0.15470        -0.75939
| 50>    C       -7.21950         0.92156        -1.79969
| 51>    O       -6.80467         0.72896        -3.07897
| 52>    C       -7.46625         1.59873        -3.88744
| 53>    C       -8.34521         2.35536        -3.10724
| 54>    C       -8.18239         1.93265        -1.77812
| 55>    O       -8.83115         2.41035        -0.69652
| 56>    O       -9.20930         3.33359        -3.47792
| 57>    C       -7.18504         1.68818        -5.26477
| 58>    C       -6.21433         0.95327        -5.88973
| 59>    C       -5.83367         1.05675        -7.23914
| 60>    C       -6.39656         1.87375        -8.19073
| 61>    C       -5.91628         1.97033        -9.49550
| 62>    C       -6.45999         2.77684       -10.47432
| 63>    C       -5.98748         2.94861       -11.79211
| 64>    C       -6.72896         3.81306       -12.54574
| 65>    C       -7.83391         4.35981       -11.86266
| 66>    S       -7.89391         3.76043       -10.22618
| 67>    C       -8.78960         5.23259       -12.36482
| 68>    C       -8.84328         5.79465       -13.65523
| 69>    C       -9.93048         6.59395       -13.86789
| 70>    C      -10.79277         6.69844       -12.75426
| 71>    S      -10.16097         5.76404       -11.41976
| 72>    C      -11.99335         7.37989       -12.63070
| 73>    C      -12.55937         8.11124       -13.66783
| 74>    C      -13.78057         8.75813       -13.61192
| 75>    C      -14.39454         9.50541       -14.67747
| 76>    C      -13.87816         9.75163       -15.93095
| 77>    C      -14.54106        10.49204       -16.92861
| 78>    N      -15.02404        11.08651       -17.78512
| 79>    C      -12.62843         9.31008       -16.40492
| 80>    N      -11.62771         8.98553       -16.86988
| 81>    C      -15.69611         9.97191       -14.20185
| 82>    C      -15.87617         9.52849       -12.86938
| 83>    C      -14.68339         8.76214       -12.44634
| 84>    O      -14.51106         8.24872       -11.35747
| 85>    C      -17.01099         9.79699       -12.14578
| 86>    C      -18.02109        10.54042       -12.76724
| 87>    C      -17.83097        10.98240       -14.09641
| 88>    C      -16.68059        10.71090       -14.82853
| 89>    S      -19.20171        11.88247       -14.67340
| 90>    C      -20.00112        11.65226       -13.14105
| 91>    C      -19.28061        10.94111       -12.24231
| 92>   Br      -21.71315        12.37178       -12.87281
| 93>    H       -8.22368       -11.91846        -1.42907
| 94>    H       -9.86275        -7.78129        -3.61187
| 95>    H       -6.85233       -10.60022         0.09560
| 96>    H       -8.47933        -6.40550        -2.05676
| 97>    H       -4.60518        -6.17701         2.91890
| 98>    H       -5.89811        -4.17661         1.17225
| 99>    H       -4.47088        -0.39768         3.90673
|100>    H       -5.80743        -2.11693         0.68257
|101>    H       -6.23532         0.23237         2.58557
|102>    H       -7.47316         1.24917         0.81968
|103>    H       -5.96841        -0.62634        -1.08155
|104>    H       -9.44927         3.09232        -0.99309
|105>    H       -9.17158         3.46918        -4.43081
|106>    H       -7.76276         2.41264        -5.82159
|107>    H       -5.66843         0.24847        -5.27805
|108>    H       -5.00129         0.43827        -7.55026
|109>    H       -7.24999         2.48892        -7.93945
|110>    H       -5.04745         1.38597        -9.77044
|111>    H       -5.11307         2.43195       -12.14655
|112>    H       -6.51248         4.06015       -13.56903
|113>    H       -8.08781         5.60171       -14.39529
|114>    H      -10.12416         7.09975       -14.79656
|115>    H      -12.52029         7.32228       -11.68968
|116>    H      -12.00987         8.16797       -14.59549
|117>    H      -17.11890         9.44342       -11.13233
|118>    H      -16.58600        11.06997       -15.83955
|119>    H      -19.62159        10.70609       -11.25055
|120> *
|121>
|122>                          ****END OF INPUT****

CARTESIAN COORDINATES (ANGSTROEM)
---------------------------------
  C     -8.570130  -11.008420   -1.893470
  C     -9.460420  -11.074460   -2.929000
  F     -9.900330  -12.261620   -3.363880
  C     -9.925830   -9.898370   -3.550180
  F    -10.797380   -9.991570   -4.563110
  C     -9.495620   -8.671910   -3.126350
  C     -8.580760   -8.571260   -2.060640
  C     -8.107840   -9.759810   -1.433100
  C     -7.190130   -9.683220   -0.359250
  C     -6.764420   -8.457520    0.076300
  C     -7.247450   -7.273070   -0.553300
  C     -8.127900   -7.316160   -1.596000
  C     -6.663960   -6.107090    0.121810
  O     -6.842190   -4.920590   -0.139640
  C     -5.823940   -6.636620    1.198710
  C     -5.850530   -8.079490    1.154030
  C     -5.146960   -8.945830    1.949400
  C     -4.256810   -8.537160    2.963530
  N     -3.518100   -8.242620    3.791440
  C     -5.212790  -10.350100    1.842920
  N     -5.227930  -11.497070    1.800570
  C     -5.194720   -5.802380    2.092090
  N     -5.314860   -4.475870    1.974930
  C     -4.832770   -3.536930    2.827520
  S     -3.940400   -3.974620    4.252100
  C     -3.847750   -2.296950    4.676990
  N     -3.160650   -1.953760    5.852020
  O     -3.105940   -0.775670    6.147030
  O     -2.675170   -2.869670    6.489610
  C     -4.464590   -1.464980    3.784000
  C     -5.038560   -2.156900    2.697130
  C     -5.712660   -1.536520    1.589310
  C     -6.238420   -0.291520    1.639280
  C     -6.846100    0.409890    0.557210
  C     -6.641780    0.154700   -0.759390
  C     -7.219500    0.921560   -1.799690
  O     -6.804670    0.728960   -3.078970
  C     -7.466250    1.598730   -3.887440
  C     -8.345210    2.355360   -3.107240
  C     -8.182390    1.932650   -1.778120
  O     -8.831150    2.410350   -0.696520
  O     -9.209300    3.333590   -3.477920
  C     -7.185040    1.688180   -5.264770
  C     -6.214330    0.953270   -5.889730
  C     -5.833670    1.056750   -7.239140
  C     -6.396560    1.873750   -8.190730
  C     -5.916280    1.970330   -9.495500
  C     -6.459990    2.776840  -10.474320
  C     -5.987480    2.948610  -11.792110
  C     -6.728960    3.813060  -12.545740
  C     -7.833910    4.359810  -11.862660
  S     -7.893910    3.760430  -10.226180
  C     -8.789600    5.232590  -12.364820
  C     -8.843280    5.794650  -13.655230
  C     -9.930480    6.593950  -13.867890
  C    -10.792770    6.698440  -12.754260
  S    -10.160970    5.764040  -11.419760
  C    -11.993350    7.379890  -12.630700
  C    -12.559370    8.111240  -13.667830
  C    -13.780570    8.758130  -13.611920
  C    -14.394540    9.505410  -14.677470
  C    -13.878160    9.751630  -15.930950
  C    -14.541060   10.492040  -16.928610
  N    -15.024040   11.086510  -17.785120
  C    -12.628430    9.310080  -16.404920
  N    -11.627710    8.985530  -16.869880
  C    -15.696110    9.971910  -14.201850
  C    -15.876170    9.528490  -12.869380
  C    -14.683390    8.762140  -12.446340
  O    -14.511060    8.248720  -11.357470
  C    -17.010990    9.796990  -12.145780
  C    -18.021090   10.540420  -12.767240
  C    -17.830970   10.982400  -14.096410
  C    -16.680590   10.710900  -14.828530
  S    -19.201710   11.882470  -14.673400
  C    -20.001120   11.652260  -13.141050
  C    -19.280610   10.941110  -12.242310
  Br   -21.713150   12.371780  -12.872810
  H     -8.223680  -11.918460   -1.429070
  H     -9.862750   -7.781290   -3.611870
  H     -6.852330  -10.600220    0.095600
  H     -8.479330   -6.405500   -2.056760
  H     -4.605180   -6.177010    2.918900
  H     -5.898110   -4.176610    1.172250
  H     -4.470880   -0.397680    3.906730
  H     -5.807430   -2.116930    0.682570
  H     -6.235320    0.232370    2.585570
  H     -7.473160    1.249170    0.819680
  H     -5.968410   -0.626340   -1.081550
  H     -9.449270    3.092320   -0.993090
  H     -9.171580    3.469180   -4.430810
  H     -7.762760    2.412640   -5.821590
  H     -5.668430    0.248470   -5.278050
  H     -5.001290    0.438270   -7.550260
  H     -7.249990    2.488920   -7.939450
  H     -5.047450    1.385970   -9.770440
  H     -5.113070    2.431950  -12.146550
  H     -6.512480    4.060150  -13.569030
  H     -8.087810    5.601710  -14.395290
  H    -10.124160    7.099750  -14.796560
  H    -12.520290    7.322280  -11.689680
  H    -12.009870    8.167970  -14.595490
  H    -17.118900    9.443420  -11.132330
  H    -16.586000   11.069970  -15.839550
  H    -19.621590   10.706090  -11.250550

 Total Charge           Charge          ....    0
 Multiplicity           Mult            ....    1
 Number of Electrons    NEL             ....  590
 Basis Dimension        Dim             .... 1261

ORBITAL ENERGIES
----------------

  NO   OCC          E(Eh)            E(eV)
   0   2.0000    -482.876444    -13139.7361
   1   2.0000     -88.996398     -2421.7151
   2   2.0000     -88.967457     -2420.9276
   3   2.0000     -88.963607     -2420.8228
   4   2.0000     -88.960711     -2420.7440
   5   2.0000     -62.554141     -1702.1847
   6   2.0000     -56.388079     -1534.3976
   7   2.0000     -56.385389     -1534.3244
   8   2.0000     -56.385350     -1534.3234
   9   2.0000     -24.806508      -675.0194
  10   2.0000     -24.805495      -674.9918
  11   2.0000     -19.304568      -525.3040
  12   2.0000     -19.288933      -524.8785
  13   2.0000     -19.276521      -524.5408
  14   2.0000     -19.245386      -523.6936
  15   2.0000     -19.244453      -523.6682
  16   2.0000     -19.241499      -523.5878
  17   2.0000     -19.197312      -522.3854
  18   2.0000     -14.656796      -398.8317
  19   2.0000     -14.505673      -394.7194
  20   2.0000     -14.426794      -392.5730
  21   2.0000     -14.422139      -392.4464
  22   2.0000     -14.401279      -391.8787
  23   2.0000     -14.396006      -391.7352
  24   2.0000     -10.390231      -282.7326
  25   2.0000     -10.389622      -282.7160
  26   2.0000     -10.388586      -282.6878
  27   2.0000     -10.378944      -282.4254
  28   2.0000     -10.377824      -282.3949
  29   2.0000     -10.360703      -281.9291
  30   2.0000     -10.354249      -281.7534
  31   2.0000     -10.354105      -281.7495
  32   2.0000     -10.353499      -281.7330
  33   2.0000     -10.349841      -281.6335
  34   2.0000     -10.349813      -281.6327
  35   2.0000     -10.349567      -281.6260
  36   2.0000     -10.347566      -281.5716
  37   2.0000     -10.347327      -281.5651
  38   2.0000     -10.337911      -281.3089
  39   2.0000     -10.329021      -281.0669
  40   2.0000     -10.326950      -281.0106
  41   2.0000     -10.325300      -280.9657
  42   2.0000     -10.323745      -280.9234
  43   2.0000     -10.321989      -280.8756
  44   2.0000     -10.320863      -280.8450
  45   2.0000     -10.320255      -280.8284
  46   2.0000     -10.319897      -280.8187
  47   2.0000     -10.318991      -280.7940
  48   2.0000     -10.318137      -280.7708
  49   2.0000     -10.317482      -280.7530
  50   2.0000     -10.315113      -280.6885
  51   2.0000     -10.314151      -280.6623
  52   2.0000     -10.312686      -280.6225
  53   2.0000     -10.312200      -280.6092
  54   2.0000     -10.311524      -280.5908
  55   2.0000     -10.310519      -280.5635
  56   2.0000     -10.309130      -280.5257
  57   2.0000     -10.308212      -280.5007
  58   2.0000     -10.308031      -280.4958
  59   2.0000     -10.307511      -280.4816
  60   2.0000     -10.306661      -280.4585
  61   2.0000     -10.305996      -280.4404
  62   2.0000     -10.303309      -280.3673
  63   2.0000     -10.302848      -280.3547
  64   2.0000     -10.302509      -280.3455
  65   2.0000     -10.300667      -280.2954
  66   2.0000     -10.299161      -280.2544
  67   2.0000     -10.297979      -280.2223
  68   2.0000     -10.295181      -280.1461
  69   2.0000     -10.295117      -280.1444
  70   2.0000     -10.295091      -280.1437
  71   2.0000     -10.293644      -280.1043
  72   2.0000     -10.292781      -280.0808
  73   2.0000     -10.291956      -280.0584
  74   2.0000     -10.290115      -280.0083
  75   2.0000     -10.288777      -279.9719
  76   2.0000     -10.288613      -279.9674
  77   2.0000     -10.286173      -279.9010
  78   2.0000     -10.285709      -279.8884
  79   2.0000     -10.275838      -279.6198
  80   2.0000     -10.272778      -279.5365
  81   2.0000     -10.272481      -279.5284
  82   2.0000      -8.783545      -239.0124
  83   2.0000      -8.091648      -220.1849
  84   2.0000      -8.063723      -219.4250
  85   2.0000      -8.059609      -219.3131
  86   2.0000      -8.057160      -219.2465
  87   2.0000      -6.619783      -180.1335
  88   2.0000      -6.605309      -179.7396
  89   2.0000      -6.605130      -179.7347
  90   2.0000      -6.061285      -164.9359
  91   2.0000      -6.056933      -164.8175
  92   2.0000      -6.053104      -164.7133
  93   2.0000      -6.033338      -164.1755
  94   2.0000      -6.029384      -164.0679
  95   2.0000      -6.029293      -164.0654
  96   2.0000      -6.026756      -163.9964
  97   2.0000      -6.025043      -163.9497
  98   2.0000      -6.024803      -163.9432
  99   2.0000      -6.022660      -163.8849
 100   2.0000      -6.020824      -163.8349
 101   2.0000      -6.018378      -163.7684
 102   2.0000      -2.735669       -74.4413
 103   2.0000      -2.731586       -74.3302
 104   2.0000      -2.731479       -74.3273
 105   2.0000      -2.719967       -74.0141
 106   2.0000      -2.719953       -74.0137
 107   2.0000      -1.329126       -36.1673
 108   2.0000      -1.327045       -36.1107
 109   2.0000      -1.314239       -35.7623
 110   2.0000      -1.225054       -33.3354
 111   2.0000      -1.181877       -32.1605
 112   2.0000      -1.163397       -31.6576
 113   2.0000      -1.156116       -31.4595
 114   2.0000      -1.146299       -31.1924
 115   2.0000      -1.112261       -30.2662
 116   2.0000      -1.110711       -30.2240
 117   2.0000      -1.030011       -28.0280
 118   2.0000      -1.017175       -27.6787
 119   2.0000      -1.014507       -27.6061
 120   2.0000      -1.013350       -27.5746
 121   2.0000      -1.008001       -27.4291
 122   2.0000      -1.003186       -27.2981
 123   2.0000      -0.998176       -27.1617
 124   2.0000      -0.991127       -26.9699
 125   2.0000      -0.989890       -26.9363
 126   2.0000      -0.978088       -26.6151
 127   2.0000      -0.972570       -26.4650
 128   2.0000      -0.945074       -25.7168
 129   2.0000      -0.941932       -25.6313
 130   2.0000      -0.936892       -25.4941
 131   2.0000      -0.929191       -25.2846
 132   2.0000      -0.923021       -25.1167
 133   2.0000      -0.916064       -24.9274
 134   2.0000      -0.909831       -24.7578
 135   2.0000      -0.905631       -24.6435
 136   2.0000      -0.902838       -24.5675
 137   2.0000      -0.899147       -24.4670
 138   2.0000      -0.893711       -24.3191
 139   2.0000      -0.890296       -24.2262
 140   2.0000      -0.876392       -23.8478
 141   2.0000      -0.871600       -23.7174
 142   2.0000      -0.869679       -23.6652
 143   2.0000      -0.864626       -23.5277
 144   2.0000      -0.861164       -23.4335
 145   2.0000      -0.850988       -23.1566
 146   2.0000      -0.848321       -23.0840
 147   2.0000      -0.841671       -22.9030
 148   2.0000      -0.829568       -22.5737
 149   2.0000      -0.823424       -22.4065
 150   2.0000      -0.815608       -22.1938
 151   2.0000      -0.808980       -22.0135
 152   2.0000      -0.791789       -21.5457
 153   2.0000      -0.779803       -21.2195
 154   2.0000      -0.777181       -21.1482
 155   2.0000      -0.766609       -20.8605
 156   2.0000      -0.750568       -20.4240
 157   2.0000      -0.747406       -20.3379
 158   2.0000      -0.744518       -20.2594
 159   2.0000      -0.740148       -20.1404
 160   2.0000      -0.736973       -20.0541
 161   2.0000      -0.727801       -19.8045
 162   2.0000      -0.724214       -19.7069
 163   2.0000      -0.717733       -19.5305
 164   2.0000      -0.709453       -19.3052
 165   2.0000      -0.701819       -19.0975
 166   2.0000      -0.695453       -18.9242
 167   2.0000      -0.694110       -18.8877
 168   2.0000      -0.685983       -18.6666
 169   2.0000      -0.674331       -18.3495
 170   2.0000      -0.671693       -18.2777
 171   2.0000      -0.669400       -18.2153
 172   2.0000      -0.665242       -18.1022
 173   2.0000      -0.659086       -17.9346
 174   2.0000      -0.654093       -17.7988
 175   2.0000      -0.651454       -17.7270
 176   2.0000      -0.650418       -17.6988
 177   2.0000      -0.646226       -17.5847
 178   2.0000      -0.643706       -17.5161
 179   2.0000      -0.640283       -17.4230
 180   2.0000      -0.638250       -17.3677
 181   2.0000      -0.634992       -17.2790
 182   2.0000      -0.633918       -17.2498
 183   2.0000      -0.629510       -17.1299
 184   2.0000      -0.624926       -17.0051
 185   2.0000      -0.616500       -16.7758
 186   2.0000      -0.615434       -16.7468
 187   2.0000      -0.610055       -16.6004
 188   2.0000      -0.606364       -16.5000
 189   2.0000      -0.606039       -16.4912
 190   2.0000      -0.597467       -16.2579
 191   2.0000      -0.594126       -16.1670
 192   2.0000      -0.593679       -16.1548
 193   2.0000      -0.590403       -16.0657
 194   2.0000      -0.586438       -15.9578
 195   2.0000      -0.585327       -15.9276
 196   2.0000      -0.581628       -15.8269
 197   2.0000      -0.579334       -15.7645
 198   2.0000      -0.569907       -15.5080
 199   2.0000      -0.567669       -15.4471
 200   2.0000      -0.566779       -15.4228
 201   2.0000      -0.563001       -15.3200
 202   2.0000      -0.562064       -15.2946
 203   2.0000      -0.558448       -15.1962
 204   2.0000      -0.555005       -15.1025
 205   2.0000      -0.551210       -14.9992
 206   2.0000      -0.549240       -14.9456
 207   2.0000      -0.545329       -14.8392
 208   2.0000      -0.541594       -14.7375
 209   2.0000      -0.540099       -14.6968
 210   2.0000      -0.536266       -14.5925
 211   2.0000      -0.532735       -14.4965
 212   2.0000      -0.531965       -14.4755
 213   2.0000      -0.526442       -14.3252
 214   2.0000      -0.525172       -14.2907
 215   2.0000      -0.523295       -14.2396
 216   2.0000      -0.521021       -14.1777
 217   2.0000      -0.520191       -14.1551
 218   2.0000      -0.514162       -13.9911
 219   2.0000      -0.513523       -13.9737
 220   2.0000      -0.512989       -13.9591
 221   2.0000      -0.511593       -13.9212
 222   2.0000      -0.510648       -13.8954
 223   2.0000      -0.508784       -13.8447
 224   2.0000      -0.508375       -13.8336
 225   2.0000      -0.507110       -13.7992
 226   2.0000      -0.502676       -13.6785
 227   2.0000      -0.500895       -13.6300
 228   2.0000      -0.498672       -13.5696
 229   2.0000      -0.495310       -13.4781
 230   2.0000      -0.493572       -13.4308
 231   2.0000      -0.488003       -13.2792
 232   2.0000      -0.484815       -13.1925
 233   2.0000      -0.482809       -13.1379
 234   2.0000      -0.481011       -13.0890
 235   2.0000      -0.479068       -13.0361
 236   2.0000      -0.477515       -12.9938
 237   2.0000      -0.476318       -12.9613
 238   2.0000      -0.475572       -12.9410
 239   2.0000      -0.473667       -12.8891
 240   2.0000      -0.472984       -12.8706
 241   2.0000      -0.467240       -12.7143
 242   2.0000      -0.464340       -12.6353
 243   2.0000      -0.459408       -12.5011
 244   2.0000      -0.458375       -12.4730
 245   2.0000      -0.457215       -12.4414
 246   2.0000      -0.456349       -12.4179
 247   2.0000      -0.454559       -12.3692
 248   2.0000      -0.452004       -12.2997
 249   2.0000      -0.447883       -12.1875
 250   2.0000      -0.447851       -12.1866
 251   2.0000      -0.443297       -12.0627
 252   2.0000      -0.442379       -12.0378
 253   2.0000      -0.439759       -11.9665
 254   2.0000      -0.436445       -11.8763
 255   2.0000      -0.436120       -11.8674
 256   2.0000      -0.435853       -11.8602
 257   2.0000      -0.434250       -11.8166
 258   2.0000      -0.434122       -11.8131
 259   2.0000      -0.428590       -11.6625
 260   2.0000      -0.427833       -11.6419
 261   2.0000      -0.425610       -11.5814
 262   2.0000      -0.419024       -11.4022
 263   2.0000      -0.417888       -11.3713
 264   2.0000      -0.417381       -11.3575
 265   2.0000      -0.411508       -11.1977
 266   2.0000      -0.407809       -11.0970
 267   2.0000      -0.405050       -11.0220
 268   2.0000      -0.402013       -10.9393
 269   2.0000      -0.393643       -10.7116
 270   2.0000      -0.392085       -10.6692
 271   2.0000      -0.391565       -10.6550
 272   2.0000      -0.390105       -10.6153
 273   2.0000      -0.384665       -10.4673
 274   2.0000      -0.378878       -10.3098
 275   2.0000      -0.373876       -10.1737
 276   2.0000      -0.372899       -10.1471
 277   2.0000      -0.366059        -9.9610
 278   2.0000      -0.364579        -9.9207
 279   2.0000      -0.358802        -9.7635
 280   2.0000      -0.353176        -9.6104
 281   2.0000      -0.352496        -9.5919
 282   2.0000      -0.342195        -9.3116
 283   2.0000      -0.336915        -9.1679
 284   2.0000      -0.333971        -9.0878
 285   2.0000      -0.329171        -8.9572
 286   2.0000      -0.317986        -8.6528
 287   2.0000      -0.317388        -8.6366
 288   2.0000      -0.311371        -8.4728
 289   2.0000      -0.302095        -8.2204
 290   2.0000      -0.298001        -8.1090
 291   2.0000      -0.283308        -7.7092
 292   2.0000      -0.278770        -7.5857
 293   2.0000      -0.252484        -6.8704
 294   2.0000      -0.217539        -5.9195
 295   0.0000      -0.115884        -3.1534
 296   0.0000      -0.098559        -2.6819
 297   0.0000      -0.077030        -2.0961
 298   0.0000      -0.070989        -1.9317
 299   0.0000      -0.054706        -1.4886

MULLIKEN ATOMIC CHARGES
-----------------------
   0 C :   -0.103724
   1 C :    0.242155
   2 F :   -0.168154
   3 C :    0.238046
   4 F :   -0.170828
   5 C :   -0.101704
   6 C :    0.111422
   7 C :    0.109107
   8 C :   -0.079283
   9 C :    0.044460
  10 C :    0.000594
  11 C :   -0.075341
  12 C :    0.172451
  13 O :   -0.220879
  14 C :   -0.135854
  15 C :    0.331227
  16 C :   -0.342515
  17 C :   -0.196473
  18 N :    0.145419
  19 C :   -0.182781
  20 N :    0.150578
  21 C :    0.026138
  22 N :   -0.002934
  23 C :   -0.122102
  24 S :    0.177084
  25 C :    0.008965
  26 N :    0.272632
  27 O :   -0.245010
  28 O :   -0.253101
  29 C :    0.001564
  30 C :    0.131514
  31 C :   -0.044903
  32 C :    0.014131
  33 C :   -0.001253
  34 C :   -0.000226
  35 C :    0.112767
  36 O :   -0.216351
  37 C :    0.095112
  38 C :    0.096413
  39 C :    0.059744
  40 O :   -0.169518
  41 O :   -0.188661
  42 C :   -0.031537
  43 C :    0.007788
  44 C :    0.030379
  45 C :   -0.001775
  46 C :    0.016393
  47 C :   -0.039703
  48 C :    0.052779
  49 C :    0.016012
  50 C :   -0.022420
  51 S :    0.084709
  52 C :   -0.067302
  53 C :    0.033447
  54 C :    0.015706
  55 C :   -0.026858
  56 S :    0.121651
  57 C :    0.018958
  58 C :   -0.033295
  59 C :   -0.091795
  60 C :    0.333294
  61 C :   -0.371378
  62 C :   -0.187940
  63 N :    0.132777
  64 C :   -0.191910
  65 N :    0.128257
  66 C :    0.009252
  67 C :   -0.005953
  68 C :    0.134665
  69 O :   -0.168025
  70 C :   -0.079500
  71 C :    0.116799
  72 C :   -0.093051
  73 C :   -0.022926
  74 S :    0.178261
  75 C :   -0.125263
  76 C :    0.039637
  77 Br:    0.012798
  78 H :    0.009960
  79 H :   -0.000856
  80 H :   -0.004440
  81 H :   -0.010991
  82 H :    0.050224
  83 H :    0.178740
  84 H :    0.015736
  85 H :    0.002740
  86 H :   -0.003895
  87 H :    0.012632
  88 H :   -0.006295
  89 H :    0.196836
  90 H :    0.196046
  91 H :   -0.031374
  92 H :    0.000423
  93 H :   -0.005501
  94 H :   -0.002984
  95 H :   -0.006628
  96 H :   -0.004266
  97 H :   -0.004736
  98 H :   -0.004623
  99 H :    0.015901
 100 H :    0.007395
 101 H :   -0.005593
 102 H :   -0.018050
 103 H :   -0.011185
 104 H :   -0.008071
Sum of atomic charges:   -0.0000000

LOEWDIN ATOMIC CHARGES
----------------------
   0 C :   -0.027982
   1 C :    0.068159
   2 F :   -0.046313
   3 C :    0.068334
   4 F :   -0.048058
   5 C :   -0.032442
   6 C :   -0.010397
   7 C :   -0.006077
   8 C :    0.020213
   9 C :   -0.020072
  10 C :   -0.052796
  11 C :    0.031806
  12 C :    0.094704
  13 O :   -0.178767
  14 C :   -0.145842
  15 C :    0.077848
  16 C :   -0.147653
  17 C :   -0.021089
  18 N :   -0.051748
  19 C :   -0.019494
  20 N :   -0.052953
  21 C :    0.112547
  22 N :    0.083315
  23 C :   -0.117432
  24 S :    0.472829
  25 C :   -0.198860
  26 N :    0.272852
  27 O :   -0.211247
  28 O :   -0.219948
  29 C :    0.002113
  30 C :   -0.081434
  31 C :   -0.031695
  32 C :   -0.014463
  33 C :   -0.024267
  34 C :   -0.023529
  35 C :    0.014896
  36 O :    0.003732
  37 C :   -0.015363
  38 C :   -0.005772
  39 C :   -0.004969
  40 O :   -0.038530
  41 O :   -0.051136
  42 C :   -0.021615
  43 C :   -0.042969
  44 C :   -0.000651
  45 C :   -0.043044
  46 C :   -0.019416
  47 C :   -0.163247
  48 C :   -0.012872
  49 C :   -0.042508
  50 C :   -0.146239
  51 S :    0.385317
  52 C :   -0.200731
  53 C :   -0.006291
  54 C :   -0.046246
  55 C :   -0.104075
  56 S :    0.403977
  57 C :   -0.075047
  58 C :    0.055429
  59 C :   -0.115057
  60 C :    0.075221
  61 C :   -0.162919
  62 C :   -0.019585
  63 N :   -0.071525
  64 C :   -0.016103
  65 N :   -0.078218
  66 C :   -0.018256
  67 C :   -0.047812
  68 C :    0.080552
  69 O :   -0.161672
  70 C :    0.015663
  71 C :   -0.036496
  72 C :   -0.146427
  73 C :   -0.013648
  74 S :    0.426583
  75 C :   -0.275408
  76 C :   -0.071368
  77 Br:    0.128458
  78 H :    0.048718
  79 H :    0.044668
  80 H :    0.041235
  81 H :    0.040301
  82 H :    0.036449
  83 H :    0.087044
  84 H :    0.046194
  85 H :    0.027925
  86 H :    0.031501
  87 H :    0.033602
  88 H :    0.035809
  89 H :    0.106627
  90 H :    0.102315
  91 H :    0.025680
  92 H :    0.034239
  93 H :    0.033392
  94 H :    0.017618
  95 H :    0.037700
  96 H :    0.037504
  97 H :    0.035031
  98 H :    0.036192
  99 H :    0.041832
 100 H :    0.032535
 101 H :    0.036409
 102 H :    0.037934
 103 H :    0.039862
 104 H :    0.036908

  Mayer bond orders larger than 0.100000
B(  0-C ,  1-C ) :   1.4371 B(  0-C ,  5-C ) :   0.1071 B(  0-C ,  7-C ) :   1.1931
B(  0-C , 78-H ) :   1.0067 B(  1-C ,  2-F ) :   1.1385 B(  1-C ,  3-C ) :   1.1923
B(  3-C ,  4-F ) :   1.1340 B(  3-C ,  5-C ) :   1.4408 B(  5-C ,  6-C ) :   1.1951
B(  5-C , 79-H ) :   1.0066 B(  6-C ,  7-C ) :   1.2594 B(  6-C , 11-C ) :   1.1849
B(  7-C ,  8-C ) :   1.2086 B(  8-C ,  9-C ) :   1.4656 B(  8-C , 80-H ) :   0.9895
B(  9-C , 10-C ) :   1.2203 B(  9-C , 15-C ) :   0.9862 B( 10-C , 11-C ) :   1.4721
B( 10-C , 12-C ) :   0.9771 B( 11-C , 81-H ) :   1.0176 B( 12-C , 13-O ) :   2.0412
B( 12-C , 14-C ) :   1.0061 B( 13-O , 83-H ) :   0.1438 B( 14-C , 15-C ) :   1.1045
B( 14-C , 21-C ) :   1.4413 B( 15-C , 16-C ) :   1.6288 B( 16-C , 17-C ) :   1.1447
B( 16-C , 19-C ) :   1.1466 B( 17-C , 18-N ) :   2.9564 B( 19-C , 20-N ) :   2.9615
B( 21-C , 22-N ) :   1.3500 B( 21-C , 82-H ) :   0.9303 B( 22-N , 23-C ) :   1.1853
B( 22-N , 83-H ) :   0.8251 B( 23-C , 24-S ) :   1.1336 B( 23-C , 30-C ) :   1.3791
B( 24-S , 25-C ) :   1.0853 B( 25-C , 26-N ) :   0.9600 B( 25-C , 29-C ) :   1.5036
B( 26-N , 27-O ) :   1.5389 B( 26-N , 28-O ) :   1.5194 B( 27-O , 28-O ) :   0.2638
B( 29-C , 30-C ) :   1.2177 B( 29-C , 84-H ) :   1.0008 B( 30-C , 31-C ) :   1.0725
B( 31-C , 32-C ) :   1.7296 B( 31-C , 85-H ) :   0.9591 B( 32-C , 33-C ) :   1.1260
B( 32-C , 86-H ) :   0.9707 B( 33-C , 34-C ) :   1.6592 B( 33-C , 87-H ) :   0.9644
B( 34-C , 35-C ) :   1.1733 B( 34-C , 88-H ) :   0.9552 B( 35-C , 36-O ) :   1.1140
B( 35-C , 37-C ) :   0.1009 B( 35-C , 39-C ) :   1.3905 B( 36-O , 37-C ) :   1.1132
B( 37-C , 38-C ) :   1.2674 B( 37-C , 42-C ) :   1.2186 B( 38-C , 39-C ) :   1.2669
B( 38-C , 41-O ) :   1.2404 B( 39-C , 40-O ) :   1.2442 B( 40-O , 89-H ) :   0.9477
B( 41-O , 90-H ) :   0.9558 B( 42-C , 43-C ) :   1.5906 B( 42-C , 91-H ) :   0.9483
B( 43-C , 44-C ) :   1.1813 B( 43-C , 92-H ) :   0.9825 B( 44-C , 45-C ) :   1.5651
B( 44-C , 93-H ) :   0.9811 B( 45-C , 46-C ) :   1.2234 B( 45-C , 94-H ) :   0.9610
B( 46-C , 47-C ) :   1.4995 B( 46-C , 95-H ) :   0.9847 B( 47-C , 48-C ) :   1.1761
B( 47-C , 51-S ) :   1.0263 B( 48-C , 49-C ) :   1.5479 B( 48-C , 96-H ) :   1.0002
B( 49-C , 50-C ) :   1.2229 B( 49-C , 97-H ) :   0.9942 B( 50-C , 51-S ) :   1.0823
B( 50-C , 52-C ) :   1.4371 B( 52-C , 53-C ) :   1.2311 B( 52-C , 56-S ) :   1.0445
B( 53-C , 54-C ) :   1.5426 B( 53-C , 98-H ) :   0.9934 B( 54-C , 55-C ) :   1.2062
B( 54-C , 99-H ) :   0.9888 B( 55-C , 56-S ) :   1.0994 B( 55-C , 57-C ) :   1.3647
B( 57-C , 58-C ) :   1.3208 B( 57-C ,100-H ) :   0.9657 B( 58-C , 59-C ) :   1.4504
B( 58-C ,101-H ) :   0.9465 B( 59-C , 60-C ) :   1.1227 B( 59-C , 68-C ) :   0.9675
B( 60-C , 61-C ) :   1.5715 B( 60-C , 66-C ) :   0.9885 B( 61-C , 62-C ) :   1.1496
B( 61-C , 64-C ) :   1.1588 B( 62-C , 63-N ) :   2.9602 B( 64-C , 65-N ) :   2.9730
B( 66-C , 67-C ) :   1.2812 B( 66-C , 73-C ) :   1.4215 B( 67-C , 68-C ) :   0.9336
B( 67-C , 70-C ) :   1.4314 B( 68-C , 69-O ) :   2.1855 B( 70-C , 71-C ) :   1.2374
B( 70-C ,102-H ) :   1.0157 B( 71-C , 72-C ) :   1.3208 B( 71-C , 76-C ) :   1.1605
B( 72-C , 73-C ) :   1.3192 B( 72-C , 74-S ) :   1.0817 B( 73-C ,103-H ) :   0.9786
B( 74-S , 75-C ) :   1.0868 B( 75-C , 76-C ) :   1.6183 B( 75-C , 77-Br) :   1.0124
B( 76-C ,104-H ) :   1.0002

-----------------------------------------------------------------------------
         ABSORPTION SPECTRUM VIA TRANSITION ELECTRIC DIPOLE MOMENTS
-----------------------------------------------------------------------------
State   Energy  Wavelength   fosc         T2         TX        TY        TZ
        (cm-1)    (nm)                  (au**2)     (au)      (au)      (au)
-----------------------------------------------------------------------------
   0    9734.4   1027.3   1.975051837  66.79501   3.73656  -4.62674   5.60592
   1   16826.6    594.3   0.170643546   3.33863   1.06951   1.43469  -0.36937
   2   17641.6    566.8   0.157865395   2.94594   1.26603   0.21141  -1.13948
   3   19488.3    513.1   0.403864341   6.82241  -1.55217   0.76775   1.95544
   4   21748.0    459.8   0.098954396   1.49793  -0.17867  -1.00267  -0.67871
   5   22243.3    449.6   0.446528443   6.60885  -0.03069   2.37693   0.97884
   6   22697.2    440.6   0.223456096   3.24112  -0.46201   0.22675   1.72518
   7   24140.4    414.2   0.020939219   0.28556   0.37559  -0.22797  -0.30417
   8   25108.4    398.3   0.146232817   1.91735  -0.48585  -0.10379   1.29249
   9   25707.6    389.0   0.453764980   5.81092   1.33234  -1.79854  -0.89501
  10   26420.2    378.5   0.006332184   0.07890  -0.15293  -0.21653   0.09290
  11   26625.6    375.6   0.359243635   4.44186  -1.65449  -0.45941  -1.22207
  12   27109.6    368.9   0.000144363   0.00175   0.04145  -0.00485   0.00335
  13   27415.9    364.8   0.099327834   1.19274   0.84629  -0.07671   0.68603
  14   28310.5    353.2   0.092095120   1.07094   0.03954   0.40226  -0.95266
  15   28417.7    351.9   0.003379298   0.03915   0.08460  -0.05381  -0.17057
  16   28893.1    346.1   0.016414703   0.18703   0.34374  -0.23391  -0.11901
  17   29703.3    336.7   0.010691490   0.11850  -0.01125   0.26414  -0.22046
  18   30058.3    332.7   0.260905933   2.85755   1.02028   0.68018   1.16359
  19   30213.6    331.0   0.109186530   1.18971   0.16544   0.69491   0.82428
  20   31015.2    322.4   0.154904365   1.64424   1.14458  -0.54429  -0.19474
  21   31390.2    318.6   0.149518191   1.56811   0.46432   0.45730   1.06929
  22   31443.1    318.0   0.236338591   2.47448   1.43474  -0.63301  -0.12368
  23   31671.6    315.7   0.004961783   0.05158  -0.09868   0.04130   0.20033
  24   32410.8    308.5   0.413636011   4.20149   1.99227  -0.28279  -0.39036
  25   32752.8    305.3   0.147100980   1.47857  -0.22442   0.43303   1.11386
  26   33157.2    301.6   0.026091185   0.25905   0.03500  -0.37047  -0.34725
  27   33255.1    300.7   0.000173215   0.00171   0.02474  -0.03315   0.00192
  28   33371.7    299.7   0.023547009   0.23229   0.20955   0.39952  -0.16960
  29   33878.3    295.2   0.001672267   0.01625  -0.04969   0.11223   0.03441
  30   34474.8    290.1   0.224661746   2.14537  -0.68742  -0.29563  -1.25914
  31   34545.6    289.5   0.556186153   5.30032   1.45399   0.10513   1.78190
  32   34918.6    286.4   0.075267094   0.70962  -0.78686   0.30037   0.01578
  33   35016.2    285.6   0.110823741   1.04193  -0.81923   0.43013  -0.43103
  34   35195.7    284.1   0.085714023   0.80175  -0.45038   0.33803  -0.69616
  35   35252.4    283.7   0.081631760   0.76233  -0.37461   0.44328  -0.65231
  36   35731.4    279.9   0.041839993   0.38549  -0.58273   0.16677   0.13458
  37   36114.1    276.9   0.063020898   0.57449  -0.44083  -0.01471   0.61640
  38   36192.0    276.3   0.001331492   0.01211   0.06543   0.01147  -0.08774
  39   36267.0    275.7   0.001424770   0.01293  -0.08267  -0.04522  -0.06368
  40   36402.6    274.7   0.001053329   0.00953  -0.00712   0.07009  -0.06755
  41   36803.9    271.7   0.007016455   0.06276  -0.20924  -0.12989   0.04594
  42   37104.5    269.5   0.091890479   0.81530  -0.44899   0.58747  -0.51826
  43   37164.9    269.1   0.056038387   0.49640   0.47700  -0.05547   0.51555
  44   37450.6    267.0   0.011289051   0.09924   0.21104  -0.23386   0.00276
  45   37825.8    264.4   0.232047461   2.01960   0.65263   0.12918  -1.25578
  46   37976.0    263.3   0.007755875   0.06724  -0.07209   0.18864  -0.16264
  47   38114.3    262.4   0.143529476   1.23973   0.14663  -1.10165  -0.06785
  48   38348.3    260.8   0.039307767   0.33745   0.24001  -0.38093  -0.36707
  49   38661.9    258.7   0.020582703   0.17527   0.14351   0.03693  -0.39154
  50   39025.4    256.2   0.003066365   0.02587   0.00887  -0.03302   0.15716
  51   39338.2    254.2   0.016379574   0.13708  -0.09532  -0.24334  -0.26225
  52   39466.7    253.4   0.039080044   0.32599  -0.24075   0.15468  -0.49406
  53   39725.2    251.7   0.048600889   0.40277  -0.37393  -0.20836   0.46854
  54   39871.8    250.8   0.050482313   0.41682   0.19549  -0.54441   0.28675
  55   40007.2    250.0   0.043222861   0.35567  -0.11442   0.25750  -0.52562
  56   40109.8    249.3   0.029348383   0.24088   0.12101  -0.21656   0.42349
  57   40133.3    249.2   0.000195039   0.00160  -0.00492  -0.00642   0.03917

FINAL SINGLE POINT ENERGY     -7443.132571342165

DIPOLE MOMENT
-------------
                                X             Y             Z
Electronic contribution:   -145.58785      86.32360     -65.29239
Nuclear contribution   :    146.21432     -87.71975      66.13009
                        -----------------------------------------
Total Dipole Moment    :      0.62647      -1.39615       0.83770
                        -----------------------------------------
Magnitude (a.u.)       :      1.74454
Magnitude (Debye)      :      4.43428

Rotational constants in cm-1:     0.000780     0.000115     0.000113
Rotational constants in MHz :    23.376371     3.449825     3.394822

                             ****ORCA TERMINATED NORMALLY****
TOTAL RUN TIME: 0 days 0 hours 11 minutes 38 seconds 778 msec
