                         Program Version 4.2.0 -  RELEASE  -
|  1> # ORCA input file
|  2> # SCF done       -211.445528112408          0.000559164429
|  3> ! CAM-B3LYP def2-SVP def2/J RIJCOSX Grid4 TightSCF
|  4> %maxcore 5000
|  5> %tddft
|  6>     Mode sTDDFT
|  7>     Ethresh 5.0
|  8>     maxcore 5000
|  9> end
| 10>
| 11> %pal
| 12>   nprocs 6
| 13>   end
| 14> * xyz 0 1
| 15>    C      -13.15008        -5.62362        -6.19172
| 16>    C      -14.37999        -5.49141        -5.60966
| 17>    F      -15.49041        -5.69968        -6.32563
| 18>    C      -14.49334        -5.14036        -4.25051
| 19>    F      -15.70967        -5.00697        -3.70370
| 20>    C      -13.37684        -4.94016        -3.48773
| 21>    C      -12.09700        -5.07704        -4.05709
| 22>    C      -11.98067        -5.41178        -5.43663
| 23>    C      -10.70462        -5.51457        -6.03894
| 24>    C       -9.58405        -5.30561        -5.28177
| 25>    C       -9.70987        -5.00923        -3.89699
| 26>    C      -10.92429        -4.89355        -3.28831
| 27>    C       -8.35819        -4.92416        -3.30892
| 28>    O       -8.10459        -4.91606        -2.11157
| 29>    C       -7.41947        -4.99087        -4.42307
| 30>    C       -8.15919        -5.32925        -5.61600
| 31>    C       -7.66323        -5.64601        -6.85906
| 32>    C       -6.30970        -5.65678        -7.24943
| 33>    N       -5.24592        -5.67143        -7.68562
| 34>    C       -8.46402        -5.98763        -7.96516
| 35>    N       -9.04578        -6.25555        -8.91954
| 36>    C       -6.03785        -4.85753        -4.37220
| 37>    C       -5.15966        -4.49713        -3.35972
| 38>    C       -5.29926        -3.90262        -2.11194
| 39>    C       -4.22358        -3.87269        -1.18057
| 40>    C       -4.53011        -3.31193         0.01794
| 41>    C       -5.85468        -2.81619         0.06992
| 42>    S       -6.66575        -3.07332        -1.46180
| 43>    C       -6.50491        -2.30473         1.17610
| 44>    C       -6.00840        -2.18940         2.49759
| 45>    C       -6.91574        -1.73475         3.40304
| 46>    C       -8.18274        -1.43240         2.84600
| 47>    S       -8.16354        -1.77064         1.10611
| 48>    C       -9.28416        -0.93313         3.47908
| 49>    N      -10.41027        -0.63071         2.79420
| 50>    C      -11.53267        -0.00714         3.22841
| 51>    S      -11.85212         0.31942         4.89663
| 52>    C      -13.29036         1.17342         4.42786
| 53>    N      -14.05359         1.72804         5.45820
| 54>    O      -15.05870         2.34306         5.15743
| 55>    O      -13.63857         1.54881         6.59260
| 56>    C      -13.50025         1.20285         3.07223
| 57>    C      -12.50473         0.51561         2.36282
| 58>    C      -12.37231         0.38750         0.93103
| 59>    C      -12.69111         1.33274         0.03290
| 60>    N      -12.35098         1.17578        -1.28219
| 61>    C      -12.44289         2.10130        -2.25355
| 62>    S      -13.51745         3.45962        -2.15812
| 63>    C      -13.07744         3.90256        -3.78292
| 64>    N      -13.65916         5.06122        -4.31109
| 65>    O      -13.35863         5.37924        -5.44544
| 66>    O      -14.42585         5.66442        -3.58033
| 67>    C      -12.16856         3.05740        -4.35456
| 68>    C      -11.75570         2.03242        -3.48039
| 69>    C      -10.71733         1.09579        -3.79065
| 70>    C       -9.87300         0.51802        -2.90063
| 71>    C       -8.84791        -0.40353        -3.25496
| 72>    C       -8.85800        -1.28826        -4.28961
| 73>    C       -7.57687        -1.78624        -4.86423
| 74>    O       -6.48843        -1.76717        -4.33850
| 75>    C       -7.92826        -2.22928        -6.22801
| 76>    C       -7.10519        -2.59342        -7.25479
| 77>    C       -7.67392        -2.96676        -8.49458
| 78>    C       -9.09255        -2.95676        -8.64817
| 79>    C       -9.65167        -3.33493        -9.88450
| 80>    C       -8.84206        -3.71231       -10.91921
| 81>    C       -7.43999        -3.72699       -10.76433
| 82>    C       -6.86607        -3.36043        -9.57853
| 83>    F       -6.67440        -4.09329       -11.79520
| 84>    F       -9.37142        -4.06023       -12.09377
| 85>    C       -9.92016        -2.57215        -7.56972
| 86>    C       -9.34681        -2.20644        -6.38059
| 87>    C       -9.93736        -1.75014        -5.13174
| 88>    C      -11.24767        -1.90965        -4.74236
| 89>    C      -11.65961        -1.63970        -3.43283
| 90>    N      -11.99233        -1.42339        -2.35163
| 91>    C      -12.28477        -2.32977        -5.59517
| 92>    N      -13.17332        -2.60875        -6.26614
| 93>    H      -13.07972        -5.88438        -7.23586
| 94>    H      -13.48062        -4.67463        -2.44713
| 95>    H      -10.65165        -5.75785        -7.08731
| 96>    H      -10.99360        -4.66421        -2.23557
| 97>    H       -5.53122        -5.12742        -5.29024
| 98>    H       -4.12394        -4.72927        -3.58826
| 99>    H       -3.27188        -4.31502        -1.41660
|100>    H       -3.85760        -3.25675         0.85441
|101>    H       -4.99958        -2.46572         2.74325
|102>    H       -6.71915        -1.60239         4.45163
|103>    H       -9.28195        -0.74090         4.54144
|104>    H      -10.36995        -0.81018         1.79514
|105>    H      -14.35035         1.68722         2.62831
|106>    H      -11.90983        -0.51888         0.55917
|107>    H      -13.13788         2.27748         0.30591
|108>    H      -12.03471         0.23841        -1.56935
|109>    H      -11.78828         3.20144        -5.34978
|110>    H      -10.55975         0.91478        -4.84705
|111>    H       -9.88259         0.84330        -1.86877
|112>    H       -7.92591        -0.35739        -2.68547
|113>    H       -6.03353        -2.60587        -7.12508
|114>    H      -10.72213        -3.33766       -10.01652
|115>    H       -5.79284        -3.38869        -9.47293
|116>    H      -10.98944        -2.55776        -7.71185
|117> *
|118>
|119>                          ****END OF INPUT****

CARTESIAN COORDINATES (ANGSTROEM)
---------------------------------
  C    -13.150080   -5.623620   -6.191720
  C    -14.379990   -5.491410   -5.609660
  F    -15.490410   -5.699680   -6.325630
  C    -14.493340   -5.140360   -4.250510
  F    -15.709670   -5.006970   -3.703700
  C    -13.376840   -4.940160   -3.487730
  C    -12.097000   -5.077040   -4.057090
  C    -11.980670   -5.411780   -5.436630
  C    -10.704620   -5.514570   -6.038940
  C     -9.584050   -5.305610   -5.281770
  C     -9.709870   -5.009230   -3.896990
  C    -10.924290   -4.893550   -3.288310
  C     -8.358190   -4.924160   -3.308920
  O     -8.104590   -4.916060   -2.111570
  C     -7.419470   -4.990870   -4.423070
  C     -8.159190   -5.329250   -5.616000
  C     -7.663230   -5.646010   -6.859060
  C     -6.309700   -5.656780   -7.249430
  N     -5.245920   -5.671430   -7.685620
  C     -8.464020   -5.987630   -7.965160
  N     -9.045780   -6.255550   -8.919540
  C     -6.037850   -4.857530   -4.372200
  C     -5.159660   -4.497130   -3.359720
  C     -5.299260   -3.902620   -2.111940
  C     -4.223580   -3.872690   -1.180570
  C     -4.530110   -3.311930    0.017940
  C     -5.854680   -2.816190    0.069920
  S     -6.665750   -3.073320   -1.461800
  C     -6.504910   -2.304730    1.176100
  C     -6.008400   -2.189400    2.497590
  C     -6.915740   -1.734750    3.403040
  C     -8.182740   -1.432400    2.846000
  S     -8.163540   -1.770640    1.106110
  C     -9.284160   -0.933130    3.479080
  N    -10.410270   -0.630710    2.794200
  C    -11.532670   -0.007140    3.228410
  S    -11.852120    0.319420    4.896630
  C    -13.290360    1.173420    4.427860
  N    -14.053590    1.728040    5.458200
  O    -15.058700    2.343060    5.157430
  O    -13.638570    1.548810    6.592600
  C    -13.500250    1.202850    3.072230
  C    -12.504730    0.515610    2.362820
  C    -12.372310    0.387500    0.931030
  C    -12.691110    1.332740    0.032900
  N    -12.350980    1.175780   -1.282190
  C    -12.442890    2.101300   -2.253550
  S    -13.517450    3.459620   -2.158120
  C    -13.077440    3.902560   -3.782920
  N    -13.659160    5.061220   -4.311090
  O    -13.358630    5.379240   -5.445440
  O    -14.425850    5.664420   -3.580330
  C    -12.168560    3.057400   -4.354560
  C    -11.755700    2.032420   -3.480390
  C    -10.717330    1.095790   -3.790650
  C     -9.873000    0.518020   -2.900630
  C     -8.847910   -0.403530   -3.254960
  C     -8.858000   -1.288260   -4.289610
  C     -7.576870   -1.786240   -4.864230
  O     -6.488430   -1.767170   -4.338500
  C     -7.928260   -2.229280   -6.228010
  C     -7.105190   -2.593420   -7.254790
  C     -7.673920   -2.966760   -8.494580
  C     -9.092550   -2.956760   -8.648170
  C     -9.651670   -3.334930   -9.884500
  C     -8.842060   -3.712310  -10.919210
  C     -7.439990   -3.726990  -10.764330
  C     -6.866070   -3.360430   -9.578530
  F     -6.674400   -4.093290  -11.795200
  F     -9.371420   -4.060230  -12.093770
  C     -9.920160   -2.572150   -7.569720
  C     -9.346810   -2.206440   -6.380590
  C     -9.937360   -1.750140   -5.131740
  C    -11.247670   -1.909650   -4.742360
  C    -11.659610   -1.639700   -3.432830
  N    -11.992330   -1.423390   -2.351630
  C    -12.284770   -2.329770   -5.595170
  N    -13.173320   -2.608750   -6.266140
  H    -13.079720   -5.884380   -7.235860
  H    -13.480620   -4.674630   -2.447130
  H    -10.651650   -5.757850   -7.087310
  H    -10.993600   -4.664210   -2.235570
  H     -5.531220   -5.127420   -5.290240
  H     -4.123940   -4.729270   -3.588260
  H     -3.271880   -4.315020   -1.416600
  H     -3.857600   -3.256750    0.854410
  H     -4.999580   -2.465720    2.743250
  H     -6.719150   -1.602390    4.451630
  H     -9.281950   -0.740900    4.541440
  H    -10.369950   -0.810180    1.795140
  H    -14.350350    1.687220    2.628310
  H    -11.909830   -0.518880    0.559170
  H    -13.137880    2.277480    0.305910
  H    -12.034710    0.238410   -1.569350
  H    -11.788280    3.201440   -5.349780
  H    -10.559750    0.914780   -4.847050
  H     -9.882590    0.843300   -1.868770
  H     -7.925910   -0.357390   -2.685470
  H     -6.033530   -2.605870   -7.125080
  H    -10.722130   -3.337660  -10.016520
  H     -5.792840   -3.388690   -9.472930
  H    -10.989440   -2.557760   -7.711850

 Total Charge           Charge          ....    0
 Multiplicity           Mult            ....    1
 Number of Electrons    NEL             ....  564
 Basis Dimension        Dim             .... 1228

ORBITAL ENERGIES
----------------

  NO   OCC          E(Eh)            E(eV)
   0   2.0000     -89.002586     -2421.8835
   1   2.0000     -88.996191     -2421.7095
   2   2.0000     -88.985515     -2421.4190
   3   2.0000     -88.970148     -2421.0008
   4   2.0000     -24.793223      -674.6579
   5   2.0000     -24.792876      -674.6485
   6   2.0000     -24.789913      -674.5678
   7   2.0000     -24.787417      -674.4999
   8   2.0000     -19.245633      -523.7003
   9   2.0000     -19.245224      -523.6892
  10   2.0000     -19.242701      -523.6205
  11   2.0000     -19.241987      -523.6011
  12   2.0000     -19.224329      -523.1206
  13   2.0000     -19.205428      -522.6063
  14   2.0000     -14.657648      -398.8549
  15   2.0000     -14.654511      -398.7695
  16   2.0000     -14.515357      -394.9829
  17   2.0000     -14.485353      -394.1665
  18   2.0000     -14.446453      -393.1080
  19   2.0000     -14.426232      -392.5577
  20   2.0000     -14.411351      -392.1528
  21   2.0000     -14.408070      -392.0635
  22   2.0000     -10.385848      -282.6133
  23   2.0000     -10.384522      -282.5772
  24   2.0000     -10.377229      -282.3788
  25   2.0000     -10.376571      -282.3609
  26   2.0000     -10.376441      -282.3573
  27   2.0000     -10.375546      -282.3330
  28   2.0000     -10.371662      -282.2273
  29   2.0000     -10.369564      -282.1702
  30   2.0000     -10.357606      -281.8448
  31   2.0000     -10.355354      -281.7835
  32   2.0000     -10.355320      -281.7826
  33   2.0000     -10.354251      -281.7535
  34   2.0000     -10.352792      -281.7138
  35   2.0000     -10.352076      -281.6943
  36   2.0000     -10.350865      -281.6614
  37   2.0000     -10.350708      -281.6571
  38   2.0000     -10.340148      -281.3697
  39   2.0000     -10.331827      -281.1433
  40   2.0000     -10.330436      -281.1055
  41   2.0000     -10.330123      -281.0969
  42   2.0000     -10.329969      -281.0927
  43   2.0000     -10.328218      -281.0451
  44   2.0000     -10.326344      -280.9941
  45   2.0000     -10.325976      -280.9841
  46   2.0000     -10.324364      -280.9402
  47   2.0000     -10.323356      -280.9128
  48   2.0000     -10.321901      -280.8732
  49   2.0000     -10.318831      -280.7897
  50   2.0000     -10.316004      -280.7127
  51   2.0000     -10.314819      -280.6805
  52   2.0000     -10.313370      -280.6411
  53   2.0000     -10.313174      -280.6357
  54   2.0000     -10.312558      -280.6190
  55   2.0000     -10.310786      -280.5708
  56   2.0000     -10.310338      -280.5586
  57   2.0000     -10.309094      -280.5247
  58   2.0000     -10.308589      -280.5110
  59   2.0000     -10.307781      -280.4890
  60   2.0000     -10.307260      -280.4748
  61   2.0000     -10.304694      -280.4050
  62   2.0000     -10.304261      -280.3932
  63   2.0000     -10.301112      -280.3075
  64   2.0000     -10.299566      -280.2654
  65   2.0000     -10.299448      -280.2622
  66   2.0000     -10.298379      -280.2331
  67   2.0000     -10.297138      -280.1994
  68   2.0000     -10.296271      -280.1758
  69   2.0000     -10.295418      -280.1526
  70   2.0000     -10.293975      -280.1133
  71   2.0000     -10.293227      -280.0929
  72   2.0000     -10.291960      -280.0585
  73   2.0000     -10.291896      -280.0567
  74   2.0000     -10.289588      -279.9939
  75   2.0000     -10.284330      -279.8509
  76   2.0000     -10.283390      -279.8253
  77   2.0000     -10.281088      -279.7626
  78   2.0000      -8.097805      -220.3525
  79   2.0000      -8.091778      -220.1885
  80   2.0000      -8.081722      -219.9148
  81   2.0000      -8.064475      -219.4455
  82   2.0000      -6.067506      -165.1052
  83   2.0000      -6.063092      -164.9851
  84   2.0000      -6.061429      -164.9399
  85   2.0000      -6.059262      -164.8809
  86   2.0000      -6.057016      -164.8198
  87   2.0000      -6.053231      -164.7168
  88   2.0000      -6.051449      -164.6683
  89   2.0000      -6.047542      -164.5620
  90   2.0000      -6.042586      -164.4271
  91   2.0000      -6.033933      -164.1917
  92   2.0000      -6.029512      -164.0714
  93   2.0000      -6.026423      -163.9873
  94   2.0000      -1.326693       -36.1012
  95   2.0000      -1.324195       -36.0332
  96   2.0000      -1.317432       -35.8491
  97   2.0000      -1.311720       -35.6937
  98   2.0000      -1.302446       -35.4414
  99   2.0000      -1.296863       -35.2894
 100   2.0000      -1.146249       -31.1910
 101   2.0000      -1.143697       -31.1216
 102   2.0000      -1.140078       -31.0231
 103   2.0000      -1.122271       -30.5386
 104   2.0000      -1.118764       -30.4431
 105   2.0000      -1.101479       -29.9728
 106   2.0000      -1.041414       -28.3383
 107   2.0000      -1.028389       -27.9839
 108   2.0000      -1.019581       -27.7442
 109   2.0000      -1.017918       -27.6990
 110   2.0000      -1.014603       -27.6088
 111   2.0000      -1.012866       -27.5615
 112   2.0000      -1.008689       -27.4478
 113   2.0000      -0.996571       -27.1181
 114   2.0000      -0.994894       -27.0725
 115   2.0000      -0.990021       -26.9398
 116   2.0000      -0.985756       -26.8238
 117   2.0000      -0.971296       -26.4303
 118   2.0000      -0.949645       -25.8412
 119   2.0000      -0.937902       -25.5216
 120   2.0000      -0.933274       -25.3957
 121   2.0000      -0.924277       -25.1509
 122   2.0000      -0.918683       -24.9986
 123   2.0000      -0.912015       -24.8172
 124   2.0000      -0.903488       -24.5852
 125   2.0000      -0.895276       -24.3617
 126   2.0000      -0.893116       -24.3029
 127   2.0000      -0.890632       -24.2353
 128   2.0000      -0.883867       -24.0513
 129   2.0000      -0.880499       -23.9596
 130   2.0000      -0.877748       -23.8847
 131   2.0000      -0.874634       -23.8000
 132   2.0000      -0.858168       -23.3519
 133   2.0000      -0.851252       -23.1638
 134   2.0000      -0.847254       -23.0549
 135   2.0000      -0.845593       -23.0098
 136   2.0000      -0.841893       -22.9091
 137   2.0000      -0.830781       -22.6067
 138   2.0000      -0.823745       -22.4152
 139   2.0000      -0.807930       -21.9849
 140   2.0000      -0.800103       -21.7719
 141   2.0000      -0.785021       -21.3615
 142   2.0000      -0.774608       -21.0782
 143   2.0000      -0.766754       -20.8644
 144   2.0000      -0.758078       -20.6284
 145   2.0000      -0.754417       -20.5287
 146   2.0000      -0.748083       -20.3564
 147   2.0000      -0.739196       -20.1145
 148   2.0000      -0.728921       -19.8349
 149   2.0000      -0.725423       -19.7398
 150   2.0000      -0.723689       -19.6926
 151   2.0000      -0.720657       -19.6101
 152   2.0000      -0.711122       -19.3506
 153   2.0000      -0.702280       -19.1100
 154   2.0000      -0.700658       -19.0659
 155   2.0000      -0.696916       -18.9641
 156   2.0000      -0.689201       -18.7541
 157   2.0000      -0.686331       -18.6760
 158   2.0000      -0.679190       -18.4817
 159   2.0000      -0.668700       -18.1962
 160   2.0000      -0.658925       -17.9303
 161   2.0000      -0.656250       -17.8575
 162   2.0000      -0.652326       -17.7507
 163   2.0000      -0.650520       -17.7016
 164   2.0000      -0.646067       -17.5804
 165   2.0000      -0.645656       -17.5692
 166   2.0000      -0.644225       -17.5303
 167   2.0000      -0.643787       -17.5183
 168   2.0000      -0.639190       -17.3933
 169   2.0000      -0.638479       -17.3739
 170   2.0000      -0.638178       -17.3657
 171   2.0000      -0.636131       -17.3100
 172   2.0000      -0.632067       -17.1994
 173   2.0000      -0.629513       -17.1299
 174   2.0000      -0.620346       -16.8805
 175   2.0000      -0.619373       -16.8540
 176   2.0000      -0.615897       -16.7594
 177   2.0000      -0.610791       -16.6205
 178   2.0000      -0.604176       -16.4405
 179   2.0000      -0.601464       -16.3667
 180   2.0000      -0.598789       -16.2939
 181   2.0000      -0.596223       -16.2241
 182   2.0000      -0.589357       -16.0372
 183   2.0000      -0.582467       -15.8497
 184   2.0000      -0.581793       -15.8314
 185   2.0000      -0.581548       -15.8247
 186   2.0000      -0.579573       -15.7710
 187   2.0000      -0.577453       -15.7133
 188   2.0000      -0.576889       -15.6979
 189   2.0000      -0.573451       -15.6044
 190   2.0000      -0.567306       -15.4372
 191   2.0000      -0.564673       -15.3655
 192   2.0000      -0.562100       -15.2955
 193   2.0000      -0.557917       -15.1817
 194   2.0000      -0.555608       -15.1189
 195   2.0000      -0.551316       -15.0021
 196   2.0000      -0.549862       -14.9625
 197   2.0000      -0.546415       -14.8687
 198   2.0000      -0.543663       -14.7938
 199   2.0000      -0.542210       -14.7543
 200   2.0000      -0.539814       -14.6891
 201   2.0000      -0.538607       -14.6562
 202   2.0000      -0.537812       -14.6346
 203   2.0000      -0.537428       -14.6242
 204   2.0000      -0.533234       -14.5100
 205   2.0000      -0.530075       -14.4241
 206   2.0000      -0.528174       -14.3724
 207   2.0000      -0.524950       -14.2846
 208   2.0000      -0.523055       -14.2330
 209   2.0000      -0.520234       -14.1563
 210   2.0000      -0.519471       -14.1355
 211   2.0000      -0.518685       -14.1141
 212   2.0000      -0.516016       -14.0415
 213   2.0000      -0.515149       -14.0179
 214   2.0000      -0.512683       -13.9508
 215   2.0000      -0.510243       -13.8844
 216   2.0000      -0.508329       -13.8323
 217   2.0000      -0.507382       -13.8066
 218   2.0000      -0.506018       -13.7694
 219   2.0000      -0.503491       -13.7007
 220   2.0000      -0.498019       -13.5518
 221   2.0000      -0.495109       -13.4726
 222   2.0000      -0.488964       -13.3054
 223   2.0000      -0.488274       -13.2866
 224   2.0000      -0.485220       -13.2035
 225   2.0000      -0.481938       -13.1142
 226   2.0000      -0.479515       -13.0483
 227   2.0000      -0.476847       -12.9757
 228   2.0000      -0.474362       -12.9080
 229   2.0000      -0.473167       -12.8755
 230   2.0000      -0.471578       -12.8323
 231   2.0000      -0.468657       -12.7528
 232   2.0000      -0.468123       -12.7383
 233   2.0000      -0.465638       -12.6707
 234   2.0000      -0.460911       -12.5420
 235   2.0000      -0.459770       -12.5110
 236   2.0000      -0.459075       -12.4921
 237   2.0000      -0.453817       -12.3490
 238   2.0000      -0.453804       -12.3486
 239   2.0000      -0.451833       -12.2950
 240   2.0000      -0.450242       -12.2517
 241   2.0000      -0.447333       -12.1726
 242   2.0000      -0.446160       -12.1406
 243   2.0000      -0.444422       -12.0934
 244   2.0000      -0.442413       -12.0387
 245   2.0000      -0.440535       -11.9876
 246   2.0000      -0.437808       -11.9134
 247   2.0000      -0.432708       -11.7746
 248   2.0000      -0.428322       -11.6552
 249   2.0000      -0.424368       -11.5476
 250   2.0000      -0.416474       -11.3328
 251   2.0000      -0.415170       -11.2973
 252   2.0000      -0.410050       -11.1580
 253   2.0000      -0.405413       -11.0319
 254   2.0000      -0.401087       -10.9141
 255   2.0000      -0.397177       -10.8077
 256   2.0000      -0.395545       -10.7633
 257   2.0000      -0.393150       -10.6982
 258   2.0000      -0.390044       -10.6136
 259   2.0000      -0.385007       -10.4766
 260   2.0000      -0.384249       -10.4559
 261   2.0000      -0.383272       -10.4294
 262   2.0000      -0.380383       -10.3508
 263   2.0000      -0.375270       -10.2116
 264   2.0000      -0.374479       -10.1901
 265   2.0000      -0.371409       -10.1065
 266   2.0000      -0.369155       -10.0452
 267   2.0000      -0.363096        -9.8803
 268   2.0000      -0.358383        -9.7521
 269   2.0000      -0.352338        -9.5876
 270   2.0000      -0.346798        -9.4369
 271   2.0000      -0.340879        -9.2758
 272   2.0000      -0.330965        -9.0060
 273   2.0000      -0.319322        -8.6892
 274   2.0000      -0.318889        -8.6774
 275   2.0000      -0.315237        -8.5780
 276   2.0000      -0.303329        -8.2540
 277   2.0000      -0.301829        -8.2132
 278   2.0000      -0.295291        -8.0353
 279   2.0000      -0.287272        -7.8171
 280   2.0000      -0.269017        -7.3203
 281   2.0000      -0.237981        -6.4758
 282   0.0000      -0.115315        -3.1379
 283   0.0000      -0.107429        -2.9233
 284   0.0000      -0.072522        -1.9734
 285   0.0000      -0.067374        -1.8333
 286   0.0000      -0.063227        -1.7205

MULLIKEN ATOMIC CHARGES
-----------------------
   0 C :   -0.103231
   1 C :    0.256300
   2 F :   -0.170300
   3 C :    0.239021
   4 F :   -0.174714
   5 C :   -0.107900
   6 C :    0.093830
   7 C :    0.125611
   8 C :   -0.101922
   9 C :    0.046491
  10 C :    0.015069
  11 C :   -0.109013
  12 C :    0.111647
  13 O :   -0.188968
  14 C :   -0.093628
  15 C :    0.351952
  16 C :   -0.392768
  17 C :   -0.208819
  18 N :    0.150425
  19 C :   -0.196468
  20 N :    0.140638
  21 C :    0.009333
  22 C :   -0.026826
  23 C :    0.008703
  24 C :    0.025432
  25 C :    0.037824
  26 C :   -0.080964
  27 S :    0.209418
  28 C :   -0.023086
  29 C :    0.021802
  30 C :    0.065766
  31 C :   -0.069691
  32 S :    0.055795
  33 C :    0.063422
  34 N :   -0.028436
  35 C :   -0.110898
  36 S :    0.169042
  37 C :   -0.012071
  38 N :    0.278828
  39 O :   -0.246436
  40 O :   -0.268197
  41 C :    0.010935
  42 C :    0.108920
  43 C :   -0.092946
  44 C :    0.080968
  45 N :   -0.057143
  46 C :   -0.092270
  47 S :    0.168717
  48 C :   -0.011171
  49 N :    0.277781
  50 O :   -0.248503
  51 O :   -0.264043
  52 C :    0.022969
  53 C :    0.086173
  54 C :    0.021626
  55 C :   -0.062031
  56 C :    0.058174
  57 C :   -0.138224
  58 C :    0.154419
  59 O :   -0.144408
  60 C :    0.028846
  61 C :   -0.088568
  62 C :    0.087065
  63 C :    0.134119
  64 C :   -0.111624
  65 C :    0.264722
  66 C :    0.241362
  67 C :   -0.092467
  68 F :   -0.163433
  69 F :   -0.164358
  70 C :   -0.098492
  71 C :    0.046403
  72 C :    0.267945
  73 C :   -0.376967
  74 C :   -0.086781
  75 N :    0.086234
  76 C :   -0.166490
  77 N :    0.164121
  78 H :   -0.002562
  79 H :   -0.007684
  80 H :   -0.016043
  81 H :   -0.021643
  82 H :   -0.003187
  83 H :   -0.003790
  84 H :   -0.006299
  85 H :   -0.008520
  86 H :   -0.002159
  87 H :    0.004174
  88 H :    0.036466
  89 H :    0.146827
  90 H :    0.013709
  91 H :    0.015561
  92 H :    0.024729
  93 H :    0.150311
  94 H :    0.012801
  95 H :    0.023450
  96 H :    0.008245
  97 H :    0.024844
  98 H :   -0.005385
  99 H :    0.000897
 100 H :    0.008134
 101 H :   -0.006471
Sum of atomic charges:   -0.0000000

LOEWDIN ATOMIC CHARGES
----------------------
   0 C :   -0.023140
   1 C :    0.070557
   2 F :   -0.047360
   3 C :    0.069230
   4 F :   -0.051825
   5 C :   -0.039994
   6 C :   -0.015937
   7 C :   -0.012047
   8 C :    0.010693
   9 C :   -0.026541
  10 C :   -0.050760
  11 C :    0.011546
  12 C :    0.053040
  13 O :   -0.187895
  14 C :   -0.122835
  15 C :    0.079139
  16 C :   -0.165689
  17 C :   -0.019831
  18 N :   -0.072764
  19 C :   -0.014756
  20 N :   -0.077074
  21 C :    0.042167
  22 C :   -0.078220
  23 C :   -0.104448
  24 C :   -0.037811
  25 C :   -0.022282
  26 C :   -0.207004
  27 S :    0.515317
  28 C :   -0.130572
  29 C :   -0.046790
  30 C :   -0.001934
  31 C :   -0.196080
  32 S :    0.364470
  33 C :    0.030378
  34 N :    0.055906
  35 C :   -0.116366
  36 S :    0.461095
  37 C :   -0.207104
  38 N :    0.273119
  39 O :   -0.212655
  40 O :   -0.234702
  41 C :   -0.000843
  42 C :   -0.091950
  43 C :   -0.086488
  44 C :    0.041668
  45 N :    0.044439
  46 C :   -0.081737
  47 S :    0.458094
  48 C :   -0.211554
  49 N :    0.272934
  50 O :   -0.214303
  51 O :   -0.230077
  52 C :    0.010658
  53 C :   -0.117923
  54 C :    0.034974
  55 C :   -0.058970
  56 C :    0.068011
  57 C :   -0.094017
  58 C :    0.082345
  59 O :   -0.140997
  60 C :   -0.058454
  61 C :    0.034383
  62 C :   -0.008558
  63 C :   -0.006456
  64 C :   -0.025367
  65 C :    0.077671
  66 C :    0.075500
  67 C :   -0.027873
  68 F :   -0.041523
  69 F :   -0.040844
  70 C :    0.020293
  71 C :   -0.029285
  72 C :    0.083500
  73 C :   -0.160616
  74 C :    0.046784
  75 N :   -0.089420
  76 C :   -0.019998
  77 N :   -0.053120
  78 H :    0.044470
  79 H :    0.042028
  80 H :    0.036286
  81 H :    0.034947
  82 H :    0.043786
  83 H :    0.041310
  84 H :    0.035644
  85 H :    0.033095
  86 H :    0.037098
  87 H :    0.040784
  88 H :    0.039204
  89 H :    0.083790
  90 H :    0.047520
  91 H :    0.028787
  92 H :    0.027679
  93 H :    0.073633
  94 H :    0.048398
  95 H :    0.039064
  96 H :    0.031879
  97 H :    0.042622
  98 H :    0.042379
  99 H :    0.045510
 100 H :    0.048126
 101 H :    0.038836

  Mayer bond orders larger than 0.100000
B(  0-C ,  1-C ) :   1.4257 B(  0-C ,  5-C ) :   0.1090 B(  0-C ,  7-C ) :   1.2001
B(  0-C , 78-H ) :   1.0079 B(  1-C ,  2-F ) :   1.1374 B(  1-C ,  3-C ) :   1.1980
B(  3-C ,  4-F ) :   1.1311 B(  3-C ,  5-C ) :   1.4325 B(  5-C ,  6-C ) :   1.1951
B(  5-C , 79-H ) :   1.0081 B(  6-C ,  7-C ) :   1.2532 B(  6-C , 11-C ) :   1.1681
B(  7-C ,  8-C ) :   1.2031 B(  8-C ,  9-C ) :   1.4594 B(  8-C , 80-H ) :   0.9861
B(  9-C , 10-C ) :   1.2255 B(  9-C , 15-C ) :   0.9701 B( 10-C , 11-C ) :   1.4606
B( 10-C , 12-C ) :   0.9248 B( 11-C , 81-H ) :   1.0205 B( 12-C , 13-O ) :   2.1298
B( 12-C , 14-C ) :   1.0069 B( 14-C , 15-C ) :   1.1425 B( 14-C , 21-C ) :   1.3611
B( 15-C , 16-C ) :   1.5720 B( 16-C , 17-C ) :   1.1511 B( 16-C , 19-C ) :   1.1735
B( 17-C , 18-N ) :   2.9329 B( 19-C , 20-N ) :   2.8985 B( 21-C , 22-C ) :   1.4207
B( 21-C , 82-H ) :   0.9272 B( 22-C , 23-C ) :   1.3993 B( 22-C , 83-H ) :   0.9421
B( 23-C , 24-C ) :   1.1760 B( 23-C , 27-S ) :   1.1643 B( 24-C , 25-C ) :   1.5639
B( 24-C , 84-H ) :   0.9982 B( 25-C , 26-C ) :   1.1866 B( 25-C , 85-H ) :   0.9921
B( 26-C , 27-S ) :   1.0756 B( 26-C , 28-C ) :   1.4727 B( 28-C , 29-C ) :   1.1997
B( 28-C , 32-S ) :   1.0827 B( 29-C , 30-C ) :   1.5923 B( 29-C , 86-H ) :   0.9921
B( 30-C , 31-C ) :   1.1683 B( 30-C , 87-H ) :   0.9944 B( 31-C , 32-S ) :   1.0058
B( 31-C , 33-C ) :   1.5734 B( 33-C , 34-N ) :   1.1907 B( 33-C , 88-H ) :   0.9623
B( 34-N , 35-C ) :   1.1981 B( 34-N , 89-H ) :   0.8957 B( 35-C , 36-S ) :   1.1300
B( 35-C , 42-C ) :   1.3874 B( 36-S , 37-C ) :   1.0821 B( 37-C , 38-N ) :   0.9758
B( 37-C , 41-C ) :   1.4735 B( 38-N , 39-O ) :   1.5365 B( 38-N , 40-O ) :   1.5045
B( 39-O , 40-O ) :   0.2566 B( 41-C , 42-C ) :   1.2593 B( 41-C , 90-H ) :   1.0037
B( 42-C , 43-C ) :   1.0444 B( 43-C , 44-C ) :   1.7498 B( 43-C , 91-H ) :   0.9423
B( 44-C , 45-N ) :   1.1193 B( 44-C , 92-H ) :   0.9728 B( 45-N , 46-C ) :   1.2575
B( 45-N , 93-H ) :   0.8500 B( 46-C , 47-S ) :   1.1463 B( 46-C , 53-C ) :   1.3251
B( 47-S , 48-C ) :   1.0610 B( 48-C , 49-N ) :   0.9714 B( 48-C , 52-C ) :   1.5052
B( 49-N , 50-O ) :   1.5372 B( 49-N , 51-O ) :   1.5107 B( 50-O , 51-O ) :   0.2576
B( 52-C , 53-C ) :   1.2125 B( 52-C , 94-H ) :   1.0066 B( 53-C , 54-C ) :   1.1311
B( 54-C , 55-C ) :   1.6616 B( 54-C , 95-H ) :   0.9585 B( 55-C , 56-C ) :   1.1478
B( 55-C , 96-H ) :   0.9567 B( 56-C , 57-C ) :   1.6576 B( 56-C , 97-H ) :   0.9338
B( 57-C , 58-C ) :   0.9390 B( 57-C , 72-C ) :   1.0422 B( 58-C , 59-O ) :   2.2365
B( 58-C , 60-C ) :   0.9233 B( 60-C , 61-C ) :   1.4587 B( 60-C , 71-C ) :   1.2171
B( 61-C , 62-C ) :   1.1734 B( 61-C , 98-H ) :   1.0219 B( 62-C , 63-C ) :   1.2478
B( 62-C , 67-C ) :   1.2002 B( 63-C , 64-C ) :   1.1914 B( 63-C , 70-C ) :   1.2114
B( 64-C , 65-C ) :   1.4310 B( 64-C , 67-C ) :   0.1065 B( 64-C , 99-H ) :   1.0081
B( 65-C , 66-C ) :   1.1908 B( 65-C , 69-F ) :   1.1420 B( 66-C , 67-C ) :   1.4348
B( 66-C , 68-F ) :   1.1434 B( 67-C ,100-H ) :   1.0058 B( 70-C , 71-C ) :   1.4376
B( 70-C ,101-H ) :   0.9964 B( 71-C , 72-C ) :   1.0206 B( 72-C , 73-C ) :   1.6146
B( 73-C , 74-C ) :   1.2129 B( 73-C , 76-C ) :   1.1386 B( 74-C , 75-N ) :   2.8344
B( 75-N , 93-H ) :   0.1404 B( 76-C , 77-N ) :   2.9323

-----------------------------------------------------------------------------
         ABSORPTION SPECTRUM VIA TRANSITION ELECTRIC DIPOLE MOMENTS
-----------------------------------------------------------------------------
State   Energy  Wavelength   fosc         T2         TX        TY        TZ
        (cm-1)    (nm)                  (au**2)     (au)      (au)      (au)
-----------------------------------------------------------------------------
   0   11254.9    888.5   0.327296235   9.57362   0.56346  -1.62564  -2.57166
   1   13455.2    743.2   0.439389570  10.75064  -0.75921   1.65655   2.72582
   2   17411.5    574.3   0.614215865  11.61341   0.58849  -1.97652  -2.71302
   3   19955.1    501.1   0.232689158   3.83882  -1.58985   0.99746  -0.56238
   4   20434.3    489.4   0.060842237   0.98021  -0.08448  -0.45503  -0.87523
   5   21275.0    470.0   0.010175525   0.15746   0.21678  -0.32927   0.04526
   6   21624.4    462.4   0.114467178   1.74266  -1.18632   0.57035  -0.10008
   7   22547.5    443.5   0.018700794   0.27305  -0.14000   0.13378   0.48533
   8   23615.6    423.4   0.104289137   1.45384  -0.72752   0.93618   0.21935
   9   24190.8    413.4   0.030195237   0.41093   0.15979  -0.62078   0.00467
  10   24590.6    406.7   0.037834812   0.50652   0.54947  -0.37002   0.26017
  11   24903.0    401.6   0.191593963   2.53283  -1.40521   0.71063  -0.23069
  12   25122.7    398.0   0.147916435   1.93832  -1.38296   0.14598  -0.06651
  13   25329.8    394.8   0.387432206   5.03547   0.85220   0.62125  -1.98072
  14   25738.9    388.5   0.265677523   3.39813   1.64779  -0.34752   0.74975
  15   26679.6    374.8   0.044061893   0.54370  -0.64926   0.15958  -0.31096
  16   26817.9    372.9   0.017055788   0.20937   0.23400   0.09579  -0.38137
  17   27359.3    365.5   0.018134661   0.21821  -0.22044   0.25223   0.32557
  18   27557.2    362.9   0.085726437   1.02413  -0.80385   0.03800   0.61360
  19   27734.0    360.6   0.017708861   0.21021  -0.14246   0.43573   0.00740
  20   28275.0    353.7   0.101887401   1.18630  -0.59629  -0.48896   0.76919
  21   28314.0    353.2   0.095081448   1.10553  -0.09116   1.04747  -0.00483
  22   28736.4    348.0   0.063848189   0.73146   0.52304  -0.37501   0.56326
  23   28822.2    347.0   0.174854289   1.99721  -0.30918   0.59182  -1.24554
  24   29002.0    344.8   0.089298171   1.01365  -0.82331   0.33100   0.47567
  25   29778.8    335.8   0.021853343   0.24159   0.09678   0.47012   0.10592
  26   30066.2    332.6   0.092745733   1.01553  -0.03566  -0.98133  -0.22639
  27   30278.8    330.3   0.017115944   0.18610   0.03147   0.03588   0.42874
  28   30372.9    329.2   0.049457850   0.53607  -0.29336  -0.34799   0.57351
  29   30817.0    324.5   0.004979408   0.05319   0.02201  -0.12898   0.18993
  30   31237.7    320.1   0.114918715   1.21112  -1.03969  -0.17680  -0.31451
  31   31584.5    316.6   0.192303769   2.00442  -1.12532   0.07589   0.85576
  32   31775.6    314.7   0.403924479   4.18487  -1.76149   0.17197   1.02588
  33   32028.4    312.2   0.014354077   0.14754  -0.11842   0.33683   0.14166
  34   32231.2    310.3   0.044954771   0.45917   0.18723   0.07650  -0.64673
  35   32278.9    309.8   0.140396276   1.43190  -1.06141   0.32751   0.44502
  36   32603.6    306.7   0.012717321   0.12841  -0.26785   0.08710  -0.22155
  37   33031.2    302.7   0.127137218   1.26714  -0.74365   0.30528   0.78799
  38   33247.3    300.8   0.044466435   0.44030  -0.64900   0.12385  -0.06138
  39   33762.4    296.2   0.325842578   3.17724  -1.10310   0.51692   1.30123
  40   34081.7    293.4   0.034892550   0.33704   0.02628  -0.27595  -0.51011
  41   34309.2    291.5   0.025333183   0.24308  -0.08982   0.35771   0.32720
  42   34555.3    289.4   0.028411940   0.27068   0.12539   0.48152   0.15197
  43   34653.9    288.6   0.136333874   1.29517   0.94307  -0.48188  -0.41662
  44   34909.0    286.5   0.006599544   0.06224  -0.02495   0.16410  -0.18624
  45   35262.7    283.6   0.014889371   0.13901  -0.20799   0.08805   0.29663
  46   35631.6    280.6   0.145173594   1.34131  -0.66832  -0.01699   0.94571
  47   35902.9    278.5   0.010717481   0.09827   0.14457  -0.27185   0.05893
  48   36093.5    277.1   0.023209215   0.21169   0.43352   0.07986  -0.13183
  49   36244.4    275.9   0.032487150   0.29508   0.04228   0.02938   0.54077
  50   36363.0    275.0   0.060785451   0.55032   0.14051  -0.29187  -0.66737
  51   36632.3    273.0   0.020815224   0.18707   0.21677  -0.22232  -0.30108
  52   36824.5    271.6   0.013028875   0.11648  -0.20747  -0.18257   0.20025
  53   37122.8    269.4   0.030522024   0.27067   0.40931  -0.02056  -0.32050
  54   37199.0    268.8   0.014118741   0.12495  -0.02082  -0.15725  -0.31590
  55   37376.3    267.5   0.015997550   0.14091   0.28973  -0.21599  -0.10156
  56   37550.5    266.3   0.141610361   1.24152  -0.29538   0.26861   1.04025
  57   37773.3    264.7   0.218787743   1.90684  -0.86201   0.49060   0.96078
  58   37966.2    263.4   0.127434305   1.10501   0.25173  -0.48107  -0.90012
  59   38041.0    262.9   0.036016889   0.31170  -0.50691  -0.16760   0.16325
  60   38216.7    261.7   0.042794717   0.36865   0.04520  -0.42391   0.43233
  61   38651.9    258.7   0.070363188   0.59931   0.20081   0.48892   0.56563
  62   38758.3    258.0   0.069551273   0.59077  -0.76175   0.03768  -0.09533
  63   38974.1    256.6   0.172739385   1.45912   0.84906  -0.04146   0.85819
  64   39180.2    255.2   0.108112542   0.90842  -0.38431   0.31815  -0.81210
  65   39245.7    254.8   0.015124687   0.12687   0.09050   0.32366   0.11800
  66   39657.4    252.2   0.021041215   0.17467   0.38869  -0.11366   0.10332
  67   39695.9    251.9   0.024616812   0.20416  -0.34650  -0.27083  -0.10366
  68   39948.6    250.3   0.052285349   0.43088  -0.62731  -0.16419  -0.10196
  69   40029.2    249.8   0.044088844   0.36260  -0.17929   0.20913   0.53546
  70   40217.0    248.7   0.073924841   0.60514  -0.75119  -0.01670   0.20145

FINAL SINGLE POINT ENERGY     -5024.845898805314

DIPOLE MOMENT
-------------
                                X             Y             Z
Electronic contribution:    -23.11558      -8.49781     -28.10923
Nuclear contribution   :     26.26454       8.77418      31.62859
                        -----------------------------------------
Total Dipole Moment    :      3.14896       0.27637       3.51936
                        -----------------------------------------
Magnitude (a.u.)       :      4.73056
Magnitude (Debye)      :     12.02414

Rotational constants in cm-1:     0.001070     0.000540     0.000457
Rotational constants in MHz :    32.081086    16.177760    13.693776

                             ****ORCA TERMINATED NORMALLY****
TOTAL RUN TIME: 0 days 0 hours 15 minutes 31 seconds 470 msec
