                         Program Version 4.2.0 -  RELEASE  -
|  1> # ORCA input file
|  2> # SCF done       -195.857135282960          0.000696310990
|  3> ! CAM-B3LYP def2-SVP def2/J RIJCOSX Grid4 TightSCF
|  4> %maxcore 5000
|  5> %tddft
|  6>     Mode sTDDFT
|  7>     Ethresh 5.0
|  8>     maxcore 5000
|  9> end
| 10>
| 11> %pal
| 12>   nprocs 6
| 13>   end
| 14> * xyz 0 1
| 15>    C      -15.49010         3.81093         1.40942
| 16>    C      -15.79619         4.66754         0.38907
| 17>    F      -16.74993         5.59573         0.55226
| 18>    C      -15.11430         4.59358        -0.84145
| 19>    F      -15.43956         5.45998        -1.81572
| 20>    C      -14.13940         3.65772        -1.04343
| 21>    C      -13.81132         2.75375        -0.01481
| 22>    C      -14.48900         2.83483         1.23648
| 23>    C      -14.14391         1.96159         2.29553
| 24>    C      -13.16515         1.02551         2.09769
| 25>    C      -12.52923         0.92458         0.82438
| 26>    C      -12.81812         1.76828        -0.20989
| 27>    C      -11.53631        -0.14540         0.87901
| 28>    O      -10.86592        -0.59772        -0.04328
| 29>    C      -11.49202        -0.59677         2.28055
| 30>    C      -12.55687         0.05487         3.00760
| 31>    C      -12.93876        -0.19438         4.29929
| 32>    C      -12.31603        -1.15771         5.11903
| 33>    N      -11.83271        -1.93795         5.80839
| 34>    C      -14.00476         0.45873         4.95021
| 35>    N      -14.86183         0.95968         5.52623
| 36>    C      -10.47367        -1.40322         2.72595
| 37>    N       -9.56305        -1.81670         1.83431
| 38>    C       -8.37839        -2.43883         2.01200
| 39>    S       -7.94178        -3.27464         3.46286
| 40>    C       -6.42822        -3.70450         2.72706
| 41>    N       -5.52825        -4.46592         3.48528
| 42>    O       -4.46896        -4.76641         2.96849
| 43>    O       -5.88003        -4.76768         4.61156
| 44>    C       -6.27393        -3.22743         1.45271
| 45>    C       -7.38690        -2.48544         1.01588
| 46>    C       -7.52920        -1.78532        -0.22950
| 47>    C       -6.68256        -1.83438        -1.27696
| 48>    C       -6.88431        -1.09428        -2.48154
| 49>    C       -7.75801        -0.04878        -2.75912
| 50>    C       -8.47876         0.66270        -1.78575
| 51>    N       -8.99752         1.31163        -0.99384
| 52>    C       -7.69872         0.36379        -4.12047
| 53>    C       -6.73109        -0.34857        -4.82121
| 54>    S       -5.93328        -1.54290        -3.88018
| 55>    S       -6.50436         0.13511        -6.46966
| 56>    C       -7.75450         1.31356        -6.23369
| 57>    C       -8.33178         1.32548        -4.96591
| 58>    C       -9.39005         2.27342        -4.89784
| 59>    C      -10.27911         2.44568        -3.82619
| 60>    N      -11.03463         2.52612        -2.96568
| 61>    C       -9.53514         2.97737        -6.09034
| 62>    S       -8.41386         2.46490        -7.32668
| 63>    C      -10.42862         4.03559        -6.37358
| 64>    C      -10.49709         4.81026        -7.54394
| 65>    C      -11.48992         5.79776        -7.31376
| 66>    C      -11.97410         5.52223        -6.00544
| 67>    N      -11.34093         4.47984        -5.46195
| 68>    O      -12.92566         6.19485        -5.38247
| 69>    C      -13.29500         5.69885        -4.10554
| 70>    C      -11.52016         6.60283        -8.47496
| 71>    N      -10.61191         6.13580        -9.39015
| 72>    C      -10.00413         5.08310        -8.85390
| 73>    O       -9.06623         4.37929        -9.46150
| 74>    C       -8.71778         4.80676       -10.76711
| 75>    C      -12.30224         7.75178        -8.73118
| 76>    C      -13.24989         8.32108        -7.83440
| 77>    C      -13.78840         9.46063        -8.42794
| 78>    C      -14.73939        10.38296        -7.96936
| 79>    C      -15.05758        11.43760        -8.79736
| 80>    C      -15.95010        12.52958        -8.63965
| 81>    C      -15.89498        13.33087        -9.78041
| 82>    C      -14.96525        12.75070       -10.67674
| 83>    C      -14.43720        11.58958       -10.09825
| 84>    C      -13.49504        10.67189       -10.56075
| 85>    C      -13.16856         9.61174        -9.73043
| 86>    C      -12.26104         8.54305        -9.88888
| 87>    C      -16.66489        14.53695        -9.97533
| 88>    C      -16.61548        15.32088       -11.04855
| 89>    H      -16.01825         3.88675         2.34707
| 90>    H      -13.61069         3.60738        -1.98204
| 91>    H      -14.65323         2.06727         3.24002
| 92>    H      -12.28242         1.70713        -1.14590
| 93>    H      -10.33934        -1.68119         3.76366
| 94>    H       -9.79012        -1.48876         0.86941
| 95>    H       -5.38246        -3.40435         0.87986
| 96>    H       -8.39421        -1.14692        -0.32786
| 97>    H       -5.81959        -2.48503        -1.26823
| 98>    H      -13.81479         4.74501        -4.21662
| 99>    H      -13.95897         6.44073        -3.66818
|100>    H      -12.40945         5.54734        -3.48623
|101>    H       -7.96039         4.11142       -11.12256
|102>    H       -8.32380         5.82460       -10.73962
|103>    H       -9.59419         4.78910       -11.41772
|104>    H      -13.48988         7.92329        -6.86567
|105>    H      -15.19781        10.26559        -6.99765
|106>    H      -16.56640        12.70795        -7.77700
|107>    H      -14.70348        13.13586       -11.64502
|108>    H      -13.03353        10.78782       -11.53139
|109>    H      -11.63307         8.35256       -10.73834
|110>    H      -17.32489        14.79281        -9.15584
|111>    H      -15.97411        15.10875       -11.88668
|112>    H      -17.21878        16.20856       -11.12473
|113> *
|114>
|115>                          ****END OF INPUT****

CARTESIAN COORDINATES (ANGSTROEM)
---------------------------------
  C    -15.490100    3.810930    1.409420
  C    -15.796190    4.667540    0.389070
  F    -16.749930    5.595730    0.552260
  C    -15.114300    4.593580   -0.841450
  F    -15.439560    5.459980   -1.815720
  C    -14.139400    3.657720   -1.043430
  C    -13.811320    2.753750   -0.014810
  C    -14.489000    2.834830    1.236480
  C    -14.143910    1.961590    2.295530
  C    -13.165150    1.025510    2.097690
  C    -12.529230    0.924580    0.824380
  C    -12.818120    1.768280   -0.209890
  C    -11.536310   -0.145400    0.879010
  O    -10.865920   -0.597720   -0.043280
  C    -11.492020   -0.596770    2.280550
  C    -12.556870    0.054870    3.007600
  C    -12.938760   -0.194380    4.299290
  C    -12.316030   -1.157710    5.119030
  N    -11.832710   -1.937950    5.808390
  C    -14.004760    0.458730    4.950210
  N    -14.861830    0.959680    5.526230
  C    -10.473670   -1.403220    2.725950
  N     -9.563050   -1.816700    1.834310
  C     -8.378390   -2.438830    2.012000
  S     -7.941780   -3.274640    3.462860
  C     -6.428220   -3.704500    2.727060
  N     -5.528250   -4.465920    3.485280
  O     -4.468960   -4.766410    2.968490
  O     -5.880030   -4.767680    4.611560
  C     -6.273930   -3.227430    1.452710
  C     -7.386900   -2.485440    1.015880
  C     -7.529200   -1.785320   -0.229500
  C     -6.682560   -1.834380   -1.276960
  C     -6.884310   -1.094280   -2.481540
  C     -7.758010   -0.048780   -2.759120
  C     -8.478760    0.662700   -1.785750
  N     -8.997520    1.311630   -0.993840
  C     -7.698720    0.363790   -4.120470
  C     -6.731090   -0.348570   -4.821210
  S     -5.933280   -1.542900   -3.880180
  S     -6.504360    0.135110   -6.469660
  C     -7.754500    1.313560   -6.233690
  C     -8.331780    1.325480   -4.965910
  C     -9.390050    2.273420   -4.897840
  C    -10.279110    2.445680   -3.826190
  N    -11.034630    2.526120   -2.965680
  C     -9.535140    2.977370   -6.090340
  S     -8.413860    2.464900   -7.326680
  C    -10.428620    4.035590   -6.373580
  C    -10.497090    4.810260   -7.543940
  C    -11.489920    5.797760   -7.313760
  C    -11.974100    5.522230   -6.005440
  N    -11.340930    4.479840   -5.461950
  O    -12.925660    6.194850   -5.382470
  C    -13.295000    5.698850   -4.105540
  C    -11.520160    6.602830   -8.474960
  N    -10.611910    6.135800   -9.390150
  C    -10.004130    5.083100   -8.853900
  O     -9.066230    4.379290   -9.461500
  C     -8.717780    4.806760  -10.767110
  C    -12.302240    7.751780   -8.731180
  C    -13.249890    8.321080   -7.834400
  C    -13.788400    9.460630   -8.427940
  C    -14.739390   10.382960   -7.969360
  C    -15.057580   11.437600   -8.797360
  C    -15.950100   12.529580   -8.639650
  C    -15.894980   13.330870   -9.780410
  C    -14.965250   12.750700  -10.676740
  C    -14.437200   11.589580  -10.098250
  C    -13.495040   10.671890  -10.560750
  C    -13.168560    9.611740   -9.730430
  C    -12.261040    8.543050   -9.888880
  C    -16.664890   14.536950   -9.975330
  C    -16.615480   15.320880  -11.048550
  H    -16.018250    3.886750    2.347070
  H    -13.610690    3.607380   -1.982040
  H    -14.653230    2.067270    3.240020
  H    -12.282420    1.707130   -1.145900
  H    -10.339340   -1.681190    3.763660
  H     -9.790120   -1.488760    0.869410
  H     -5.382460   -3.404350    0.879860
  H     -8.394210   -1.146920   -0.327860
  H     -5.819590   -2.485030   -1.268230
  H    -13.814790    4.745010   -4.216620
  H    -13.958970    6.440730   -3.668180
  H    -12.409450    5.547340   -3.486230
  H     -7.960390    4.111420  -11.122560
  H     -8.323800    5.824600  -10.739620
  H     -9.594190    4.789100  -11.417720
  H    -13.489880    7.923290   -6.865670
  H    -15.197810   10.265590   -6.997650
  H    -16.566400   12.707950   -7.777000
  H    -14.703480   13.135860  -11.645020
  H    -13.033530   10.787820  -11.531390
  H    -11.633070    8.352560  -10.738340
  H    -17.324890   14.792810   -9.155840
  H    -15.974110   15.108750  -11.886680
  H    -17.218780   16.208560  -11.124730

 Total Charge           Charge          ....    0
 Multiplicity           Mult            ....    1
 Number of Electrons    NEL             ....  532
 Basis Dimension        Dim             .... 1172

ORBITAL ENERGIES
----------------

  NO   OCC          E(Eh)            E(eV)
   0   2.0000     -88.993021     -2421.6232
   1   2.0000     -88.988636     -2421.5039
   2   2.0000     -88.987954     -2421.4853
   3   2.0000     -88.983159     -2421.3549
   4   2.0000     -24.798245      -674.7946
   5   2.0000     -24.793354      -674.6615
   6   2.0000     -19.278200      -524.5865
   7   2.0000     -19.265522      -524.2415
   8   2.0000     -19.240790      -523.5685
   9   2.0000     -19.239940      -523.5454
  10   2.0000     -19.227732      -523.2132
  11   2.0000     -14.652270      -398.7085
  12   2.0000     -14.489134      -394.2694
  13   2.0000     -14.415925      -392.2773
  14   2.0000     -14.411477      -392.1562
  15   2.0000     -14.406791      -392.0287
  16   2.0000     -14.401722      -391.8908
  17   2.0000     -14.383745      -391.4016
  18   2.0000     -14.380532      -391.3142
  19   2.0000     -10.377989      -282.3994
  20   2.0000     -10.376027      -282.3461
  21   2.0000     -10.375963      -282.3443
  22   2.0000     -10.375288      -282.3259
  23   2.0000     -10.373678      -282.2821
  24   2.0000     -10.368561      -282.1429
  25   2.0000     -10.366322      -282.0820
  26   2.0000     -10.349825      -281.6331
  27   2.0000     -10.342461      -281.4327
  28   2.0000     -10.339247      -281.3452
  29   2.0000     -10.338405      -281.3223
  30   2.0000     -10.338197      -281.3167
  31   2.0000     -10.337984      -281.3108
  32   2.0000     -10.329814      -281.0885
  33   2.0000     -10.328963      -281.0654
  34   2.0000     -10.327399      -281.0228
  35   2.0000     -10.323979      -280.9298
  36   2.0000     -10.323822      -280.9255
  37   2.0000     -10.323155      -280.9073
  38   2.0000     -10.318456      -280.7795
  39   2.0000     -10.316289      -280.7205
  40   2.0000     -10.315870      -280.7091
  41   2.0000     -10.314757      -280.6788
  42   2.0000     -10.314708      -280.6775
  43   2.0000     -10.312472      -280.6166
  44   2.0000     -10.312338      -280.6130
  45   2.0000     -10.311733      -280.5965
  46   2.0000     -10.309361      -280.5320
  47   2.0000     -10.306841      -280.4634
  48   2.0000     -10.306119      -280.4438
  49   2.0000     -10.304201      -280.3916
  50   2.0000     -10.304045      -280.3873
  51   2.0000     -10.303316      -280.3675
  52   2.0000     -10.302779      -280.3529
  53   2.0000     -10.301109      -280.3074
  54   2.0000     -10.297496      -280.2091
  55   2.0000     -10.296412      -280.1796
  56   2.0000     -10.295142      -280.1450
  57   2.0000     -10.294641      -280.1314
  58   2.0000     -10.293449      -280.0990
  59   2.0000     -10.293070      -280.0887
  60   2.0000     -10.292287      -280.0674
  61   2.0000     -10.289545      -279.9928
  62   2.0000     -10.288189      -279.9558
  63   2.0000     -10.286438      -279.9082
  64   2.0000     -10.277073      -279.6534
  65   2.0000     -10.275575      -279.6126
  66   2.0000     -10.274978      -279.5964
  67   2.0000     -10.274450      -279.5820
  68   2.0000     -10.273726      -279.5623
  69   2.0000     -10.273243      -279.5492
  70   2.0000     -10.271551      -279.5031
  71   2.0000     -10.264263      -279.3048
  72   2.0000     -10.253054      -278.9998
  73   2.0000     -10.248414      -278.8735
  74   2.0000      -8.088367      -220.0956
  75   2.0000      -8.083772      -219.9706
  76   2.0000      -8.083565      -219.9650
  77   2.0000      -8.078088      -219.8160
  78   2.0000      -6.057966      -164.8456
  79   2.0000      -6.053753      -164.7310
  80   2.0000      -6.053595      -164.7267
  81   2.0000      -6.053069      -164.7124
  82   2.0000      -6.049906      -164.6263
  83   2.0000      -6.049512      -164.6156
  84   2.0000      -6.048902      -164.5990
  85   2.0000      -6.047618      -164.5640
  86   2.0000      -6.045198      -164.4982
  87   2.0000      -6.044593      -164.4817
  88   2.0000      -6.043305      -164.4467
  89   2.0000      -6.039773      -164.3506
  90   2.0000      -1.322134       -35.9771
  91   2.0000      -1.317750       -35.8578
  92   2.0000      -1.302454       -35.4416
  93   2.0000      -1.188856       -32.3504
  94   2.0000      -1.176510       -32.0145
  95   2.0000      -1.145999       -31.1842
  96   2.0000      -1.141304       -31.0565
  97   2.0000      -1.100561       -29.9478
  98   2.0000      -1.053506       -28.6674
  99   2.0000      -1.042105       -28.3571
 100   2.0000      -1.025792       -27.9132
 101   2.0000      -1.018238       -27.7077
 102   2.0000      -1.012120       -27.5412
 103   2.0000      -1.005868       -27.3711
 104   2.0000      -1.000057       -27.2129
 105   2.0000      -0.996424       -27.1141
 106   2.0000      -0.992388       -27.0042
 107   2.0000      -0.990773       -26.9603
 108   2.0000      -0.979946       -26.6657
 109   2.0000      -0.976949       -26.5841
 110   2.0000      -0.969586       -26.3838
 111   2.0000      -0.951387       -25.8886
 112   2.0000      -0.929683       -25.2980
 113   2.0000      -0.922996       -25.1160
 114   2.0000      -0.905488       -24.6396
 115   2.0000      -0.905120       -24.6296
 116   2.0000      -0.897217       -24.4145
 117   2.0000      -0.890814       -24.2403
 118   2.0000      -0.884461       -24.0674
 119   2.0000      -0.874534       -23.7973
 120   2.0000      -0.873603       -23.7719
 121   2.0000      -0.864504       -23.5244
 122   2.0000      -0.861486       -23.4422
 123   2.0000      -0.858867       -23.3710
 124   2.0000      -0.851977       -23.1835
 125   2.0000      -0.849365       -23.1124
 126   2.0000      -0.834695       -22.7132
 127   2.0000      -0.833664       -22.6852
 128   2.0000      -0.816899       -22.2290
 129   2.0000      -0.812928       -22.1209
 130   2.0000      -0.806945       -21.9581
 131   2.0000      -0.805826       -21.9277
 132   2.0000      -0.803865       -21.8743
 133   2.0000      -0.778789       -21.1919
 134   2.0000      -0.764880       -20.8134
 135   2.0000      -0.762853       -20.7583
 136   2.0000      -0.757849       -20.6221
 137   2.0000      -0.749868       -20.4049
 138   2.0000      -0.736168       -20.0321
 139   2.0000      -0.734591       -19.9892
 140   2.0000      -0.719572       -19.5806
 141   2.0000      -0.710035       -19.3210
 142   2.0000      -0.709073       -19.2949
 143   2.0000      -0.702092       -19.1049
 144   2.0000      -0.697572       -18.9819
 145   2.0000      -0.685978       -18.6664
 146   2.0000      -0.683045       -18.5866
 147   2.0000      -0.680822       -18.5261
 148   2.0000      -0.677282       -18.4298
 149   2.0000      -0.670737       -18.2517
 150   2.0000      -0.662846       -18.0369
 151   2.0000      -0.660021       -17.9601
 152   2.0000      -0.656465       -17.8633
 153   2.0000      -0.654923       -17.8214
 154   2.0000      -0.648632       -17.6502
 155   2.0000      -0.645100       -17.5541
 156   2.0000      -0.640272       -17.4227
 157   2.0000      -0.636710       -17.3258
 158   2.0000      -0.633678       -17.2433
 159   2.0000      -0.631453       -17.1827
 160   2.0000      -0.630194       -17.1485
 161   2.0000      -0.630158       -17.1475
 162   2.0000      -0.621318       -16.9069
 163   2.0000      -0.614416       -16.7191
 164   2.0000      -0.605550       -16.4779
 165   2.0000      -0.601758       -16.3747
 166   2.0000      -0.598842       -16.2953
 167   2.0000      -0.591249       -16.0887
 168   2.0000      -0.586009       -15.9461
 169   2.0000      -0.584893       -15.9157
 170   2.0000      -0.581946       -15.8356
 171   2.0000      -0.580264       -15.7898
 172   2.0000      -0.577025       -15.7017
 173   2.0000      -0.576018       -15.6742
 174   2.0000      -0.571611       -15.5543
 175   2.0000      -0.568257       -15.4631
 176   2.0000      -0.562505       -15.3065
 177   2.0000      -0.558692       -15.2028
 178   2.0000      -0.555885       -15.1264
 179   2.0000      -0.552900       -15.0452
 180   2.0000      -0.551298       -15.0016
 181   2.0000      -0.546034       -14.8583
 182   2.0000      -0.544371       -14.8131
 183   2.0000      -0.541708       -14.7406
 184   2.0000      -0.541482       -14.7345
 185   2.0000      -0.538554       -14.6548
 186   2.0000      -0.532412       -14.4877
 187   2.0000      -0.530213       -14.4278
 188   2.0000      -0.528059       -14.3692
 189   2.0000      -0.522982       -14.2311
 190   2.0000      -0.521639       -14.1945
 191   2.0000      -0.520798       -14.1716
 192   2.0000      -0.519710       -14.1420
 193   2.0000      -0.515548       -14.0288
 194   2.0000      -0.512796       -13.9539
 195   2.0000      -0.511674       -13.9234
 196   2.0000      -0.505585       -13.7577
 197   2.0000      -0.505045       -13.7430
 198   2.0000      -0.502235       -13.6665
 199   2.0000      -0.499740       -13.5986
 200   2.0000      -0.497871       -13.5478
 201   2.0000      -0.496500       -13.5105
 202   2.0000      -0.494979       -13.4691
 203   2.0000      -0.488485       -13.2923
 204   2.0000      -0.485423       -13.2090
 205   2.0000      -0.481221       -13.0947
 206   2.0000      -0.480995       -13.0885
 207   2.0000      -0.480128       -13.0650
 208   2.0000      -0.472116       -12.8469
 209   2.0000      -0.469678       -12.7806
 210   2.0000      -0.468214       -12.7408
 211   2.0000      -0.466263       -12.6876
 212   2.0000      -0.465060       -12.6549
 213   2.0000      -0.464928       -12.6513
 214   2.0000      -0.461214       -12.5503
 215   2.0000      -0.460349       -12.5267
 216   2.0000      -0.458428       -12.4745
 217   2.0000      -0.456978       -12.4350
 218   2.0000      -0.453277       -12.3343
 219   2.0000      -0.451055       -12.2738
 220   2.0000      -0.449565       -12.2333
 221   2.0000      -0.447778       -12.1847
 222   2.0000      -0.447624       -12.1805
 223   2.0000      -0.441947       -12.0260
 224   2.0000      -0.438280       -11.9262
 225   2.0000      -0.436163       -11.8686
 226   2.0000      -0.434213       -11.8155
 227   2.0000      -0.431954       -11.7541
 228   2.0000      -0.429946       -11.6994
 229   2.0000      -0.428922       -11.6716
 230   2.0000      -0.428377       -11.6567
 231   2.0000      -0.426124       -11.5954
 232   2.0000      -0.424436       -11.5495
 233   2.0000      -0.421919       -11.4810
 234   2.0000      -0.419265       -11.4088
 235   2.0000      -0.416285       -11.3277
 236   2.0000      -0.414933       -11.2909
 237   2.0000      -0.414059       -11.2671
 238   2.0000      -0.409211       -11.1352
 239   2.0000      -0.407990       -11.1020
 240   2.0000      -0.393803       -10.7159
 241   2.0000      -0.390168       -10.6170
 242   2.0000      -0.388641       -10.5755
 243   2.0000      -0.387639       -10.5482
 244   2.0000      -0.381914       -10.3924
 245   2.0000      -0.379539       -10.3278
 246   2.0000      -0.378062       -10.2876
 247   2.0000      -0.376257       -10.2385
 248   2.0000      -0.372811       -10.1447
 249   2.0000      -0.369164       -10.0455
 250   2.0000      -0.366093        -9.9619
 251   2.0000      -0.351464        -9.5638
 252   2.0000      -0.350419        -9.5354
 253   2.0000      -0.341244        -9.2857
 254   2.0000      -0.330098        -8.9824
 255   2.0000      -0.324961        -8.8426
 256   2.0000      -0.324167        -8.8210
 257   2.0000      -0.313681        -8.5357
 258   2.0000      -0.308242        -8.3877
 259   2.0000      -0.301061        -8.1923
 260   2.0000      -0.290510        -7.9052
 261   2.0000      -0.288401        -7.8478
 262   2.0000      -0.276053        -7.5118
 263   2.0000      -0.273113        -7.4318
 264   2.0000      -0.262431        -7.1411
 265   2.0000      -0.236951        -6.4478
 266   0.0000      -0.108816        -2.9610
 267   0.0000      -0.089370        -2.4319
 268   0.0000      -0.088585        -2.4105
 269   0.0000      -0.062930        -1.7124
 270   0.0000      -0.057968        -1.5774

MULLIKEN ATOMIC CHARGES
-----------------------
   0 C :   -0.110889
   1 C :    0.248283
   2 F :   -0.175179
   3 C :    0.241394
   4 F :   -0.180273
   5 C :   -0.093994
   6 C :    0.091094
   7 C :    0.113531
   8 C :   -0.087243
   9 C :    0.046949
  10 C :    0.008724
  11 C :   -0.039091
  12 C :    0.187246
  13 O :   -0.215004
  14 C :   -0.143447
  15 C :    0.321933
  16 C :   -0.342516
  17 C :   -0.202094
  18 N :    0.144599
  19 C :   -0.181868
  20 N :    0.149094
  21 C :    0.050587
  22 N :   -0.024757
  23 C :   -0.103826
  24 S :    0.198305
  25 C :   -0.012165
  26 N :    0.276079
  27 O :   -0.247941
  28 O :   -0.256889
  29 C :    0.010302
  30 C :    0.123642
  31 C :   -0.034105
  32 C :    0.042134
  33 C :   -0.106763
  34 C :   -0.026953
  35 C :   -0.280423
  36 N :    0.175504
  37 C :    0.121578
  38 C :   -0.234906
  39 S :    0.169288
  40 S :    0.186891
  41 C :   -0.216684
  42 C :    0.141048
  43 C :   -0.053773
  44 C :   -0.279329
  45 N :    0.239932
  46 C :   -0.120592
  47 S :    0.203113
  48 C :    0.027045
  49 C :   -0.022004
  50 C :   -0.010816
  51 C :    0.075355
  52 N :   -0.179378
  53 O :   -0.274263
  54 C :    0.182262
  55 C :    0.084731
  56 N :   -0.189819
  57 C :    0.087239
  58 O :   -0.265725
  59 C :    0.200787
  60 C :    0.010965
  61 C :   -0.007281
  62 C :    0.046762
  63 C :    0.014701
  64 C :    0.050477
  65 C :   -0.018442
  66 C :    0.056513
  67 C :   -0.008202
  68 C :    0.036029
  69 C :    0.016522
  70 C :    0.052535
  71 C :   -0.023178
  72 C :    0.011129
  73 C :   -0.021971
  74 H :    0.004295
  75 H :   -0.000140
  76 H :   -0.007779
  77 H :   -0.014320
  78 H :    0.042697
  79 H :    0.191174
  80 H :    0.013254
  81 H :    0.005395
  82 H :   -0.017907
  83 H :    0.035576
  84 H :    0.033706
  85 H :    0.047996
  86 H :    0.033790
  87 H :    0.033614
  88 H :    0.035203
  89 H :   -0.014626
  90 H :   -0.017990
  91 H :   -0.020000
  92 H :   -0.021050
  93 H :   -0.018682
  94 H :   -0.010919
  95 H :   -0.017405
  96 H :    0.008547
  97 H :    0.023053
Sum of atomic charges:   -0.0000000

LOEWDIN ATOMIC CHARGES
----------------------
   0 C :   -0.032054
   1 C :    0.067054
   2 F :   -0.052328
   3 C :    0.062286
   4 F :   -0.052593
   5 C :   -0.022819
   6 C :   -0.007988
   7 C :   -0.005089
   8 C :    0.014323
   9 C :   -0.019701
  10 C :   -0.055064
  11 C :    0.054673
  12 C :    0.105883
  13 O :   -0.152128
  14 C :   -0.136491
  15 C :    0.079969
  16 C :   -0.149135
  17 C :   -0.020073
  18 N :   -0.057286
  19 C :   -0.019062
  20 N :   -0.055829
  21 C :    0.114753
  22 N :    0.072552
  23 C :   -0.104951
  24 S :    0.476984
  25 C :   -0.201891
  26 N :    0.273084
  27 O :   -0.214003
  28 O :   -0.222966
  29 C :    0.004957
  30 C :   -0.090883
  31 C :   -0.000264
  32 C :   -0.049449
  33 C :   -0.128186
  34 C :   -0.101679
  35 C :   -0.034582
  36 N :   -0.044711
  37 C :   -0.058584
  38 C :   -0.337825
  39 S :    0.452774
  40 S :    0.421221
  41 C :   -0.330441
  42 C :   -0.062051
  43 C :   -0.086874
  44 C :   -0.005577
  45 N :   -0.053896
  46 C :   -0.133291
  47 S :    0.482499
  48 C :    0.018407
  49 C :   -0.139863
  50 C :   -0.142412
  51 C :    0.093088
  52 N :   -0.172635
  53 O :   -0.061242
  54 C :    0.079246
  55 C :    0.088649
  56 N :   -0.194869
  57 C :    0.101405
  58 O :   -0.060052
  59 C :    0.086039
  60 C :   -0.085298
  61 C :    0.068121
  62 C :   -0.075543
  63 C :    0.089771
  64 C :   -0.068360
  65 C :    0.033859
  66 C :   -0.062639
  67 C :    0.053683
  68 C :   -0.069150
  69 C :    0.094595
  70 C :   -0.073203
  71 C :    0.072825
  72 C :   -0.022685
  73 C :   -0.049709
  74 H :    0.046583
  75 H :    0.049289
  76 H :    0.039297
  77 H :    0.042522
  78 H :    0.038433
  79 H :    0.078464
  80 H :    0.045362
  81 H :    0.036418
  82 H :    0.028144
  83 H :    0.021680
  84 H :    0.021632
  85 H :    0.027011
  86 H :    0.024929
  87 H :    0.025435
  88 H :    0.025646
  89 H :    0.028402
  90 H :    0.038294
  91 H :    0.026955
  92 H :    0.026490
  93 H :    0.037805
  94 H :    0.032308
  95 H :    0.029688
  96 H :    0.018241
  97 H :    0.025672

  Mayer bond orders larger than 0.100000
B(  0-C ,  1-C ) :   1.4422 B(  0-C ,  5-C ) :   0.1108 B(  0-C ,  7-C ) :   1.1930
B(  0-C , 74-H ) :   1.0075 B(  1-C ,  2-F ) :   1.1306 B(  1-C ,  3-C ) :   1.2080
B(  3-C ,  4-F ) :   1.1022 B(  3-C ,  5-C ) :   1.4096 B(  5-C ,  6-C ) :   1.2173
B(  5-C , 75-H ) :   1.0067 B(  6-C ,  7-C ) :   1.2467 B(  6-C , 11-C ) :   1.1900
B(  7-C ,  8-C ) :   1.2073 B(  8-C ,  9-C ) :   1.4684 B(  8-C , 76-H ) :   0.9909
B(  9-C , 10-C ) :   1.2036 B(  9-C , 15-C ) :   0.9933 B( 10-C , 11-C ) :   1.4641
B( 10-C , 12-C ) :   0.9918 B( 11-C , 77-H ) :   1.0028 B( 12-C , 13-O ) :   1.9701
B( 12-C , 14-C ) :   0.9996 B( 13-O , 79-H ) :   0.1721 B( 14-C , 15-C ) :   1.0894
B( 14-C , 21-C ) :   1.4779 B( 15-C , 16-C ) :   1.6339 B( 16-C , 17-C ) :   1.1457
B( 16-C , 19-C ) :   1.1448 B( 17-C , 18-N ) :   2.9728 B( 19-C , 20-N ) :   2.9670
B( 21-C , 22-N ) :   1.3144 B( 21-C , 78-H ) :   0.9404 B( 22-N , 23-C ) :   1.2079
B( 22-N , 79-H ) :   0.8050 B( 23-C , 24-S ) :   1.1404 B( 23-C , 30-C ) :   1.3573
B( 24-S , 25-C ) :   1.0834 B( 25-C , 26-N ) :   0.9655 B( 25-C , 29-C ) :   1.5026
B( 26-N , 27-O ) :   1.5348 B( 26-N , 28-O ) :   1.5157 B( 27-O , 28-O ) :   0.2615
B( 29-C , 30-C ) :   1.2229 B( 29-C , 80-H ) :   0.9985 B( 30-C , 31-C ) :   1.0999
B( 31-C , 32-C ) :   1.7353 B( 31-C , 81-H ) :   0.9441 B( 32-C , 33-C ) :   1.1255
B( 32-C , 82-H ) :   0.9484 B( 33-C , 34-C ) :   1.4857 B( 33-C , 39-S ) :   1.1323
B( 34-C , 35-C ) :   1.1721 B( 34-C , 37-C ) :   1.2595 B( 35-C , 36-N ) :   2.9260
B( 37-C , 38-C ) :   1.4186 B( 37-C , 42-C ) :   1.0759 B( 38-C , 39-S ) :   1.0893
B( 38-C , 40-S ) :   1.0772 B( 40-S , 41-C ) :   1.0863 B( 41-C , 42-C ) :   1.4063
B( 41-C , 47-S ) :   1.0815 B( 42-C , 43-C ) :   1.2364 B( 43-C , 44-C ) :   1.2102
B( 43-C , 46-C ) :   1.4563 B( 44-C , 45-N ) :   2.9461 B( 46-C , 47-S ) :   1.1583
B( 46-C , 48-C ) :   1.1676 B( 48-C , 49-C ) :   1.1990 B( 48-C , 52-N ) :   1.4472
B( 49-C , 50-C ) :   1.2610 B( 49-C , 57-C ) :   1.0640 B( 50-C , 51-C ) :   1.1217
B( 50-C , 55-C ) :   1.1460 B( 51-C , 52-N ) :   1.4591 B( 51-C , 53-O ) :   1.2539
B( 53-O , 54-C ) :   0.9080 B( 54-C , 83-H ) :   0.9738 B( 54-C , 84-H ) :   0.9746
B( 54-C , 85-H ) :   0.9676 B( 55-C , 56-N ) :   1.4323 B( 55-C , 60-C ) :   1.1153
B( 56-N , 57-C ) :   1.4865 B( 57-C , 58-O ) :   1.2982 B( 58-O , 59-C ) :   0.9152
B( 59-C , 86-H ) :   0.9791 B( 59-C , 87-H ) :   0.9740 B( 59-C , 88-H ) :   0.9730
B( 60-C , 61-C ) :   1.2239 B( 60-C , 71-C ) :   1.3358 B( 61-C , 62-C ) :   1.3387
B( 61-C , 89-H ) :   1.0012 B( 62-C , 63-C ) :   1.1794 B( 62-C , 70-C ) :   1.1432
B( 63-C , 64-C ) :   1.3819 B( 63-C , 90-H ) :   1.0053 B( 64-C , 65-C ) :   1.1534
B( 64-C , 68-C ) :   1.1366 B( 65-C , 66-C ) :   1.4055 B( 65-C , 91-H ) :   1.0156
B( 66-C , 67-C ) :   1.2462 B( 66-C , 72-C ) :   1.0777 B( 67-C , 68-C ) :   1.3173
B( 67-C , 92-H ) :   1.0084 B( 68-C , 69-C ) :   1.2278 B( 69-C , 70-C ) :   1.3179
B( 69-C , 93-H ) :   1.0052 B( 70-C , 71-C ) :   1.1641 B( 71-C , 94-H ) :   1.0298
B( 72-C , 73-C ) :   1.9425 B( 72-C , 95-H ) :   0.9666 B( 73-C , 96-H ) :   0.9529
B( 73-C , 97-H ) :   0.9490

-----------------------------------------------------------------------------
         ABSORPTION SPECTRUM VIA TRANSITION ELECTRIC DIPOLE MOMENTS
-----------------------------------------------------------------------------
State   Energy  Wavelength   fosc         T2         TX        TY        TZ
        (cm-1)    (nm)                  (au**2)     (au)      (au)      (au)
-----------------------------------------------------------------------------
   0    7313.7   1367.3   0.006473991   0.29141   0.26835  -0.43559   0.17223
   1   16960.3    589.6   1.466386935  28.46366  -1.96967   4.12509  -2.75095
   2   18202.4    549.4   0.077265353   1.39744   0.36854  -0.88532   0.69125
   3   19029.5    525.5   0.089426660   1.54708  -0.10156   0.76216  -0.97769
   4   21294.3    469.6   0.693676386  10.72432   2.79200  -1.23574  -1.18407
   5   21996.5    454.6   0.337174138   5.04634  -1.28073   1.78980  -0.45020
   6   22991.0    435.0   0.014081523   0.20164  -0.37432   0.15085   0.19689
   7   23320.6    428.8   0.000130342   0.00184  -0.02437   0.01387   0.03246
   8   24670.2    405.3   0.055044614   0.73454   0.35907  -0.66053   0.41147
   9   24890.5    401.8   0.012571156   0.16627   0.00310  -0.13570   0.38451
  10   26240.2    381.1   0.004903245   0.06152  -0.14569   0.18275  -0.08303
  11   26258.7    380.8   0.003688050   0.04624   0.13513  -0.15979  -0.04943
  12   26814.2    372.9   0.377999109   4.64090  -0.19117   0.85832  -1.96663
  13   27040.4    369.8   0.011849523   0.14427   0.05672  -0.17139   0.33418
  14   27501.8    363.6   0.388181326   4.64675  -1.26842   1.73787   0.13289
  15   27782.3    359.9   0.003622461   0.04293  -0.16916   0.09635   0.07090
  16   28325.9    353.0   0.037260546   0.43305   0.39634  -0.37115   0.37178
  17   29078.1    343.9   0.005900779   0.06681   0.02778  -0.11716   0.22871
  18   29669.0    337.1   0.287243708   3.18730  -1.10480   1.18374  -0.75199
  19   29996.4    333.4   0.056174231   0.61652  -0.42174   0.12347   0.65070
  20   30195.1    331.2   0.420301283   4.58248   1.37587  -1.61572   0.28088
  21   30354.9    329.4   0.427259991   4.63382  -1.20420   1.32035  -1.20017
  22   31188.4    320.6   0.014210040   0.15000   0.26700  -0.12314  -0.25207
  23   31365.3    318.8   0.000136187   0.00143   0.03493   0.01445   0.00044
  24   32123.6    311.3   0.006644187   0.06809  -0.13784   0.21480   0.05435
  25   32357.6    309.0   0.065854555   0.67002  -0.06416  -0.49005   0.65249
  26   32542.3    307.3   0.024655061   0.24942   0.29516   0.08827  -0.39307
  27   32677.7    306.0   0.024333862   0.24515   0.20967  -0.29940   0.33399
  28   32791.4    305.0   0.074974990   0.75272  -0.27488   0.74087  -0.35815
  29   33022.6    302.8   0.056810443   0.56636   0.06009   0.52530  -0.53555
  30   33382.1    299.6   0.007555467   0.07451   0.15390  -0.20583   0.09197
  31   33450.8    298.9   0.024568263   0.24179  -0.05647   0.36235  -0.32758
  32   33475.2    298.7   0.000608823   0.00599  -0.07206   0.00481   0.02779
  33   33942.0    294.6   1.037143985  10.05952  -0.95102   1.96317  -2.30240
  34   34157.3    292.8   0.025654051   0.24726   0.10852  -0.27717   0.39832
  35   34377.9    290.9   0.089300264   0.85516   0.04454  -0.53513   0.75287
  36   34635.3    288.7   0.016316296   0.15509  -0.23157   0.12320   0.29374
  37   35193.3    284.1   0.071556637   0.66937   0.21616   0.24205  -0.75104
  38   35777.6    279.5   0.020778957   0.19120  -0.14812   0.37775  -0.16299
  39   35851.3    278.9   0.002398554   0.02203   0.00539  -0.14602  -0.02596
  40   35983.0    277.9   0.043391656   0.39699   0.23973  -0.49553   0.30655
  41   36031.2    277.5   0.003406653   0.03113  -0.12196   0.10226   0.07613
  42   36496.9    274.0   0.120127191   1.08358  -0.65758   0.80617   0.03551
  43   36719.9    272.3   0.003917007   0.03512   0.12192  -0.05086  -0.13291
  44   37129.5    269.3   0.456725715   4.04960  -1.24714   1.57467  -0.12106
  45   37300.2    268.1   0.001417609   0.01251  -0.08671   0.07054   0.00409
  46   37380.6    267.5   0.453978851   3.99820   1.30724  -0.80922  -1.27847
  47   37989.8    263.2   0.002985171   0.02587  -0.01074   0.10333  -0.12279
  48   38112.0    262.4   0.023834004   0.20588   0.09870   0.05265  -0.43973
  49   38147.2    262.1   0.031916925   0.27544   0.16962  -0.36808   0.33346
  50   38233.3    261.6   0.026414136   0.22744   0.12686  -0.34894   0.29932
  51   38378.4    260.6   0.244376945   2.09628  -0.78575   1.19521  -0.22439
  52   38581.2    259.2   0.013402587   0.11436  -0.04518  -0.12088   0.31259
  53   38896.4    257.1   0.134711038   1.14017  -0.31789   0.79004  -0.64417
  54   39144.4    255.5   0.000014328   0.00012  -0.00149  -0.00791  -0.00746
  55   39364.1    254.0   0.051790302   0.43314   0.54120  -0.37432  -0.01108
  56   39492.2    253.2   0.002204286   0.01838   0.02982   0.02931  -0.12894
  57   39954.5    250.3   0.000871151   0.00718   0.03488  -0.04137  -0.06519
  58   40262.6    248.4   0.066326669   0.54233  -0.40442   0.59827  -0.14437

FINAL SINGLE POINT ENERGY     -4712.271327636904

DIPOLE MOMENT
-------------
                                X             Y             Z
Electronic contribution:     23.56163     -60.71002      48.80468
Nuclear contribution   :    -23.28379      63.30651     -54.58216
                        -----------------------------------------
Total Dipole Moment    :      0.27783       2.59649      -5.77748
                        -----------------------------------------
Magnitude (a.u.)       :      6.34021
Magnitude (Debye)      :     16.11552

Rotational constants in cm-1:     0.001187     0.000353     0.000275
Rotational constants in MHz :    35.594698    10.588679     8.252261

                             ****ORCA TERMINATED NORMALLY****
TOTAL RUN TIME: 0 days 0 hours 10 minutes 43 seconds 891 msec
