                         Program Version 4.2.0 -  RELEASE  -
|  1> # ORCA input file
|  2> # SCF done       -186.357157248576          0.000716181600
|  3> ! CAM-B3LYP def2-SVP def2/J RIJCOSX Grid4 TightSCF
|  4> %maxcore 5000
|  5> %tddft
|  6>     Mode sTDDFT
|  7>     Ethresh 5.0
|  8>     maxcore 5000
|  9> end
| 10>
| 11> %pal
| 12>   nprocs 6
| 13>   end
| 14> * xyz 0 1
| 15>    C       -8.05215         4.04712        -3.12846
| 16>    C       -9.03011         4.82761        -3.67967
| 17>    F       -8.93082         6.16553        -3.62592
| 18>    C      -10.14263         4.24619        -4.31643
| 19>    F      -11.08104         5.04271        -4.85277
| 20>    C      -10.26293         2.88720        -4.39893
| 21>    C       -9.26052         2.05984        -3.86096
| 22>    C       -8.13674         2.64426        -3.21099
| 23>    C       -7.10169         1.82635        -2.69729
| 24>    C       -7.18024         0.46801        -2.85465
| 25>    C       -8.30756        -0.10390        -3.51235
| 26>    C       -9.33295         0.65551        -3.99708
| 27>    C       -8.09750        -1.54590        -3.64204
| 28>    O       -8.85596        -2.36657        -4.15001
| 29>    C       -6.77183        -1.82162        -3.07535
| 30>    C       -6.23881        -0.59782        -2.52385
| 31>    C       -5.05447        -0.44396        -1.84892
| 32>    C       -4.55794         0.78821        -1.38327
| 33>    N       -4.08327         1.75974        -0.99544
| 34>    C       -4.18555        -1.50888        -1.53931
| 35>    N       -3.44994        -2.34690        -1.26490
| 36>    C       -6.15594        -3.03585        -3.26058
| 37>    N       -6.77268        -3.98014        -3.98290
| 38>    C       -6.23372        -5.09596        -4.54833
| 39>    S       -4.94397        -6.00516        -3.83775
| 40>    C       -4.93298        -7.03093        -5.23680
| 41>    N       -4.01525        -8.08694        -5.26589
| 42>    O       -4.01017        -8.80524        -6.24834
| 43>    O       -3.28822        -8.21021        -4.29550
| 44>    C       -5.85339        -6.67363        -6.19243
| 45>    C       -6.62148        -5.56987        -5.80447
| 46>    C       -7.59117        -4.82298        -6.59879
| 47>    C       -8.84474        -4.56305        -6.19613
| 48>    C       -9.67828        -3.54381        -6.75532
| 49>    S       -8.94431        -2.06635        -7.33052
| 50>    C      -10.49739        -1.29357        -7.51942
| 51>    C      -11.51222        -2.18981        -7.21999
| 52>    C      -11.04997        -3.42956        -6.75462
| 53>    C      -12.06679        -4.42382        -6.30815
| 54>    C      -13.05109        -3.76287        -5.32644
| 55>    C      -13.41500        -2.31247        -5.71130
| 56>    C      -12.81352        -1.32820        -4.73824
| 57>    O      -12.33186        -0.26707        -5.02087
| 58>    C      -12.98131        -1.94053        -7.13954
| 59>    C      -10.63960         0.07144        -7.84493
| 60>    C       -9.71756         1.06313        -7.65179
| 61>    C       -9.93712         2.44956        -7.86786
| 62>    C       -8.93416         3.25331        -7.42438
| 63>    C       -7.85559         2.55309        -6.83883
| 64>    S       -8.12963         0.82320        -6.93628
| 65>    C       -6.75107         3.07637        -6.19915
| 66>    C       -6.42995         4.43829        -5.99381
| 67>    C       -5.30817         4.64468        -5.25198
| 68>    C       -4.66260         3.46051        -4.81770
| 69>    S       -5.55701         2.05981        -5.42956
| 70>    C       -3.57257         3.25041        -4.01763
| 71>    C       -2.66669         4.18365        -3.46058
| 72>    C       -1.73727         3.84303        -2.47139
| 73>    C       -0.96087         4.98419        -2.15731
| 74>    C        0.07566         5.17502        -1.26946
| 75>    C        0.66432         6.44770        -1.21892
| 76>    C        1.71438         6.94812        -0.45880
| 77>    C        1.92777         8.31806        -0.80264
| 78>    C        1.00471         8.66358        -1.77530
| 79>    C        0.19481         7.52478        -2.07048
| 80>    C       -0.83761         7.34008        -2.95280
| 81>    C       -1.43052         6.06220        -3.00707
| 82>    C       -2.46258         5.56542        -3.78481
| 83>    C        2.92456         9.20494        -0.25258
| 84>    C        3.82799         8.87900         0.66795
| 85>    H       -7.20636         4.51143        -2.64551
| 86>    H      -11.11636         2.44298        -4.88714
| 87>    H       -6.26128         2.30025        -2.21560
| 88>    H      -10.17887         0.20558        -4.49380
| 89>    H       -5.15896        -3.25314        -2.89876
| 90>    H       -7.69737        -3.68104        -4.34689
| 91>    H       -5.95991        -7.20034        -7.12323
| 92>    H       -7.21226        -4.37039        -7.50594
| 93>    H       -9.26502        -5.10979        -5.35968
| 94>    H      -11.60059        -5.28946        -5.83855
| 95>    H      -12.61633        -4.77750        -7.18581
| 96>    H      -12.59659        -3.76097        -4.33329
| 97>    H      -13.95276        -4.37428        -5.27267
| 98>    H      -14.49999        -2.17860        -5.61551
| 99>    H      -12.86541        -1.66194        -3.68255
|100>    H      -13.22604        -0.89746        -7.33334
|101>    H      -13.51222        -2.56685        -7.86090
|102>    H      -11.61561         0.38416        -8.19145
|103>    H      -10.84617         2.80509        -8.31974
|104>    H       -8.95041         4.32688        -7.48253
|105>    H       -7.04422         5.22836        -6.38753
|106>    H       -4.95697         5.62042        -4.97381
|107>    H       -3.37077         2.21971        -3.75345
|108>    H       -1.65040         2.87796        -2.00837
|109>    H        0.43200         4.37455        -0.63703
|110>    H        2.27665         6.39486         0.27082
|111>    H        0.90809         9.62742        -2.24140
|112>    H       -1.19314         8.13848        -3.58945
|113>    H       -2.98418         6.11786        -4.54366
|114>    H        2.90510        10.21260        -0.64897
|115>    H        3.88616         7.89156         1.09229
|116>    H        4.54335         9.59531         1.03290
|117> *
|118>
|119>                          ****END OF INPUT****

CARTESIAN COORDINATES (ANGSTROEM)
---------------------------------
  C     -8.052150    4.047120   -3.128460
  C     -9.030110    4.827610   -3.679670
  F     -8.930820    6.165530   -3.625920
  C    -10.142630    4.246190   -4.316430
  F    -11.081040    5.042710   -4.852770
  C    -10.262930    2.887200   -4.398930
  C     -9.260520    2.059840   -3.860960
  C     -8.136740    2.644260   -3.210990
  C     -7.101690    1.826350   -2.697290
  C     -7.180240    0.468010   -2.854650
  C     -8.307560   -0.103900   -3.512350
  C     -9.332950    0.655510   -3.997080
  C     -8.097500   -1.545900   -3.642040
  O     -8.855960   -2.366570   -4.150010
  C     -6.771830   -1.821620   -3.075350
  C     -6.238810   -0.597820   -2.523850
  C     -5.054470   -0.443960   -1.848920
  C     -4.557940    0.788210   -1.383270
  N     -4.083270    1.759740   -0.995440
  C     -4.185550   -1.508880   -1.539310
  N     -3.449940   -2.346900   -1.264900
  C     -6.155940   -3.035850   -3.260580
  N     -6.772680   -3.980140   -3.982900
  C     -6.233720   -5.095960   -4.548330
  S     -4.943970   -6.005160   -3.837750
  C     -4.932980   -7.030930   -5.236800
  N     -4.015250   -8.086940   -5.265890
  O     -4.010170   -8.805240   -6.248340
  O     -3.288220   -8.210210   -4.295500
  C     -5.853390   -6.673630   -6.192430
  C     -6.621480   -5.569870   -5.804470
  C     -7.591170   -4.822980   -6.598790
  C     -8.844740   -4.563050   -6.196130
  C     -9.678280   -3.543810   -6.755320
  S     -8.944310   -2.066350   -7.330520
  C    -10.497390   -1.293570   -7.519420
  C    -11.512220   -2.189810   -7.219990
  C    -11.049970   -3.429560   -6.754620
  C    -12.066790   -4.423820   -6.308150
  C    -13.051090   -3.762870   -5.326440
  C    -13.415000   -2.312470   -5.711300
  C    -12.813520   -1.328200   -4.738240
  O    -12.331860   -0.267070   -5.020870
  C    -12.981310   -1.940530   -7.139540
  C    -10.639600    0.071440   -7.844930
  C     -9.717560    1.063130   -7.651790
  C     -9.937120    2.449560   -7.867860
  C     -8.934160    3.253310   -7.424380
  C     -7.855590    2.553090   -6.838830
  S     -8.129630    0.823200   -6.936280
  C     -6.751070    3.076370   -6.199150
  C     -6.429950    4.438290   -5.993810
  C     -5.308170    4.644680   -5.251980
  C     -4.662600    3.460510   -4.817700
  S     -5.557010    2.059810   -5.429560
  C     -3.572570    3.250410   -4.017630
  C     -2.666690    4.183650   -3.460580
  C     -1.737270    3.843030   -2.471390
  C     -0.960870    4.984190   -2.157310
  C      0.075660    5.175020   -1.269460
  C      0.664320    6.447700   -1.218920
  C      1.714380    6.948120   -0.458800
  C      1.927770    8.318060   -0.802640
  C      1.004710    8.663580   -1.775300
  C      0.194810    7.524780   -2.070480
  C     -0.837610    7.340080   -2.952800
  C     -1.430520    6.062200   -3.007070
  C     -2.462580    5.565420   -3.784810
  C      2.924560    9.204940   -0.252580
  C      3.827990    8.879000    0.667950
  H     -7.206360    4.511430   -2.645510
  H    -11.116360    2.442980   -4.887140
  H     -6.261280    2.300250   -2.215600
  H    -10.178870    0.205580   -4.493800
  H     -5.158960   -3.253140   -2.898760
  H     -7.697370   -3.681040   -4.346890
  H     -5.959910   -7.200340   -7.123230
  H     -7.212260   -4.370390   -7.505940
  H     -9.265020   -5.109790   -5.359680
  H    -11.600590   -5.289460   -5.838550
  H    -12.616330   -4.777500   -7.185810
  H    -12.596590   -3.760970   -4.333290
  H    -13.952760   -4.374280   -5.272670
  H    -14.499990   -2.178600   -5.615510
  H    -12.865410   -1.661940   -3.682550
  H    -13.226040   -0.897460   -7.333340
  H    -13.512220   -2.566850   -7.860900
  H    -11.615610    0.384160   -8.191450
  H    -10.846170    2.805090   -8.319740
  H     -8.950410    4.326880   -7.482530
  H     -7.044220    5.228360   -6.387530
  H     -4.956970    5.620420   -4.973810
  H     -3.370770    2.219710   -3.753450
  H     -1.650400    2.877960   -2.008370
  H      0.432000    4.374550   -0.637030
  H      2.276650    6.394860    0.270820
  H      0.908090    9.627420   -2.241400
  H     -1.193140    8.138480   -3.589450
  H     -2.984180    6.117860   -4.543660
  H      2.905100   10.212600   -0.648970
  H      3.886160    7.891560    1.092290
  H      4.543350    9.595310    1.032900

 Total Charge           Charge          ....    0
 Multiplicity           Mult            ....    1
 Number of Electrons    NEL             ....  510
 Basis Dimension        Dim             .... 1156

ORBITAL ENERGIES
----------------

  NO   OCC          E(Eh)            E(eV)
   0   2.0000     -88.987565     -2421.4748
   1   2.0000     -88.947015     -2420.3713
   2   2.0000     -88.941471     -2420.2205
   3   2.0000     -88.939733     -2420.1732
   4   2.0000     -24.791204      -674.6030
   5   2.0000     -24.790489      -674.5835
   6   2.0000     -19.235258      -523.4180
   7   2.0000     -19.234716      -523.4032
   8   2.0000     -19.231885      -523.3262
   9   2.0000     -19.222790      -523.0787
  10   2.0000     -14.647030      -398.5660
  11   2.0000     -14.483785      -394.1238
  12   2.0000     -14.413775      -392.2188
  13   2.0000     -14.413023      -392.1983
  14   2.0000     -10.370918      -282.2070
  15   2.0000     -10.370016      -282.1825
  16   2.0000     -10.368672      -282.1459
  17   2.0000     -10.368575      -282.1433
  18   2.0000     -10.365895      -282.0703
  19   2.0000     -10.365094      -282.0485
  20   2.0000     -10.343604      -281.4638
  21   2.0000     -10.339827      -281.3610
  22   2.0000     -10.334073      -281.2044
  23   2.0000     -10.317275      -280.7473
  24   2.0000     -10.316886      -280.7367
  25   2.0000     -10.308491      -280.5083
  26   2.0000     -10.308012      -280.4953
  27   2.0000     -10.304378      -280.3964
  28   2.0000     -10.301286      -280.3122
  29   2.0000     -10.301131      -280.3080
  30   2.0000     -10.299699      -280.2691
  31   2.0000     -10.298784      -280.2441
  32   2.0000     -10.298727      -280.2426
  33   2.0000     -10.297849      -280.2187
  34   2.0000     -10.297157      -280.1999
  35   2.0000     -10.296579      -280.1842
  36   2.0000     -10.295313      -280.1497
  37   2.0000     -10.293190      -280.0920
  38   2.0000     -10.292497      -280.0731
  39   2.0000     -10.292339      -280.0688
  40   2.0000     -10.292150      -280.0637
  41   2.0000     -10.291984      -280.0591
  42   2.0000     -10.290515      -280.0192
  43   2.0000     -10.288489      -279.9640
  44   2.0000     -10.287626      -279.9405
  45   2.0000     -10.285201      -279.8745
  46   2.0000     -10.284764      -279.8627
  47   2.0000     -10.284713      -279.8613
  48   2.0000     -10.283507      -279.8285
  49   2.0000     -10.283232      -279.8210
  50   2.0000     -10.283108      -279.8176
  51   2.0000     -10.282703      -279.8066
  52   2.0000     -10.281572      -279.7758
  53   2.0000     -10.280757      -279.7536
  54   2.0000     -10.280728      -279.7528
  55   2.0000     -10.279575      -279.7215
  56   2.0000     -10.278215      -279.6844
  57   2.0000     -10.277851      -279.6745
  58   2.0000     -10.272808      -279.5373
  59   2.0000     -10.272318      -279.5240
  60   2.0000     -10.270218      -279.4668
  61   2.0000     -10.269488      -279.4470
  62   2.0000     -10.267612      -279.3959
  63   2.0000     -10.266882      -279.3761
  64   2.0000     -10.265780      -279.3461
  65   2.0000     -10.263050      -279.2718
  66   2.0000     -10.262515      -279.2572
  67   2.0000     -10.262460      -279.2557
  68   2.0000     -10.260939      -279.2143
  69   2.0000     -10.255377      -279.0630
  70   2.0000      -8.082870      -219.9461
  71   2.0000      -8.042005      -218.8341
  72   2.0000      -8.036510      -218.6845
  73   2.0000      -8.035145      -218.6474
  74   2.0000      -6.052361      -164.6931
  75   2.0000      -6.048052      -164.5759
  76   2.0000      -6.044582      -164.4815
  77   2.0000      -6.011340      -163.5769
  78   2.0000      -6.007212      -163.4646
  79   2.0000      -6.006357      -163.4413
  80   2.0000      -6.004985      -163.4039
  81   2.0000      -6.004075      -163.3792
  82   2.0000      -6.002274      -163.3302
  83   2.0000      -6.001004      -163.2956
  84   2.0000      -5.997387      -163.1972
  85   2.0000      -5.995969      -163.1586
  86   2.0000      -1.316529       -35.8246
  87   2.0000      -1.312516       -35.7154
  88   2.0000      -1.297674       -35.3115
  89   2.0000      -1.145892       -31.1813
  90   2.0000      -1.138354       -30.9762
  91   2.0000      -1.135330       -30.8939
  92   2.0000      -1.093837       -29.7648
  93   2.0000      -1.015962       -27.6457
  94   2.0000      -1.006513       -27.3886
  95   2.0000      -0.997569       -27.1452
  96   2.0000      -0.992813       -27.0158
  97   2.0000      -0.991954       -26.9924
  98   2.0000      -0.986564       -26.8458
  99   2.0000      -0.983946       -26.7745
 100   2.0000      -0.972913       -26.4743
 101   2.0000      -0.967593       -26.3296
 102   2.0000      -0.957425       -26.0528
 103   2.0000      -0.932452       -25.3733
 104   2.0000      -0.924087       -25.1457
 105   2.0000      -0.917817       -24.9751
 106   2.0000      -0.901263       -24.5246
 107   2.0000      -0.897654       -24.4264
 108   2.0000      -0.889727       -24.2107
 109   2.0000      -0.882411       -24.0116
 110   2.0000      -0.879174       -23.9236
 111   2.0000      -0.869646       -23.6643
 112   2.0000      -0.861257       -23.4360
 113   2.0000      -0.856646       -23.3105
 114   2.0000      -0.853123       -23.2147
 115   2.0000      -0.849126       -23.1059
 116   2.0000      -0.842331       -22.9210
 117   2.0000      -0.840261       -22.8647
 118   2.0000      -0.830720       -22.6051
 119   2.0000      -0.830560       -22.6007
 120   2.0000      -0.816634       -22.2217
 121   2.0000      -0.808284       -21.9945
 122   2.0000      -0.802592       -21.8396
 123   2.0000      -0.795231       -21.6393
 124   2.0000      -0.782337       -21.2885
 125   2.0000      -0.763092       -20.7648
 126   2.0000      -0.761699       -20.7269
 127   2.0000      -0.754153       -20.5215
 128   2.0000      -0.746013       -20.3000
 129   2.0000      -0.741221       -20.1697
 130   2.0000      -0.734981       -19.9999
 131   2.0000      -0.728004       -19.8100
 132   2.0000      -0.717273       -19.5180
 133   2.0000      -0.711163       -19.3517
 134   2.0000      -0.703580       -19.1454
 135   2.0000      -0.699902       -19.0453
 136   2.0000      -0.690787       -18.7973
 137   2.0000      -0.684125       -18.6160
 138   2.0000      -0.679810       -18.4986
 139   2.0000      -0.671733       -18.2788
 140   2.0000      -0.666376       -18.1330
 141   2.0000      -0.656152       -17.8548
 142   2.0000      -0.650461       -17.7000
 143   2.0000      -0.647599       -17.6221
 144   2.0000      -0.642715       -17.4892
 145   2.0000      -0.639346       -17.3975
 146   2.0000      -0.638231       -17.3671
 147   2.0000      -0.636074       -17.3084
 148   2.0000      -0.632783       -17.2189
 149   2.0000      -0.628390       -17.0994
 150   2.0000      -0.625451       -17.0194
 151   2.0000      -0.621852       -16.9215
 152   2.0000      -0.619223       -16.8499
 153   2.0000      -0.618085       -16.8190
 154   2.0000      -0.616074       -16.7642
 155   2.0000      -0.603927       -16.4337
 156   2.0000      -0.597350       -16.2547
 157   2.0000      -0.594216       -16.1694
 158   2.0000      -0.593094       -16.1389
 159   2.0000      -0.589576       -16.0432
 160   2.0000      -0.587365       -15.9830
 161   2.0000      -0.580190       -15.7878
 162   2.0000      -0.577967       -15.7273
 163   2.0000      -0.577021       -15.7015
 164   2.0000      -0.576115       -15.6769
 165   2.0000      -0.568527       -15.4704
 166   2.0000      -0.564683       -15.3658
 167   2.0000      -0.559377       -15.2214
 168   2.0000      -0.553911       -15.0727
 169   2.0000      -0.551293       -15.0015
 170   2.0000      -0.548681       -14.9304
 171   2.0000      -0.544926       -14.8282
 172   2.0000      -0.540236       -14.7006
 173   2.0000      -0.539251       -14.6738
 174   2.0000      -0.538860       -14.6631
 175   2.0000      -0.536451       -14.5976
 176   2.0000      -0.530150       -14.4261
 177   2.0000      -0.529412       -14.4060
 178   2.0000      -0.528436       -14.3795
 179   2.0000      -0.521023       -14.1778
 180   2.0000      -0.518382       -14.1059
 181   2.0000      -0.517655       -14.0861
 182   2.0000      -0.515031       -14.0147
 183   2.0000      -0.513471       -13.9722
 184   2.0000      -0.509866       -13.8741
 185   2.0000      -0.507927       -13.8214
 186   2.0000      -0.507044       -13.7974
 187   2.0000      -0.503127       -13.6908
 188   2.0000      -0.498935       -13.5767
 189   2.0000      -0.496512       -13.5108
 190   2.0000      -0.494806       -13.4644
 191   2.0000      -0.494234       -13.4488
 192   2.0000      -0.491728       -13.3806
 193   2.0000      -0.490041       -13.3347
 194   2.0000      -0.489329       -13.3153
 195   2.0000      -0.487605       -13.2684
 196   2.0000      -0.481574       -13.1043
 197   2.0000      -0.481122       -13.0920
 198   2.0000      -0.475489       -12.9387
 199   2.0000      -0.469396       -12.7729
 200   2.0000      -0.467930       -12.7330
 201   2.0000      -0.467579       -12.7235
 202   2.0000      -0.464098       -12.6287
 203   2.0000      -0.462639       -12.5891
 204   2.0000      -0.460615       -12.5340
 205   2.0000      -0.459514       -12.5040
 206   2.0000      -0.456418       -12.4198
 207   2.0000      -0.454578       -12.3697
 208   2.0000      -0.451305       -12.2806
 209   2.0000      -0.450074       -12.2471
 210   2.0000      -0.447467       -12.1762
 211   2.0000      -0.446647       -12.1539
 212   2.0000      -0.444705       -12.1010
 213   2.0000      -0.442934       -12.0528
 214   2.0000      -0.442001       -12.0275
 215   2.0000      -0.438304       -11.9269
 216   2.0000      -0.435036       -11.8379
 217   2.0000      -0.434397       -11.8205
 218   2.0000      -0.429054       -11.6752
 219   2.0000      -0.427672       -11.6376
 220   2.0000      -0.421436       -11.4679
 221   2.0000      -0.420868       -11.4524
 222   2.0000      -0.419016       -11.4020
 223   2.0000      -0.417963       -11.3734
 224   2.0000      -0.413192       -11.2435
 225   2.0000      -0.408829       -11.1248
 226   2.0000      -0.407633       -11.0923
 227   2.0000      -0.402090       -10.9414
 228   2.0000      -0.400521       -10.8987
 229   2.0000      -0.398555       -10.8452
 230   2.0000      -0.390335       -10.6216
 231   2.0000      -0.384691       -10.4680
 232   2.0000      -0.383568       -10.4374
 233   2.0000      -0.382209       -10.4004
 234   2.0000      -0.375705       -10.2234
 235   2.0000      -0.370795       -10.0898
 236   2.0000      -0.368700       -10.0328
 237   2.0000      -0.363822        -9.9001
 238   2.0000      -0.363204        -9.8833
 239   2.0000      -0.350046        -9.5252
 240   2.0000      -0.347571        -9.4579
 241   2.0000      -0.340762        -9.2726
 242   2.0000      -0.339691        -9.2435
 243   2.0000      -0.333681        -9.0799
 244   2.0000      -0.329141        -8.9564
 245   2.0000      -0.326073        -8.8729
 246   2.0000      -0.309603        -8.4247
 247   2.0000      -0.307585        -8.3698
 248   2.0000      -0.301821        -8.2130
 249   2.0000      -0.286838        -7.8053
 250   2.0000      -0.277156        -7.5418
 251   2.0000      -0.269576        -7.3355
 252   2.0000      -0.265252        -7.2179
 253   2.0000      -0.245119        -6.6700
 254   2.0000      -0.200520        -5.4564
 255   0.0000      -0.094212        -2.5636
 256   0.0000      -0.081101        -2.2069
 257   0.0000      -0.070399        -1.9156
 258   0.0000      -0.059326        -1.6143
 259   0.0000      -0.042080        -1.1451

MULLIKEN ATOMIC CHARGES
-----------------------
   0 C :   -0.103688
   1 C :    0.231871
   2 F :   -0.180682
   3 C :    0.234028
   4 F :   -0.180841
   5 C :   -0.092625
   6 C :    0.104001
   7 C :    0.122452
   8 C :   -0.082097
   9 C :    0.055852
  10 C :    0.025646
  11 C :   -0.057438
  12 C :    0.167751
  13 O :   -0.221450
  14 C :   -0.144911
  15 C :    0.331361
  16 C :   -0.360979
  17 C :   -0.180123
  18 N :    0.141777
  19 C :   -0.208874
  20 N :    0.142653
  21 C :    0.050750
  22 N :   -0.016747
  23 C :   -0.109642
  24 S :    0.196703
  25 C :   -0.023869
  26 N :    0.278973
  27 O :   -0.249130
  28 O :   -0.261554
  29 C :    0.025169
  30 C :    0.083864
  31 C :   -0.078531
  32 C :   -0.012599
  33 C :   -0.119442
  34 S :    0.109594
  35 C :   -0.121818
  36 C :   -0.087326
  37 C :   -0.058790
  38 C :    0.180765
  39 C :    0.055036
  40 C :   -0.178938
  41 C :    0.179061
  42 O :   -0.185296
  43 C :    0.260825
  44 C :   -0.006723
  45 C :   -0.044497
  46 C :    0.012332
  47 C :    0.052847
  48 C :   -0.058188
  49 S :    0.055345
  50 C :   -0.052386
  51 C :    0.033573
  52 C :    0.016530
  53 C :   -0.081155
  54 S :    0.064409
  55 C :    0.062279
  56 C :    0.047868
  57 C :   -0.004745
  58 C :    0.056587
  59 C :    0.008290
  60 C :    0.043363
  61 C :   -0.019710
  62 C :    0.059981
  63 C :   -0.025900
  64 C :    0.057880
  65 C :   -0.000655
  66 C :    0.045994
  67 C :   -0.037205
  68 C :    0.013143
  69 C :   -0.025905
  70 H :    0.001100
  71 H :    0.003734
  72 H :   -0.010087
  73 H :   -0.024619
  74 H :    0.038423
  75 H :    0.180592
  76 H :    0.011183
  77 H :    0.026168
  78 H :    0.017904
  79 H :   -0.005768
  80 H :    0.009780
  81 H :    0.009006
  82 H :    0.006568
  83 H :    0.032094
  84 H :    0.004068
  85 H :    0.000019
  86 H :    0.001967
  87 H :   -0.016009
  88 H :   -0.016291
  89 H :   -0.013909
  90 H :   -0.015676
  91 H :   -0.021435
  92 H :   -0.015429
  93 H :   -0.017680
  94 H :   -0.020613
  95 H :   -0.021970
  96 H :   -0.028759
  97 H :   -0.027570
  98 H :   -0.027689
  99 H :   -0.020887
 100 H :    0.007404
 101 H :    0.020287
Sum of atomic charges:   -0.0000000

LOEWDIN ATOMIC CHARGES
----------------------
   0 C :   -0.026335
   1 C :    0.061415
   2 F :   -0.056998
   3 C :    0.060540
   4 F :   -0.056995
   5 C :   -0.020287
   6 C :   -0.009445
   7 C :   -0.007669
   8 C :    0.013542
   9 C :   -0.028602
  10 C :   -0.061399
  11 C :    0.036225
  12 C :    0.096115
  13 O :   -0.173665
  14 C :   -0.145217
  15 C :    0.085632
  16 C :   -0.162243
  17 C :   -0.014614
  18 N :   -0.065196
  19 C :   -0.022495
  20 N :   -0.062284
  21 C :    0.119352
  22 N :    0.071398
  23 C :   -0.118701
  24 S :    0.475981
  25 C :   -0.206929
  26 N :    0.273652
  27 O :   -0.215333
  28 O :   -0.227103
  29 C :    0.000687
  30 C :   -0.086174
  31 C :   -0.050643
  32 C :   -0.028413
  33 C :   -0.182207
  34 S :    0.429018
  35 C :   -0.167956
  36 C :   -0.064967
  37 C :   -0.054011
  38 C :   -0.017857
  39 C :   -0.017847
  40 C :   -0.071736
  41 C :    0.135509
  42 O :   -0.126667
  43 C :   -0.011543
  44 C :   -0.078865
  45 C :   -0.147078
  46 C :   -0.044428
  47 C :   -0.030765
  48 C :   -0.196019
  49 S :    0.376351
  50 C :   -0.174868
  51 C :   -0.034689
  52 C :   -0.037742
  53 C :   -0.164467
  54 S :    0.380870
  55 C :   -0.028147
  56 C :   -0.067056
  57 C :    0.037806
  58 C :   -0.063169
  59 C :    0.080847
  60 C :   -0.065296
  61 C :    0.050047
  62 C :   -0.061010
  63 C :    0.016080
  64 C :   -0.060620
  65 C :    0.070189
  66 C :   -0.063648
  67 C :    0.032268
  68 C :   -0.021100
  69 C :   -0.055140
  70 H :    0.044698
  71 H :    0.047402
  72 H :    0.036885
  73 H :    0.036403
  74 H :    0.037514
  75 H :    0.084104
  76 H :    0.047898
  77 H :    0.031017
  78 H :    0.032919
  79 H :    0.029633
  80 H :    0.035368
  81 H :    0.025412
  82 H :    0.027749
  83 H :    0.046506
  84 H :   -0.003492
  85 H :    0.030052
  86 H :    0.032340
  87 H :    0.035253
  88 H :    0.031650
  89 H :    0.030896
  90 H :    0.030759
  91 H :    0.029444
  92 H :    0.031468
  93 H :    0.027719
  94 H :    0.037045
  95 H :    0.025707
  96 H :    0.023663
  97 H :    0.033886
  98 H :    0.021479
  99 H :    0.028784
 100 H :    0.017681
 101 H :    0.024269

  Mayer bond orders larger than 0.100000
B(  0-C ,  1-C ) :   1.4201 B(  0-C ,  5-C ) :   0.1105 B(  0-C ,  7-C ) :   1.1993
B(  0-C , 70-H ) :   1.0050 B(  1-C ,  2-F ) :   1.1260 B(  1-C ,  3-C ) :   1.2090
B(  3-C ,  4-F ) :   1.1259 B(  3-C ,  5-C ) :   1.4084 B(  5-C ,  6-C ) :   1.2100
B(  5-C , 71-H ) :   1.0077 B(  6-C ,  7-C ) :   1.2668 B(  6-C , 11-C ) :   1.1886
B(  7-C ,  8-C ) :   1.1989 B(  8-C ,  9-C ) :   1.4408 B(  8-C , 72-H ) :   0.9958
B(  9-C , 10-C ) :   1.2147 B(  9-C , 15-C ) :   0.9949 B( 10-C , 11-C ) :   1.4369
B( 10-C , 12-C ) :   0.9865 B( 11-C , 73-H ) :   1.0196 B( 12-C , 13-O ) :   2.0098
B( 12-C , 14-C ) :   1.0021 B( 13-O , 75-H ) :   0.1443 B( 14-C , 15-C ) :   1.0952
B( 14-C , 21-C ) :   1.4646 B( 15-C , 16-C ) :   1.6119 B( 16-C , 17-C ) :   1.1586
B( 16-C , 19-C ) :   1.1448 B( 17-C , 18-N ) :   2.9187 B( 19-C , 20-N ) :   2.9687
B( 21-C , 22-N ) :   1.3401 B( 21-C , 74-H ) :   0.9349 B( 22-N , 23-C ) :   1.1588
B( 22-N , 75-H ) :   0.8194 B( 23-C , 24-S ) :   1.1382 B( 23-C , 30-C ) :   1.4389
B( 24-S , 25-C ) :   1.0985 B( 25-C , 26-N ) :   0.9695 B( 25-C , 29-C ) :   1.4680
B( 26-N , 27-O ) :   1.5375 B( 26-N , 28-O ) :   1.5136 B( 27-O , 28-O ) :   0.2604
B( 29-C , 30-C ) :   1.2567 B( 29-C , 76-H ) :   1.0097 B( 30-C , 31-C ) :   0.9816
B( 31-C , 32-C ) :   1.7849 B( 31-C , 77-H ) :   0.9730 B( 32-C , 33-C ) :   1.1212
B( 32-C , 78-H ) :   0.9581 B( 33-C , 34-S ) :   1.1098 B( 33-C , 37-C ) :   1.5032
B( 34-S , 35-C ) :   1.1142 B( 35-C , 36-C ) :   1.4787 B( 35-C , 44-C ) :   1.1455
B( 36-C , 37-C ) :   1.3070 B( 36-C , 43-C ) :   1.0763 B( 37-C , 38-C ) :   1.1012
B( 38-C , 39-C ) :   1.1101 B( 38-C , 79-H ) :   0.9119 B( 38-C , 80-H ) :   0.8876
B( 39-C , 40-C ) :   1.0298 B( 39-C , 81-H ) :   0.9387 B( 39-C , 82-H ) :   0.9237
B( 40-C , 41-C ) :   0.9136 B( 40-C , 43-C ) :   1.0875 B( 40-C , 83-H ) :   0.8924
B( 41-C , 42-O ) :   2.1232 B( 41-C , 84-H ) :   0.9490 B( 43-C , 85-H ) :   0.9017
B( 43-C , 86-H ) :   0.8815 B( 44-C , 45-C ) :   1.6026 B( 44-C , 87-H ) :   0.9612
B( 45-C , 46-C ) :   1.1286 B( 45-C , 49-S ) :   1.0393 B( 46-C , 47-C ) :   1.5912
B( 46-C , 88-H ) :   1.0003 B( 47-C , 48-C ) :   1.1836 B( 47-C , 89-H ) :   0.9918
B( 48-C , 49-S ) :   1.0348 B( 48-C , 50-C ) :   1.5027 B( 50-C , 51-C ) :   1.1847
B( 50-C , 54-S ) :   1.0695 B( 51-C , 52-C ) :   1.5987 B( 51-C , 90-H ) :   0.9918
B( 52-C , 53-C ) :   1.1397 B( 52-C , 91-H ) :   0.9942 B( 53-C , 54-S ) :   1.0189
B( 53-C , 55-C ) :   1.5723 B( 55-C , 56-C ) :   1.1682 B( 55-C , 92-H ) :   0.9465
B( 56-C , 57-C ) :   1.4269 B( 56-C , 67-C ) :   1.1419 B( 57-C , 58-C ) :   1.1232
B( 57-C , 93-H ) :   1.0167 B( 58-C , 59-C ) :   1.4136 B( 58-C , 66-C ) :   1.1322
B( 59-C , 60-C ) :   1.1507 B( 59-C , 94-H ) :   1.0058 B( 60-C , 61-C ) :   1.4104
B( 60-C , 64-C ) :   1.1324 B( 61-C , 62-C ) :   1.1623 B( 61-C , 95-H ) :   1.0089
B( 62-C , 63-C ) :   1.4878 B( 62-C , 68-C ) :   1.0844 B( 63-C , 64-C ) :   1.0973
B( 63-C , 96-H ) :   1.0161 B( 64-C , 65-C ) :   1.4487 B( 65-C , 66-C ) :   1.1338
B( 65-C , 97-H ) :   1.0042 B( 66-C , 67-C ) :   1.4267 B( 67-C , 98-H ) :   1.0063
B( 68-C , 69-C ) :   1.9343 B( 68-C , 99-H ) :   0.9660 B( 69-C ,100-H ) :   0.9526
B( 69-C ,101-H ) :   0.9494

-----------------------------------------------------------------------------
         ABSORPTION SPECTRUM VIA TRANSITION ELECTRIC DIPOLE MOMENTS
-----------------------------------------------------------------------------
State   Energy  Wavelength   fosc         T2         TX        TY        TZ
        (cm-1)    (nm)                  (au**2)     (au)      (au)      (au)
-----------------------------------------------------------------------------
   0    6581.5   1519.4   0.007675935   0.38396   0.47901   0.25293   0.30090
   1   10749.6    930.3   0.011583712   0.35476  -0.00240   0.38791  -0.45197
   2   14265.4    701.0   0.394609173   9.10666   2.20795   1.78052   1.03023
   3   14402.2    694.3   1.098668239  25.11391  -3.58520  -2.92344  -1.92711
   4   15842.2    631.2   0.016176855   0.33617  -0.43445  -0.02329  -0.38325
   5   20861.0    479.4   0.035288417   0.55689   0.38287   0.52140   0.37208
   6   22237.7    449.7   0.088005968   1.30286  -0.32975  -0.84391  -0.69422
   7   22284.5    448.7   0.277129199   4.09406  -1.21068  -1.44549  -0.73408
   8   23571.4    424.2   0.028958786   0.40445   0.49748   0.25463   0.30353
   9   24237.9    412.6   0.579725418   7.87414   1.14531   1.87780   1.74250
  10   25300.4    395.3   0.272700794   3.54842  -1.32996   1.29677  -0.31309
  11   25840.0    387.0   0.060848090   0.77523  -0.42591  -0.53318  -0.55637
  12   26297.4    380.3   0.020761652   0.25991  -0.24919  -0.29845  -0.32976
  13   26522.9    377.0   0.006583203   0.08171  -0.22717   0.10444   0.13856
  14   26714.5    374.3   0.437359024   5.38973  -1.14202   1.92335  -0.62148
  15   27097.7    369.0   0.013489371   0.16388   0.07183   0.26457   0.29787
  16   27808.2    359.6   0.274487034   3.24956  -1.26981   1.25524  -0.24806
  17   28084.8    356.1   0.029813818   0.34948   0.37571  -0.36747   0.27072
  18   28445.2    351.6   0.010098785   0.11688  -0.27421   0.19671  -0.05471
  19   28706.6    348.4   0.042396744   0.48621   0.13586   0.50428   0.46201
  20   28906.9    345.9   0.086825884   0.98883  -0.81879   0.42447  -0.37181
  21   29133.5    343.2   0.085462175   0.96573  -0.31653   0.88987   0.27141
  22   29407.8    340.0   0.012126419   0.13575   0.33165   0.03901   0.15570
  23   29933.8    334.1   0.105143153   1.15636  -0.69945   0.81002   0.10489
  24   30287.0    330.2   0.053826866   0.58508  -0.02846  -0.72776  -0.23374
  25   30684.6    325.9   0.078059401   0.83749   0.30747  -0.78104   0.36460
  26   31020.8    322.4   0.063893518   0.67808  -0.64386  -0.41476  -0.30248
  27   31504.3    317.4   0.032478947   0.33940   0.56557   0.04740   0.13144
  28   32117.0    311.4   0.084906519   0.87032  -0.59277  -0.35879  -0.62467
  29   32372.9    308.9   0.233153276   2.37102   1.10952  -0.97601   0.43288
  30   32587.6    306.9   0.149339622   1.50868  -0.74276   0.97465  -0.08403
  31   33077.8    302.3   0.045720534   0.45504   0.38589   0.49495   0.24730
  32   33323.3    300.1   0.191949951   1.89634   1.10340  -0.14637   0.81082
  33   33599.9    297.6   0.597878528   5.85801   1.90948  -1.22678   0.84079
  34   33672.2    297.0   0.110764834   1.08294   0.65401   0.66563   0.46059
  35   34001.2    294.1   0.044321909   0.42914   0.50812  -0.33529   0.24195
  36   34028.9    293.9   0.011556895   0.11181   0.16888  -0.20578  -0.20233
  37   34667.2    288.5   0.009097201   0.08639  -0.19524  -0.11649  -0.18628
  38   34705.5    288.1   0.017621544   0.16716  -0.35177  -0.18194   0.10154
  39   34794.0    287.4   0.011670142   0.11042   0.16893  -0.26334   0.11196
  40   34896.6    286.6   0.178691541   1.68576   0.65846   1.04593   0.39777
  41   35278.8    283.5   0.006987455   0.06520  -0.03442  -0.25298  -0.00441
  42   35378.2    282.7   0.079865608   0.74319  -0.44673  -0.51779  -0.52490
  43   35507.4    281.6   0.024054865   0.22303  -0.34380  -0.24484  -0.21186
  44   35791.1    279.4   0.020078758   0.18469  -0.01894  -0.39086  -0.17765
  45   35901.5    278.5   0.175883743   1.61283  -0.12281   1.26396   0.01235
  46   36212.6    276.1   0.036345534   0.33042  -0.37981   0.27415  -0.33317
  47   36847.4    271.4   0.006964636   0.06223   0.10360  -0.14064  -0.17808
  48   36940.9    270.7   0.039380373   0.35095  -0.46282  -0.32282   0.18039
  49   37165.9    269.1   0.008957171   0.07934   0.07208  -0.23750   0.13319
  50   37281.9    268.2   0.007056163   0.06231  -0.11023  -0.09701   0.20186
  51   37292.6    268.1   0.004283849   0.03782  -0.13125   0.01565  -0.14264
  52   37482.4    266.8   0.009701399   0.08521   0.01879  -0.29130  -0.00015
  53   37606.7    265.9   0.020022338   0.17528   0.37369   0.13490   0.13204
  54   37866.1    264.1   0.128550099   1.11763  -0.63061   0.82624  -0.19311
  55   38012.0    263.1   0.046548622   0.40315   0.25475   0.43022   0.39136
  56   38073.9    262.6   0.025768426   0.22281  -0.35757  -0.11956  -0.28401
  57   38344.4    260.8   0.181320378   1.55675   1.12581  -0.06325   0.53414
  58   38508.1    259.7   0.194565446   1.66337   0.72211   0.77572   0.73497
  59   38825.2    257.6   0.028771541   0.24396   0.33370   0.36309   0.02778
  60   38906.6    257.0   0.216780083   1.83431   0.95006   0.93645   0.23396
  61   39271.3    254.6   0.012850922   0.10773  -0.10824   0.29751  -0.08662
  62   39374.2    254.0   0.009403342   0.07862   0.05511   0.02625  -0.27367
  63   39457.3    253.4   0.001196397   0.00998   0.03954   0.08965  -0.01953
  64   39733.7    251.7   0.006283322   0.05206  -0.21765  -0.02442  -0.06396
  65   40022.1    249.9   0.092611071   0.76180   0.77353   0.19054   0.35658
  66   40300.2    248.1   0.021642870   0.17680  -0.23747   0.16913  -0.30299

FINAL SINGLE POINT ENERGY     -4461.244252722073

DIPOLE MOMENT
-------------
                                X             Y             Z
Electronic contribution:     -2.84110     -15.57288      -1.82151
Nuclear contribution   :     -0.27204      17.14696       1.03600
                        -----------------------------------------
Total Dipole Moment    :     -3.11314       1.57409      -0.78552
                        -----------------------------------------
Magnitude (a.u.)       :      3.57581
Magnitude (Debye)      :      9.08900

Rotational constants in cm-1:     0.001319     0.000560     0.000430
Rotational constants in MHz :    39.549569    16.797771    12.878249

                             ****ORCA TERMINATED NORMALLY****
TOTAL RUN TIME: 0 days 0 hours 14 minutes 5 seconds 565 msec
