                         Program Version 4.2.0 -  RELEASE  -
|  1> # ORCA input file
|  2> # SCF done       -198.276203667581          0.000492015481
|  3> ! CAM-B3LYP def2-SVP def2/J RIJCOSX Grid4 TightSCF
|  4> %maxcore 5000
|  5> %tddft
|  6>     Mode sTDDFT
|  7>     Ethresh 5.0
|  8>     maxcore 5000
|  9> end
| 10>
| 11> %pal
| 12>   nprocs 6
| 13>   end
| 14> * xyz 0 1
| 15>    C      -19.74376         6.88694         8.11412
| 16>    C      -20.75642         7.56844         8.72910
| 17>    F      -20.81039         8.90783         8.65447
| 18>    C      -21.75514         6.87935         9.44277
| 19>    F      -22.73828         7.57401        10.03791
| 20>    C      -21.72722         5.51551         9.53693
| 21>    C      -20.70195         4.78316         8.90933
| 22>    C      -19.69663         5.48067         8.18100
| 23>    C      -18.66550         4.76509         7.52789
| 24>    C      -18.64598         3.39898         7.59964
| 25>    C      -19.63721         2.71098         8.35371
| 26>    C      -20.64395         3.37192         8.99262
| 27>    C      -19.35285         1.25767         8.31024
| 28>    O      -20.00614         0.37797         8.83768
| 29>    C      -18.13051         1.11846         7.50037
| 30>    C      -17.71980         2.41246         7.04443
| 31>    C      -16.68086         2.71610         6.18514
| 32>    C      -15.70162         1.82426         5.70871
| 33>    N      -14.84235         1.18717         5.28536
| 34>    C      -16.48985         3.97914         5.60755
| 35>    N      -16.30151         4.96360         5.04045
| 36>    C      -17.52880        -0.08724         7.17353
| 37>    C      -17.99953        -1.35382         7.47670
| 38>    C      -17.35772        -2.49226         7.00191
| 39>    C      -17.78231        -3.83381         7.07228
| 40>    C      -16.97763        -4.71399         6.39409
| 41>    C      -15.87236        -4.10362         5.78070
| 42>    S      -15.86581        -2.38465         6.10400
| 43>    C      -14.88312        -4.61304         4.94618
| 44>    C      -14.74064        -5.87253         4.33098
| 45>    C      -13.71132        -5.92665         3.43215
| 46>    C      -12.98321        -4.71999         3.30430
| 47>    S      -13.62435        -3.53120         4.42198
| 48>    C      -12.00489        -4.40953         2.38673
| 49>    C      -11.36167        -3.16881         2.28900
| 50>    S      -11.43551        -1.95031         3.53472
| 51>    C      -10.59991        -0.78268         2.55329
| 52>    C      -10.23219        -1.34658         1.34059
| 53>    C      -10.62911        -2.68636         1.19488
| 54>    O      -10.38863        -3.45328         0.11656
| 55>    S       -9.29995        -0.53544         0.07173
| 56>    C      -10.46515         0.51045         3.11948
| 57>    C      -10.47122         1.70568         2.47916
| 58>    C      -10.48399         2.93412         3.19346
| 59>    S      -11.07736         4.39181         2.43836
| 60>    C      -10.90682         5.30826         3.90228
| 61>    C      -10.41776         4.50186         4.91368
| 62>    C      -10.18470         3.16720         4.53052
| 63>    O       -9.71768         2.22834         5.37264
| 64>    S      -10.23709         5.01510         6.59818
| 65>    C      -11.26480         6.67369         4.09845
| 66>    C      -12.35246         7.31951         3.62191
| 67>    C      -13.30666         6.82725         2.68752
| 68>    C      -14.64135         7.08297         2.74304
| 69>    C      -15.51872         6.90318         1.55423
| 70>    O      -15.22819         6.36201         0.51371
| 71>    C      -16.78416         7.58383         1.90437
| 72>    C      -17.87673         7.82078         1.12169
| 73>    C      -18.97264         8.52864         1.66576
| 74>    C      -18.91429         8.97787         3.01698
| 75>    C      -20.00835         9.68725         3.55228
| 76>    C      -21.10777         9.94146         2.78108
| 77>    C      -21.16298         9.49994         1.44407
| 78>    C      -20.11960         8.80668         0.89726
| 79>    F      -22.25182         9.76761         0.70921
| 80>    F      -22.14659        10.61704         3.28947
| 81>    C      -17.77081         8.71309         3.80489
| 82>    C      -16.72313         8.02189         3.25832
| 83>    C      -15.44914         7.59215         3.82631
| 84>    C      -15.19630         7.45519         5.16894
| 85>    C      -14.09538         6.78222         5.72401
| 86>    N      -13.24569         6.21562         6.25210
| 87>    C      -16.12449         7.81127         6.16799
| 88>    N      -16.84976         8.06835         7.02021
| 89>    H      -18.97035         7.42688         7.58886
| 90>    H      -22.49652         5.00360        10.09365
| 91>    H      -17.91634         5.32535         6.99174
| 92>    H      -21.38695         2.82867         9.55670
| 93>    H      -16.61808        -0.03952         6.58743
| 94>    H      -18.91031        -1.46682         8.04582
| 95>    H      -18.67953        -4.11276         7.59575
| 96>    H      -17.16044        -5.77171         6.32421
| 97>    H      -15.41305        -6.68726         4.53231
| 98>    H      -13.46707        -6.79343         2.84344
| 99>    H      -11.75236        -5.14197         1.63186
|100>    H       -9.86813        -2.95351        -0.52828
|101>    H       -8.76477         0.37793         0.87472
|102>    H      -10.49681         0.52069         4.19977
|103>    H      -10.58544         1.77347         1.40573
|104>    H       -9.63238         2.62454         6.25535
|105>    H      -11.43941         5.59404         6.67856
|106>    H      -10.67932         7.17274         4.86241
|107>    H      -12.57366         8.28810         4.05548
|108>    H      -12.95794         6.25731         1.83446
|109>    H      -17.90564         7.47586         0.09918
|110>    H      -19.98467        10.03012         4.57508
|111>    H      -20.17872         8.47508        -0.12752
|112>    H      -17.74691         9.07929         4.81888
|113> *
|114>
|115>                          ****END OF INPUT****

CARTESIAN COORDINATES (ANGSTROEM)
---------------------------------
  C    -19.743760    6.886940    8.114120
  C    -20.756420    7.568440    8.729100
  F    -20.810390    8.907830    8.654470
  C    -21.755140    6.879350    9.442770
  F    -22.738280    7.574010   10.037910
  C    -21.727220    5.515510    9.536930
  C    -20.701950    4.783160    8.909330
  C    -19.696630    5.480670    8.181000
  C    -18.665500    4.765090    7.527890
  C    -18.645980    3.398980    7.599640
  C    -19.637210    2.710980    8.353710
  C    -20.643950    3.371920    8.992620
  C    -19.352850    1.257670    8.310240
  O    -20.006140    0.377970    8.837680
  C    -18.130510    1.118460    7.500370
  C    -17.719800    2.412460    7.044430
  C    -16.680860    2.716100    6.185140
  C    -15.701620    1.824260    5.708710
  N    -14.842350    1.187170    5.285360
  C    -16.489850    3.979140    5.607550
  N    -16.301510    4.963600    5.040450
  C    -17.528800   -0.087240    7.173530
  C    -17.999530   -1.353820    7.476700
  C    -17.357720   -2.492260    7.001910
  C    -17.782310   -3.833810    7.072280
  C    -16.977630   -4.713990    6.394090
  C    -15.872360   -4.103620    5.780700
  S    -15.865810   -2.384650    6.104000
  C    -14.883120   -4.613040    4.946180
  C    -14.740640   -5.872530    4.330980
  C    -13.711320   -5.926650    3.432150
  C    -12.983210   -4.719990    3.304300
  S    -13.624350   -3.531200    4.421980
  C    -12.004890   -4.409530    2.386730
  C    -11.361670   -3.168810    2.289000
  S    -11.435510   -1.950310    3.534720
  C    -10.599910   -0.782680    2.553290
  C    -10.232190   -1.346580    1.340590
  C    -10.629110   -2.686360    1.194880
  O    -10.388630   -3.453280    0.116560
  S     -9.299950   -0.535440    0.071730
  C    -10.465150    0.510450    3.119480
  C    -10.471220    1.705680    2.479160
  C    -10.483990    2.934120    3.193460
  S    -11.077360    4.391810    2.438360
  C    -10.906820    5.308260    3.902280
  C    -10.417760    4.501860    4.913680
  C    -10.184700    3.167200    4.530520
  O     -9.717680    2.228340    5.372640
  S    -10.237090    5.015100    6.598180
  C    -11.264800    6.673690    4.098450
  C    -12.352460    7.319510    3.621910
  C    -13.306660    6.827250    2.687520
  C    -14.641350    7.082970    2.743040
  C    -15.518720    6.903180    1.554230
  O    -15.228190    6.362010    0.513710
  C    -16.784160    7.583830    1.904370
  C    -17.876730    7.820780    1.121690
  C    -18.972640    8.528640    1.665760
  C    -18.914290    8.977870    3.016980
  C    -20.008350    9.687250    3.552280
  C    -21.107770    9.941460    2.781080
  C    -21.162980    9.499940    1.444070
  C    -20.119600    8.806680    0.897260
  F    -22.251820    9.767610    0.709210
  F    -22.146590   10.617040    3.289470
  C    -17.770810    8.713090    3.804890
  C    -16.723130    8.021890    3.258320
  C    -15.449140    7.592150    3.826310
  C    -15.196300    7.455190    5.168940
  C    -14.095380    6.782220    5.724010
  N    -13.245690    6.215620    6.252100
  C    -16.124490    7.811270    6.167990
  N    -16.849760    8.068350    7.020210
  H    -18.970350    7.426880    7.588860
  H    -22.496520    5.003600   10.093650
  H    -17.916340    5.325350    6.991740
  H    -21.386950    2.828670    9.556700
  H    -16.618080   -0.039520    6.587430
  H    -18.910310   -1.466820    8.045820
  H    -18.679530   -4.112760    7.595750
  H    -17.160440   -5.771710    6.324210
  H    -15.413050   -6.687260    4.532310
  H    -13.467070   -6.793430    2.843440
  H    -11.752360   -5.141970    1.631860
  H     -9.868130   -2.953510   -0.528280
  H     -8.764770    0.377930    0.874720
  H    -10.496810    0.520690    4.199770
  H    -10.585440    1.773470    1.405730
  H     -9.632380    2.624540    6.255350
  H    -11.439410    5.594040    6.678560
  H    -10.679320    7.172740    4.862410
  H    -12.573660    8.288100    4.055480
  H    -12.957940    6.257310    1.834460
  H    -17.905640    7.475860    0.099180
  H    -19.984670   10.030120    4.575080
  H    -20.178720    8.475080   -0.127520
  H    -17.746910    9.079290    4.818880

 Total Charge           Charge          ....    0
 Multiplicity           Mult            ....    1
 Number of Electrons    NEL             ....  552
 Basis Dimension        Dim             .... 1180

ORBITAL ENERGIES
----------------

  NO   OCC          E(Eh)            E(eV)
   0   2.0000     -88.965116     -2420.8639
   1   2.0000     -88.963084     -2420.8086
   2   2.0000     -88.959173     -2420.7022
   3   2.0000     -88.952155     -2420.5112
   4   2.0000     -88.950345     -2420.4619
   5   2.0000     -88.927876     -2419.8505
   6   2.0000     -24.793935      -674.6773
   7   2.0000     -24.792990      -674.6516
   8   2.0000     -24.778106      -674.2466
   9   2.0000     -24.775954      -674.1880
  10   2.0000     -19.276017      -524.5271
  11   2.0000     -19.258576      -524.0525
  12   2.0000     -19.212881      -522.8091
  13   2.0000     -19.187801      -522.1266
  14   2.0000     -14.422247      -392.4493
  15   2.0000     -14.420512      -392.4021
  16   2.0000     -14.395206      -391.7135
  17   2.0000     -14.391122      -391.6023
  18   2.0000     -10.376963      -282.3715
  19   2.0000     -10.376424      -282.3568
  20   2.0000     -10.363888      -282.0157
  21   2.0000     -10.363508      -282.0054
  22   2.0000     -10.358787      -281.8769
  23   2.0000     -10.355932      -281.7992
  24   2.0000     -10.344898      -281.4990
  25   2.0000     -10.341717      -281.4124
  26   2.0000     -10.338544      -281.3261
  27   2.0000     -10.337256      -281.2910
  28   2.0000     -10.332191      -281.1532
  29   2.0000     -10.328117      -281.0424
  30   2.0000     -10.325060      -280.9592
  31   2.0000     -10.324803      -280.9522
  32   2.0000     -10.318169      -280.7717
  33   2.0000     -10.317685      -280.7585
  34   2.0000     -10.316966      -280.7389
  35   2.0000     -10.315061      -280.6871
  36   2.0000     -10.313665      -280.6491
  37   2.0000     -10.313004      -280.6311
  38   2.0000     -10.312393      -280.6145
  39   2.0000     -10.311238      -280.5830
  40   2.0000     -10.311227      -280.5828
  41   2.0000     -10.308284      -280.5027
  42   2.0000     -10.307625      -280.4847
  43   2.0000     -10.306290      -280.4484
  44   2.0000     -10.305892      -280.4376
  45   2.0000     -10.305865      -280.4369
  46   2.0000     -10.304988      -280.4130
  47   2.0000     -10.303714      -280.3783
  48   2.0000     -10.302962      -280.3578
  49   2.0000     -10.301835      -280.3272
  50   2.0000     -10.298981      -280.2495
  51   2.0000     -10.298920      -280.2479
  52   2.0000     -10.298295      -280.2309
  53   2.0000     -10.298132      -280.2264
  54   2.0000     -10.296819      -280.1907
  55   2.0000     -10.296673      -280.1867
  56   2.0000     -10.296336      -280.1775
  57   2.0000     -10.295932      -280.1665
  58   2.0000     -10.295105      -280.1440
  59   2.0000     -10.290560      -280.0204
  60   2.0000     -10.289096      -279.9805
  61   2.0000     -10.286990      -279.9232
  62   2.0000     -10.286135      -279.9000
  63   2.0000     -10.285901      -279.8936
  64   2.0000     -10.284342      -279.8512
  65   2.0000     -10.282587      -279.8034
  66   2.0000     -10.280641      -279.7505
  67   2.0000     -10.278628      -279.6957
  68   2.0000     -10.276861      -279.6476
  69   2.0000     -10.276472      -279.6370
  70   2.0000     -10.272053      -279.5168
  71   2.0000     -10.267011      -279.3796
  72   2.0000     -10.263194      -279.2757
  73   2.0000     -10.262461      -279.2557
  74   2.0000      -8.060805      -219.3457
  75   2.0000      -8.058239      -219.2758
  76   2.0000      -8.055597      -219.2039
  77   2.0000      -8.047426      -218.9816
  78   2.0000      -8.046411      -218.9540
  79   2.0000      -8.023499      -218.3305
  80   2.0000      -6.030211      -164.0904
  81   2.0000      -6.027677      -164.0214
  82   2.0000      -6.026179      -163.9807
  83   2.0000      -6.025263      -163.9557
  84   2.0000      -6.023758      -163.9148
  85   2.0000      -6.022349      -163.8765
  86   2.0000      -6.020969      -163.8389
  87   2.0000      -6.019885      -163.8094
  88   2.0000      -6.017803      -163.7527
  89   2.0000      -6.016681      -163.7222
  90   2.0000      -6.015940      -163.7020
  91   2.0000      -6.013745      -163.6423
  92   2.0000      -6.011852      -163.5908
  93   2.0000      -6.007747      -163.4791
  94   2.0000      -6.007440      -163.4707
  95   2.0000      -5.993759      -163.0985
  96   2.0000      -5.989190      -162.9742
  97   2.0000      -5.984236      -162.8393
  98   2.0000      -1.316311       -35.8186
  99   2.0000      -1.301439       -35.4139
 100   2.0000      -1.298939       -35.3459
 101   2.0000      -1.284078       -34.9415
 102   2.0000      -1.172949       -31.9176
 103   2.0000      -1.156659       -31.4743
 104   2.0000      -1.127668       -30.6854
 105   2.0000      -1.101106       -29.9626
 106   2.0000      -1.021869       -27.8065
 107   2.0000      -1.011021       -27.5113
 108   2.0000      -1.002834       -27.2885
 109   2.0000      -1.000463       -27.2240
 110   2.0000      -1.000076       -27.2135
 111   2.0000      -0.996202       -27.1080
 112   2.0000      -0.993038       -27.0219
 113   2.0000      -0.981964       -26.7206
 114   2.0000      -0.980475       -26.6801
 115   2.0000      -0.978495       -26.6262
 116   2.0000      -0.972980       -26.4761
 117   2.0000      -0.955515       -26.0009
 118   2.0000      -0.933311       -25.3967
 119   2.0000      -0.926060       -25.1994
 120   2.0000      -0.917966       -24.9791
 121   2.0000      -0.909118       -24.7384
 122   2.0000      -0.904522       -24.6133
 123   2.0000      -0.894851       -24.3501
 124   2.0000      -0.891486       -24.2586
 125   2.0000      -0.887258       -24.1435
 126   2.0000      -0.882269       -24.0078
 127   2.0000      -0.875812       -23.8320
 128   2.0000      -0.869885       -23.6708
 129   2.0000      -0.864382       -23.5210
 130   2.0000      -0.860255       -23.4087
 131   2.0000      -0.856551       -23.3079
 132   2.0000      -0.841909       -22.9095
 133   2.0000      -0.836541       -22.7634
 134   2.0000      -0.832690       -22.6586
 135   2.0000      -0.823669       -22.4132
 136   2.0000      -0.815451       -22.1895
 137   2.0000      -0.811563       -22.0838
 138   2.0000      -0.804472       -21.8908
 139   2.0000      -0.796148       -21.6643
 140   2.0000      -0.791921       -21.5493
 141   2.0000      -0.778835       -21.1932
 142   2.0000      -0.764612       -20.8062
 143   2.0000      -0.758545       -20.6411
 144   2.0000      -0.742786       -20.2122
 145   2.0000      -0.741203       -20.1691
 146   2.0000      -0.731750       -19.9119
 147   2.0000      -0.724785       -19.7224
 148   2.0000      -0.713692       -19.4206
 149   2.0000      -0.708816       -19.2879
 150   2.0000      -0.708249       -19.2724
 151   2.0000      -0.696447       -18.9513
 152   2.0000      -0.689512       -18.7626
 153   2.0000      -0.688817       -18.7437
 154   2.0000      -0.681499       -18.5445
 155   2.0000      -0.674396       -18.3513
 156   2.0000      -0.673127       -18.3167
 157   2.0000      -0.668772       -18.1982
 158   2.0000      -0.654744       -17.8165
 159   2.0000      -0.653781       -17.7903
 160   2.0000      -0.648520       -17.6471
 161   2.0000      -0.644053       -17.5256
 162   2.0000      -0.643000       -17.4969
 163   2.0000      -0.638232       -17.3672
 164   2.0000      -0.637168       -17.3382
 165   2.0000      -0.632099       -17.2003
 166   2.0000      -0.622791       -16.9470
 167   2.0000      -0.619457       -16.8563
 168   2.0000      -0.613567       -16.6960
 169   2.0000      -0.611106       -16.6291
 170   2.0000      -0.610720       -16.6185
 171   2.0000      -0.607966       -16.5436
 172   2.0000      -0.601592       -16.3701
 173   2.0000      -0.598792       -16.2940
 174   2.0000      -0.589652       -16.0453
 175   2.0000      -0.588808       -16.0223
 176   2.0000      -0.580896       -15.8070
 177   2.0000      -0.579625       -15.7724
 178   2.0000      -0.576876       -15.6976
 179   2.0000      -0.571196       -15.5430
 180   2.0000      -0.565053       -15.3759
 181   2.0000      -0.563826       -15.3425
 182   2.0000      -0.560670       -15.2566
 183   2.0000      -0.553571       -15.0634
 184   2.0000      -0.550822       -14.9886
 185   2.0000      -0.549488       -14.9523
 186   2.0000      -0.544649       -14.8207
 187   2.0000      -0.542470       -14.7614
 188   2.0000      -0.540542       -14.7089
 189   2.0000      -0.538009       -14.6400
 190   2.0000      -0.536635       -14.6026
 191   2.0000      -0.534331       -14.5399
 192   2.0000      -0.531673       -14.4676
 193   2.0000      -0.531082       -14.4515
 194   2.0000      -0.526320       -14.3219
 195   2.0000      -0.526189       -14.3183
 196   2.0000      -0.524791       -14.2803
 197   2.0000      -0.516894       -14.0654
 198   2.0000      -0.514796       -14.0083
 199   2.0000      -0.512753       -13.9527
 200   2.0000      -0.512403       -13.9432
 201   2.0000      -0.509487       -13.8638
 202   2.0000      -0.509087       -13.8529
 203   2.0000      -0.507006       -13.7963
 204   2.0000      -0.506240       -13.7755
 205   2.0000      -0.505899       -13.7662
 206   2.0000      -0.504903       -13.7391
 207   2.0000      -0.503215       -13.6932
 208   2.0000      -0.499829       -13.6010
 209   2.0000      -0.494831       -13.4650
 210   2.0000      -0.494242       -13.4490
 211   2.0000      -0.493425       -13.4268
 212   2.0000      -0.489446       -13.3185
 213   2.0000      -0.486416       -13.2361
 214   2.0000      -0.481603       -13.1051
 215   2.0000      -0.479948       -13.0601
 216   2.0000      -0.475274       -12.9329
 217   2.0000      -0.475143       -12.9293
 218   2.0000      -0.473799       -12.8927
 219   2.0000      -0.473150       -12.8751
 220   2.0000      -0.467530       -12.7221
 221   2.0000      -0.464041       -12.6272
 222   2.0000      -0.463012       -12.5992
 223   2.0000      -0.462363       -12.5815
 224   2.0000      -0.459846       -12.5130
 225   2.0000      -0.457111       -12.4386
 226   2.0000      -0.456128       -12.4119
 227   2.0000      -0.451962       -12.2985
 228   2.0000      -0.449827       -12.2404
 229   2.0000      -0.446522       -12.1505
 230   2.0000      -0.443631       -12.0718
 231   2.0000      -0.441516       -12.0143
 232   2.0000      -0.440965       -11.9993
 233   2.0000      -0.440305       -11.9813
 234   2.0000      -0.437529       -11.9058
 235   2.0000      -0.437119       -11.8946
 236   2.0000      -0.435625       -11.8540
 237   2.0000      -0.433253       -11.7894
 238   2.0000      -0.431535       -11.7427
 239   2.0000      -0.426760       -11.6127
 240   2.0000      -0.425475       -11.5778
 241   2.0000      -0.421953       -11.4819
 242   2.0000      -0.419878       -11.4255
 243   2.0000      -0.419053       -11.4030
 244   2.0000      -0.417449       -11.3594
 245   2.0000      -0.414481       -11.2786
 246   2.0000      -0.409716       -11.1489
 247   2.0000      -0.407223       -11.0811
 248   2.0000      -0.404986       -11.0202
 249   2.0000      -0.400800       -10.9063
 250   2.0000      -0.398734       -10.8501
 251   2.0000      -0.396806       -10.7977
 252   2.0000      -0.393366       -10.7040
 253   2.0000      -0.387422       -10.5423
 254   2.0000      -0.385456       -10.4888
 255   2.0000      -0.380455       -10.3527
 256   2.0000      -0.370706       -10.0874
 257   2.0000      -0.363154        -9.8819
 258   2.0000      -0.359668        -9.7871
 259   2.0000      -0.352499        -9.5920
 260   2.0000      -0.347022        -9.4430
 261   2.0000      -0.343434        -9.3453
 262   2.0000      -0.335060        -9.1174
 263   2.0000      -0.327976        -8.9247
 264   2.0000      -0.324567        -8.8319
 265   2.0000      -0.314091        -8.5469
 266   2.0000      -0.311692        -8.4816
 267   2.0000      -0.308902        -8.4056
 268   2.0000      -0.297131        -8.0853
 269   2.0000      -0.295683        -8.0459
 270   2.0000      -0.293842        -7.9958
 271   2.0000      -0.288430        -7.8486
 272   2.0000      -0.283082        -7.7030
 273   2.0000      -0.275093        -7.4857
 274   2.0000      -0.250626        -6.8199
 275   2.0000      -0.215150        -5.8545
 276   0.0000      -0.106537        -2.8990
 277   0.0000      -0.092336        -2.5126
 278   0.0000      -0.057622        -1.5680
 279   0.0000      -0.053347        -1.4516
 280   0.0000      -0.038599        -1.0503

MULLIKEN ATOMIC CHARGES
-----------------------
   0 C :   -0.096288
   1 C :    0.234006
   2 F :   -0.180294
   3 C :    0.232246
   4 F :   -0.181309
   5 C :   -0.110913
   6 C :    0.110230
   7 C :    0.116173
   8 C :   -0.082925
   9 C :    0.051317
  10 C :    0.001517
  11 C :   -0.093314
  12 C :    0.136041
  13 O :   -0.165420
  14 C :   -0.098310
  15 C :    0.337176
  16 C :   -0.380994
  17 C :   -0.196265
  18 N :    0.119874
  19 C :   -0.159226
  20 N :    0.090441
  21 C :   -0.048613
  22 C :   -0.013855
  23 C :    0.004586
  24 C :    0.015343
  25 C :    0.047703
  26 C :   -0.057291
  27 S :    0.092879
  28 C :   -0.006261
  29 C :    0.021929
  30 C :    0.054253
  31 C :   -0.061026
  32 S :    0.086714
  33 C :    0.059190
  34 C :   -0.173944
  35 S :    0.148442
  36 C :   -0.111303
  37 C :   -0.051272
  38 C :    0.137926
  39 O :   -0.164576
  40 S :    0.001613
  41 C :    0.006217
  42 C :    0.041156
  43 C :   -0.173053
  44 S :    0.142665
  45 C :   -0.132104
  46 C :   -0.049447
  47 C :    0.155569
  48 O :   -0.176088
  49 S :   -0.046609
  50 C :    0.020272
  51 C :   -0.036320
  52 C :    0.045606
  53 C :   -0.120949
  54 C :    0.151519
  55 O :   -0.135103
  56 C :    0.007262
  57 C :   -0.082322
  58 C :    0.113480
  59 C :    0.113052
  60 C :   -0.108269
  61 C :    0.240811
  62 C :    0.238193
  63 C :   -0.103028
  64 F :   -0.173406
  65 F :   -0.171264
  66 C :   -0.084025
  67 C :    0.046271
  68 C :    0.309916
  69 C :   -0.312791
  70 C :   -0.145685
  71 N :    0.156470
  72 C :   -0.156121
  73 N :    0.139968
  74 H :   -0.023152
  75 H :   -0.008802
  76 H :   -0.023866
  77 H :   -0.019706
  78 H :    0.018284
  79 H :    0.010593
  80 H :   -0.005124
  81 H :   -0.007433
  82 H :   -0.008537
  83 H :   -0.001780
  84 H :    0.012597
  85 H :    0.192698
  86 H :    0.087509
  87 H :    0.027288
  88 H :   -0.008141
  89 H :    0.185911
  90 H :    0.124552
  91 H :    0.019428
  92 H :    0.021303
  93 H :    0.031132
  94 H :   -0.010678
  95 H :    0.006829
  96 H :   -0.001730
  97 H :   -0.007218
Sum of atomic charges:    0.0000000

LOEWDIN ATOMIC CHARGES
----------------------
   0 C :   -0.028133
   1 C :    0.058091
   2 F :   -0.058557
   3 C :    0.062874
   4 F :   -0.058002
   5 C :   -0.039934
   6 C :   -0.011358
   7 C :   -0.009154
   8 C :    0.011336
   9 C :   -0.021795
  10 C :   -0.047953
  11 C :    0.018742
  12 C :    0.078699
  13 O :   -0.164147
  14 C :   -0.120731
  15 C :    0.076622
  16 C :   -0.178338
  17 C :   -0.023462
  18 N :   -0.081623
  19 C :    0.007399
  20 N :   -0.103034
  21 C :    0.044744
  22 C :   -0.079888
  23 C :   -0.100711
  24 C :   -0.055838
  25 C :   -0.007000
  26 C :   -0.207131
  27 S :    0.420985
  28 C :   -0.137609
  29 C :   -0.053797
  30 C :   -0.002316
  31 C :   -0.180228
  32 S :    0.404887
  33 C :   -0.007654
  34 C :   -0.226534
  35 S :    0.457392
  36 C :   -0.155184
  37 C :   -0.238221
  38 C :    0.028130
  39 O :   -0.033645
  40 S :    0.212526
  41 C :   -0.055718
  42 C :   -0.021522
  43 C :   -0.208936
  44 S :    0.446036
  45 C :   -0.189785
  46 C :   -0.208012
  47 C :    0.014812
  48 O :   -0.035682
  49 S :    0.198919
  50 C :   -0.000485
  51 C :   -0.044560
  52 C :    0.063895
  53 C :   -0.073199
  54 C :    0.087001
  55 O :   -0.136297
  56 C :   -0.050403
  57 C :    0.031006
  58 C :   -0.009048
  59 C :   -0.005379
  60 C :   -0.030349
  61 C :    0.066811
  62 C :    0.066712
  63 C :   -0.032939
  64 F :   -0.050782
  65 F :   -0.048811
  66 C :    0.013844
  67 C :   -0.014307
  68 C :    0.080711
  69 C :   -0.131180
  70 C :    0.027684
  71 N :   -0.057850
  72 C :    0.006143
  73 N :   -0.058652
  74 H :    0.036747
  75 H :    0.041255
  76 H :    0.036041
  77 H :    0.036089
  78 H :    0.028144
  79 H :    0.037313
  80 H :    0.036083
  81 H :    0.034677
  82 H :    0.033960
  83 H :    0.037641
  84 H :    0.048294
  85 H :    0.090351
  86 H :   -0.008705
  87 H :    0.037075
  88 H :    0.026134
  89 H :    0.080747
  90 H :   -0.007757
  91 H :    0.039026
  92 H :    0.039874
  93 H :    0.036922
  94 H :    0.040275
  95 H :    0.047442
  96 H :    0.044446
  97 H :    0.037802

  Mayer bond orders larger than 0.100000
B(  0-C ,  1-C ) :   1.4373 B(  0-C ,  5-C ) :   0.1123 B(  0-C ,  7-C ) :   1.2010
B(  0-C , 74-H ) :   0.9881 B(  1-C ,  2-F ) :   1.1287 B(  1-C ,  3-C ) :   1.1956
B(  3-C ,  4-F ) :   1.1235 B(  3-C ,  5-C ) :   1.4357 B(  5-C ,  6-C ) :   1.1971
B(  5-C , 75-H ) :   1.0070 B(  6-C ,  7-C ) :   1.2585 B(  6-C , 11-C ) :   1.1751
B(  7-C ,  8-C ) :   1.2133 B(  8-C ,  9-C ) :   1.4591 B(  8-C , 76-H ) :   0.9918
B(  9-C , 10-C ) :   1.2191 B(  9-C , 15-C ) :   0.9684 B( 10-C , 11-C ) :   1.4871
B( 10-C , 12-C ) :   0.9261 B( 11-C , 77-H ) :   1.0158 B( 12-C , 13-O ) :   2.1995
B( 12-C , 14-C ) :   0.9744 B( 14-C , 15-C ) :   1.1747 B( 14-C , 21-C ) :   1.4019
B( 15-C , 16-C ) :   1.5103 B( 16-C , 17-C ) :   1.1549 B( 16-C , 19-C ) :   1.1762
B( 17-C , 18-N ) :   2.9615 B( 19-C , 20-N ) :   2.8954 B( 20-N , 69-C ) :   0.1066
B( 21-C , 22-C ) :   1.3452 B( 21-C , 78-H ) :   0.9361 B( 22-C , 23-C ) :   1.3368
B( 22-C , 79-H ) :   0.9838 B( 23-C , 24-C ) :   1.2273 B( 23-C , 27-S ) :   1.1116
B( 24-C , 25-C ) :   1.4845 B( 24-C , 80-H ) :   1.0009 B( 25-C , 26-C ) :   1.2673
B( 25-C , 81-H ) :   0.9968 B( 26-C , 27-S ) :   1.0509 B( 26-C , 28-C ) :   1.3976
B( 28-C , 29-C ) :   1.2293 B( 28-C , 32-S ) :   1.1056 B( 29-C , 30-C ) :   1.5407
B( 29-C , 82-H ) :   0.9946 B( 30-C , 31-C ) :   1.1861 B( 30-C , 83-H ) :   0.9979
B( 31-C , 32-S ) :   1.0275 B( 31-C , 33-C ) :   1.4965 B( 33-C , 34-C ) :   1.2356
B( 33-C , 84-H ) :   0.9747 B( 34-C , 35-S ) :   1.0616 B( 34-C , 38-C ) :   1.3952
B( 35-S , 36-C ) :   1.1572 B( 36-C , 37-C ) :   1.4742 B( 36-C , 41-C ) :   1.1309
B( 37-C , 38-C ) :   1.2798 B( 37-C , 40-S ) :   1.0042 B( 38-C , 39-O ) :   1.2996
B( 39-O , 85-H ) :   0.9405 B( 40-S , 86-H ) :   0.9403 B( 41-C , 42-C ) :   1.6739
B( 41-C , 87-H ) :   0.9345 B( 42-C , 43-C ) :   1.1535 B( 42-C , 88-H ) :   0.9554
B( 43-C , 44-S ) :   1.0802 B( 43-C , 45-C ) :   0.1045 B( 43-C , 47-C ) :   1.4630
B( 44-S , 45-C ) :   1.1351 B( 45-C , 46-C ) :   1.5287 B( 45-C , 50-C ) :   1.1064
B( 46-C , 47-C ) :   1.2541 B( 46-C , 49-S ) :   1.0451 B( 47-C , 48-O ) :   1.2530
B( 48-O , 89-H ) :   0.9271 B( 49-S , 90-H ) :   0.8903 B( 50-C , 51-C ) :   1.7567
B( 50-C , 91-H ) :   0.9483 B( 51-C , 52-C ) :   1.0848 B( 51-C , 92-H ) :   0.9499
B( 52-C , 53-C ) :   1.6909 B( 52-C , 93-H ) :   0.9356 B( 53-C , 54-C ) :   0.9373
B( 53-C , 68-C ) :   1.0533 B( 54-C , 55-O ) :   2.2811 B( 54-C , 56-C ) :   0.9176
B( 56-C , 57-C ) :   1.4729 B( 56-C , 67-C ) :   1.2293 B( 57-C , 58-C ) :   1.1944
B( 57-C , 94-H ) :   1.0150 B( 58-C , 59-C ) :   1.2598 B( 58-C , 63-C ) :   1.1925
B( 59-C , 60-C ) :   1.1881 B( 59-C , 66-C ) :   1.2152 B( 60-C , 61-C ) :   1.4420
B( 60-C , 63-C ) :   0.1091 B( 60-C , 95-H ) :   1.0065 B( 61-C , 62-C ) :   1.1934
B( 61-C , 65-F ) :   1.1342 B( 62-C , 63-C ) :   1.4437 B( 62-C , 64-F ) :   1.1317
B( 63-C , 96-H ) :   1.0062 B( 66-C , 67-C ) :   1.4503 B( 66-C , 97-H ) :   0.9945
B( 67-C , 68-C ) :   0.9962 B( 68-C , 69-C ) :   1.6269 B( 69-C , 70-C ) :   1.1795
B( 69-C , 72-C ) :   1.1534 B( 70-C , 71-N ) :   2.9303 B( 71-N , 90-H ) :   0.1286
B( 72-C , 73-N ) :   2.9080

-----------------------------------------------------------------------------
         ABSORPTION SPECTRUM VIA TRANSITION ELECTRIC DIPOLE MOMENTS
-----------------------------------------------------------------------------
State   Energy  Wavelength   fosc         T2         TX        TY        TZ
        (cm-1)    (nm)                  (au**2)     (au)      (au)      (au)
-----------------------------------------------------------------------------
   0    9313.6   1073.7   0.480817737  16.99565   3.25579  -1.10042  -2.27697
   1   14694.7    680.5   0.232430123   5.20724  -0.95467   2.06704   0.15226
   2   17636.7    567.0   0.842618367  15.72857  -1.23498   3.72573   0.56772
   3   19582.9    510.6   0.230653368   3.87756  -1.91110   0.12010   0.45916
   4   20987.3    476.5   0.709164999  11.12413  -0.81873  -3.21879   0.30531
   5   22545.8    443.5   0.078792160   1.15052  -0.27867   0.89633   0.51910
   6   23726.2    421.5   0.347846948   4.82654  -1.74303  -0.41857   1.27012
   7   23907.5    418.3   0.046411448   0.63910   0.17912   0.77672  -0.06101
   8   24881.5    401.9   0.098612940   1.30477   0.75035  -0.08150   0.85738
   9   25052.0    399.2   0.070120449   0.92146  -0.16754  -0.94469  -0.03084
  10   25535.7    391.6   0.036792045   0.47433   0.19185   0.39883  -0.52769
  11   25845.7    386.9   0.165890531   2.11304  -0.06709  -1.45191  -0.02207
  12   26813.7    372.9   0.002229095   0.02737   0.02737   0.16182  -0.02081
  13   26985.3    370.6   0.016912744   0.20633  -0.13062   0.31483   0.30026
  14   27180.9    367.9   0.006294885   0.07624   0.17259   0.20773  -0.05750
  15   27471.5    364.0   0.065044552   0.77948   0.27560   0.28053  -0.79046
  16   27681.2    361.3   0.018524723   0.22031  -0.25310   0.31671   0.23653
  17   28002.1    357.1   0.198941523   2.33890   1.09275  -1.02774   0.29754
  18   28471.4    351.2   0.009064810   0.10482  -0.02878   0.10939  -0.30335
  19   28840.3    346.7   0.039143708   0.44683   0.57564  -0.33763   0.03836
  20   29162.9    342.9   0.310398985   3.50401   0.60791  -1.14301  -1.35203
  21   29392.6    340.2   0.032642771   0.36562  -0.03550   0.60252  -0.03638
  22   29544.6    338.5   0.040306698   0.44913  -0.35884   0.28707  -0.48781
  23   30189.7    331.2   0.021409838   0.23347  -0.36890   0.31099   0.02583
  24   30284.9    330.2   0.048411664   0.52626  -0.37956  -0.61815  -0.00924
  25   30879.3    323.8   0.018375434   0.19590   0.15213  -0.16323   0.38225
  26   31644.9    316.0   0.027237539   0.28336  -0.35576   0.14638  -0.36792
  27   31870.8    313.8   0.115792518   1.19609   0.12403  -1.05726  -0.25081
  28   32002.9    312.5   0.013879273   0.14278   0.32950  -0.15585   0.09959
  29   32229.3    310.3   0.037314741   0.38116   0.37510  -0.48886   0.03841
  30   32313.8    309.5   0.055498164   0.56541   0.47467  -0.58301   0.01404
  31   32713.4    305.7   0.013540659   0.13627  -0.12354  -0.29427   0.18549
  32   33158.3    301.6   0.294619247   2.92512   0.60925  -0.57026  -1.49290
  33   33348.6    299.9   0.135584068   1.33846  -0.77347   0.77474  -0.37414
  34   33518.6    298.3   0.070866408   0.69603   0.41382  -0.69446   0.20618
  35   34070.8    293.5   0.080269985   0.77562  -0.46857   0.58291   0.46505
  36   34206.7    292.3   0.033345055   0.32092  -0.47445  -0.27428   0.14347
  37   34360.9    291.0   0.567777348   5.43988   1.83904  -0.43443   1.36715
  38   34709.4    288.1   0.030683315   0.29103   0.53056   0.08955   0.03891
  39   34811.8    287.3   0.063807562   0.60342   0.71337  -0.28973  -0.10285
  40   35102.5    284.9   0.357420722   3.35210   1.54471  -0.61534   0.76637
  41   35429.7    282.2   0.023716665   0.22037   0.28337  -0.21525   0.30618
  42   35801.1    279.3   0.005715284   0.05256  -0.17979  -0.12522  -0.06747
  43   35883.9    278.7   0.000529877   0.00486   0.04358   0.04883   0.02404
  44   36249.9    275.9   0.079996241   0.72650  -0.78747   0.22450   0.23664
  45   36475.1    274.2   0.074037997   0.66824   0.56024  -0.35076  -0.48098
  46   36859.2    271.3   0.106034531   0.94706   0.82302   0.03709  -0.51800
  47   37147.9    269.2   0.046031557   0.40794  -0.07697   0.14646   0.61690
  48   37381.0    267.5   0.115705383   1.01901   0.46253   0.03310  -0.89665
  49   37565.7    266.2   0.066525904   0.58301   0.70681  -0.19606  -0.21210
  50   37723.3    265.1   0.003946428   0.03444  -0.05487   0.12574   0.12498
  51   37902.8    263.8   0.020576853   0.17872  -0.41085  -0.05247  -0.08467
  52   38140.7    262.2   0.027352027   0.23609  -0.28565   0.36442   0.14726
  53   38196.6    261.8   0.033960917   0.29271   0.40868  -0.07911  -0.34559
  54   38709.6    258.3   0.048372164   0.41139   0.47199  -0.34958  -0.25771
  55   38868.9    257.3   0.027653392   0.23422   0.31777   0.32057  -0.17458
  56   38894.5    257.1   0.004740901   0.04013   0.15568   0.01404  -0.12528
  57   39036.8    256.2   0.058665422   0.49475  -0.37006  -0.58234   0.13670
  58   39078.1    255.9   0.026725729   0.22515   0.28493  -0.04725  -0.37647
  59   39304.8    254.4   0.008226980   0.06891  -0.06044  -0.24187  -0.08217
  60   39450.7    253.5   0.099500145   0.83032  -0.79721  -0.27919   0.34181
  61   39972.2    250.2   0.020217955   0.16652   0.20270   0.35304  -0.02812
  62   40253.7    248.4   0.073705911   0.60280   0.50217  -0.11696  -0.58047
  63   40311.6    248.1   0.027191829   0.22207  -0.30192   0.33803   0.12903

FINAL SINGLE POINT ENERGY     -5452.179904043085

DIPOLE MOMENT
-------------
                                X             Y             Z
Electronic contribution:    -28.44439      37.89482       3.84301
Nuclear contribution   :     30.88680     -40.44818      -6.05115
                        -----------------------------------------
Total Dipole Moment    :      2.44241      -2.55336      -2.20815
                        -----------------------------------------
Magnitude (a.u.)       :      4.16664
Magnitude (Debye)      :     10.59076

Rotational constants in cm-1:     0.000941     0.000479     0.000380
Rotational constants in MHz :    28.211289    14.365915    11.383359

                             ****ORCA TERMINATED NORMALLY****
TOTAL RUN TIME: 0 days 0 hours 19 minutes 39 seconds 161 msec
