                         Program Version 4.2.0 -  RELEASE  -
|  1> # ORCA input file
|  2> # SCF done       -204.958555274724          0.000527229726
|  3> ! CAM-B3LYP def2-SVP def2/J RIJCOSX Grid4 TightSCF
|  4> %maxcore 5000
|  5> %tddft
|  6>     Mode sTDDFT
|  7>     Ethresh 5.0
|  8>     maxcore 5000
|  9> end
| 10>
| 11> %pal
| 12>   nprocs 6
| 13>   end
| 14> * xyz 0 1
| 15>    C        0.77106         0.22939        -1.93993
| 16>    C        2.09078         0.57934        -2.00222
| 17>    F        2.45571         1.86050        -1.85735
| 18>    C        3.08233        -0.39813        -2.21757
| 19>    F        4.36935        -0.02739        -2.27276
| 20>    C        2.74030        -1.71286        -2.36823
| 21>    C        1.38924        -2.10481        -2.30749
| 22>    C        0.38556        -1.11781        -2.08983
| 23>    C       -0.97753        -1.48804        -2.01992
| 24>    C       -1.32576        -2.80511        -2.16146
| 25>    C       -0.31692        -3.78125        -2.37849
| 26>    C        1.00633        -3.45706        -2.45045
| 27>    C       -0.93793        -5.11692        -2.46017
| 28>    O       -0.32161        -6.16973        -2.52539
| 29>    C       -2.38244        -4.89943        -2.33123
| 30>    C       -2.62105        -3.48198        -2.13296
| 31>    C       -3.82653        -2.83984        -1.99370
| 32>    C       -5.10214        -3.43845        -2.02697
| 33>    N       -6.17622        -3.84707        -2.05019
| 34>    C       -3.96176        -1.44839        -1.80487
| 35>    N       -4.14952        -0.32728        -1.64266
| 36>    C       -3.39960        -5.83067        -2.28935
| 37>    N       -3.42891        -7.11828        -2.60123
| 38>    C       -2.44406        -7.90844        -3.31931
| 39>    C       -2.45791        -7.52120        -4.79760
| 40>    C       -1.60123        -8.47519        -5.62855
| 41>    N       -1.75807        -8.11327        -7.02526
| 42>    S       -3.02763        -9.09789        -7.63448
| 43>    N       -2.54603       -10.47201        -6.71797
| 44>    C       -2.06581        -9.97094        -5.44193
| 45>    C       -3.20255       -10.07388        -4.42483
| 46>    C       -2.82344        -9.40105        -3.10899
| 47>    N       -3.93853        -9.44447        -2.17757
| 48>    S       -4.87017        -8.06607        -2.43000
| 49>    C       -3.81218       -10.03423        -0.93135
| 50>    C       -4.57706        -9.75721         0.12788
| 51>    C       -4.48693       -10.40932         1.41602
| 52>    C       -4.22976       -11.69679         1.66657
| 53>    C       -4.03067       -12.75099         0.62011
| 54>    C       -4.13564       -12.19780         3.09110
| 55>    N       -2.85203       -12.81154         3.34783
| 56>    C       -1.75545       -12.12191         3.70210
| 57>    C       -0.48908       -12.62365         3.64086
| 58>    C        0.64611       -11.92974         4.08246
| 59>    C        1.93029       -12.40593         3.98286
| 60>    C        3.11960       -11.78360         4.42353
| 61>    C        4.25262       -12.50418         4.18395
| 62>    C        4.02106       -13.73373         3.53066
| 63>    S        2.31806       -13.95646         3.23928
| 64>    C        4.95547       -14.67914         3.13557
| 65>    C        6.35038       -14.65103         3.31244
| 66>    C        6.99182       -15.74457         2.79968
| 67>    C        6.13550       -16.68107         2.18726
| 68>    S        4.47975       -16.14287         2.29777
| 69>    C        6.50606       -17.87372         1.58524
| 70>    C        5.60960       -18.71933         0.95458
| 71>    C        5.85622       -19.93796         0.34572
| 72>    C        4.89754       -20.44304        -0.65442
| 73>    O        3.79205       -20.00125        -0.90099
| 74>    C        5.58316       -21.56709        -1.32729
| 75>    C        5.16645       -22.32334        -2.38211
| 76>    C        6.01704       -23.33526        -2.88470
| 77>    C        7.29005       -23.53703        -2.27915
| 78>    C        8.13594       -24.54150        -2.78729
| 79>    C        7.71762       -25.30029        -3.84464
| 80>    C        6.46956       -25.11862        -4.45295
| 81>    C        5.63653       -24.14608        -3.97233
| 82>    F        8.52641       -26.26348        -4.33176
| 83>    C        7.69174       -22.74024        -1.17966
| 84>    C        6.84835       -21.77337        -0.70739
| 85>    C        6.97170       -20.83382         0.41096
| 86>    C        7.89338       -20.95252         1.42981
| 87>    C        7.82922       -20.25504         2.65003
| 88>    N        7.80836       -19.75838         3.68654
| 89>    C        8.95536       -21.87467         1.42534
| 90>    N        9.85687       -22.58663         1.47021
| 91>    H        0.02436         0.99025        -1.77443
| 92>    H        3.51152        -2.44925        -2.53169
| 93>    H       -1.70925        -0.71571        -1.84959
| 94>    H        1.75069        -4.22188        -2.61228
| 95>    H       -4.36473        -5.47710        -1.94712
| 96>    H       -1.45486        -7.69421        -2.90221
| 97>    H       -2.06155        -6.51174        -4.91242
| 98>    H       -3.47605        -7.52491        -5.19030
| 99>    H       -0.55327        -8.36260        -5.33604
|100>    H       -0.90678        -8.23673        -7.56437
|101>    H       -1.84791       -11.01431        -7.21678
|102>    H       -1.22382       -10.58444        -5.10546
|103>    H       -3.42291       -11.12673        -4.24558
|104>    H       -4.10059        -9.61903        -4.84255
|105>    H       -1.97869        -9.93598        -2.66374
|106>    H       -3.03013       -10.77639        -0.89003
|107>    H       -5.29637        -8.95123         0.05663
|108>    H       -4.69817        -9.75805         2.25612
|109>    H       -4.52148       -12.46448        -0.30683
|110>    H       -4.44945       -13.69802         0.95890
|111>    H       -2.97171       -12.90871         0.41085
|112>    H       -4.91095       -12.94908         3.27648
|113>    H       -4.27388       -11.37481         3.79535
|114>    H       -2.69875       -13.71591         2.92394
|115>    H       -1.93441       -11.12603         4.08475
|116>    H       -0.33685       -13.61391         3.23128
|117>    H        0.51045       -10.95370         4.52988
|118>    H        3.10246       -10.82314         4.90833
|119>    H        5.24224       -12.18372         4.45491
|120>    H        6.84823       -13.83773         3.80944
|121>    H        8.05387       -15.90571         2.84818
|122>    H        7.55974       -18.11015         1.59950
|123>    H        4.59293       -18.35642         0.82851
|124>    H        4.19886       -22.15398        -2.83072
|125>    H        9.10352       -24.71176        -2.34140
|126>    H        6.19287       -25.74754        -5.28434
|127>    H        4.66888       -23.98639        -4.42439
|128>    H        8.66319       -22.91483        -0.74536
|129> *
|130>
|131>                          ****END OF INPUT****

CARTESIAN COORDINATES (ANGSTROEM)
---------------------------------
  C      0.771060    0.229390   -1.939930
  C      2.090780    0.579340   -2.002220
  F      2.455710    1.860500   -1.857350
  C      3.082330   -0.398130   -2.217570
  F      4.369350   -0.027390   -2.272760
  C      2.740300   -1.712860   -2.368230
  C      1.389240   -2.104810   -2.307490
  C      0.385560   -1.117810   -2.089830
  C     -0.977530   -1.488040   -2.019920
  C     -1.325760   -2.805110   -2.161460
  C     -0.316920   -3.781250   -2.378490
  C      1.006330   -3.457060   -2.450450
  C     -0.937930   -5.116920   -2.460170
  O     -0.321610   -6.169730   -2.525390
  C     -2.382440   -4.899430   -2.331230
  C     -2.621050   -3.481980   -2.132960
  C     -3.826530   -2.839840   -1.993700
  C     -5.102140   -3.438450   -2.026970
  N     -6.176220   -3.847070   -2.050190
  C     -3.961760   -1.448390   -1.804870
  N     -4.149520   -0.327280   -1.642660
  C     -3.399600   -5.830670   -2.289350
  N     -3.428910   -7.118280   -2.601230
  C     -2.444060   -7.908440   -3.319310
  C     -2.457910   -7.521200   -4.797600
  C     -1.601230   -8.475190   -5.628550
  N     -1.758070   -8.113270   -7.025260
  S     -3.027630   -9.097890   -7.634480
  N     -2.546030  -10.472010   -6.717970
  C     -2.065810   -9.970940   -5.441930
  C     -3.202550  -10.073880   -4.424830
  C     -2.823440   -9.401050   -3.108990
  N     -3.938530   -9.444470   -2.177570
  S     -4.870170   -8.066070   -2.430000
  C     -3.812180  -10.034230   -0.931350
  C     -4.577060   -9.757210    0.127880
  C     -4.486930  -10.409320    1.416020
  C     -4.229760  -11.696790    1.666570
  C     -4.030670  -12.750990    0.620110
  C     -4.135640  -12.197800    3.091100
  N     -2.852030  -12.811540    3.347830
  C     -1.755450  -12.121910    3.702100
  C     -0.489080  -12.623650    3.640860
  C      0.646110  -11.929740    4.082460
  C      1.930290  -12.405930    3.982860
  C      3.119600  -11.783600    4.423530
  C      4.252620  -12.504180    4.183950
  C      4.021060  -13.733730    3.530660
  S      2.318060  -13.956460    3.239280
  C      4.955470  -14.679140    3.135570
  C      6.350380  -14.651030    3.312440
  C      6.991820  -15.744570    2.799680
  C      6.135500  -16.681070    2.187260
  S      4.479750  -16.142870    2.297770
  C      6.506060  -17.873720    1.585240
  C      5.609600  -18.719330    0.954580
  C      5.856220  -19.937960    0.345720
  C      4.897540  -20.443040   -0.654420
  O      3.792050  -20.001250   -0.900990
  C      5.583160  -21.567090   -1.327290
  C      5.166450  -22.323340   -2.382110
  C      6.017040  -23.335260   -2.884700
  C      7.290050  -23.537030   -2.279150
  C      8.135940  -24.541500   -2.787290
  C      7.717620  -25.300290   -3.844640
  C      6.469560  -25.118620   -4.452950
  C      5.636530  -24.146080   -3.972330
  F      8.526410  -26.263480   -4.331760
  C      7.691740  -22.740240   -1.179660
  C      6.848350  -21.773370   -0.707390
  C      6.971700  -20.833820    0.410960
  C      7.893380  -20.952520    1.429810
  C      7.829220  -20.255040    2.650030
  N      7.808360  -19.758380    3.686540
  C      8.955360  -21.874670    1.425340
  N      9.856870  -22.586630    1.470210
  H      0.024360    0.990250   -1.774430
  H      3.511520   -2.449250   -2.531690
  H     -1.709250   -0.715710   -1.849590
  H      1.750690   -4.221880   -2.612280
  H     -4.364730   -5.477100   -1.947120
  H     -1.454860   -7.694210   -2.902210
  H     -2.061550   -6.511740   -4.912420
  H     -3.476050   -7.524910   -5.190300
  H     -0.553270   -8.362600   -5.336040
  H     -0.906780   -8.236730   -7.564370
  H     -1.847910  -11.014310   -7.216780
  H     -1.223820  -10.584440   -5.105460
  H     -3.422910  -11.126730   -4.245580
  H     -4.100590   -9.619030   -4.842550
  H     -1.978690   -9.935980   -2.663740
  H     -3.030130  -10.776390   -0.890030
  H     -5.296370   -8.951230    0.056630
  H     -4.698170   -9.758050    2.256120
  H     -4.521480  -12.464480   -0.306830
  H     -4.449450  -13.698020    0.958900
  H     -2.971710  -12.908710    0.410850
  H     -4.910950  -12.949080    3.276480
  H     -4.273880  -11.374810    3.795350
  H     -2.698750  -13.715910    2.923940
  H     -1.934410  -11.126030    4.084750
  H     -0.336850  -13.613910    3.231280
  H      0.510450  -10.953700    4.529880
  H      3.102460  -10.823140    4.908330
  H      5.242240  -12.183720    4.454910
  H      6.848230  -13.837730    3.809440
  H      8.053870  -15.905710    2.848180
  H      7.559740  -18.110150    1.599500
  H      4.592930  -18.356420    0.828510
  H      4.198860  -22.153980   -2.830720
  H      9.103520  -24.711760   -2.341400
  H      6.192870  -25.747540   -5.284340
  H      4.668880  -23.986390   -4.424390
  H      8.663190  -22.914830   -0.745360

 Total Charge           Charge          ....    0
 Multiplicity           Mult            ....    1
 Number of Electrons    NEL             ....  556
 Basis Dimension        Dim             .... 1270

ORBITAL ENERGIES
----------------

  NO   OCC          E(Eh)            E(eV)
   0   2.0000     -89.016998     -2422.2757
   1   2.0000     -88.966195     -2420.8932
   2   2.0000     -88.959935     -2420.7229
   3   2.0000     -88.950419     -2420.4639
   4   2.0000     -24.800528      -674.8567
   5   2.0000     -24.799048      -674.8164
   6   2.0000     -24.767296      -673.9524
   7   2.0000     -19.220626      -523.0198
   8   2.0000     -19.180632      -521.9315
   9   2.0000     -14.508692      -394.8016
  10   2.0000     -14.476586      -393.9279
  11   2.0000     -14.469448      -393.7337
  12   2.0000     -14.428703      -392.6250
  13   2.0000     -14.428278      -392.6134
  14   2.0000     -14.419702      -392.3800
  15   2.0000     -14.412719      -392.1900
  16   2.0000     -14.384924      -391.4337
  17   2.0000     -14.382753      -391.3746
  18   2.0000     -10.383503      -282.5495
  19   2.0000     -10.382424      -282.5201
  20   2.0000     -10.375197      -282.3235
  21   2.0000     -10.372630      -282.2536
  22   2.0000     -10.352312      -281.7007
  23   2.0000     -10.348832      -281.6060
  24   2.0000     -10.345723      -281.5214
  25   2.0000     -10.341753      -281.4134
  26   2.0000     -10.338403      -281.3223
  27   2.0000     -10.334717      -281.2220
  28   2.0000     -10.332700      -281.1671
  29   2.0000     -10.332323      -281.1568
  30   2.0000     -10.332261      -281.1551
  31   2.0000     -10.330696      -281.1125
  32   2.0000     -10.323496      -280.9166
  33   2.0000     -10.321469      -280.8615
  34   2.0000     -10.321079      -280.8508
  35   2.0000     -10.317145      -280.7438
  36   2.0000     -10.316138      -280.7164
  37   2.0000     -10.312939      -280.6293
  38   2.0000     -10.312254      -280.6107
  39   2.0000     -10.311637      -280.5939
  40   2.0000     -10.311637      -280.5939
  41   2.0000     -10.308393      -280.5056
  42   2.0000     -10.308107      -280.4979
  43   2.0000     -10.307766      -280.4886
  44   2.0000     -10.306173      -280.4452
  45   2.0000     -10.304447      -280.3983
  46   2.0000     -10.303631      -280.3761
  47   2.0000     -10.303516      -280.3729
  48   2.0000     -10.303512      -280.3728
  49   2.0000     -10.302360      -280.3415
  50   2.0000     -10.297208      -280.2013
  51   2.0000     -10.294864      -280.1375
  52   2.0000     -10.294637      -280.1313
  53   2.0000     -10.292924      -280.0847
  54   2.0000     -10.292441      -280.0716
  55   2.0000     -10.289659      -279.9959
  56   2.0000     -10.287416      -279.9348
  57   2.0000     -10.287016      -279.9239
  58   2.0000     -10.286868      -279.9199
  59   2.0000     -10.284906      -279.8665
  60   2.0000     -10.283415      -279.8259
  61   2.0000     -10.282704      -279.8066
  62   2.0000     -10.281304      -279.7685
  63   2.0000     -10.280792      -279.7546
  64   2.0000     -10.278877      -279.7025
  65   2.0000     -10.278011      -279.6789
  66   2.0000     -10.277794      -279.6730
  67   2.0000     -10.277629      -279.6685
  68   2.0000     -10.277569      -279.6669
  69   2.0000     -10.274659      -279.5877
  70   2.0000     -10.274285      -279.5775
  71   2.0000     -10.271534      -279.5026
  72   2.0000     -10.268755      -279.4270
  73   2.0000     -10.263495      -279.2839
  74   2.0000     -10.262933      -279.2686
  75   2.0000     -10.257058      -279.1087
  76   2.0000      -8.107716      -220.6222
  77   2.0000      -8.058041      -219.2704
  78   2.0000      -8.056106      -219.2178
  79   2.0000      -8.046633      -218.9600
  80   2.0000      -6.080482      -165.4583
  81   2.0000      -6.075258      -165.3162
  82   2.0000      -6.064205      -165.0154
  83   2.0000      -6.031151      -164.1160
  84   2.0000      -6.025702      -163.9677
  85   2.0000      -6.024823      -163.9438
  86   2.0000      -6.021725      -163.8595
  87   2.0000      -6.017268      -163.7382
  88   2.0000      -6.016172      -163.7084
  89   2.0000      -6.015032      -163.6773
  90   2.0000      -6.012189      -163.6000
  91   2.0000      -6.007889      -163.4830
  92   2.0000      -1.322561       -35.9887
  93   2.0000      -1.307682       -35.5838
  94   2.0000      -1.281113       -34.8609
  95   2.0000      -1.137838       -30.9621
  96   2.0000      -1.130661       -30.7668
  97   2.0000      -1.094314       -29.7778
  98   2.0000      -1.069587       -29.1049
  99   2.0000      -1.069248       -29.0957
 100   2.0000      -1.059575       -28.8325
 101   2.0000      -1.021033       -27.7837
 102   2.0000      -1.006824       -27.3971
 103   2.0000      -1.004659       -27.3381
 104   2.0000      -0.995066       -27.0771
 105   2.0000      -0.988060       -26.8865
 106   2.0000      -0.982753       -26.7421
 107   2.0000      -0.980264       -26.6743
 108   2.0000      -0.973717       -26.4962
 109   2.0000      -0.968443       -26.3527
 110   2.0000      -0.962969       -26.2037
 111   2.0000      -0.949542       -25.8384
 112   2.0000      -0.945827       -25.7373
 113   2.0000      -0.934410       -25.4266
 114   2.0000      -0.932225       -25.3671
 115   2.0000      -0.917726       -24.9726
 116   2.0000      -0.904745       -24.6194
 117   2.0000      -0.903225       -24.5780
 118   2.0000      -0.894783       -24.3483
 119   2.0000      -0.890793       -24.2397
 120   2.0000      -0.886051       -24.1107
 121   2.0000      -0.873564       -23.7709
 122   2.0000      -0.868532       -23.6340
 123   2.0000      -0.862563       -23.4715
 124   2.0000      -0.860658       -23.4197
 125   2.0000      -0.856435       -23.3048
 126   2.0000      -0.850132       -23.1333
 127   2.0000      -0.842382       -22.9224
 128   2.0000      -0.839413       -22.8416
 129   2.0000      -0.831879       -22.6366
 130   2.0000      -0.828102       -22.5338
 131   2.0000      -0.821867       -22.3641
 132   2.0000      -0.811006       -22.0686
 133   2.0000      -0.805031       -21.9060
 134   2.0000      -0.793526       -21.5929
 135   2.0000      -0.784518       -21.3478
 136   2.0000      -0.774975       -21.0882
 137   2.0000      -0.770198       -20.9581
 138   2.0000      -0.762978       -20.7617
 139   2.0000      -0.755297       -20.5527
 140   2.0000      -0.738565       -20.0974
 141   2.0000      -0.732786       -19.9401
 142   2.0000      -0.729979       -19.8637
 143   2.0000      -0.726716       -19.7750
 144   2.0000      -0.717609       -19.5271
 145   2.0000      -0.713723       -19.4214
 146   2.0000      -0.712568       -19.3900
 147   2.0000      -0.698641       -19.0110
 148   2.0000      -0.697081       -18.9686
 149   2.0000      -0.691076       -18.8051
 150   2.0000      -0.686914       -18.6919
 151   2.0000      -0.684513       -18.6265
 152   2.0000      -0.676493       -18.4083
 153   2.0000      -0.663508       -18.0550
 154   2.0000      -0.662764       -18.0347
 155   2.0000      -0.659038       -17.9333
 156   2.0000      -0.655241       -17.8300
 157   2.0000      -0.650658       -17.7053
 158   2.0000      -0.645532       -17.5658
 159   2.0000      -0.644087       -17.5265
 160   2.0000      -0.639303       -17.3963
 161   2.0000      -0.636257       -17.3134
 162   2.0000      -0.628266       -17.0960
 163   2.0000      -0.624271       -16.9873
 164   2.0000      -0.620494       -16.8845
 165   2.0000      -0.615797       -16.7567
 166   2.0000      -0.614746       -16.7281
 167   2.0000      -0.613837       -16.7034
 168   2.0000      -0.608511       -16.5584
 169   2.0000      -0.605834       -16.4856
 170   2.0000      -0.602137       -16.3850
 171   2.0000      -0.600241       -16.3334
 172   2.0000      -0.596191       -16.2232
 173   2.0000      -0.593664       -16.1544
 174   2.0000      -0.589651       -16.0452
 175   2.0000      -0.587336       -15.9822
 176   2.0000      -0.585134       -15.9223
 177   2.0000      -0.582066       -15.8388
 178   2.0000      -0.574708       -15.6386
 179   2.0000      -0.568885       -15.4802
 180   2.0000      -0.567724       -15.4486
 181   2.0000      -0.561825       -15.2880
 182   2.0000      -0.558619       -15.2008
 183   2.0000      -0.556676       -15.1479
 184   2.0000      -0.554021       -15.0757
 185   2.0000      -0.550843       -14.9892
 186   2.0000      -0.548962       -14.9380
 187   2.0000      -0.546432       -14.8692
 188   2.0000      -0.541794       -14.7430
 189   2.0000      -0.540508       -14.7080
 190   2.0000      -0.539253       -14.6738
 191   2.0000      -0.535945       -14.5838
 192   2.0000      -0.533735       -14.5237
 193   2.0000      -0.528990       -14.3946
 194   2.0000      -0.528611       -14.3842
 195   2.0000      -0.523446       -14.2437
 196   2.0000      -0.521546       -14.1920
 197   2.0000      -0.517825       -14.0907
 198   2.0000      -0.516830       -14.0636
 199   2.0000      -0.514264       -13.9938
 200   2.0000      -0.509668       -13.8688
 201   2.0000      -0.507767       -13.8171
 202   2.0000      -0.506919       -13.7940
 203   2.0000      -0.504553       -13.7296
 204   2.0000      -0.503882       -13.7113
 205   2.0000      -0.502897       -13.6845
 206   2.0000      -0.501457       -13.6454
 207   2.0000      -0.499787       -13.5999
 208   2.0000      -0.498492       -13.5646
 209   2.0000      -0.497234       -13.5304
 210   2.0000      -0.496028       -13.4976
 211   2.0000      -0.491335       -13.3699
 212   2.0000      -0.489524       -13.3206
 213   2.0000      -0.488366       -13.2891
 214   2.0000      -0.486980       -13.2514
 215   2.0000      -0.483985       -13.1699
 216   2.0000      -0.481796       -13.1103
 217   2.0000      -0.478240       -13.0136
 218   2.0000      -0.476279       -12.9602
 219   2.0000      -0.473140       -12.8748
 220   2.0000      -0.472681       -12.8623
 221   2.0000      -0.472201       -12.8492
 222   2.0000      -0.470203       -12.7949
 223   2.0000      -0.468523       -12.7492
 224   2.0000      -0.465648       -12.6709
 225   2.0000      -0.463671       -12.6171
 226   2.0000      -0.459790       -12.5115
 227   2.0000      -0.458641       -12.4803
 228   2.0000      -0.454670       -12.3722
 229   2.0000      -0.452320       -12.3083
 230   2.0000      -0.451720       -12.2919
 231   2.0000      -0.448968       -12.2170
 232   2.0000      -0.444114       -12.0850
 233   2.0000      -0.443876       -12.0785
 234   2.0000      -0.440271       -11.9804
 235   2.0000      -0.439681       -11.9643
 236   2.0000      -0.435799       -11.8587
 237   2.0000      -0.433790       -11.8040
 238   2.0000      -0.433516       -11.7966
 239   2.0000      -0.428782       -11.6677
 240   2.0000      -0.427726       -11.6390
 241   2.0000      -0.426946       -11.6178
 242   2.0000      -0.422351       -11.4927
 243   2.0000      -0.421605       -11.4725
 244   2.0000      -0.418363       -11.3842
 245   2.0000      -0.416309       -11.3283
 246   2.0000      -0.414545       -11.2804
 247   2.0000      -0.413154       -11.2425
 248   2.0000      -0.409369       -11.1395
 249   2.0000      -0.408402       -11.1132
 250   2.0000      -0.404020       -10.9940
 251   2.0000      -0.401754       -10.9323
 252   2.0000      -0.395907       -10.7732
 253   2.0000      -0.394656       -10.7391
 254   2.0000      -0.390912       -10.6373
 255   2.0000      -0.384754       -10.4697
 256   2.0000      -0.383770       -10.4429
 257   2.0000      -0.376569       -10.2470
 258   2.0000      -0.374552       -10.1921
 259   2.0000      -0.371223       -10.1015
 260   2.0000      -0.359483        -9.7820
 261   2.0000      -0.352327        -9.5873
 262   2.0000      -0.350482        -9.5371
 263   2.0000      -0.345141        -9.3918
 264   2.0000      -0.343314        -9.3420
 265   2.0000      -0.332688        -9.0529
 266   2.0000      -0.328050        -8.9267
 267   2.0000      -0.320472        -8.7205
 268   2.0000      -0.319023        -8.6811
 269   2.0000      -0.307351        -8.3634
 270   2.0000      -0.306438        -8.3386
 271   2.0000      -0.299290        -8.1441
 272   2.0000      -0.290218        -7.8972
 273   2.0000      -0.288990        -7.8638
 274   2.0000      -0.281297        -7.6545
 275   2.0000      -0.278121        -7.5681
 276   2.0000      -0.268406        -7.3037
 277   2.0000      -0.212638        -5.7862
 278   0.0000      -0.095518        -2.5992
 279   0.0000      -0.078436        -2.1344
 280   0.0000      -0.060246        -1.6394
 281   0.0000      -0.044290        -1.2052
 282   0.0000      -0.026187        -0.7126

MULLIKEN ATOMIC CHARGES
-----------------------
   0 C :   -0.106521
   1 C :    0.239673
   2 F :   -0.171859
   3 C :    0.236777
   4 F :   -0.173351
   5 C :   -0.105707
   6 C :    0.116322
   7 C :    0.111246
   8 C :   -0.082374
   9 C :    0.044156
  10 C :    0.007062
  11 C :   -0.086758
  12 C :    0.163390
  13 O :   -0.191706
  14 C :   -0.149478
  15 C :    0.325810
  16 C :   -0.365884
  17 C :   -0.208884
  18 N :    0.141164
  19 C :   -0.182414
  20 N :    0.140612
  21 C :    0.113297
  22 N :   -0.328592
  23 C :    0.023293
  24 C :    0.269387
  25 C :   -0.052555
  26 N :   -0.302488
  27 S :    0.219721
  28 N :   -0.307385
  29 C :   -0.039931
  30 C :    0.286888
  31 C :    0.007161
  32 N :   -0.364384
  33 S :    0.376695
  34 C :    0.119932
  35 C :   -0.052678
  36 C :    0.005310
  37 C :   -0.178359
  38 C :    0.059327
  39 C :    0.180972
  40 N :   -0.138211
  41 C :    0.083460
  42 C :   -0.041145
  43 C :    0.025924
  44 C :   -0.060018
  45 C :    0.063370
  46 C :    0.003774
  47 C :   -0.020133
  48 S :    0.087803
  49 C :   -0.069199
  50 C :    0.040083
  51 C :    0.023523
  52 C :   -0.011245
  53 S :    0.101010
  54 C :   -0.006612
  55 C :    0.013493
  56 C :   -0.135728
  57 C :    0.133684
  58 O :   -0.172184
  59 C :    0.006093
  60 C :   -0.089323
  61 C :    0.101863
  62 C :    0.100414
  63 C :   -0.097824
  64 C :    0.301005
  65 C :   -0.037989
  66 C :   -0.012141
  67 F :   -0.198928
  68 C :   -0.092415
  69 C :    0.041549
  70 C :    0.298960
  71 C :   -0.359627
  72 C :   -0.225850
  73 N :    0.148683
  74 C :   -0.174450
  75 N :    0.121601
  76 H :    0.008386
  77 H :   -0.002677
  78 H :   -0.006870
  79 H :   -0.015606
  80 H :    0.029363
  81 H :    0.059267
  82 H :    0.016789
  83 H :   -0.022229
  84 H :    0.012578
  85 H :    0.127980
  86 H :    0.128226
  87 H :    0.001319
  88 H :    0.006130
  89 H :   -0.018709
  90 H :    0.015194
  91 H :    0.012660
  92 H :    0.007825
  93 H :   -0.016103
  94 H :    0.037396
  95 H :    0.010245
  96 H :    0.033548
  97 H :    0.031019
  98 H :    0.013832
  99 H :    0.129528
 100 H :    0.011484
 101 H :   -0.004821
 102 H :   -0.009315
 103 H :   -0.009146
 104 H :   -0.011366
 105 H :   -0.009661
 106 H :   -0.002730
 107 H :    0.004552
 108 H :    0.007163
 109 H :   -0.023624
 110 H :   -0.007564
 111 H :   -0.004972
 112 H :   -0.017531
 113 H :   -0.011715
Sum of atomic charges:   -0.0000000

LOEWDIN ATOMIC CHARGES
----------------------
   0 C :   -0.028667
   1 C :    0.065355
   2 F :   -0.049846
   3 C :    0.066910
   4 F :   -0.050749
   5 C :   -0.034920
   6 C :   -0.009994
   7 C :   -0.008219
   8 C :    0.018299
   9 C :   -0.023430
  10 C :   -0.049842
  11 C :    0.024884
  12 C :    0.084969
  13 O :   -0.175152
  14 C :   -0.171046
  15 C :    0.084958
  16 C :   -0.163187
  17 C :   -0.026519
  18 N :   -0.064512
  19 C :   -0.018600
  20 N :   -0.063666
  21 C :    0.097914
  22 N :   -0.087796
  23 C :    0.004175
  24 C :   -0.030103
  25 C :   -0.009437
  26 N :   -0.223800
  27 S :    0.360915
  28 N :   -0.227288
  29 C :   -0.012342
  30 C :   -0.032408
  31 C :    0.015964
  32 N :   -0.176822
  33 S :    0.475087
  34 C :    0.016357
  35 C :   -0.105172
  36 C :   -0.039031
  37 C :   -0.058568
  38 C :   -0.057843
  39 C :    0.045237
  40 N :    0.022098
  41 C :    0.077688
  42 C :   -0.127937
  43 C :    0.003753
  44 C :   -0.188719
  45 C :   -0.004911
  46 C :   -0.058391
  47 C :   -0.135978
  48 S :    0.387232
  49 C :   -0.212506
  50 C :   -0.006245
  51 C :   -0.052505
  52 C :   -0.096986
  53 S :    0.400872
  54 C :   -0.081098
  55 C :    0.048682
  56 C :   -0.122624
  57 C :    0.074451
  58 O :   -0.174423
  59 C :   -0.054037
  60 C :    0.022378
  61 C :   -0.022021
  62 C :    0.000743
  63 C :   -0.043865
  64 C :    0.088170
  65 C :   -0.045491
  66 C :    0.000089
  67 F :   -0.072897
  68 C :    0.002477
  69 C :   -0.012183
  70 C :    0.066647
  71 C :   -0.165254
  72 C :   -0.024007
  73 N :   -0.072982
  74 C :   -0.019427
  75 N :   -0.078052
  76 H :    0.047958
  77 H :    0.043703
  78 H :    0.040072
  79 H :    0.037716
  80 H :    0.039324
  81 H :    0.031187
  82 H :    0.031478
  83 H :    0.022295
  84 H :    0.025178
  85 H :    0.047975
  86 H :    0.047388
  87 H :    0.020159
  88 H :    0.029233
  89 H :    0.024337
  90 H :    0.029919
  91 H :    0.029669
  92 H :    0.020050
  93 H :    0.025956
  94 H :    0.037765
  95 H :    0.026478
  96 H :    0.030778
  97 H :    0.031916
  98 H :    0.030356
  99 H :    0.083235
 100 H :    0.033571
 101 H :    0.020605
 102 H :    0.036396
 103 H :    0.035646
 104 H :    0.032531
 105 H :    0.033681
 106 H :    0.037852
 107 H :    0.036647
 108 H :    0.030578
 109 H :    0.034849
 110 H :    0.041223
 111 H :    0.038139
 112 H :    0.032275
 113 H :    0.037080

  Mayer bond orders larger than 0.100000
B(  0-C ,  1-C ) :   1.4403 B(  0-C ,  5-C ) :   0.1085 B(  0-C ,  7-C ) :   1.1917
B(  0-C , 76-H ) :   1.0057 B(  1-C ,  2-F ) :   1.1346 B(  1-C ,  3-C ) :   1.1938
B(  3-C ,  4-F ) :   1.1321 B(  3-C ,  5-C ) :   1.4429 B(  5-C ,  6-C ) :   1.1944
B(  5-C , 77-H ) :   1.0057 B(  6-C ,  7-C ) :   1.2578 B(  6-C , 11-C ) :   1.1838
B(  7-C ,  8-C ) :   1.2129 B(  8-C ,  9-C ) :   1.4588 B(  8-C , 78-H ) :   0.9875
B(  9-C , 10-C ) :   1.2259 B(  9-C , 15-C ) :   0.9809 B( 10-C , 11-C ) :   1.4784
B( 10-C , 12-C ) :   0.9515 B( 11-C , 79-H ) :   1.0157 B( 12-C , 13-O ) :   2.1177
B( 12-C , 14-C ) :   0.9702 B( 13-O , 81-H ) :   0.1173 B( 14-C , 15-C ) :   1.1420
B( 14-C , 21-C ) :   1.4472 B( 15-C , 16-C ) :   1.5918 B( 16-C , 17-C ) :   1.1433
B( 16-C , 19-C ) :   1.1550 B( 17-C , 18-N ) :   2.9632 B( 19-C , 20-N ) :   2.9560
B( 21-C , 22-N ) :   1.3508 B( 21-C , 80-H ) :   0.9101 B( 22-N , 23-C ) :   0.8817
B( 22-N , 33-S ) :   0.8820 B( 23-C , 24-C ) :   1.1054 B( 23-C , 31-C ) :   0.9685
B( 23-C , 81-H ) :   0.8672 B( 24-C , 25-C ) :   1.0975 B( 24-C , 30-C ) :   0.1305
B( 24-C , 82-H ) :   0.9248 B( 24-C , 83-H ) :   0.8413 B( 25-C , 26-N ) :   1.0604
B( 25-C , 29-C ) :   0.9582 B( 25-C , 84-H ) :   0.9167 B( 26-N , 27-S ) :   0.9791
B( 26-N , 85-H ) :   0.9447 B( 27-S , 28-N ) :   0.9764 B( 28-N , 29-C ) :   1.0502
B( 28-N , 86-H ) :   0.9432 B( 29-C , 30-C ) :   1.0762 B( 29-C , 87-H ) :   0.9187
B( 30-C , 31-C ) :   1.0871 B( 30-C , 88-H ) :   0.9337 B( 30-C , 89-H ) :   0.8403
B( 31-C , 32-N ) :   0.9363 B( 31-C , 90-H ) :   0.9075 B( 32-N , 33-S ) :   1.0144
B( 32-N , 34-C ) :   1.0371 B( 34-C , 35-C ) :   1.7810 B( 34-C , 91-H ) :   0.9653
B( 35-C , 36-C ) :   1.0779 B( 35-C , 92-H ) :   0.9411 B( 36-C , 37-C ) :   1.8729
B( 36-C , 93-H ) :   0.9500 B( 37-C , 38-C ) :   1.0624 B( 37-C , 39-C ) :   1.0397
B( 38-C , 94-H ) :   0.9443 B( 38-C , 95-H ) :   0.9496 B( 38-C , 96-H ) :   0.9482
B( 39-C , 40-N ) :   0.9959 B( 39-C , 97-H ) :   0.9382 B( 39-C , 98-H ) :   0.9394
B( 40-N , 41-C ) :   1.2838 B( 40-N , 99-H ) :   0.9344 B( 41-C , 42-C ) :   1.5325
B( 41-C ,100-H ) :   0.9706 B( 42-C , 43-C ) :   1.2222 B( 42-C ,101-H ) :   0.9624
B( 43-C , 44-C ) :   1.5341 B( 43-C ,102-H ) :   0.9782 B( 44-C , 45-C ) :   1.1780
B( 44-C , 48-S ) :   1.0120 B( 45-C , 46-C ) :   1.5477 B( 45-C ,103-H ) :   0.9978
B( 46-C , 47-C ) :   1.2248 B( 46-C ,104-H ) :   0.9953 B( 47-C , 48-S ) :   1.1006
B( 47-C , 49-C ) :   1.4223 B( 49-C , 50-C ) :   1.2552 B( 49-C , 53-S ) :   1.0377
B( 50-C , 51-C ) :   1.5015 B( 50-C ,105-H ) :   0.9940 B( 51-C , 52-C ) :   1.2186
B( 51-C ,106-H ) :   1.0016 B( 52-C , 53-S ) :   1.1021 B( 52-C , 54-C ) :   1.4344
B( 54-C , 55-C ) :   1.2863 B( 54-C ,107-H ) :   0.9645 B( 55-C , 56-C ) :   1.4523
B( 55-C ,108-H ) :   0.9388 B( 56-C , 57-C ) :   0.9845 B( 56-C , 70-C ) :   1.1226
B( 57-C , 58-O ) :   2.2327 B( 57-C , 59-C ) :   0.9160 B( 59-C , 60-C ) :   1.4865
B( 59-C , 69-C ) :   1.2155 B( 60-C , 61-C ) :   1.1786 B( 60-C ,109-H ) :   1.0138
B( 61-C , 62-C ) :   1.2622 B( 61-C , 66-C ) :   1.2390 B( 62-C , 63-C ) :   1.2073
B( 62-C , 68-C ) :   1.1903 B( 63-C , 64-C ) :   1.4372 B( 63-C ,110-H ) :   1.0062
B( 64-C , 65-C ) :   1.2613 B( 64-C , 67-F ) :   1.0789 B( 65-C , 66-C ) :   1.4531
B( 65-C ,111-H ) :   0.9937 B( 66-C ,112-H ) :   0.9962 B( 68-C , 69-C ) :   1.4773
B( 68-C ,113-H ) :   0.9914 B( 69-C , 70-C ) :   0.9831 B( 70-C , 71-C ) :   1.5688
B( 71-C , 72-C ) :   1.1736 B( 71-C , 74-C ) :   1.1388 B( 72-C , 73-N ) :   3.0078
B( 74-C , 75-N ) :   2.9650

-----------------------------------------------------------------------------
         ABSORPTION SPECTRUM VIA TRANSITION ELECTRIC DIPOLE MOMENTS
-----------------------------------------------------------------------------
State   Energy  Wavelength   fosc         T2         TX        TY        TZ
        (cm-1)    (nm)                  (au**2)     (au)      (au)      (au)
-----------------------------------------------------------------------------
   0   11875.0    842.1   1.454952525  40.33584  -3.71715   4.80813   1.84406
   1   21929.8    456.0   0.000139585   0.00210  -0.03993  -0.01386   0.01758
   2   21981.2    454.9   0.011991905   0.17960   0.33469   0.05104  -0.25491
   3   23686.4    422.2   0.063139459   0.87756  -0.86410  -0.25881   0.25279
   4   25314.6    395.0   0.150474859   1.95690  -1.33934  -0.26292  -0.30648
   5   25322.4    394.9   0.004133395   0.05374  -0.22540  -0.02277  -0.04915
   6   27017.9    370.1   0.204663026   2.49381  -1.25130  -0.17802  -0.94676
   7   27196.0    367.7   0.302851730   3.66607  -0.10915  -1.87376  -0.37840
   8   27369.7    365.4   0.101938986   1.22616   0.68439   0.62427   0.60668
   9   28733.4    348.0   0.048924577   0.56055  -0.19260  -0.27400  -0.66961
  10   28980.2    345.1   0.028020496   0.31831   0.42005   0.34297   0.15569
  11   29044.3    344.3   0.079720375   0.90361  -0.93002   0.18332   0.07129
  12   30188.1    331.3   0.100991092   1.10134  -0.56089  -0.88532   0.05437
  13   30721.8    325.5   0.098654024   1.05717   0.53439   0.87818   0.01969
  14   30918.7    323.4   0.038501918   0.40996   0.38386   0.36133   0.36339
  15   31936.5    313.1   0.126379751   1.30276   0.57485   0.75464   0.63469
  16   32031.5    312.2   0.001542683   0.01586   0.11775   0.03895   0.02172
  17   32257.3    310.0   0.156337349   1.59555  -0.53201  -0.54565  -1.00736
  18   32960.5    303.4   0.008665592   0.08655   0.22825   0.13017   0.13232
  19   33048.1    302.6   0.492812993   4.90920   1.68015   1.44229  -0.07803
  20   33425.5    299.2   0.050755310   0.49989  -0.03742   0.53077   0.46559
  21   33696.2    296.8   0.015681397   0.15321  -0.06069  -0.28798  -0.25805
  22   33987.3    294.2   0.279536346   2.70768  -0.03850  -1.08838  -1.23354
  23   34007.0    294.1   0.160314494   1.55196   0.40227   0.62706   0.99847
  24   34407.8    290.6   0.335712258   3.21208  -1.52056  -0.94857   0.01439
  25   34443.1    290.3   0.005398453   0.05160  -0.18160  -0.13321   0.02960
  26   34879.9    286.7   0.019940335   0.18821  -0.31347  -0.20743   0.21661
  27   35073.9    285.1   0.170718286   1.60240  -1.10314  -0.18353  -0.59313
  28   35228.5    283.9   0.029786794   0.27836   0.51648  -0.10772   0.00207
  29   35782.8    279.5   0.002814172   0.02589  -0.12487   0.10130   0.00610
  30   36014.3    277.7   0.496177336   4.53563   2.10554   0.10717  -0.30136
  31   36256.4    275.8   0.227577012   2.06642  -1.41201   0.05532  -0.26382
  32   36560.1    273.5   0.000062114   0.00056  -0.01655   0.00276  -0.01667
  33   36682.4    272.6   0.025086979   0.22515   0.23832   0.39203  -0.12109
  34   37856.6    264.2   0.050106836   0.43574   0.40119  -0.43098  -0.29840
  35   37908.7    263.8   0.019810600   0.17204  -0.11255   0.18653   0.35296
  36   37976.0    263.3   0.125981660   1.09213  -0.64259  -0.22246  -0.79355
  37   38154.3    262.1   0.031818592   0.27454  -0.38377  -0.08122  -0.34738
  38   38181.0    261.9   0.009131443   0.07873   0.23263   0.04234   0.15108
  39   38219.6    261.6   0.002494511   0.02149   0.12820  -0.03932  -0.05922
  40   38348.6    260.8   0.165126016   1.41756  -0.56355  -0.25506  -1.01731
  41   38521.4    259.6   0.000152716   0.00131   0.03286   0.01306  -0.00742
  42   39261.8    254.7   0.007925238   0.06645  -0.00032  -0.02570  -0.25650
  43   39830.7    251.1   0.030148553   0.24919  -0.41923   0.19330  -0.18993
  44   40098.0    249.4   0.172588797   1.41699   0.73874  -0.77148   0.52543
  45   40187.3    248.8   0.642686866   5.26485  -1.03097  -2.01802  -0.35993

FINAL SINGLE POINT ENERGY     -4763.923085472403

DIPOLE MOMENT
-------------
                                X             Y             Z
Electronic contribution:     48.19176      19.78565      -8.01686
Nuclear contribution   :    -51.56617     -16.37312       7.54852
                        -----------------------------------------
Total Dipole Moment    :     -3.37440       3.41253      -0.46834
                        -----------------------------------------
Magnitude (a.u.)       :      4.82196
Magnitude (Debye)      :     12.25645

Rotational constants in cm-1:     0.000881     0.000199     0.000193
Rotational constants in MHz :    26.422340     5.974962     5.789058

                             ****ORCA TERMINATED NORMALLY****
TOTAL RUN TIME: 0 days 0 hours 11 minutes 27 seconds 960 msec
