                         Program Version 4.2.0 -  RELEASE  -
|  1> # ORCA input file
|  2> # SCF done       -172.955075295101          0.000981859649
|  3> ! CAM-B3LYP def2-SVP def2/J RIJCOSX Grid4 TightSCF
|  4> %maxcore 5000
|  5> %tddft
|  6>     Mode sTDDFT
|  7>     Ethresh 5.0
|  8>     maxcore 5000
|  9> end
| 10>
| 11> %pal
| 12>   nprocs 6
| 13>   end
| 14> * xyz 0 1
| 15>    C      -16.28648        -1.39856        -4.00363
| 16>    C      -16.48610        -0.51618        -5.02959
| 17>    F      -17.71436        -0.03729        -5.27804
| 18>    C      -15.41000        -0.10209        -5.83525
| 19>    F      -15.63272         0.76091        -6.84172
| 20>    C      -14.14732        -0.57256        -5.60579
| 21>    C      -13.91029        -1.47939        -4.55714
| 22>    C      -14.99785        -1.90273        -3.74068
| 23>    C      -14.78188        -2.81601        -2.68150
| 24>    C      -13.51807        -3.28739        -2.44730
| 25>    C      -12.43580        -2.85511        -3.26890
| 26>    C      -12.61258        -1.97741        -4.29904
| 27>    C      -11.20362        -3.49918        -2.79890
| 28>    O      -10.07105        -3.37095        -3.26188
| 29>    C      -11.58332        -4.33282        -1.65845
| 30>    C      -13.00390        -4.21696        -1.44333
| 31>    C      -13.75334        -4.85775        -0.48645
| 32>    C      -15.14476        -4.70361        -0.33650
| 33>    N      -16.27763        -4.61780        -0.16667
| 34>    C      -13.22286        -5.75764         0.45784
| 35>    N      -12.83187        -6.49102         1.25084
| 36>    C      -10.64673        -5.06698        -0.96334
| 37>    N       -9.36342        -5.02342        -1.34148
| 38>    C       -8.30871        -5.66088        -0.78558
| 39>    S       -8.48870        -6.70673         0.59044
| 40>    C       -6.78009        -7.01097         0.54892
| 41>    N       -6.24080        -7.87064         1.50819
| 42>    O       -5.03913        -8.08054         1.46711
| 43>    O       -7.01537        -8.35051         2.32041
| 44>    C       -6.12592        -6.34922        -0.45694
| 45>    C       -6.98460        -5.56061        -1.24386
| 46>    C       -6.59365        -4.75119        -2.36589
| 47>    C       -5.34557        -4.66669        -2.86612
| 48>    C       -5.03157        -3.83705        -3.99099
| 49>    C       -3.82124        -3.72249        -4.56183
| 50>    C       -2.61308        -4.48574        -4.10667
| 51>    C       -3.65138        -2.85817        -5.78794
| 52>    N       -3.81611        -3.65623        -6.98572
| 53>    C       -5.00749        -3.82444        -7.58756
| 54>    C       -5.26551        -4.79557        -8.51071
| 55>    C       -6.45873        -4.97347        -9.23094
| 56>    C       -7.62358        -4.23837        -9.22595
| 57>    C       -8.75452        -4.51886       -10.02604
| 58>    C       -9.78847        -3.63684        -9.88660
| 59>    C       -9.53634        -2.60674        -8.96390
| 60>    S       -7.94823        -2.80061        -8.26557
| 61>    C      -10.36194        -1.54211        -8.61978
| 62>    C      -11.63521        -1.23900        -9.12407
| 63>    C      -12.18069        -0.09110        -8.60763
| 64>    C      -11.36311         0.56127        -7.67025
| 65>    S       -9.87295        -0.33303        -7.45337
| 66>    C      -11.59257         1.73144        -6.94941
| 67>    C      -12.74704         2.48387        -7.00478
| 68>    C      -12.95973         3.64568        -6.27321
| 69>    C      -14.12505         4.42993        -6.26672
| 70>    C      -14.05679         5.53198        -5.45815
| 71>    C      -12.82501         5.66968        -4.78945
| 72>    S      -11.75824         4.34616        -5.20832
| 73>    C      -12.43301         6.67560        -3.92463
| 74>    C      -13.19273         7.79765        -3.50938
| 75>    C      -12.54236         8.63049        -2.66059
| 76>    C      -11.20784         8.22227        -2.34075
| 77>    S      -10.84558         6.71011        -3.18810
| 78>    C      -10.32496         8.83892        -1.53973
| 79>    H      -17.12246        -1.70731        -3.39568
| 80>    H      -13.33196        -0.24546        -6.22977
| 81>    H      -15.62452        -3.11754        -2.08090
| 82>    H      -11.77787        -1.66323        -4.90740
| 83>    H      -10.89952        -5.68435        -0.11184
| 84>    H       -9.20249        -4.41047        -2.16359
| 85>    H       -5.06535        -6.44291        -0.59764
| 86>    H       -7.37009        -4.16884        -2.84430
| 87>    H       -4.54149        -5.23377        -2.42393
| 88>    H       -5.85562        -3.26257        -4.39471
| 89>    H       -2.79934        -5.55910        -4.11676
| 90>    H       -2.34783        -4.20598        -3.08771
| 91>    H       -1.75755        -4.27886        -4.74503
| 92>    H       -2.65544        -2.40574        -5.80677
| 93>    H       -4.40027        -2.06434        -5.80750
| 94>    H       -3.12000        -4.37377        -7.13767
| 95>    H       -5.75591        -3.09520        -7.32028
| 96>    H       -4.47663        -5.50650        -8.72255
| 97>    H       -6.47166        -5.81944        -9.90746
| 98>    H       -8.77021        -5.36444       -10.69133
| 99>    H      -10.71520        -3.70352       -10.42736
|100>    H      -12.12236        -1.85733        -9.85642
|101>    H      -13.14433         0.29090        -8.89379
|102>    H      -10.80275         2.06497        -6.28847
|103>    H      -13.56082         2.17199        -7.64419
|104>    H      -14.98549         4.16079        -6.85390
|105>    H      -14.85658         6.23954        -5.33459
|106>    H      -14.20034         7.95114        -3.85342
|107>    H      -12.95794         9.52948        -2.24147
|108>    H      -10.58383         9.75734        -1.04334
|109>    H       -9.34082         8.44194        -1.37125
|110> *
|111>
|112>                          ****END OF INPUT****

CARTESIAN COORDINATES (ANGSTROEM)
---------------------------------
  C    -16.286480   -1.398560   -4.003630
  C    -16.486100   -0.516180   -5.029590
  F    -17.714360   -0.037290   -5.278040
  C    -15.410000   -0.102090   -5.835250
  F    -15.632720    0.760910   -6.841720
  C    -14.147320   -0.572560   -5.605790
  C    -13.910290   -1.479390   -4.557140
  C    -14.997850   -1.902730   -3.740680
  C    -14.781880   -2.816010   -2.681500
  C    -13.518070   -3.287390   -2.447300
  C    -12.435800   -2.855110   -3.268900
  C    -12.612580   -1.977410   -4.299040
  C    -11.203620   -3.499180   -2.798900
  O    -10.071050   -3.370950   -3.261880
  C    -11.583320   -4.332820   -1.658450
  C    -13.003900   -4.216960   -1.443330
  C    -13.753340   -4.857750   -0.486450
  C    -15.144760   -4.703610   -0.336500
  N    -16.277630   -4.617800   -0.166670
  C    -13.222860   -5.757640    0.457840
  N    -12.831870   -6.491020    1.250840
  C    -10.646730   -5.066980   -0.963340
  N     -9.363420   -5.023420   -1.341480
  C     -8.308710   -5.660880   -0.785580
  S     -8.488700   -6.706730    0.590440
  C     -6.780090   -7.010970    0.548920
  N     -6.240800   -7.870640    1.508190
  O     -5.039130   -8.080540    1.467110
  O     -7.015370   -8.350510    2.320410
  C     -6.125920   -6.349220   -0.456940
  C     -6.984600   -5.560610   -1.243860
  C     -6.593650   -4.751190   -2.365890
  C     -5.345570   -4.666690   -2.866120
  C     -5.031570   -3.837050   -3.990990
  C     -3.821240   -3.722490   -4.561830
  C     -2.613080   -4.485740   -4.106670
  C     -3.651380   -2.858170   -5.787940
  N     -3.816110   -3.656230   -6.985720
  C     -5.007490   -3.824440   -7.587560
  C     -5.265510   -4.795570   -8.510710
  C     -6.458730   -4.973470   -9.230940
  C     -7.623580   -4.238370   -9.225950
  C     -8.754520   -4.518860  -10.026040
  C     -9.788470   -3.636840   -9.886600
  C     -9.536340   -2.606740   -8.963900
  S     -7.948230   -2.800610   -8.265570
  C    -10.361940   -1.542110   -8.619780
  C    -11.635210   -1.239000   -9.124070
  C    -12.180690   -0.091100   -8.607630
  C    -11.363110    0.561270   -7.670250
  S     -9.872950   -0.333030   -7.453370
  C    -11.592570    1.731440   -6.949410
  C    -12.747040    2.483870   -7.004780
  C    -12.959730    3.645680   -6.273210
  C    -14.125050    4.429930   -6.266720
  C    -14.056790    5.531980   -5.458150
  C    -12.825010    5.669680   -4.789450
  S    -11.758240    4.346160   -5.208320
  C    -12.433010    6.675600   -3.924630
  C    -13.192730    7.797650   -3.509380
  C    -12.542360    8.630490   -2.660590
  C    -11.207840    8.222270   -2.340750
  S    -10.845580    6.710110   -3.188100
  C    -10.324960    8.838920   -1.539730
  H    -17.122460   -1.707310   -3.395680
  H    -13.331960   -0.245460   -6.229770
  H    -15.624520   -3.117540   -2.080900
  H    -11.777870   -1.663230   -4.907400
  H    -10.899520   -5.684350   -0.111840
  H     -9.202490   -4.410470   -2.163590
  H     -5.065350   -6.442910   -0.597640
  H     -7.370090   -4.168840   -2.844300
  H     -4.541490   -5.233770   -2.423930
  H     -5.855620   -3.262570   -4.394710
  H     -2.799340   -5.559100   -4.116760
  H     -2.347830   -4.205980   -3.087710
  H     -1.757550   -4.278860   -4.745030
  H     -2.655440   -2.405740   -5.806770
  H     -4.400270   -2.064340   -5.807500
  H     -3.120000   -4.373770   -7.137670
  H     -5.755910   -3.095200   -7.320280
  H     -4.476630   -5.506500   -8.722550
  H     -6.471660   -5.819440   -9.907460
  H     -8.770210   -5.364440  -10.691330
  H    -10.715200   -3.703520  -10.427360
  H    -12.122360   -1.857330   -9.856420
  H    -13.144330    0.290900   -8.893790
  H    -10.802750    2.064970   -6.288470
  H    -13.560820    2.171990   -7.644190
  H    -14.985490    4.160790   -6.853900
  H    -14.856580    6.239540   -5.334590
  H    -14.200340    7.951140   -3.853420
  H    -12.957940    9.529480   -2.241470
  H    -10.583830    9.757340   -1.043340
  H     -9.340820    8.441940   -1.371250

 Total Charge           Charge          ....    0
 Multiplicity           Mult            ....    1
 Number of Electrons    NEL             ....  482
 Basis Dimension        Dim             .... 1071

ORBITAL ENERGIES
----------------

  NO   OCC          E(Eh)            E(eV)
   0   2.0000     -88.993509     -2421.6365
   1   2.0000     -88.944108     -2420.2922
   2   2.0000     -88.940528     -2420.1948
   3   2.0000     -88.931911     -2419.9603
   4   2.0000     -88.926610     -2419.8161
   5   2.0000     -24.800421      -674.8538
   6   2.0000     -24.796677      -674.7519
   7   2.0000     -19.241848      -523.5973
   8   2.0000     -19.240639      -523.5644
   9   2.0000     -19.234043      -523.3849
  10   2.0000     -14.652836      -398.7239
  11   2.0000     -14.499265      -394.5451
  12   2.0000     -14.450522      -393.2187
  13   2.0000     -14.420522      -392.4024
  14   2.0000     -14.415311      -392.2606
  15   2.0000     -10.380883      -282.4782
  16   2.0000     -10.380108      -282.4571
  17   2.0000     -10.378599      -282.4160
  18   2.0000     -10.375842      -282.3410
  19   2.0000     -10.374020      -282.2914
  20   2.0000     -10.351430      -281.6767
  21   2.0000     -10.347262      -281.5633
  22   2.0000     -10.342421      -281.4316
  23   2.0000     -10.325372      -280.9676
  24   2.0000     -10.324137      -280.9341
  25   2.0000     -10.322889      -280.9001
  26   2.0000     -10.318599      -280.7834
  27   2.0000     -10.315574      -280.7011
  28   2.0000     -10.310766      -280.5702
  29   2.0000     -10.309474      -280.5351
  30   2.0000     -10.308635      -280.5122
  31   2.0000     -10.308015      -280.4954
  32   2.0000     -10.307729      -280.4876
  33   2.0000     -10.302886      -280.3558
  34   2.0000     -10.302656      -280.3495
  35   2.0000     -10.302330      -280.3407
  36   2.0000     -10.301553      -280.3195
  37   2.0000     -10.298782      -280.2441
  38   2.0000     -10.298511      -280.2367
  39   2.0000     -10.297522      -280.2098
  40   2.0000     -10.296618      -280.1852
  41   2.0000     -10.295748      -280.1616
  42   2.0000     -10.295274      -280.1487
  43   2.0000     -10.295191      -280.1464
  44   2.0000     -10.294781      -280.1352
  45   2.0000     -10.293767      -280.1076
  46   2.0000     -10.292435      -280.0714
  47   2.0000     -10.291407      -280.0434
  48   2.0000     -10.291024      -280.0330
  49   2.0000     -10.285601      -279.8854
  50   2.0000     -10.283984      -279.8414
  51   2.0000     -10.283171      -279.8193
  52   2.0000     -10.281203      -279.7658
  53   2.0000     -10.279735      -279.7258
  54   2.0000     -10.277500      -279.6650
  55   2.0000     -10.274815      -279.5919
  56   2.0000     -10.274633      -279.5870
  57   2.0000     -10.272732      -279.5353
  58   2.0000     -10.271631      -279.5053
  59   2.0000     -10.270878      -279.4848
  60   2.0000     -10.270208      -279.4666
  61   2.0000     -10.269224      -279.4398
  62   2.0000     -10.263795      -279.2921
  63   2.0000     -10.257151      -279.1113
  64   2.0000      -8.088617      -220.1025
  65   2.0000      -8.039840      -218.7752
  66   2.0000      -8.036550      -218.6857
  67   2.0000      -8.028252      -218.4598
  68   2.0000      -8.023407      -218.3280
  69   2.0000      -6.058259      -164.8536
  70   2.0000      -6.053927      -164.7357
  71   2.0000      -6.050086      -164.6312
  72   2.0000      -6.009517      -163.5273
  73   2.0000      -6.006253      -163.4385
  74   2.0000      -6.005541      -163.4191
  75   2.0000      -6.002204      -163.3283
  76   2.0000      -6.000984      -163.2951
  77   2.0000      -5.997948      -163.2125
  78   2.0000      -5.997642      -163.2041
  79   2.0000      -5.993994      -163.1049
  80   2.0000      -5.993199      -163.0832
  81   2.0000      -5.989310      -162.9774
  82   2.0000      -5.989188      -162.9741
  83   2.0000      -5.983970      -162.8321
  84   2.0000      -1.320713       -35.9384
  85   2.0000      -1.319774       -35.9129
  86   2.0000      -1.304970       -35.5100
  87   2.0000      -1.148676       -31.2571
  88   2.0000      -1.139652       -31.0115
  89   2.0000      -1.107032       -30.1239
  90   2.0000      -1.050925       -28.5971
  91   2.0000      -1.022645       -27.8276
  92   2.0000      -1.013369       -27.5752
  93   2.0000      -1.005765       -27.3683
  94   2.0000      -0.996094       -27.1051
  95   2.0000      -0.989097       -26.9147
  96   2.0000      -0.982159       -26.7259
  97   2.0000      -0.980349       -26.6766
  98   2.0000      -0.967412       -26.3246
  99   2.0000      -0.957233       -26.0476
 100   2.0000      -0.937653       -25.5148
 101   2.0000      -0.932160       -25.3654
 102   2.0000      -0.919148       -25.0113
 103   2.0000      -0.905636       -24.6436
 104   2.0000      -0.898565       -24.4512
 105   2.0000      -0.893537       -24.3144
 106   2.0000      -0.889431       -24.2027
 107   2.0000      -0.885339       -24.0913
 108   2.0000      -0.864688       -23.5294
 109   2.0000      -0.863133       -23.4870
 110   2.0000      -0.855720       -23.2853
 111   2.0000      -0.844970       -22.9928
 112   2.0000      -0.840389       -22.8681
 113   2.0000      -0.834397       -22.7051
 114   2.0000      -0.831551       -22.6276
 115   2.0000      -0.823198       -22.4004
 116   2.0000      -0.817333       -22.2408
 117   2.0000      -0.815441       -22.1893
 118   2.0000      -0.806459       -21.9449
 119   2.0000      -0.796556       -21.6754
 120   2.0000      -0.793332       -21.5877
 121   2.0000      -0.775254       -21.0957
 122   2.0000      -0.771111       -20.9830
 123   2.0000      -0.763782       -20.7836
 124   2.0000      -0.748468       -20.3669
 125   2.0000      -0.741233       -20.1700
 126   2.0000      -0.733418       -19.9573
 127   2.0000      -0.727810       -19.8047
 128   2.0000      -0.716842       -19.5063
 129   2.0000      -0.706599       -19.2275
 130   2.0000      -0.702378       -19.1127
 131   2.0000      -0.689556       -18.7638
 132   2.0000      -0.688358       -18.7312
 133   2.0000      -0.679743       -18.4968
 134   2.0000      -0.670080       -18.2338
 135   2.0000      -0.666202       -18.1283
 136   2.0000      -0.662230       -18.0202
 137   2.0000      -0.658700       -17.9241
 138   2.0000      -0.650688       -17.7061
 139   2.0000      -0.641967       -17.4688
 140   2.0000      -0.638255       -17.3678
 141   2.0000      -0.636344       -17.3158
 142   2.0000      -0.633541       -17.2395
 143   2.0000      -0.627403       -17.0725
 144   2.0000      -0.626240       -17.0409
 145   2.0000      -0.621196       -16.9036
 146   2.0000      -0.617417       -16.8008
 147   2.0000      -0.613120       -16.6838
 148   2.0000      -0.610744       -16.6192
 149   2.0000      -0.607450       -16.5295
 150   2.0000      -0.600478       -16.3398
 151   2.0000      -0.598435       -16.2842
 152   2.0000      -0.590447       -16.0669
 153   2.0000      -0.588703       -16.0194
 154   2.0000      -0.585805       -15.9406
 155   2.0000      -0.584307       -15.8998
 156   2.0000      -0.581461       -15.8224
 157   2.0000      -0.579827       -15.7779
 158   2.0000      -0.574520       -15.6335
 159   2.0000      -0.569955       -15.5093
 160   2.0000      -0.566811       -15.4237
 161   2.0000      -0.561180       -15.2705
 162   2.0000      -0.559100       -15.2139
 163   2.0000      -0.552456       -15.0331
 164   2.0000      -0.548978       -14.9385
 165   2.0000      -0.546642       -14.8749
 166   2.0000      -0.543525       -14.7901
 167   2.0000      -0.539376       -14.6772
 168   2.0000      -0.537790       -14.6340
 169   2.0000      -0.535370       -14.5682
 170   2.0000      -0.530904       -14.4466
 171   2.0000      -0.528655       -14.3854
 172   2.0000      -0.524842       -14.2817
 173   2.0000      -0.519811       -14.1448
 174   2.0000      -0.517132       -14.0719
 175   2.0000      -0.514051       -13.9880
 176   2.0000      -0.511793       -13.9266
 177   2.0000      -0.505981       -13.7685
 178   2.0000      -0.504733       -13.7345
 179   2.0000      -0.502440       -13.6721
 180   2.0000      -0.501121       -13.6362
 181   2.0000      -0.496340       -13.5061
 182   2.0000      -0.491613       -13.3775
 183   2.0000      -0.491081       -13.3630
 184   2.0000      -0.490307       -13.3419
 185   2.0000      -0.487831       -13.2746
 186   2.0000      -0.485095       -13.2001
 187   2.0000      -0.482732       -13.1358
 188   2.0000      -0.480918       -13.0864
 189   2.0000      -0.472615       -12.8605
 190   2.0000      -0.471133       -12.8202
 191   2.0000      -0.470157       -12.7936
 192   2.0000      -0.470081       -12.7915
 193   2.0000      -0.467482       -12.7208
 194   2.0000      -0.465194       -12.6586
 195   2.0000      -0.463474       -12.6118
 196   2.0000      -0.458608       -12.4794
 197   2.0000      -0.455604       -12.3976
 198   2.0000      -0.454965       -12.3802
 199   2.0000      -0.451904       -12.2969
 200   2.0000      -0.449901       -12.2424
 201   2.0000      -0.448407       -12.2018
 202   2.0000      -0.446242       -12.1429
 203   2.0000      -0.444695       -12.1008
 204   2.0000      -0.443783       -12.0759
 205   2.0000      -0.439634       -11.9630
 206   2.0000      -0.434202       -11.8152
 207   2.0000      -0.429089       -11.6761
 208   2.0000      -0.428603       -11.6629
 209   2.0000      -0.426338       -11.6013
 210   2.0000      -0.424064       -11.5394
 211   2.0000      -0.423136       -11.5141
 212   2.0000      -0.421136       -11.4597
 213   2.0000      -0.415995       -11.3198
 214   2.0000      -0.411634       -11.2011
 215   2.0000      -0.407746       -11.0953
 216   2.0000      -0.398811       -10.8522
 217   2.0000      -0.396140       -10.7795
 218   2.0000      -0.395776       -10.7696
 219   2.0000      -0.389059       -10.5868
 220   2.0000      -0.385375       -10.4866
 221   2.0000      -0.383420       -10.4334
 222   2.0000      -0.381051       -10.3689
 223   2.0000      -0.375547       -10.2192
 224   2.0000      -0.369648       -10.0586
 225   2.0000      -0.363514        -9.8917
 226   2.0000      -0.357161        -9.7188
 227   2.0000      -0.348186        -9.4746
 228   2.0000      -0.346556        -9.4303
 229   2.0000      -0.332484        -9.0474
 230   2.0000      -0.324761        -8.8372
 231   2.0000      -0.320982        -8.7344
 232   2.0000      -0.319626        -8.6975
 233   2.0000      -0.316664        -8.6169
 234   2.0000      -0.310918        -8.4605
 235   2.0000      -0.304599        -8.2886
 236   2.0000      -0.297748        -8.1021
 237   2.0000      -0.274454        -7.4683
 238   2.0000      -0.266011        -7.2385
 239   2.0000      -0.231008        -6.2860
 240   2.0000      -0.178539        -4.8583
 241   0.0000      -0.093565        -2.5460
 242   0.0000      -0.082712        -2.2507
 243   0.0000      -0.069020        -1.8781
 244   0.0000      -0.050585        -1.3765
 245   0.0000      -0.035583        -0.9683

MULLIKEN ATOMIC CHARGES
-----------------------
   0 C :   -0.106719
   1 C :    0.244942
   2 F :   -0.173293
   3 C :    0.238995
   4 F :   -0.176843
   5 C :   -0.064301
   6 C :    0.125075
   7 C :    0.097866
   8 C :   -0.081232
   9 C :    0.044331
  10 C :    0.003531
  11 C :   -0.071670
  12 C :    0.175116
  13 O :   -0.224795
  14 C :   -0.138776
  15 C :    0.331384
  16 C :   -0.344430
  17 C :   -0.181412
  18 N :    0.148891
  19 C :   -0.197615
  20 N :    0.142718
  21 C :    0.032210
  22 N :   -0.001939
  23 C :   -0.124182
  24 S :    0.180829
  25 C :    0.000563
  26 N :    0.276887
  27 O :   -0.251184
  28 O :   -0.255548
  29 C :    0.003591
  30 C :    0.146408
  31 C :   -0.040255
  32 C :    0.005142
  33 C :    0.021910
  34 C :   -0.212050
  35 C :    0.084430
  36 C :    0.196658
  37 N :   -0.139566
  38 C :    0.065461
  39 C :   -0.037495
  40 C :    0.015798
  41 C :   -0.046701
  42 C :    0.041355
  43 C :    0.007147
  44 C :   -0.015863
  45 S :    0.028496
  46 C :   -0.060457
  47 C :    0.016046
  48 C :    0.010486
  49 C :   -0.078455
  50 S :    0.083567
  51 C :    0.024476
  52 C :   -0.019618
  53 C :   -0.039312
  54 C :    0.030623
  55 C :    0.011884
  56 C :   -0.040959
  57 S :    0.067627
  58 C :   -0.070578
  59 C :    0.028493
  60 C :    0.044683
  61 C :   -0.060348
  62 S :    0.070548
  63 C :   -0.036381
  64 H :    0.005688
  65 H :   -0.029028
  66 H :   -0.007060
  67 H :   -0.008681
  68 H :    0.047496
  69 H :    0.186019
  70 H :    0.010632
  71 H :   -0.004428
  72 H :   -0.017372
  73 H :   -0.019079
  74 H :    0.040318
  75 H :    0.042449
  76 H :    0.005598
  77 H :    0.015135
  78 H :    0.026427
  79 H :    0.117251
  80 H :    0.018626
  81 H :   -0.030874
  82 H :   -0.012898
  83 H :   -0.016005
  84 H :   -0.021037
  85 H :   -0.017207
  86 H :   -0.014211
  87 H :   -0.014405
  88 H :   -0.020156
  89 H :   -0.016751
  90 H :   -0.019344
  91 H :   -0.016008
  92 H :   -0.017534
  93 H :    0.014567
  94 H :    0.015679
Sum of atomic charges:    0.0000000

LOEWDIN ATOMIC CHARGES
----------------------
   0 C :   -0.031595
   1 C :    0.069324
   2 F :   -0.051324
   3 C :    0.066535
   4 F :   -0.052999
   5 C :   -0.020818
   6 C :   -0.008530
   7 C :   -0.005534
   8 C :    0.019003
   9 C :   -0.021343
  10 C :   -0.055159
  11 C :    0.040718
  12 C :    0.098280
  13 O :   -0.176919
  14 C :   -0.143866
  15 C :    0.079435
  16 C :   -0.149819
  17 C :   -0.018799
  18 N :   -0.055350
  19 C :   -0.020679
  20 N :   -0.055325
  21 C :    0.114310
  22 N :    0.082230
  23 C :   -0.112974
  24 S :    0.472164
  25 C :   -0.199796
  26 N :    0.274960
  27 O :   -0.217919
  28 O :   -0.222854
  29 C :    0.003654
  30 C :   -0.084111
  31 C :   -0.027526
  32 C :   -0.013825
  33 C :   -0.042056
  34 C :   -0.042457
  35 C :   -0.055976
  36 C :    0.046333
  37 N :    0.014640
  38 C :    0.054114
  39 C :   -0.132970
  40 C :   -0.024708
  41 C :   -0.182819
  42 C :   -0.020551
  43 C :   -0.063393
  44 C :   -0.165084
  45 S :    0.369448
  46 C :   -0.204173
  47 C :   -0.025939
  48 C :   -0.065700
  49 C :   -0.159053
  50 S :    0.369697
  51 C :   -0.084540
  52 C :   -0.059470
  53 C :   -0.158697
  54 C :   -0.036474
  55 C :   -0.045467
  56 C :   -0.176975
  57 S :    0.366462
  58 C :   -0.188026
  59 C :   -0.027191
  60 C :   -0.042061
  61 C :   -0.138363
  62 S :    0.346620
  63 C :   -0.088855
  64 H :    0.047261
  65 H :    0.049027
  66 H :    0.040257
  67 H :    0.041377
  68 H :    0.036670
  69 H :    0.084030
  70 H :    0.044238
  71 H :    0.032425
  72 H :    0.024498
  73 H :    0.028573
  74 H :    0.038526
  75 H :    0.043157
  76 H :    0.026073
  77 H :    0.026792
  78 H :    0.035311
  79 H :    0.078851
  80 H :    0.011946
  81 H :    0.023107
  82 H :    0.036603
  83 H :    0.031878
  84 H :    0.028861
  85 H :    0.031115
  86 H :    0.029499
  87 H :    0.021335
  88 H :    0.026728
  89 H :    0.032039
  90 H :    0.028790
  91 H :    0.030848
  92 H :    0.030735
  93 H :    0.026134
  94 H :    0.023448

  Mayer bond orders larger than 0.100000
B(  0-C ,  1-C ) :   1.4360 B(  0-C ,  5-C ) :   0.1123 B(  0-C ,  7-C ) :   1.1973
B(  0-C , 64-H ) :   1.0073 B(  1-C ,  2-F ) :   1.1332 B(  1-C ,  3-C ) :   1.2024
B(  3-C ,  4-F ) :   1.1071 B(  3-C ,  5-C ) :   1.4321 B(  5-C ,  6-C ) :   1.2197
B(  5-C , 65-H ) :   1.0003 B(  6-C ,  7-C ) :   1.2451 B(  6-C , 11-C ) :   1.1823
B(  7-C ,  8-C ) :   1.2066 B(  8-C ,  9-C ) :   1.4675 B(  8-C , 66-H ) :   0.9888
B(  9-C , 10-C ) :   1.2139 B(  9-C , 15-C ) :   0.9892 B( 10-C , 11-C ) :   1.4680
B( 10-C , 12-C ) :   0.9827 B( 11-C , 67-H ) :   1.0155 B( 12-C , 13-O ) :   2.0236
B( 12-C , 14-C ) :   1.0077 B( 13-O , 69-H ) :   0.1469 B( 14-C , 15-C ) :   1.0991
B( 14-C , 21-C ) :   1.4457 B( 15-C , 16-C ) :   1.6238 B( 16-C , 17-C ) :   1.1492
B( 16-C , 19-C ) :   1.1481 B( 17-C , 18-N ) :   2.9593 B( 19-C , 20-N ) :   2.9525
B( 21-C , 22-N ) :   1.3411 B( 21-C , 68-H ) :   0.9317 B( 22-N , 23-C ) :   1.2022
B( 22-N , 69-H ) :   0.8188 B( 23-C , 24-S ) :   1.1349 B( 23-C , 30-C ) :   1.3700
B( 24-S , 25-C ) :   1.0824 B( 25-C , 26-N ) :   0.9701 B( 25-C , 29-C ) :   1.5019
B( 26-N , 27-O ) :   1.5272 B( 26-N , 28-O ) :   1.5135 B( 27-O , 28-O ) :   0.2628
B( 29-C , 30-C ) :   1.2222 B( 29-C , 70-H ) :   0.9988 B( 30-C , 31-C ) :   1.0414
B( 31-C , 32-C ) :   1.7363 B( 31-C , 71-H ) :   0.9816 B( 32-C , 33-C ) :   1.1011
B( 32-C , 72-H ) :   0.9704 B( 33-C , 34-C ) :   1.7703 B( 33-C , 73-H ) :   0.9803
B( 34-C , 35-C ) :   1.0683 B( 34-C , 36-C ) :   1.0430 B( 35-C , 74-H ) :   0.9512
B( 35-C , 75-H ) :   0.9452 B( 35-C , 76-H ) :   0.9534 B( 36-C , 37-N ) :   1.0160
B( 36-C , 77-H ) :   0.9345 B( 36-C , 78-H ) :   0.9394 B( 37-N , 38-C ) :   1.2595
B( 37-N , 79-H ) :   0.9397 B( 38-C , 39-C ) :   1.5370 B( 38-C , 80-H ) :   0.9488
B( 39-C , 40-C ) :   1.2565 B( 39-C , 81-H ) :   0.9595 B( 40-C , 41-C ) :   1.5452
B( 40-C , 82-H ) :   0.9597 B( 41-C , 42-C ) :   1.1804 B( 41-C , 45-S ) :   1.0134
B( 42-C , 43-C ) :   1.5501 B( 42-C , 83-H ) :   0.9977 B( 43-C , 44-C ) :   1.2238
B( 43-C , 84-H ) :   0.9925 B( 44-C , 45-S ) :   1.0593 B( 44-C , 46-C ) :   1.4383
B( 46-C , 47-C ) :   1.2436 B( 46-C , 50-S ) :   1.0377 B( 47-C , 48-C ) :   1.5318
B( 47-C , 85-H ) :   0.9952 B( 48-C , 49-C ) :   1.2018 B( 48-C , 86-H ) :   0.9898
B( 49-C , 50-S ) :   1.0579 B( 49-C , 51-C ) :   1.4365 B( 51-C , 52-C ) :   1.2588
B( 51-C , 87-H ) :   0.9595 B( 52-C , 53-C ) :   1.5032 B( 52-C , 88-H ) :   0.9709
B( 53-C , 54-C ) :   1.1904 B( 53-C , 57-S ) :   1.0372 B( 54-C , 55-C ) :   1.5444
B( 54-C , 89-H ) :   0.9997 B( 55-C , 56-C ) :   1.2094 B( 55-C , 90-H ) :   0.9937
B( 56-C , 57-S ) :   1.0460 B( 56-C , 58-C ) :   1.5052 B( 58-C , 59-C ) :   1.1778
B( 58-C , 62-S ) :   1.0420 B( 59-C , 60-C ) :   1.6361 B( 59-C , 91-H ) :   0.9913
B( 60-C , 61-C ) :   1.0903 B( 60-C , 92-H ) :   0.9936 B( 61-C , 62-S ) :   1.0108
B( 61-C , 63-C ) :   1.8489 B( 63-C , 93-H ) :   0.9506 B( 63-C , 94-H ) :   0.9418

-----------------------------------------------------------------------------
         ABSORPTION SPECTRUM VIA TRANSITION ELECTRIC DIPOLE MOMENTS
-----------------------------------------------------------------------------
State   Energy  Wavelength   fosc         T2         TX        TY        TZ
        (cm-1)    (nm)                  (au**2)     (au)      (au)      (au)
-----------------------------------------------------------------------------
   0    7454.9   1341.4   0.006021821   0.26593  -0.03667   0.49906  -0.12459
   1    9653.8   1035.9   1.238412436  42.23216  -2.45239   5.52268   2.39122
   2   11297.8    885.1   0.000095197   0.00277   0.04089  -0.03080   0.01238
   3   17105.3    584.6   0.017647986   0.33966  -0.44366   0.36444   0.10004
   4   17530.8    570.4   0.003010846   0.05654   0.15613  -0.17931  -0.00359
   5   18552.1    539.0   0.097182962   1.72453   0.22907  -0.70562  -1.08359
   6   19556.9    511.3   0.058449570   0.98391   0.68570   0.30734   0.64751
   7   21067.0    474.7   0.306230964   4.78545  -1.15022   1.68732   0.78448
   8   22179.0    450.9   1.346029876  19.97963   4.14026   0.20211   1.67244
   9   23009.9    434.6   0.011324531   0.16202   0.32720  -0.01629   0.23387
  10   24997.5    400.0   0.019903579   0.26213   0.44750  -0.24868  -0.00552
  11   25963.6    385.2   0.017809900   0.22583   0.31804  -0.01100  -0.35292
  12   26213.3    381.5   0.106304454   1.33508  -0.14460   0.67133  -0.92924
  13   27776.9    360.0   0.028053608   0.33249   0.57216  -0.01779  -0.06930
  14   28217.9    354.4   0.112770417   1.31567  -0.32965  -0.46728   0.99431
  15   28521.9    350.6   0.053096660   0.61286  -0.42814   0.49882  -0.42514
  16   28999.0    344.8   0.051318582   0.58260   0.72044  -0.19264  -0.16264
  17   29522.7    338.7   0.077781201   0.86735  -0.77054   0.37091  -0.36883
  18   29817.5    335.4   0.008312942   0.09178   0.26697  -0.04421   0.13621
  19   30015.8    333.2   0.097715094   1.07174   1.00483  -0.19888  -0.14998
  20   30058.8    332.7   0.010123333   0.11087   0.28590  -0.01918  -0.16961
  21   30424.3    328.7   0.067494622   0.73034   0.69817  -0.19071   0.45445
  22   31242.0    320.1   0.334878610   3.52877  -0.42278   1.16903  -1.40833
  23   31300.4    319.5   0.020552417   0.21617  -0.27512   0.30218  -0.22173
  24   31680.6    315.7   0.004026610   0.04184   0.00702  -0.16474   0.12106
  25   32164.5    310.9   0.016332837   0.16717   0.10276  -0.25250   0.30472
  26   32206.9    310.5   0.003474631   0.03552   0.09729   0.10472   0.12283
  27   32353.8    309.1   0.029664455   0.30185  -0.41326  -0.11270  -0.34404
  28   32942.1    303.6   0.000056433   0.00056  -0.01327   0.00938  -0.01732
  29   33199.1    301.2   0.006878468   0.06821   0.05600  -0.16421   0.19521
  30   33554.1    298.0   0.000585500   0.00574  -0.02986  -0.00130  -0.06965
  31   33569.3    297.9   0.071051965   0.69680  -0.19485   0.29495  -0.75620
  32   33762.4    296.2   0.815893970   7.95566  -0.75999   1.83153  -2.00589
  33   34056.6    293.6   0.001261666   0.01220   0.02966  -0.08758   0.06038
  34   34507.9    289.8   0.007091559   0.06765   0.04436  -0.01919  -0.25558
  35   35341.0    283.0   0.052542137   0.48945  -0.15133   0.43731  -0.52469
  36   35579.3    281.1   0.060856818   0.56310   0.36592   0.32805  -0.56708
  37   35981.9    277.9   0.322865208   2.95401  -0.75561  -0.96257   1.20686
  38   36055.3    277.4   0.232280751   2.12090   0.75208  -0.05459  -1.24591
  39   36322.4    275.3   0.000033910   0.00031  -0.00280  -0.01097   0.01338
  40   36357.9    275.0   0.000001156   0.00001  -0.00287   0.00130   0.00073
  41   36693.9    272.5   0.143484897   1.28733  -0.79023  -0.42095   0.69690
  42   36821.1    271.6   0.017196574   0.15375   0.13693   0.20713  -0.30348
  43   37145.2    269.2   0.171330682   1.51848   1.20926  -0.03479  -0.23442
  44   37258.3    268.4   0.042938413   0.37940   0.39909   0.36523  -0.29450
  45   37467.2    266.9   0.035144165   0.30880   0.27331  -0.26951  -0.40183
  46   37854.0    264.2   0.016117860   0.14018   0.07600  -0.20228  -0.30575
  47   37953.2    263.5   0.005756260   0.04993  -0.11952  -0.18656  -0.02901
  48   38332.1    260.9   0.003732879   0.03206  -0.08856  -0.11481   0.10505
  49   38517.8    259.6   0.045282501   0.38703   0.55012   0.27093  -0.10485
  50   38684.3    258.5   0.021192165   0.18035   0.34320  -0.02180   0.24918
  51   39034.6    256.2   0.023130461   0.19508   0.36766   0.03275  -0.24255
  52   39166.3    255.3   0.000232101   0.00195   0.02824   0.02413   0.02389
  53   39382.7    253.9   0.002058281   0.01721   0.08767   0.08069   0.05485
  54   39724.9    251.7   0.001017306   0.00843  -0.00750  -0.00716  -0.09123
  55   39918.7    250.5   0.025780915   0.21262  -0.30283  -0.28419  -0.20037
  56   40107.3    249.3   0.005087196   0.04176  -0.17387  -0.09014  -0.05832
  57   40212.6    248.7   0.075223880   0.61584   0.70507  -0.08671  -0.33346
  58   40270.3    248.3   0.001800544   0.01472  -0.09292   0.05596  -0.05435
  59   40325.7    248.0   0.041700806   0.34044   0.49596  -0.11457  -0.28519

FINAL SINGLE POINT ENERGY     -4571.872632765088

DIPOLE MOMENT
-------------
                                X             Y             Z
Electronic contribution:    -51.01149      -9.53912      22.60776
Nuclear contribution   :     53.24159      10.06484     -25.64490
                        -----------------------------------------
Total Dipole Moment    :      2.23010       0.52572      -3.03714
                        -----------------------------------------
Magnitude (a.u.)       :      3.80446
Magnitude (Debye)      :      9.67017

Rotational constants in cm-1:     0.000972     0.000551     0.000486
Rotational constants in MHz :    29.130341    16.521379    14.580142

                             ****ORCA TERMINATED NORMALLY****
TOTAL RUN TIME: 0 days 0 hours 9 minutes 25 seconds 287 msec
