                         Program Version 4.2.0 -  RELEASE  -
|  1> # ORCA input file
|  2> # SCF done       -196.226346446508          0.000805047153
|  3> ! CAM-B3LYP def2-SVP def2/J RIJCOSX Grid4 TightSCF
|  4> %maxcore 5000
|  5> %tddft
|  6>     Mode sTDDFT
|  7>     Ethresh 5.0
|  8>     maxcore 5000
|  9> end
| 10>
| 11> %pal
| 12>   nprocs 6
| 13>   end
| 14> * xyz 0 1
| 15>    C       -2.48635       -14.73840        11.90422
| 16>    C       -3.22750       -15.84171        11.58628
| 17>    F       -4.01544       -16.41073        12.50451
| 18>    C       -3.17234       -16.39486        10.28958
| 19>    F       -3.90976       -17.47466        10.00722
| 20>    C       -2.37442       -15.83784         9.32998
| 21>    C       -1.59697       -14.70125         9.62729
| 22>    C       -1.65487       -14.13852        10.93641
| 23>    C       -0.89123       -12.99390        11.25517
| 24>    C       -0.09353       -12.42547        10.29481
| 25>    C       -0.03569       -12.99984         8.99285
| 26>    C       -0.76119       -14.10817         8.65717
| 27>    C        0.88734       -12.22674         8.15282
| 28>    O        1.27773       -12.50100         7.03963
| 29>    C        1.34177       -11.08223         9.00418
| 30>    C        0.76723       -11.24998        10.33608
| 31>    C        0.96033       -10.43179        11.41189
| 32>    C        1.76737        -9.27173        11.41494
| 33>    N        2.39605        -8.31458        11.48110
| 34>    C        0.37072       -10.63833        12.67988
| 35>    N       -0.06981       -10.75962        13.73170
| 36>    C        2.20382       -10.13645         8.58090
| 37>    C        2.57723        -9.97951         7.18912
| 38>    C        3.87824        -9.89825         6.74479
| 39>    C        5.02737       -10.01055         7.52974
| 40>    N        5.96474       -10.10587         8.18427
| 41>    S        3.97858        -9.73814         5.01349
| 42>    C        2.24426        -9.74076         4.88823
| 43>    C        1.63525        -9.88129         6.12137
| 44>    C        0.25136        -9.99862         6.33108
| 45>    N       -0.86902       -10.12899         6.53941
| 46>    N        1.66413        -9.64355         3.65750
| 47>    C        0.48762        -9.00846         3.35046
| 48>    S       -0.15972        -7.74708         4.34404
| 49>    C       -1.36043        -7.43706         3.13236
| 50>    N       -2.29414        -6.42367         3.40290
| 51>    O       -3.14525        -6.20162         2.56637
| 52>    O       -2.16603        -5.84048         4.46352
| 53>    C       -1.25043        -8.23901         2.03167
| 54>    C       -0.19504        -9.16867         2.14197
| 55>    C        0.11874       -10.13788         1.12759
| 56>    C        0.74154       -11.31907         1.34282
| 57>    C        1.10085       -12.24351         0.32976
| 58>    S        0.88256       -11.90985        -1.34878
| 59>    C        1.52685       -13.45748        -1.83436
| 60>    C        1.98045       -14.17257        -0.70697
| 61>    C        1.71065       -13.49460         0.51692
| 62>    C        2.07918       -14.09771         1.73593
| 63>    C        2.71542       -15.30554         1.74899
| 64>    C        3.10435       -15.98252         3.02184
| 65>    C        3.05220       -15.93948         0.51214
| 66>    O        3.71771       -17.10683         0.64283
| 67>    C        4.00684       -17.85443        -0.51503
| 68>    C        2.71298       -15.36649        -0.69293
| 69>    C        1.54952       -13.73968        -3.20416
| 70>    C        1.53627       -14.96543        -3.83145
| 71>    C        1.75771       -15.16775        -5.24563
| 72>    C        2.32676       -14.27008        -6.11496
| 73>    C        2.53536       -14.52225        -7.48579
| 74>    N        2.72322       -14.66997        -8.60880
| 75>    C        2.81824       -13.00007        -5.74918
| 76>    N        3.26863       -11.96937        -5.51617
| 77>    C        1.36453       -16.53419        -5.56966
| 78>    C        0.94999       -17.17676        -4.37780
| 79>    C        1.04506       -16.22751        -3.24712
| 80>    O        0.70560       -16.44426        -2.09938
| 81>    C        0.52018       -18.48056        -4.35292
| 82>    C        0.50461       -19.18664        -5.56140
| 83>    C        0.92036       -18.53533        -6.74635
| 84>    C        1.35120       -17.21417        -6.77213
| 85>    S        0.81814       -19.58820        -8.12501
| 86>    C        0.22958       -20.87288        -7.10410
| 87>    C        0.11296       -20.53260        -5.79839
| 88>   Br       -0.17500       -22.54245        -7.85771
| 89>    H       -2.54174       -14.32728        12.90011
| 90>    H       -2.34370       -16.27246         8.34319
| 91>    H       -0.95821       -12.59235        12.25321
| 92>    H       -0.70174       -14.51995         7.66133
| 93>    H        2.65878        -9.44171         9.27458
| 94>    H        2.23164        -9.90992         2.85973
| 95>    H       -1.91862        -8.17401         1.19217
| 96>    H       -0.20769        -9.89098         0.12621
| 97>    H        0.96362       -11.63360         2.35299
| 98>    H        1.85354       -13.60706         2.67066
| 99>    H        4.18431       -16.11705         3.05898
|100>    H        2.65565       -16.97334         3.06573
|101>    H        2.78451       -15.40460         3.88445
|102>    H        4.44128       -18.78832        -0.16223
|103>    H        4.72967       -17.33898        -1.15529
|104>    H        3.09730       -18.06386        -1.08592
|105>    H        3.01286       -15.80935        -1.62541
|106>    H        1.51205       -12.86465        -3.84392
|107>    H        0.20465       -18.94413        -3.43119
|108>    H        1.65088       -16.75871        -7.70111
|109>    H       -0.23644       -21.20190        -5.03354
|110> *
|111>
|112>                          ****END OF INPUT****

CARTESIAN COORDINATES (ANGSTROEM)
---------------------------------
  C     -2.486350  -14.738400   11.904220
  C     -3.227500  -15.841710   11.586280
  F     -4.015440  -16.410730   12.504510
  C     -3.172340  -16.394860   10.289580
  F     -3.909760  -17.474660   10.007220
  C     -2.374420  -15.837840    9.329980
  C     -1.596970  -14.701250    9.627290
  C     -1.654870  -14.138520   10.936410
  C     -0.891230  -12.993900   11.255170
  C     -0.093530  -12.425470   10.294810
  C     -0.035690  -12.999840    8.992850
  C     -0.761190  -14.108170    8.657170
  C      0.887340  -12.226740    8.152820
  O      1.277730  -12.501000    7.039630
  C      1.341770  -11.082230    9.004180
  C      0.767230  -11.249980   10.336080
  C      0.960330  -10.431790   11.411890
  C      1.767370   -9.271730   11.414940
  N      2.396050   -8.314580   11.481100
  C      0.370720  -10.638330   12.679880
  N     -0.069810  -10.759620   13.731700
  C      2.203820  -10.136450    8.580900
  C      2.577230   -9.979510    7.189120
  C      3.878240   -9.898250    6.744790
  C      5.027370  -10.010550    7.529740
  N      5.964740  -10.105870    8.184270
  S      3.978580   -9.738140    5.013490
  C      2.244260   -9.740760    4.888230
  C      1.635250   -9.881290    6.121370
  C      0.251360   -9.998620    6.331080
  N     -0.869020  -10.128990    6.539410
  N      1.664130   -9.643550    3.657500
  C      0.487620   -9.008460    3.350460
  S     -0.159720   -7.747080    4.344040
  C     -1.360430   -7.437060    3.132360
  N     -2.294140   -6.423670    3.402900
  O     -3.145250   -6.201620    2.566370
  O     -2.166030   -5.840480    4.463520
  C     -1.250430   -8.239010    2.031670
  C     -0.195040   -9.168670    2.141970
  C      0.118740  -10.137880    1.127590
  C      0.741540  -11.319070    1.342820
  C      1.100850  -12.243510    0.329760
  S      0.882560  -11.909850   -1.348780
  C      1.526850  -13.457480   -1.834360
  C      1.980450  -14.172570   -0.706970
  C      1.710650  -13.494600    0.516920
  C      2.079180  -14.097710    1.735930
  C      2.715420  -15.305540    1.748990
  C      3.104350  -15.982520    3.021840
  C      3.052200  -15.939480    0.512140
  O      3.717710  -17.106830    0.642830
  C      4.006840  -17.854430   -0.515030
  C      2.712980  -15.366490   -0.692930
  C      1.549520  -13.739680   -3.204160
  C      1.536270  -14.965430   -3.831450
  C      1.757710  -15.167750   -5.245630
  C      2.326760  -14.270080   -6.114960
  C      2.535360  -14.522250   -7.485790
  N      2.723220  -14.669970   -8.608800
  C      2.818240  -13.000070   -5.749180
  N      3.268630  -11.969370   -5.516170
  C      1.364530  -16.534190   -5.569660
  C      0.949990  -17.176760   -4.377800
  C      1.045060  -16.227510   -3.247120
  O      0.705600  -16.444260   -2.099380
  C      0.520180  -18.480560   -4.352920
  C      0.504610  -19.186640   -5.561400
  C      0.920360  -18.535330   -6.746350
  C      1.351200  -17.214170   -6.772130
  S      0.818140  -19.588200   -8.125010
  C      0.229580  -20.872880   -7.104100
  C      0.112960  -20.532600   -5.798390
  Br    -0.175000  -22.542450   -7.857710
  H     -2.541740  -14.327280   12.900110
  H     -2.343700  -16.272460    8.343190
  H     -0.958210  -12.592350   12.253210
  H     -0.701740  -14.519950    7.661330
  H      2.658780   -9.441710    9.274580
  H      2.231640   -9.909920    2.859730
  H     -1.918620   -8.174010    1.192170
  H     -0.207690   -9.890980    0.126210
  H      0.963620  -11.633600    2.352990
  H      1.853540  -13.607060    2.670660
  H      4.184310  -16.117050    3.058980
  H      2.655650  -16.973340    3.065730
  H      2.784510  -15.404600    3.884450
  H      4.441280  -18.788320   -0.162230
  H      4.729670  -17.338980   -1.155290
  H      3.097300  -18.063860   -1.085920
  H      3.012860  -15.809350   -1.625410
  H      1.512050  -12.864650   -3.843920
  H      0.204650  -18.944130   -3.431190
  H      1.650880  -16.758710   -7.701110
  H     -0.236440  -21.201900   -5.033540

 Total Charge           Charge          ....    0
 Multiplicity           Mult            ....    1
 Number of Electrons    NEL             ....  558
 Basis Dimension        Dim             .... 1175

ORBITAL ENERGIES
----------------

  NO   OCC          E(Eh)            E(eV)
   0   2.0000    -482.886466    -13140.0088
   1   2.0000     -89.016458     -2422.2610
   2   2.0000     -89.001205     -2421.8459
   3   2.0000     -88.982957     -2421.3494
   4   2.0000     -88.975760     -2421.1535
   5   2.0000     -62.564181     -1702.4579
   6   2.0000     -56.398129     -1534.6711
   7   2.0000     -56.395416     -1534.5973
   8   2.0000     -56.395386     -1534.5965
   9   2.0000     -24.809617      -675.1040
  10   2.0000     -24.808682      -675.0786
  11   2.0000     -19.265923      -524.2524
  12   2.0000     -19.247918      -523.7625
  13   2.0000     -19.247720      -523.7571
  14   2.0000     -19.240423      -523.5585
  15   2.0000     -19.213057      -522.8139
  16   2.0000     -14.659737      -398.9117
  17   2.0000     -14.514696      -394.9650
  18   2.0000     -14.434950      -392.7950
  19   2.0000     -14.434160      -392.7735
  20   2.0000     -14.432687      -392.7334
  21   2.0000     -14.430475      -392.6732
  22   2.0000     -14.412380      -392.1808
  23   2.0000     -14.412175      -392.1752
  24   2.0000     -10.406291      -283.1696
  25   2.0000     -10.394025      -282.8358
  26   2.0000     -10.393324      -282.8167
  27   2.0000     -10.391249      -282.7603
  28   2.0000     -10.387862      -282.6681
  29   2.0000     -10.366756      -282.0938
  30   2.0000     -10.365735      -282.0660
  31   2.0000     -10.363585      -282.0075
  32   2.0000     -10.361451      -281.9494
  33   2.0000     -10.359250      -281.8895
  34   2.0000     -10.356994      -281.8281
  35   2.0000     -10.351706      -281.6843
  36   2.0000     -10.350328      -281.6467
  37   2.0000     -10.346226      -281.5351
  38   2.0000     -10.343085      -281.4497
  39   2.0000     -10.338690      -281.3301
  40   2.0000     -10.338092      -281.3138
  41   2.0000     -10.337533      -281.2986
  42   2.0000     -10.335806      -281.2516
  43   2.0000     -10.335460      -281.2422
  44   2.0000     -10.334465      -281.2151
  45   2.0000     -10.334030      -281.2032
  46   2.0000     -10.332076      -281.1501
  47   2.0000     -10.330862      -281.1171
  48   2.0000     -10.324783      -280.9516
  49   2.0000     -10.324582      -280.9462
  50   2.0000     -10.324310      -280.9388
  51   2.0000     -10.324084      -280.9326
  52   2.0000     -10.322867      -280.8995
  53   2.0000     -10.321794      -280.8703
  54   2.0000     -10.321708      -280.8680
  55   2.0000     -10.320224      -280.8276
  56   2.0000     -10.319562      -280.8096
  57   2.0000     -10.318248      -280.7738
  58   2.0000     -10.317275      -280.7473
  59   2.0000     -10.316839      -280.7355
  60   2.0000     -10.315957      -280.7115
  61   2.0000     -10.315532      -280.6999
  62   2.0000     -10.313263      -280.6382
  63   2.0000     -10.312263      -280.6109
  64   2.0000     -10.309558      -280.5373
  65   2.0000     -10.307311      -280.4762
  66   2.0000     -10.306217      -280.4464
  67   2.0000     -10.305060      -280.4149
  68   2.0000     -10.304806      -280.4080
  69   2.0000     -10.300849      -280.3003
  70   2.0000     -10.300642      -280.2947
  71   2.0000     -10.297322      -280.2044
  72   2.0000     -10.296411      -280.1796
  73   2.0000     -10.293943      -280.1124
  74   2.0000     -10.292392      -280.0702
  75   2.0000     -10.291552      -280.0474
  76   2.0000     -10.281696      -279.7792
  77   2.0000     -10.273022      -279.5431
  78   2.0000      -8.793613      -239.2864
  79   2.0000      -8.112204      -220.7443
  80   2.0000      -8.096357      -220.3131
  81   2.0000      -8.078353      -219.8231
  82   2.0000      -8.071722      -219.6427
  83   2.0000      -6.629891      -180.4085
  84   2.0000      -6.615361      -180.0131
  85   2.0000      -6.615160      -180.0077
  86   2.0000      -6.081862      -165.4959
  87   2.0000      -6.077547      -165.3785
  88   2.0000      -6.073562      -165.2700
  89   2.0000      -6.065990      -165.0640
  90   2.0000      -6.061438      -164.9401
  91   2.0000      -6.057954      -164.8453
  92   2.0000      -6.047369      -164.5573
  93   2.0000      -6.043388      -164.4489
  94   2.0000      -6.041437      -164.3959
  95   2.0000      -6.040878      -164.3806
  96   2.0000      -6.037123      -164.2785
  97   2.0000      -6.032942      -164.1647
  98   2.0000      -2.745773       -74.7163
  99   2.0000      -2.741667       -74.6046
 100   2.0000      -2.741554       -74.6015
 101   2.0000      -2.729977       -74.2864
 102   2.0000      -2.729973       -74.2863
 103   2.0000      -1.332856       -36.2689
 104   2.0000      -1.330448       -36.2033
 105   2.0000      -1.317898       -35.8618
 106   2.0000      -1.171226       -31.8707
 107   2.0000      -1.156310       -31.4648
 108   2.0000      -1.150009       -31.2933
 109   2.0000      -1.127010       -30.6675
 110   2.0000      -1.125060       -30.6144
 111   2.0000      -1.046835       -28.4858
 112   2.0000      -1.037919       -28.2432
 113   2.0000      -1.022087       -27.8124
 114   2.0000      -1.021488       -27.7961
 115   2.0000      -1.020303       -27.7639
 116   2.0000      -1.017282       -27.6817
 117   2.0000      -1.016541       -27.6615
 118   2.0000      -1.012601       -27.5543
 119   2.0000      -1.011296       -27.5188
 120   2.0000      -1.004141       -27.3241
 121   2.0000      -0.997354       -27.1394
 122   2.0000      -0.991350       -26.9760
 123   2.0000      -0.987800       -26.8794
 124   2.0000      -0.954216       -25.9655
 125   2.0000      -0.951370       -25.8881
 126   2.0000      -0.946157       -25.7462
 127   2.0000      -0.938922       -25.5494
 128   2.0000      -0.934164       -25.4199
 129   2.0000      -0.915375       -24.9086
 130   2.0000      -0.910983       -24.7891
 131   2.0000      -0.907311       -24.6892
 132   2.0000      -0.905764       -24.6471
 133   2.0000      -0.900834       -24.5129
 134   2.0000      -0.893033       -24.3007
 135   2.0000      -0.885545       -24.0969
 136   2.0000      -0.883621       -24.0445
 137   2.0000      -0.874033       -23.7836
 138   2.0000      -0.866842       -23.5880
 139   2.0000      -0.861318       -23.4377
 140   2.0000      -0.855026       -23.2665
 141   2.0000      -0.851520       -23.1710
 142   2.0000      -0.828907       -22.5557
 143   2.0000      -0.822173       -22.3725
 144   2.0000      -0.817300       -22.2399
 145   2.0000      -0.803243       -21.8573
 146   2.0000      -0.794076       -21.6079
 147   2.0000      -0.787802       -21.4372
 148   2.0000      -0.785534       -21.3755
 149   2.0000      -0.775571       -21.1044
 150   2.0000      -0.770519       -20.9669
 151   2.0000      -0.757422       -20.6105
 152   2.0000      -0.747811       -20.3490
 153   2.0000      -0.743841       -20.2409
 154   2.0000      -0.734906       -19.9978
 155   2.0000      -0.729918       -19.8621
 156   2.0000      -0.718521       -19.5520
 157   2.0000      -0.714964       -19.4552
 158   2.0000      -0.704191       -19.1620
 159   2.0000      -0.703099       -19.1323
 160   2.0000      -0.700992       -19.0750
 161   2.0000      -0.690008       -18.7761
 162   2.0000      -0.684959       -18.6387
 163   2.0000      -0.678921       -18.4744
 164   2.0000      -0.672702       -18.3052
 165   2.0000      -0.663620       -18.0580
 166   2.0000      -0.662728       -18.0337
 167   2.0000      -0.657974       -17.9044
 168   2.0000      -0.656199       -17.8561
 169   2.0000      -0.651631       -17.7318
 170   2.0000      -0.644169       -17.5287
 171   2.0000      -0.641286       -17.4503
 172   2.0000      -0.636339       -17.3157
 173   2.0000      -0.630450       -17.1554
 174   2.0000      -0.625864       -17.0306
 175   2.0000      -0.618517       -16.8307
 176   2.0000      -0.617396       -16.8002
 177   2.0000      -0.615556       -16.7501
 178   2.0000      -0.612031       -16.6542
 179   2.0000      -0.604132       -16.4393
 180   2.0000      -0.599679       -16.3181
 181   2.0000      -0.598320       -16.2811
 182   2.0000      -0.596918       -16.2430
 183   2.0000      -0.594905       -16.1882
 184   2.0000      -0.590211       -16.0604
 185   2.0000      -0.586236       -15.9523
 186   2.0000      -0.581931       -15.8351
 187   2.0000      -0.573566       -15.6075
 188   2.0000      -0.571519       -15.5518
 189   2.0000      -0.570431       -15.5222
 190   2.0000      -0.566213       -15.4074
 191   2.0000      -0.565704       -15.3936
 192   2.0000      -0.558244       -15.1906
 193   2.0000      -0.557748       -15.1771
 194   2.0000      -0.553327       -15.0568
 195   2.0000      -0.552250       -15.0275
 196   2.0000      -0.546631       -14.8746
 197   2.0000      -0.544774       -14.8241
 198   2.0000      -0.543979       -14.8024
 199   2.0000      -0.540709       -14.7134
 200   2.0000      -0.536178       -14.5901
 201   2.0000      -0.535648       -14.5757
 202   2.0000      -0.533193       -14.5089
 203   2.0000      -0.532856       -14.4997
 204   2.0000      -0.529947       -14.4206
 205   2.0000      -0.528795       -14.3892
 206   2.0000      -0.526042       -14.3143
 207   2.0000      -0.521771       -14.1981
 208   2.0000      -0.518926       -14.1207
 209   2.0000      -0.516154       -14.0453
 210   2.0000      -0.514544       -14.0014
 211   2.0000      -0.511124       -13.9084
 212   2.0000      -0.510351       -13.8873
 213   2.0000      -0.508290       -13.8313
 214   2.0000      -0.505515       -13.7558
 215   2.0000      -0.503224       -13.6934
 216   2.0000      -0.500713       -13.6251
 217   2.0000      -0.492902       -13.4125
 218   2.0000      -0.492392       -13.3987
 219   2.0000      -0.491430       -13.3725
 220   2.0000      -0.486812       -13.2468
 221   2.0000      -0.483582       -13.1589
 222   2.0000      -0.482019       -13.1164
 223   2.0000      -0.478706       -13.0263
 224   2.0000      -0.476255       -12.9596
 225   2.0000      -0.474499       -12.9118
 226   2.0000      -0.472017       -12.8442
 227   2.0000      -0.467979       -12.7344
 228   2.0000      -0.465878       -12.6772
 229   2.0000      -0.460912       -12.5420
 230   2.0000      -0.460585       -12.5332
 231   2.0000      -0.460033       -12.5181
 232   2.0000      -0.458580       -12.4786
 233   2.0000      -0.458451       -12.4751
 234   2.0000      -0.456218       -12.4143
 235   2.0000      -0.450842       -12.2680
 236   2.0000      -0.449520       -12.2321
 237   2.0000      -0.446605       -12.1528
 238   2.0000      -0.446160       -12.1406
 239   2.0000      -0.444613       -12.0985
 240   2.0000      -0.444184       -12.0869
 241   2.0000      -0.441683       -12.0188
 242   2.0000      -0.441103       -12.0030
 243   2.0000      -0.438809       -11.9406
 244   2.0000      -0.438482       -11.9317
 245   2.0000      -0.435215       -11.8428
 246   2.0000      -0.433318       -11.7912
 247   2.0000      -0.430578       -11.7166
 248   2.0000      -0.428894       -11.6708
 249   2.0000      -0.426784       -11.6134
 250   2.0000      -0.424445       -11.5497
 251   2.0000      -0.422871       -11.5069
 252   2.0000      -0.417436       -11.3590
 253   2.0000      -0.416723       -11.3396
 254   2.0000      -0.412187       -11.2162
 255   2.0000      -0.406456       -11.0602
 256   2.0000      -0.401220       -10.9177
 257   2.0000      -0.399904       -10.8819
 258   2.0000      -0.394537       -10.7359
 259   2.0000      -0.388515       -10.5720
 260   2.0000      -0.387331       -10.5398
 261   2.0000      -0.382611       -10.4114
 262   2.0000      -0.380749       -10.3607
 263   2.0000      -0.376520       -10.2456
 264   2.0000      -0.375874       -10.2281
 265   2.0000      -0.364699        -9.9240
 266   2.0000      -0.362527        -9.8649
 267   2.0000      -0.353170        -9.6102
 268   2.0000      -0.346353        -9.4247
 269   2.0000      -0.341227        -9.2853
 270   2.0000      -0.334454        -9.1009
 271   2.0000      -0.331139        -9.0107
 272   2.0000      -0.321054        -8.7363
 273   2.0000      -0.314767        -8.5653
 274   2.0000      -0.313791        -8.5387
 275   2.0000      -0.308519        -8.3952
 276   2.0000      -0.296160        -8.0589
 277   2.0000      -0.293298        -7.9810
 278   2.0000      -0.256218        -6.9720
 279   0.0000      -0.113872        -3.0986
 280   0.0000      -0.105669        -2.8754
 281   0.0000      -0.077633        -2.1125
 282   0.0000      -0.074362        -2.0235
 283   0.0000      -0.067349        -1.8327

MULLIKEN ATOMIC CHARGES
-----------------------
   0 C :   -0.104720
   1 C :    0.245262
   2 F :   -0.165541
   3 C :    0.240161
   4 F :   -0.166748
   5 C :   -0.101020
   6 C :    0.114467
   7 C :    0.115049
   8 C :   -0.081241
   9 C :    0.057064
  10 C :    0.003851
  11 C :   -0.066368
  12 C :    0.146015
  13 O :   -0.142067
  14 C :   -0.057877
  15 C :    0.311889
  16 C :   -0.331896
  17 C :   -0.184409
  18 N :    0.173323
  19 C :   -0.180568
  20 N :    0.164044
  21 C :   -0.067042
  22 C :    0.239934
  23 C :   -0.303647
  24 C :   -0.200516
  25 N :    0.163500
  26 S :    0.219415
  27 C :   -0.072239
  28 C :   -0.023641
  29 C :   -0.294276
  30 N :    0.180822
  31 N :   -0.036952
  32 C :   -0.088893
  33 S :    0.216215
  34 C :   -0.005779
  35 N :    0.278062
  36 O :   -0.241282
  37 O :   -0.253409
  38 C :    0.014518
  39 C :    0.107001
  40 C :   -0.013367
  41 C :   -0.047863
  42 C :   -0.077060
  43 S :    0.159671
  44 C :   -0.135304
  45 C :    0.157566
  46 C :    0.126170
  47 C :   -0.114857
  48 C :   -0.083922
  49 C :    0.128663
  50 C :    0.198792
  51 O :   -0.299250
  52 C :    0.172751
  53 C :   -0.106115
  54 C :    0.012043
  55 C :   -0.112514
  56 C :    0.297469
  57 C :   -0.351102
  58 C :   -0.182085
  59 N :    0.141434
  60 C :   -0.208868
  61 N :    0.156957
  62 C :    0.018183
  63 C :   -0.011577
  64 C :    0.120475
  65 O :   -0.155988
  66 C :   -0.083349
  67 C :    0.118931
  68 C :   -0.091438
  69 C :   -0.026592
  70 S :    0.185721
  71 C :   -0.125176
  72 C :    0.038361
  73 Br:    0.021376
  74 H :    0.010850
  75 H :    0.002482
  76 H :   -0.003501
  77 H :   -0.008089
  78 H :    0.059085
  79 H :    0.157180
  80 H :    0.015630
  81 H :    0.012196
  82 H :    0.007923
  83 H :   -0.036476
  84 H :    0.032081
  85 H :    0.030150
  86 H :    0.007695
  87 H :    0.040433
  88 H :    0.029918
  89 H :    0.034670
  90 H :   -0.037657
  91 H :    0.026127
  92 H :   -0.016912
  93 H :   -0.006575
  94 H :   -0.005806
Sum of atomic charges:    0.0000000

LOEWDIN ATOMIC CHARGES
----------------------
   0 C :   -0.027507
   1 C :    0.070305
   2 F :   -0.043594
   3 C :    0.070790
   4 F :   -0.044582
   5 C :   -0.031180
   6 C :   -0.006272
   7 C :   -0.002840
   8 C :    0.022164
   9 C :   -0.021314
  10 C :   -0.052211
  11 C :    0.039496
  12 C :    0.091215
  13 O :   -0.133256
  14 C :   -0.051639
  15 C :    0.072010
  16 C :   -0.114254
  17 C :   -0.020602
  18 N :   -0.029837
  19 C :   -0.016264
  20 N :   -0.035292
  21 C :    0.064413
  22 C :    0.006200
  23 C :   -0.214183
  24 C :   -0.060406
  25 N :   -0.026765
  26 S :    0.478489
  27 C :   -0.092898
  28 C :   -0.132812
  29 C :   -0.052768
  30 N :   -0.046064
  31 N :    0.018806
  32 C :   -0.106589
  33 S :    0.506837
  34 C :   -0.200169
  35 N :    0.273407
  36 O :   -0.206263
  37 O :   -0.220334
  38 C :    0.001409
  39 C :   -0.094439
  40 C :   -0.005738
  41 C :   -0.054592
  42 C :   -0.144919
  43 S :    0.479068
  44 C :   -0.184960
  45 C :   -0.002435
  46 C :   -0.051607
  47 C :   -0.023963
  48 C :   -0.025611
  49 C :   -0.040257
  50 C :    0.073306
  51 O :   -0.083882
  52 C :    0.078719
  53 C :   -0.056924
  54 C :    0.039430
  55 C :   -0.117757
  56 C :    0.074634
  57 C :   -0.149315
  58 C :   -0.019117
  59 N :   -0.058993
  60 C :   -0.026307
  61 N :   -0.058628
  62 C :   -0.022188
  63 C :   -0.049598
  64 C :    0.068480
  65 O :   -0.150309
  66 C :    0.013878
  67 C :   -0.034461
  68 C :   -0.146457
  69 C :   -0.010621
  70 S :    0.431827
  71 C :   -0.272845
  72 C :   -0.071890
  73 Br:    0.134887
  74 H :    0.049239
  75 H :    0.046122
  76 H :    0.041188
  77 H :    0.041836
  78 H :    0.055697
  79 H :    0.096867
  80 H :    0.048862
  81 H :    0.032130
  82 H :    0.032593
  83 H :    0.026786
  84 H :    0.039307
  85 H :    0.039305
  86 H :    0.028953
  87 H :    0.030460
  88 H :    0.018714
  89 H :    0.021264
  90 H :    0.028600
  91 H :    0.043482
  92 H :    0.037864
  93 H :    0.040824
  94 H :    0.037842

  Mayer bond orders larger than 0.100000
B(  0-C ,  1-C ) :   1.4429 B(  0-C ,  5-C ) :   0.1076 B(  0-C ,  7-C ) :   1.1868
B(  0-C , 74-H ) :   1.0066 B(  1-C ,  2-F ) :   1.1398 B(  1-C ,  3-C ) :   1.1862
B(  3-C ,  4-F ) :   1.1382 B(  3-C ,  5-C ) :   1.4463 B(  5-C ,  6-C ) :   1.1888
B(  5-C , 75-H ) :   1.0067 B(  6-C ,  7-C ) :   1.2479 B(  6-C , 11-C ) :   1.1989
B(  7-C ,  8-C ) :   1.2271 B(  8-C ,  9-C ) :   1.4367 B(  8-C , 76-H ) :   0.9885
B(  9-C , 10-C ) :   1.2185 B(  9-C , 15-C ) :   1.0029 B( 10-C , 11-C ) :   1.4615
B( 10-C , 12-C ) :   0.9511 B( 11-C , 77-H ) :   1.0158 B( 12-C , 13-O ) :   2.2283
B( 12-C , 14-C ) :   0.9043 B( 14-C , 15-C ) :   1.0266 B( 14-C , 21-C ) :   1.7530
B( 15-C , 16-C ) :   1.6812 B( 16-C , 17-C ) :   1.1392 B( 16-C , 19-C ) :   1.1389
B( 17-C , 18-N ) :   2.9710 B( 19-C , 20-N ) :   2.9656 B( 21-C , 22-C ) :   1.0301
B( 21-C , 78-H ) :   0.9258 B( 22-C , 23-C ) :   1.5139 B( 22-C , 28-C ) :   1.2808
B( 23-C , 24-C ) :   1.2328 B( 23-C , 26-S ) :   1.0950 B( 24-C , 25-N ) :   3.0001
B( 26-S , 27-C ) :   1.1344 B( 27-C , 28-C ) :   1.4513 B( 27-C , 31-N ) :   1.1817
B( 28-C , 29-C ) :   1.0960 B( 29-C , 30-N ) :   3.0179 B( 31-N , 32-C ) :   1.1270
B( 31-N , 79-H ) :   0.8869 B( 32-C , 33-S ) :   1.1613 B( 32-C , 39-C ) :   1.4096
B( 33-S , 34-C ) :   1.1048 B( 34-C , 35-N ) :   0.9574 B( 34-C , 38-C ) :   1.5036
B( 35-N , 36-O ) :   1.5439 B( 35-N , 37-O ) :   1.5205 B( 36-O , 37-O ) :   0.2650
B( 38-C , 39-C ) :   1.2115 B( 38-C , 80-H ) :   1.0062 B( 39-C , 40-C ) :   1.0923
B( 40-C , 41-C ) :   1.6572 B( 40-C , 81-H ) :   0.9679 B( 41-C , 42-C ) :   1.1748
B( 41-C , 82-H ) :   0.9678 B( 42-C , 43-S ) :   1.1788 B( 42-C , 46-C ) :   1.3038
B( 43-S , 44-C ) :   1.0900 B( 44-C , 45-C ) :   1.2909 B( 44-C , 54-C ) :   1.2848
B( 45-C , 46-C ) :   1.2260 B( 45-C , 53-C ) :   1.2236 B( 46-C , 47-C ) :   1.1541
B( 47-C , 48-C ) :   1.5833 B( 47-C , 83-H ) :   0.9947 B( 48-C , 49-C ) :   1.0698
B( 48-C , 50-C ) :   1.2115 B( 49-C , 84-H ) :   0.9462 B( 49-C , 85-H ) :   0.9452
B( 49-C , 86-H ) :   0.9519 B( 50-C , 51-O ) :   1.2098 B( 50-C , 53-C ) :   1.4347
B( 51-O , 52-C ) :   0.9507 B( 52-C , 87-H ) :   0.9772 B( 52-C , 88-H ) :   0.9691
B( 52-C , 89-H ) :   0.9676 B( 53-C , 90-H ) :   0.9819 B( 54-C , 55-C ) :   1.4989
B( 54-C , 91-H ) :   0.9282 B( 55-C , 56-C ) :   1.0947 B( 55-C , 64-C ) :   0.9767
B( 56-C , 57-C ) :   1.6204 B( 56-C , 62-C ) :   0.9986 B( 57-C , 58-C ) :   1.1420
B( 57-C , 60-C ) :   1.1425 B( 58-C , 59-N ) :   2.9693 B( 60-C , 61-N ) :   2.9972
B( 62-C , 63-C ) :   1.2735 B( 62-C , 69-C ) :   1.4150 B( 63-C , 64-C ) :   0.9298
B( 63-C , 66-C ) :   1.4283 B( 64-C , 65-O ) :   2.1942 B( 66-C , 67-C ) :   1.2385
B( 66-C , 92-H ) :   1.0171 B( 67-C , 68-C ) :   1.3139 B( 67-C , 72-C ) :   1.1626
B( 68-C , 69-C ) :   1.3211 B( 68-C , 70-S ) :   1.0844 B( 69-C , 93-H ) :   0.9810
B( 70-S , 71-C ) :   1.0880 B( 71-C , 72-C ) :   1.6182 B( 71-C , 73-Br) :   1.0174
B( 72-C , 94-H ) :   0.9994

-----------------------------------------------------------------------------
         ABSORPTION SPECTRUM VIA TRANSITION ELECTRIC DIPOLE MOMENTS
-----------------------------------------------------------------------------
State   Energy  Wavelength   fosc         T2         TX        TY        TZ
        (cm-1)    (nm)                  (au**2)     (au)      (au)      (au)
-----------------------------------------------------------------------------
   0   16497.5    606.2   1.193514065  23.81692   0.24030  -2.27757  -4.30951
   1   20017.8    499.6   0.015128270   0.24880   0.47920   0.06003  -0.12475
   2   23678.0    422.3   0.029899986   0.41572  -0.20309  -0.53416  -0.29857
   3   24729.0    404.4   0.114461615   1.52381  -0.35554   0.87431   0.79561
   4   25165.7    397.4   0.064646892   0.84570   0.02255  -0.62218   0.67682
   5   25536.6    391.6   0.109069596   1.40610   1.14570  -0.15192   0.26532
   6   25870.2    386.5   0.163893720   2.08563  -0.39121   1.39017  -0.00312
   7   26355.4    379.4   0.055301955   0.69079  -0.50543  -0.56284  -0.34429
   8   26849.8    372.4   0.052112325   0.63896   0.31865   0.26940  -0.68179
   9   26866.9    372.2   0.132791294   1.62715   0.61148   1.10215   0.19623
  10   27851.0    359.1   0.003223295   0.03810   0.07722   0.13580  -0.11703
  11   28166.0    355.0   0.211264901   2.46932   0.57383  -1.45930   0.10247
  12   28374.0    352.4   0.051231967   0.59442  -0.40023  -0.61849  -0.22740
  13   29309.7    341.2   0.019033693   0.21379   0.21584  -0.31901  -0.25581
  14   30598.4    326.8   0.376499851   4.05081   1.21324  -1.46943   0.64778
  15   31063.6    321.9   0.032865823   0.34831   0.21944   0.33220  -0.43566
  16   31353.8    318.9   0.043075387   0.45229  -0.35820  -0.28081   0.49510
  17   31968.7    312.8   0.212385257   2.18713   0.80939  -0.83408   0.91450
  18   32409.7    308.5   0.379175524   3.85160  -0.68188  -1.77508   0.48551
  19   32603.2    306.7   0.282057875   2.84809   0.14635   1.43920   0.86912
  20   32783.1    305.0   0.005542133   0.05565   0.00730  -0.05602  -0.22905
  21   32824.7    304.6   0.005473292   0.05489  -0.21129   0.08676  -0.05216
  22   33110.0    302.0   0.169265715   1.68300   0.17171   1.02982   0.77006
  23   33457.8    298.9   0.667671174   6.56962  -1.85439  -1.76627  -0.10561
  24   33592.9    297.7   0.383989053   3.76311   0.89655   1.65047   0.48503
  25   34375.3    290.9   0.212530413   2.03540   1.06112   0.71727  -0.62844
  26   34889.1    286.6   0.087935720   0.82976  -0.74375   0.51003  -0.12832
  27   35209.1    284.0   0.095378790   0.89181  -0.14960  -0.27997   0.88941
  28   35242.2    283.8   0.013759368   0.12853   0.08128  -0.32470  -0.12845
  29   35930.5    278.3   0.015918731   0.14585   0.35725   0.13323   0.02178
  30   36011.6    277.7   0.017466303   0.15967   0.13140  -0.31142  -0.21313
  31   36700.3    272.5   0.136787657   1.22702   0.30014  -0.04670  -1.06525
  32   36907.6    270.9   0.043186611   0.38522  -0.04278  -0.57058   0.24046
  33   37113.5    269.4   0.084049824   0.74556   0.29118   0.80632  -0.10303
  34   37358.1    267.7   0.001085787   0.00957  -0.02367  -0.02157   0.09243
  35   37944.7    263.5   0.175967104   1.52671  -0.45601  -0.34419   1.09558
  36   37988.1    263.2   0.013945176   0.12085   0.09550  -0.07096  -0.32664
  37   38203.1    261.8   0.052646720   0.45368   0.16749  -0.42668  -0.49352
  38   38233.9    261.5   0.098762406   0.85039  -0.10449  -0.52141   0.75340
  39   38356.4    260.7   0.087371329   0.74991  -0.23830   0.68177   0.47782
  40   38427.8    260.2   0.090381489   0.77430   0.62595  -0.61378  -0.07591
  41   38735.9    258.2   0.039519350   0.33587   0.15193  -0.55798  -0.03804
  42   39109.2    255.7   0.107764087   0.90713   0.38928   0.85125   0.17597
  43   39241.6    254.8   0.036480348   0.30605  -0.14356  -0.53178  -0.05146
  44   39440.0    253.5   0.110406662   0.92158   0.66658   0.46743  -0.50869
  45   39642.1    252.3   0.099809669   0.82888   0.01955  -0.56872   0.71067
  46   39861.8    250.9   0.016892940   0.13952  -0.12027  -0.06203   0.34814
  47   39950.1    250.3   0.002924692   0.02410  -0.13093  -0.08340  -0.00163
  48   40100.5    249.4   0.160863388   1.32064   0.33607   0.10838  -1.09359

FINAL SINGLE POINT ENERGY     -7246.399279707922

DIPOLE MOMENT
-------------
                                X             Y             Z
Electronic contribution:    -27.87657     -72.37898     -77.60692
Nuclear contribution   :     27.93099      68.78109      77.49035
                        -----------------------------------------
Total Dipole Moment    :      0.05442      -3.59789      -0.11657
                        -----------------------------------------
Magnitude (a.u.)       :      3.60019
Magnitude (Debye)      :      9.15095

Rotational constants in cm-1:     0.001036     0.000270     0.000237
Rotational constants in MHz :    31.051146     8.099026     7.112733

                             ****ORCA TERMINATED NORMALLY****
TOTAL RUN TIME: 0 days 0 hours 10 minutes 22 seconds 452 msec
