                         Program Version 4.2.0 -  RELEASE  -
|  1> # ORCA input file
|  2> # SCF done       -211.209792063829          0.000627282484
|  3> ! CAM-B3LYP def2-SVP def2/J RIJCOSX Grid4 TightSCF
|  4> %maxcore 5000
|  5> %tddft
|  6>     Mode sTDDFT
|  7>     Ethresh 5.0
|  8>     maxcore 5000
|  9> end
| 10>
| 11> %pal
| 12>   nprocs 6
| 13>   end
| 14> * xyz 0 1
| 15>    C      -13.46530        -1.28627        -8.98266
| 16>    C      -13.31402        -0.13032        -9.69716
| 17>    F      -14.29854         0.30368       -10.49202
| 18>    C      -12.12223         0.61667        -9.60787
| 19>    F      -11.99731         1.74505       -10.31786
| 20>    C      -11.09915         0.19805        -8.80365
| 21>    C      -11.22742        -0.98594        -8.05188
| 22>    C      -12.43027        -1.74377        -8.14338
| 23>    C      -12.57757        -2.94033        -7.40319
| 24>    C      -11.55851        -3.36057        -6.59140
| 25>    C      -10.36319        -2.59051        -6.49816
| 26>    C      -10.18851        -1.43759        -7.20825
| 27>    C       -9.44751        -3.24974        -5.55693
| 28>    O       -8.33484        -2.86520        -5.20925
| 29>    C      -10.13094        -4.46059        -5.10056
| 30>    C      -11.43042        -4.53432        -5.72669
| 31>    C      -12.38238        -5.50426        -5.55143
| 32>    C      -12.23057        -6.61622        -4.69786
| 33>    N      -12.14757        -7.53208        -4.01082
| 34>    C      -13.63670        -5.50889        -6.19555
| 35>    N      -14.67177        -5.56207        -6.68837
| 36>    C       -9.54378        -5.33192        -4.21177
| 37>    N       -8.33421        -5.08030        -3.70690
| 38>    C       -7.62555        -5.87085        -2.85382
| 39>    S       -8.10175        -7.51280        -2.53887
| 40>    C       -6.68002        -7.71565        -1.57152
| 41>    N       -6.47134        -8.96407        -0.96394
| 42>    O       -5.46779        -9.10140        -0.29230
| 43>    O       -7.31674        -9.81672        -1.16241
| 44>    C       -5.89666        -6.59510        -1.50233
| 45>    C       -6.43372        -5.50850        -2.21925
| 46>    C       -5.80481        -4.20901        -2.27013
| 47>    C       -6.44847        -3.04090        -2.43243
| 48>    C       -5.79456        -1.76707        -2.57522
| 49>    C       -6.48982        -0.69919        -2.89258
| 50>    C       -7.26533         0.24820        -3.30848
| 51>    C       -7.59232         0.46388        -4.78473
| 52>    C       -8.66087         1.49511        -4.70017
| 53>    C       -8.88326         1.92219        -3.44765
| 54>    C       -8.00913         1.25356        -2.44034
| 55>    C       -9.91869         2.94171        -3.44131
| 56>    C      -10.31445         3.11656        -4.72964
| 57>    C       -9.55430         2.21085        -5.65196
| 58>    C      -10.39028         3.58174        -2.24294
| 59>    C      -11.27644         4.58678        -2.20475
| 60>    N      -11.70717         5.15079        -1.02729
| 61>    C      -12.55760         6.19096        -0.90913
| 62>    S      -13.33220         6.88555        -2.29533
| 63>    C      -14.16886         7.99622        -1.25147
| 64>    N      -14.92430         8.97126        -1.88167
| 65>    O      -15.49339         9.80407        -1.19730
| 66>    O      -14.92867         8.94266        -3.10874
| 67>    C      -13.87681         7.81554         0.08075
| 68>    C      -12.93603         6.80301         0.29365
| 69>    C      -12.35830         6.46641         1.59762
| 70>    C      -11.04139         6.39899         1.83378
| 71>    C      -10.05346         6.70209         0.81247
| 72>    C      -10.09460         7.79257         0.02283
| 73>    C       -9.51883         7.77458        -1.35722
| 74>    O       -8.65312         7.04445        -1.77402
| 75>    C      -10.35677         8.73275        -2.10566
| 76>    C      -10.44833         8.92082        -3.45664
| 77>    C      -11.40323         9.83067        -3.96230
| 78>    C      -12.23398        10.55810        -3.05879
| 79>    C      -13.20198        11.44551        -3.56957
| 80>    C      -13.34168        11.60330        -4.91961
| 81>    C      -12.51771        10.88739        -5.81319
| 82>    C      -11.56776        10.02233        -5.34764
| 83>    F      -12.67094        11.06553        -7.13040
| 84>    F      -14.25205        12.44664        -5.41135
| 85>    C      -12.10485        10.36162        -1.66639
| 86>    C      -11.19425         9.44946        -1.20090
| 87>    C      -10.93430         8.97621         0.14699
| 88>    C      -11.26434         9.59499         1.31686
| 89>    C      -10.85036         9.11381         2.57732
| 90>    N      -10.50645         8.76975         3.61620
| 91>    C      -11.99548        10.80041         1.38898
| 92>    N      -12.58753        11.77650         1.49599
| 93>    H      -14.38290        -1.84752        -9.06499
| 94>    H      -10.19027         0.77765        -8.75457
| 95>    H      -13.49684        -3.49462        -7.49999
| 96>    H       -9.26888        -0.87696        -7.13501
| 97>    H      -10.03820        -6.23668        -3.88181
| 98>    H       -7.89268        -4.20912        -4.04839
| 99>    H       -4.98271        -6.56045        -0.93724
|100>    H       -4.73146        -4.21175        -2.13501
|101>    H       -7.52819        -3.00221        -2.47287
|102>    H       -4.71925        -1.72665        -2.46059
|103>    H       -7.91450        -0.47715        -5.23661
|104>    H       -6.71599         0.81610        -5.33735
|105>    H       -8.57005         0.75252        -1.64728
|106>    H       -7.31543         1.95617        -1.96908
|107>    H      -11.07256         3.78825        -5.08649
|108>    H       -9.00096         2.77806        -6.40387
|109>    H      -10.22941         1.53578        -6.18418
|110>    H       -9.98162         3.20494        -1.31369
|111>    H      -11.70096         5.01809        -3.09777
|112>    H      -11.34793         4.75519        -0.16676
|113>    H      -14.30722         8.42547         0.85495
|114>    H      -13.06068         6.27894         2.39754
|115>    H      -10.67555         6.07849         2.79911
|116>    H       -9.29000         5.96045         0.60157
|117>    H       -9.81404         8.36712        -4.13214
|118>    H      -13.84720        11.98914        -2.89692
|119>    H      -10.95028         9.48110        -6.04728
|120>    H      -12.75437        10.90670        -0.99851
|121> *
|122>
|123>                          ****END OF INPUT****

CARTESIAN COORDINATES (ANGSTROEM)
---------------------------------
  C    -13.465300   -1.286270   -8.982660
  C    -13.314020   -0.130320   -9.697160
  F    -14.298540    0.303680  -10.492020
  C    -12.122230    0.616670   -9.607870
  F    -11.997310    1.745050  -10.317860
  C    -11.099150    0.198050   -8.803650
  C    -11.227420   -0.985940   -8.051880
  C    -12.430270   -1.743770   -8.143380
  C    -12.577570   -2.940330   -7.403190
  C    -11.558510   -3.360570   -6.591400
  C    -10.363190   -2.590510   -6.498160
  C    -10.188510   -1.437590   -7.208250
  C     -9.447510   -3.249740   -5.556930
  O     -8.334840   -2.865200   -5.209250
  C    -10.130940   -4.460590   -5.100560
  C    -11.430420   -4.534320   -5.726690
  C    -12.382380   -5.504260   -5.551430
  C    -12.230570   -6.616220   -4.697860
  N    -12.147570   -7.532080   -4.010820
  C    -13.636700   -5.508890   -6.195550
  N    -14.671770   -5.562070   -6.688370
  C     -9.543780   -5.331920   -4.211770
  N     -8.334210   -5.080300   -3.706900
  C     -7.625550   -5.870850   -2.853820
  S     -8.101750   -7.512800   -2.538870
  C     -6.680020   -7.715650   -1.571520
  N     -6.471340   -8.964070   -0.963940
  O     -5.467790   -9.101400   -0.292300
  O     -7.316740   -9.816720   -1.162410
  C     -5.896660   -6.595100   -1.502330
  C     -6.433720   -5.508500   -2.219250
  C     -5.804810   -4.209010   -2.270130
  C     -6.448470   -3.040900   -2.432430
  C     -5.794560   -1.767070   -2.575220
  C     -6.489820   -0.699190   -2.892580
  C     -7.265330    0.248200   -3.308480
  C     -7.592320    0.463880   -4.784730
  C     -8.660870    1.495110   -4.700170
  C     -8.883260    1.922190   -3.447650
  C     -8.009130    1.253560   -2.440340
  C     -9.918690    2.941710   -3.441310
  C    -10.314450    3.116560   -4.729640
  C     -9.554300    2.210850   -5.651960
  C    -10.390280    3.581740   -2.242940
  C    -11.276440    4.586780   -2.204750
  N    -11.707170    5.150790   -1.027290
  C    -12.557600    6.190960   -0.909130
  S    -13.332200    6.885550   -2.295330
  C    -14.168860    7.996220   -1.251470
  N    -14.924300    8.971260   -1.881670
  O    -15.493390    9.804070   -1.197300
  O    -14.928670    8.942660   -3.108740
  C    -13.876810    7.815540    0.080750
  C    -12.936030    6.803010    0.293650
  C    -12.358300    6.466410    1.597620
  C    -11.041390    6.398990    1.833780
  C    -10.053460    6.702090    0.812470
  C    -10.094600    7.792570    0.022830
  C     -9.518830    7.774580   -1.357220
  O     -8.653120    7.044450   -1.774020
  C    -10.356770    8.732750   -2.105660
  C    -10.448330    8.920820   -3.456640
  C    -11.403230    9.830670   -3.962300
  C    -12.233980   10.558100   -3.058790
  C    -13.201980   11.445510   -3.569570
  C    -13.341680   11.603300   -4.919610
  C    -12.517710   10.887390   -5.813190
  C    -11.567760   10.022330   -5.347640
  F    -12.670940   11.065530   -7.130400
  F    -14.252050   12.446640   -5.411350
  C    -12.104850   10.361620   -1.666390
  C    -11.194250    9.449460   -1.200900
  C    -10.934300    8.976210    0.146990
  C    -11.264340    9.594990    1.316860
  C    -10.850360    9.113810    2.577320
  N    -10.506450    8.769750    3.616200
  C    -11.995480   10.800410    1.388980
  N    -12.587530   11.776500    1.495990
  H    -14.382900   -1.847520   -9.064990
  H    -10.190270    0.777650   -8.754570
  H    -13.496840   -3.494620   -7.499990
  H     -9.268880   -0.876960   -7.135010
  H    -10.038200   -6.236680   -3.881810
  H     -7.892680   -4.209120   -4.048390
  H     -4.982710   -6.560450   -0.937240
  H     -4.731460   -4.211750   -2.135010
  H     -7.528190   -3.002210   -2.472870
  H     -4.719250   -1.726650   -2.460590
  H     -7.914500   -0.477150   -5.236610
  H     -6.715990    0.816100   -5.337350
  H     -8.570050    0.752520   -1.647280
  H     -7.315430    1.956170   -1.969080
  H    -11.072560    3.788250   -5.086490
  H     -9.000960    2.778060   -6.403870
  H    -10.229410    1.535780   -6.184180
  H     -9.981620    3.204940   -1.313690
  H    -11.700960    5.018090   -3.097770
  H    -11.347930    4.755190   -0.166760
  H    -14.307220    8.425470    0.854950
  H    -13.060680    6.278940    2.397540
  H    -10.675550    6.078490    2.799110
  H     -9.290000    5.960450    0.601570
  H     -9.814040    8.367120   -4.132140
  H    -13.847200   11.989140   -2.896920
  H    -10.950280    9.481100   -6.047280
  H    -12.754370   10.906700   -0.998510

 Total Charge           Charge          ....    0
 Multiplicity           Mult            ....    1
 Number of Electrons    NEL             ....  548
 Basis Dimension        Dim             .... 1240

ORBITAL ENERGIES
----------------

  NO   OCC          E(Eh)            E(eV)
   0   2.0000     -88.996450     -2421.7165
   1   2.0000     -88.993737     -2421.6427
   2   2.0000     -24.809925      -675.1124
   3   2.0000     -24.807999      -675.0600
   4   2.0000     -24.800242      -674.8489
   5   2.0000     -24.796942      -674.7591
   6   2.0000     -19.244912      -523.6807
   7   2.0000     -19.244199      -523.6613
   8   2.0000     -19.242990      -523.6284
   9   2.0000     -19.242495      -523.6149
  10   2.0000     -19.241876      -523.5981
  11   2.0000     -19.230930      -523.3002
  12   2.0000     -14.656460      -398.8225
  13   2.0000     -14.652758      -398.7218
  14   2.0000     -14.506508      -394.7421
  15   2.0000     -14.492131      -394.3509
  16   2.0000     -14.427620      -392.5955
  17   2.0000     -14.425191      -392.5294
  18   2.0000     -14.423555      -392.4849
  19   2.0000     -14.423048      -392.4711
  20   2.0000     -10.393484      -282.8211
  21   2.0000     -10.392314      -282.7892
  22   2.0000     -10.389729      -282.7189
  23   2.0000     -10.383568      -282.5513
  24   2.0000     -10.383163      -282.5402
  25   2.0000     -10.380928      -282.4794
  26   2.0000     -10.380744      -282.4744
  27   2.0000     -10.379903      -282.4515
  28   2.0000     -10.376735      -282.3653
  29   2.0000     -10.355388      -281.7844
  30   2.0000     -10.354604      -281.7631
  31   2.0000     -10.353809      -281.7415
  32   2.0000     -10.351410      -281.6762
  33   2.0000     -10.350749      -281.6582
  34   2.0000     -10.345655      -281.5196
  35   2.0000     -10.339001      -281.3385
  36   2.0000     -10.330913      -281.1184
  37   2.0000     -10.329864      -281.0899
  38   2.0000     -10.326510      -280.9986
  39   2.0000     -10.326265      -280.9920
  40   2.0000     -10.326094      -280.9873
  41   2.0000     -10.323161      -280.9075
  42   2.0000     -10.322407      -280.8870
  43   2.0000     -10.320178      -280.8263
  44   2.0000     -10.319936      -280.8197
  45   2.0000     -10.317653      -280.7576
  46   2.0000     -10.316780      -280.7339
  47   2.0000     -10.316146      -280.7166
  48   2.0000     -10.315743      -280.7056
  49   2.0000     -10.315309      -280.6938
  50   2.0000     -10.315035      -280.6864
  51   2.0000     -10.314303      -280.6665
  52   2.0000     -10.314256      -280.6652
  53   2.0000     -10.314085      -280.6605
  54   2.0000     -10.313876      -280.6548
  55   2.0000     -10.312146      -280.6078
  56   2.0000     -10.311804      -280.5985
  57   2.0000     -10.310582      -280.5652
  58   2.0000     -10.309379      -280.5325
  59   2.0000     -10.309092      -280.5247
  60   2.0000     -10.308895      -280.5193
  61   2.0000     -10.308817      -280.5172
  62   2.0000     -10.303397      -280.3697
  63   2.0000     -10.302982      -280.3584
  64   2.0000     -10.299834      -280.2727
  65   2.0000     -10.297496      -280.2091
  66   2.0000     -10.295045      -280.1424
  67   2.0000     -10.293311      -280.0952
  68   2.0000     -10.290500      -280.0188
  69   2.0000     -10.290177      -280.0099
  70   2.0000     -10.289111      -279.9809
  71   2.0000     -10.286646      -279.9139
  72   2.0000     -10.286341      -279.9056
  73   2.0000     -10.285960      -279.8952
  74   2.0000     -10.282231      -279.7937
  75   2.0000     -10.273316      -279.5511
  76   2.0000     -10.268605      -279.4229
  77   2.0000     -10.267752      -279.3997
  78   2.0000      -8.091671      -220.1856
  79   2.0000      -8.088323      -220.0944
  80   2.0000      -6.061272      -164.9356
  81   2.0000      -6.058065      -164.8483
  82   2.0000      -6.056900      -164.8166
  83   2.0000      -6.053640      -164.7279
  84   2.0000      -6.053235      -164.7169
  85   2.0000      -6.049801      -164.6234
  86   2.0000      -1.332351       -36.2551
  87   2.0000      -1.326793       -36.1039
  88   2.0000      -1.322716       -35.9929
  89   2.0000      -1.320870       -35.9427
  90   2.0000      -1.317467       -35.8501
  91   2.0000      -1.307526       -35.5796
  92   2.0000      -1.156974       -31.4829
  93   2.0000      -1.146446       -31.1964
  94   2.0000      -1.146072       -31.1862
  95   2.0000      -1.139571       -31.0093
  96   2.0000      -1.112518       -30.2732
  97   2.0000      -1.100720       -29.9521
  98   2.0000      -1.031333       -28.0640
  99   2.0000      -1.030824       -28.0501
 100   2.0000      -1.017109       -27.6769
 101   2.0000      -1.016303       -27.6550
 102   2.0000      -1.013296       -27.5732
 103   2.0000      -1.009500       -27.4699
 104   2.0000      -1.004226       -27.3264
 105   2.0000      -1.003299       -27.3012
 106   2.0000      -0.993041       -27.0220
 107   2.0000      -0.989007       -26.9123
 108   2.0000      -0.985444       -26.8153
 109   2.0000      -0.952812       -25.9273
 110   2.0000      -0.943868       -25.6839
 111   2.0000      -0.936627       -25.4869
 112   2.0000      -0.931895       -25.3581
 113   2.0000      -0.925987       -25.1974
 114   2.0000      -0.915128       -24.9019
 115   2.0000      -0.911949       -24.8154
 116   2.0000      -0.905929       -24.6516
 117   2.0000      -0.903081       -24.5741
 118   2.0000      -0.899575       -24.4787
 119   2.0000      -0.896736       -24.4014
 120   2.0000      -0.885612       -24.0987
 121   2.0000      -0.880149       -23.9501
 122   2.0000      -0.872460       -23.7408
 123   2.0000      -0.869430       -23.6584
 124   2.0000      -0.853350       -23.2208
 125   2.0000      -0.848613       -23.0919
 126   2.0000      -0.845605       -23.0101
 127   2.0000      -0.838335       -22.8122
 128   2.0000      -0.830753       -22.6059
 129   2.0000      -0.822917       -22.3927
 130   2.0000      -0.805848       -21.9282
 131   2.0000      -0.795293       -21.6410
 132   2.0000      -0.790190       -21.5022
 133   2.0000      -0.781460       -21.2646
 134   2.0000      -0.775369       -21.0989
 135   2.0000      -0.769741       -20.9457
 136   2.0000      -0.762322       -20.7438
 137   2.0000      -0.751086       -20.4381
 138   2.0000      -0.745131       -20.2760
 139   2.0000      -0.737045       -20.0560
 140   2.0000      -0.732556       -19.9339
 141   2.0000      -0.731331       -19.9005
 142   2.0000      -0.725368       -19.7383
 143   2.0000      -0.723178       -19.6787
 144   2.0000      -0.718897       -19.5622
 145   2.0000      -0.705663       -19.2021
 146   2.0000      -0.704002       -19.1569
 147   2.0000      -0.699663       -19.0388
 148   2.0000      -0.692838       -18.8531
 149   2.0000      -0.687614       -18.7109
 150   2.0000      -0.684232       -18.6189
 151   2.0000      -0.670208       -18.2373
 152   2.0000      -0.664116       -18.0715
 153   2.0000      -0.662034       -18.0149
 154   2.0000      -0.654750       -17.8167
 155   2.0000      -0.653817       -17.7913
 156   2.0000      -0.647757       -17.6264
 157   2.0000      -0.647303       -17.6140
 158   2.0000      -0.644714       -17.5436
 159   2.0000      -0.639991       -17.4150
 160   2.0000      -0.637861       -17.3571
 161   2.0000      -0.636707       -17.3257
 162   2.0000      -0.636081       -17.3087
 163   2.0000      -0.630420       -17.1546
 164   2.0000      -0.626908       -17.0590
 165   2.0000      -0.618382       -16.8270
 166   2.0000      -0.616611       -16.7788
 167   2.0000      -0.612250       -16.6602
 168   2.0000      -0.609828       -16.5943
 169   2.0000      -0.608302       -16.5527
 170   2.0000      -0.600766       -16.3477
 171   2.0000      -0.599244       -16.3062
 172   2.0000      -0.596768       -16.2389
 173   2.0000      -0.595200       -16.1962
 174   2.0000      -0.593330       -16.1453
 175   2.0000      -0.590048       -16.0560
 176   2.0000      -0.586023       -15.9465
 177   2.0000      -0.585950       -15.9445
 178   2.0000      -0.581741       -15.8300
 179   2.0000      -0.579936       -15.7809
 180   2.0000      -0.577104       -15.7038
 181   2.0000      -0.572083       -15.5672
 182   2.0000      -0.569441       -15.4953
 183   2.0000      -0.567534       -15.4434
 184   2.0000      -0.566554       -15.4167
 185   2.0000      -0.561586       -15.2815
 186   2.0000      -0.559771       -15.2321
 187   2.0000      -0.558134       -15.1876
 188   2.0000      -0.557962       -15.1829
 189   2.0000      -0.556371       -15.1396
 190   2.0000      -0.551995       -15.0205
 191   2.0000      -0.548459       -14.9243
 192   2.0000      -0.547676       -14.9030
 193   2.0000      -0.543927       -14.8010
 194   2.0000      -0.542736       -14.7686
 195   2.0000      -0.542353       -14.7582
 196   2.0000      -0.536366       -14.5953
 197   2.0000      -0.535270       -14.5654
 198   2.0000      -0.534301       -14.5391
 199   2.0000      -0.533373       -14.5138
 200   2.0000      -0.528689       -14.3863
 201   2.0000      -0.527147       -14.3444
 202   2.0000      -0.523194       -14.2368
 203   2.0000      -0.522097       -14.2070
 204   2.0000      -0.517464       -14.0809
 205   2.0000      -0.517405       -14.0793
 206   2.0000      -0.516220       -14.0471
 207   2.0000      -0.513397       -13.9702
 208   2.0000      -0.511790       -13.9265
 209   2.0000      -0.509742       -13.8708
 210   2.0000      -0.508704       -13.8426
 211   2.0000      -0.502496       -13.6736
 212   2.0000      -0.501029       -13.6337
 213   2.0000      -0.500142       -13.6096
 214   2.0000      -0.492992       -13.4150
 215   2.0000      -0.491135       -13.3645
 216   2.0000      -0.483449       -13.1553
 217   2.0000      -0.480933       -13.0869
 218   2.0000      -0.477367       -12.9898
 219   2.0000      -0.476502       -12.9663
 220   2.0000      -0.473602       -12.8874
 221   2.0000      -0.472554       -12.8588
 222   2.0000      -0.470517       -12.8034
 223   2.0000      -0.468448       -12.7471
 224   2.0000      -0.467259       -12.7148
 225   2.0000      -0.463129       -12.6024
 226   2.0000      -0.460342       -12.5266
 227   2.0000      -0.458041       -12.4639
 228   2.0000      -0.457883       -12.4596
 229   2.0000      -0.454170       -12.3586
 230   2.0000      -0.452974       -12.3260
 231   2.0000      -0.451331       -12.2813
 232   2.0000      -0.450010       -12.2454
 233   2.0000      -0.449553       -12.2329
 234   2.0000      -0.448751       -12.2111
 235   2.0000      -0.443855       -12.0779
 236   2.0000      -0.441094       -12.0028
 237   2.0000      -0.440536       -11.9876
 238   2.0000      -0.437225       -11.8975
 239   2.0000      -0.436903       -11.8887
 240   2.0000      -0.434826       -11.8322
 241   2.0000      -0.434326       -11.8186
 242   2.0000      -0.431811       -11.7502
 243   2.0000      -0.424546       -11.5525
 244   2.0000      -0.421436       -11.4678
 245   2.0000      -0.419743       -11.4218
 246   2.0000      -0.415220       -11.2987
 247   2.0000      -0.406656       -11.0657
 248   2.0000      -0.403692       -10.9850
 249   2.0000      -0.396461       -10.7883
 250   2.0000      -0.395133       -10.7521
 251   2.0000      -0.392164       -10.6713
 252   2.0000      -0.391702       -10.6587
 253   2.0000      -0.389257       -10.5922
 254   2.0000      -0.384742       -10.4694
 255   2.0000      -0.379591       -10.3292
 256   2.0000      -0.373631       -10.1670
 257   2.0000      -0.370320       -10.0769
 258   2.0000      -0.366240        -9.9659
 259   2.0000      -0.364301        -9.9131
 260   2.0000      -0.357178        -9.7193
 261   2.0000      -0.353475        -9.6186
 262   2.0000      -0.352404        -9.5894
 263   2.0000      -0.343193        -9.3388
 264   2.0000      -0.333891        -9.0856
 265   2.0000      -0.331181        -9.0119
 266   2.0000      -0.322786        -8.7834
 267   2.0000      -0.319621        -8.6973
 268   2.0000      -0.318399        -8.6641
 269   2.0000      -0.306832        -8.3493
 270   2.0000      -0.305616        -8.3162
 271   2.0000      -0.291997        -7.9457
 272   2.0000      -0.275463        -7.4957
 273   2.0000      -0.260337        -7.0841
 274   0.0000      -0.098966        -2.6930
 275   0.0000      -0.098953        -2.6926
 276   0.0000      -0.078668        -2.1407
 277   0.0000      -0.069874        -1.9014
 278   0.0000      -0.064834        -1.7642

MULLIKEN ATOMIC CHARGES
-----------------------
   0 C :   -0.107980
   1 C :    0.244140
   2 F :   -0.166854
   3 C :    0.238220
   4 F :   -0.169031
   5 C :   -0.109883
   6 C :    0.116381
   7 C :    0.112887
   8 C :   -0.082290
   9 C :    0.040002
  10 C :    0.014583
  11 C :   -0.087458
  12 C :    0.176658
  13 O :   -0.214920
  14 C :   -0.131435
  15 C :    0.339783
  16 C :   -0.346638
  17 C :   -0.195520
  18 N :    0.145065
  19 C :   -0.181477
  20 N :    0.149327
  21 C :    0.028949
  22 N :   -0.007798
  23 C :   -0.128702
  24 S :    0.181198
  25 C :    0.010638
  26 N :    0.273928
  27 O :   -0.244980
  28 O :   -0.253659
  29 C :    0.005308
  30 C :    0.132740
  31 C :   -0.037885
  32 C :    0.007768
  33 C :   -0.179071
  34 C :    0.165811
  35 C :   -0.316704
  36 C :    0.252791
  37 C :   -0.298688
  38 C :   -0.144916
  39 C :    0.293196
  40 C :    0.111563
  41 C :   -0.209755
  42 C :    0.229001
  43 C :   -0.016323
  44 C :    0.081915
  45 N :   -0.014498
  46 C :   -0.117359
  47 S :    0.155729
  48 C :   -0.014206
  49 N :    0.274893
  50 O :   -0.253899
  51 O :   -0.276479
  52 C :    0.024952
  53 C :    0.051903
  54 C :   -0.010191
  55 C :   -0.017560
  56 C :   -0.005791
  57 C :   -0.118560
  58 C :    0.148541
  59 O :   -0.129451
  60 C :    0.006168
  61 C :   -0.097005
  62 C :    0.136488
  63 C :    0.086935
  64 C :   -0.081874
  65 C :    0.245851
  66 C :    0.243843
  67 C :   -0.109644
  68 F :   -0.169724
  69 F :   -0.164570
  70 C :   -0.068597
  71 C :    0.027971
  72 C :    0.281505
  73 C :   -0.315302
  74 C :   -0.202846
  75 N :    0.174285
  76 C :   -0.198535
  77 N :    0.176134
  78 H :    0.010805
  79 H :   -0.001892
  80 H :   -0.004480
  81 H :   -0.018197
  82 H :    0.046445
  83 H :    0.181216
  84 H :    0.012759
  85 H :   -0.000634
  86 H :    0.002713
  87 H :    0.017768
  88 H :    0.030126
  89 H :    0.019785
  90 H :    0.014364
  91 H :    0.026528
  92 H :   -0.027040
  93 H :    0.030505
  94 H :    0.023756
  95 H :   -0.029056
  96 H :    0.021260
  97 H :    0.135333
  98 H :    0.014522
  99 H :    0.028656
 100 H :    0.037597
 101 H :    0.035441
 102 H :   -0.011033
 103 H :    0.013092
 104 H :   -0.004544
 105 H :    0.005217
Sum of atomic charges:   -0.0000000

LOEWDIN ATOMIC CHARGES
----------------------
   0 C :   -0.026790
   1 C :    0.067811
   2 F :   -0.045166
   3 C :    0.068287
   4 F :   -0.047536
   5 C :   -0.037178
   6 C :   -0.010701
   7 C :   -0.005834
   8 C :    0.020490
   9 C :   -0.019236
  10 C :   -0.050328
  11 C :    0.026573
  12 C :    0.094898
  13 O :   -0.171905
  14 C :   -0.148486
  15 C :    0.078039
  16 C :   -0.148189
  17 C :   -0.021261
  18 N :   -0.051215
  19 C :   -0.019396
  20 N :   -0.053153
  21 C :    0.113538
  22 N :    0.086070
  23 C :   -0.118842
  24 S :    0.475514
  25 C :   -0.200301
  26 N :    0.272868
  27 O :   -0.210361
  28 O :   -0.220401
  29 C :   -0.000068
  30 C :   -0.077776
  31 C :   -0.046847
  32 C :   -0.001642
  33 C :   -0.069203
  34 C :    0.021001
  35 C :   -0.039310
  36 C :   -0.010561
  37 C :   -0.037079
  38 C :   -0.042384
  39 C :   -0.008565
  40 C :   -0.029980
  41 C :   -0.032759
  42 C :   -0.025237
  43 C :   -0.064120
  44 C :    0.031515
  45 N :    0.047842
  46 C :   -0.096482
  47 S :    0.464422
  48 C :   -0.224632
  49 N :    0.275714
  50 O :   -0.224012
  51 O :   -0.245045
  52 C :    0.005616
  53 C :   -0.123711
  54 C :   -0.001168
  55 C :   -0.029391
  56 C :    0.044118
  57 C :   -0.063524
  58 C :    0.084063
  59 O :   -0.132968
  60 C :   -0.062976
  61 C :    0.027783
  62 C :   -0.005921
  63 C :   -0.007417
  64 C :   -0.018735
  65 C :    0.072711
  66 C :    0.073442
  67 C :   -0.036174
  68 F :   -0.046675
  69 F :   -0.041703
  70 C :    0.018095
  71 C :   -0.027445
  72 C :    0.070381
  73 C :   -0.128309
  74 C :   -0.016351
  75 N :   -0.046698
  76 C :   -0.023901
  77 N :   -0.037030
  78 H :    0.049210
  79 H :    0.042902
  80 H :    0.041424
  81 H :    0.037753
  82 H :    0.036854
  83 H :    0.090530
  84 H :    0.047693
  85 H :    0.032993
  86 H :    0.026845
  87 H :    0.039104
  88 H :    0.030674
  89 H :    0.036350
  90 H :    0.034149
  91 H :    0.039623
  92 H :    0.013181
  93 H :    0.049442
  94 H :    0.046933
  95 H :    0.025210
  96 H :    0.023594
  97 H :    0.094961
  98 H :    0.048260
  99 H :    0.042048
 100 H :    0.045450
 101 H :    0.043022
 102 H :    0.039273
 103 H :    0.050244
 104 H :    0.043095
 105 H :    0.040474

  Mayer bond orders larger than 0.100000
B(  0-C ,  1-C ) :   1.4350 B(  0-C ,  5-C ) :   0.1071 B(  0-C ,  7-C ) :   1.1949
B(  0-C , 78-H ) :   1.0068 B(  1-C ,  2-F ) :   1.1393 B(  1-C ,  3-C ) :   1.1924
B(  3-C ,  4-F ) :   1.1377 B(  3-C ,  5-C ) :   1.4453 B(  5-C ,  6-C ) :   1.1878
B(  5-C , 79-H ) :   1.0014 B(  6-C ,  7-C ) :   1.2578 B(  6-C , 11-C ) :   1.1910
B(  7-C ,  8-C ) :   1.2069 B(  8-C ,  9-C ) :   1.4667 B(  8-C , 80-H ) :   0.9894
B(  9-C , 10-C ) :   1.2185 B(  9-C , 15-C ) :   0.9826 B( 10-C , 11-C ) :   1.4715
B( 10-C , 12-C ) :   0.9658 B( 11-C , 81-H ) :   1.0143 B( 12-C , 13-O ) :   1.9976
B( 12-C , 14-C ) :   1.0234 B( 13-O , 83-H ) :   0.1290 B( 14-C , 15-C ) :   1.1078
B( 14-C , 21-C ) :   1.4249 B( 15-C , 16-C ) :   1.6274 B( 16-C , 17-C ) :   1.1455
B( 16-C , 19-C ) :   1.1469 B( 17-C , 18-N ) :   2.9539 B( 19-C , 20-N ) :   2.9604
B( 21-C , 22-N ) :   1.3621 B( 21-C , 82-H ) :   0.9283 B( 22-N , 23-C ) :   1.1611
B( 22-N , 83-H ) :   0.8301 B( 23-C , 24-S ) :   1.1378 B( 23-C , 30-C ) :   1.4099
B( 24-S , 25-C ) :   1.0927 B( 25-C , 26-N ) :   0.9591 B( 25-C , 29-C ) :   1.4934
B( 26-N , 27-O ) :   1.5412 B( 26-N , 28-O ) :   1.5201 B( 27-O , 28-O ) :   0.2642
B( 29-C , 30-C ) :   1.2161 B( 29-C , 84-H ) :   1.0082 B( 30-C , 31-C ) :   1.0484
B( 31-C , 32-C ) :   1.7377 B( 31-C , 85-H ) :   0.9676 B( 32-C , 33-C ) :   1.1183
B( 32-C , 86-H ) :   0.9714 B( 33-C , 34-C ) :   1.6856 B( 33-C , 87-H ) :   0.9551
B( 34-C , 35-C ) :   1.7725 B( 35-C , 36-C ) :   1.0150 B( 35-C , 39-C ) :   1.0074
B( 36-C , 37-C ) :   1.0152 B( 36-C , 88-H ) :   0.8915 B( 36-C , 89-H ) :   0.8884
B( 37-C , 38-C ) :   1.8734 B( 37-C , 42-C ) :   1.0597 B( 38-C , 39-C ) :   1.0143
B( 38-C , 40-C ) :   1.0403 B( 39-C , 90-H ) :   0.8996 B( 39-C , 91-H ) :   0.8874
B( 40-C , 41-C ) :   1.7074 B( 40-C , 43-C ) :   1.0858 B( 41-C , 42-C ) :   1.0145
B( 41-C , 92-H ) :   0.9857 B( 42-C , 93-H ) :   0.8768 B( 42-C , 94-H ) :   0.8738
B( 43-C , 44-C ) :   1.7274 B( 43-C , 95-H ) :   0.9620 B( 44-C , 45-N ) :   1.0816
B( 44-C , 96-H ) :   0.9612 B( 45-N , 46-C ) :   1.2710 B( 45-N , 97-H ) :   0.8999
B( 46-C , 47-S ) :   1.1451 B( 46-C , 53-C ) :   1.3563 B( 47-S , 48-C ) :   1.0654
B( 48-C , 49-N ) :   0.9993 B( 48-C , 52-C ) :   1.4471 B( 49-N , 50-O ) :   1.5179
B( 49-N , 51-O ) :   1.4783 B( 50-O , 51-O ) :   0.2359 B( 52-C , 53-C ) :   1.2664
B( 52-C , 98-H ) :   1.0088 B( 53-C , 54-C ) :   0.9926 B( 54-C , 55-C ) :   1.8621
B( 54-C , 99-H ) :   0.9726 B( 55-C , 56-C ) :   1.0216 B( 55-C ,100-H ) :   0.9506
B( 56-C , 57-C ) :   1.8129 B( 56-C ,101-H ) :   0.9329 B( 57-C , 58-C ) :   0.9125
B( 57-C , 72-C ) :   0.9951 B( 58-C , 59-O ) :   2.2883 B( 58-C , 60-C ) :   0.9174
B( 60-C , 61-C ) :   1.4536 B( 60-C , 71-C ) :   1.2164 B( 61-C , 62-C ) :   1.2020
B( 61-C ,102-H ) :   1.0150 B( 62-C , 63-C ) :   1.2496 B( 62-C , 67-C ) :   1.1925
B( 63-C , 64-C ) :   1.1849 B( 63-C , 70-C ) :   1.2270 B( 64-C , 65-C ) :   1.4419
B( 64-C , 67-C ) :   0.1072 B( 64-C ,103-H ) :   1.0066 B( 65-C , 66-C ) :   1.1888
B( 65-C , 69-F ) :   1.1421 B( 66-C , 67-C ) :   1.4444 B( 66-C , 68-F ) :   1.1349
B( 67-C ,104-H ) :   1.0058 B( 70-C , 71-C ) :   1.4378 B( 70-C ,105-H ) :   0.9972
B( 71-C , 72-C ) :   1.0139 B( 72-C , 73-C ) :   1.7048 B( 73-C , 74-C ) :   1.1501
B( 73-C , 76-C ) :   1.1288 B( 74-C , 75-N ) :   3.0109 B( 76-C , 77-N ) :   2.9937

-----------------------------------------------------------------------------
         ABSORPTION SPECTRUM VIA TRANSITION ELECTRIC DIPOLE MOMENTS
-----------------------------------------------------------------------------
State   Energy  Wavelength   fosc         T2         TX        TY        TZ
        (cm-1)    (nm)                  (au**2)     (au)      (au)      (au)
-----------------------------------------------------------------------------
   0   16653.9    600.5   0.003677943   0.07270  -0.10026  -0.21184  -0.13333
   1   21227.7    471.1   0.597731769   9.26997   2.30395  -0.58377   1.90289
   2   23387.0    427.6   0.066607467   0.93761  -0.22822   0.79265   0.50718
   3   23429.9    426.8   0.001768175   0.02484  -0.06418  -0.05270  -0.13397
   4   25250.3    396.0   0.068397216   0.89176   0.28809   0.85493  -0.27901
   5   25607.5    390.5   0.377387592   4.85172   1.34689  -1.68407  -0.44892
   6   26072.3    383.5   0.066649437   0.84157  -0.36317   0.82513  -0.16985
   7   26108.5    383.0   0.058313539   0.73530  -0.44036   0.73471  -0.03980
   8   27121.5    368.7   0.051537717   0.62559  -0.48950   0.00970  -0.62120
   9   28250.4    354.0   0.077453301   0.90259   0.05783   0.04234   0.94734
  10   28653.0    349.0   0.087089803   1.00063   0.64575  -0.61689   0.45066
  11   29640.2    337.4   0.032769428   0.36397   0.24921  -0.39577   0.38110
  12   30008.4    333.2   0.081996388   0.89956   0.03975  -0.81582   0.48209
  13   30345.9    329.5   0.008677128   0.09414  -0.05872   0.24792  -0.17094
  14   30513.5    327.7   0.013940720   0.15041  -0.01218   0.37466  -0.09945
  15   30649.4    326.3   0.049240259   0.52890  -0.07769   0.67478  -0.25988
  16   31077.6    321.8   0.444634594   4.71012  -0.82635   1.54243  -1.28382
  17   31230.9    320.2   0.120002574   1.26497  -0.22799   1.06942  -0.26332
  18   31457.0    317.9   0.017666322   0.18489   0.33503   0.19400   0.18711
  19   32316.1    309.4   0.042529443   0.43326   0.16538   0.58249   0.25810
  20   32907.8    303.9   0.032437140   0.32450   0.15256  -0.51184   0.19812
  21   32933.0    303.6   0.052202416   0.52184  -0.41037  -0.06405   0.59104
  22   33193.5    301.3   0.153437324   1.52179  -0.25626  -1.19092   0.19448
  23   33308.8    300.2   0.521362610   5.15296  -0.52943   0.66454  -2.10501
  24   33648.6    297.2   0.037190290   0.36386  -0.19790   0.49903   0.27508
  25   33727.5    296.5   0.050301802   0.49099   0.42067  -0.07646  -0.55514
  26   33760.5    296.2   0.006326316   0.06169  -0.01424  -0.18717   0.16265
  27   34138.1    292.9   0.004447863   0.04289   0.14392   0.12803   0.07608
  28   34195.1    292.4   0.029692934   0.28587  -0.17816   0.21568   0.45564
  29   34612.4    288.9   0.114059791   1.08487  -0.34775   0.78536  -0.58920
  30   34799.0    287.4   0.353270586   3.34207  -0.28157  -1.48921   1.02227
  31   35199.3    284.1   0.093098259   0.87073   0.26773  -0.79065   0.41704
  32   35485.7    281.8   0.064131072   0.59496  -0.12860   0.62158   0.43825
  33   35556.6    281.2   0.006267513   0.05803   0.15336   0.07035  -0.17193
  34   35934.7    278.3   0.008659367   0.07933   0.00463   0.12110  -0.25426
  35   36208.1    276.2   0.236499113   2.15030   0.09497   0.65350   1.30928
  36   36246.8    275.9   0.144701759   1.31425  -0.05122  -0.66530  -0.93220
  37   36507.4    273.9   0.946214687   8.53265  -0.39837  -2.74367   0.91990
  38   36744.2    272.2   0.004686375   0.04199  -0.01299  -0.19550   0.05999
  39   37249.6    268.5   0.234779191   2.07498   0.63960  -0.14063  -1.28301
  40   37455.3    267.0   0.000833368   0.00732  -0.04818   0.06852   0.01754
  41   37736.8    265.0   0.046645009   0.40693  -0.17064   0.54352  -0.28705
  42   37764.1    264.8   0.056847445   0.49557  -0.04793  -0.53608   0.45376
  43   37828.7    264.3   0.099707351   0.86772   0.09210  -0.80127   0.46606
  44   37880.5    264.0   0.005940803   0.05163  -0.22079  -0.02230  -0.04886
  45   38119.2    262.3   0.220122543   1.90106   1.14505  -0.41214   0.64813
  46   38364.5    260.7   0.211748753   1.81705  -0.76073   1.11267  -0.01780
  47   39011.4    256.3   0.077184925   0.65135  -0.09347   0.78213  -0.17575
  48   39216.0    255.0   0.001851651   0.01554   0.02075   0.12272   0.00727
  49   39825.1    251.1   0.000218470   0.00181   0.00828   0.02817  -0.03072
  50   39882.7    250.7   0.004243912   0.03503   0.10079  -0.14388  -0.06459
  51   40221.3    248.6   0.013667170   0.11187  -0.00437   0.26669   0.20180

FINAL SINGLE POINT ENERGY     -4307.190036291568

DIPOLE MOMENT
-------------
                                X             Y             Z
Electronic contribution:    -31.27145      18.03477     -23.46998
Nuclear contribution   :     33.43552     -17.66790      22.16708
                        -----------------------------------------
Total Dipole Moment    :      2.16407       0.36687      -1.30289
                        -----------------------------------------
Magnitude (a.u.)       :      2.55251
Magnitude (Debye)      :      6.48797

Rotational constants in cm-1:     0.001161     0.000321     0.000277
Rotational constants in MHz :    34.806154     9.617639     8.289537

                             ****ORCA TERMINATED NORMALLY****
TOTAL RUN TIME: 0 days 0 hours 24 minutes 9 seconds 20 msec
