                         Program Version 4.2.0 -  RELEASE  -
|  1> # ORCA input file
|  2> # SCF done       -179.152397792294          0.000752507242
|  3> ! CAM-B3LYP def2-SVP def2/J RIJCOSX Grid4 TightSCF
|  4> %maxcore 5000
|  5> %tddft
|  6>     Mode sTDDFT
|  7>     Ethresh 5.0
|  8>     maxcore 5000
|  9> end
| 10>
| 11> %pal
| 12>   nprocs 6
| 13>   end
| 14> * xyz 0 1
| 15>    C        1.78508        -1.51857        -7.58224
| 16>    C        2.36424        -0.34889        -7.17676
| 17>    F        2.96377         0.45080        -8.06899
| 18>    C        2.33868         0.03119        -5.82029
| 19>    F        2.91366         1.18421        -5.44998
| 20>    C        1.73516        -0.76464        -4.88726
| 21>    C        1.13129        -1.97682        -5.27330
| 22>    C        1.15374        -2.36126        -6.64537
| 23>    C        0.55157        -3.57229        -7.05661
| 24>    C       -0.05485        -4.37370        -6.12474
| 25>    C       -0.06452        -3.98628        -4.75564
| 26>    C        0.50954        -2.82359        -4.32890
| 27>    C       -0.73487        -5.02611        -3.95161
| 28>    O       -0.82191        -5.05349        -2.74292
| 29>    C       -1.15015        -6.07426        -4.92317
| 30>    C       -0.75193        -5.64864        -6.25308
| 31>    C       -1.05648        -6.28022        -7.42925
| 32>    C       -0.67287        -5.80563        -8.70118
| 33>    N       -0.38430        -5.46767        -9.75958
| 34>    C       -1.82449        -7.45975        -7.53687
| 35>    N       -2.46154        -8.39839        -7.71112
| 36>    C       -1.65158        -7.28520        -4.56756
| 37>    C       -2.16979        -7.57845        -3.26025
| 38>    N       -1.90796        -8.76249        -2.73535
| 39>    N       -2.28975        -9.10127        -1.54519
| 40>    C       -2.98054        -8.29486        -0.75320
| 41>    C       -3.38980        -7.01912        -1.21737
| 42>    C       -2.98402        -6.65263        -2.53789
| 43>    N       -3.50080        -5.48837        -2.90788
| 44>    S       -4.36809        -4.89314        -1.68976
| 45>    N       -4.15948        -6.10470        -0.63692
| 46>    N       -3.29447        -8.73350         0.49064
| 47>    C       -2.93975        -9.95631         0.96305
| 48>    S       -2.05510       -11.04451        -0.03871
| 49>    C       -2.08796       -12.19758         1.27516
| 50>    N       -1.46105       -13.43889         1.09309
| 51>    O       -1.50300       -14.23682         2.01218
| 52>    O       -0.91686       -13.63101         0.02162
| 53>    C       -2.73789       -11.76142         2.39392
| 54>    C       -3.24816       -10.45192         2.24349
| 55>    C       -3.96546        -9.71047         3.22499
| 56>    C       -4.45490       -10.22228         4.39134
| 57>    C       -5.17889        -9.51335         5.36768
| 58>    C       -5.21199        -8.15071         5.57817
| 59>    C       -4.36727        -7.11971         5.10767
| 60>    C       -4.68153        -5.87648         5.57767
| 61>    C       -5.79780        -5.84960         6.43551
| 62>    S       -6.41699        -7.46837         6.66301
| 63>    C       -6.37425        -4.74635         7.04676
| 64>    C       -5.94864        -3.40330         6.98400
| 65>    C       -6.73338        -2.54521         7.69554
| 66>    C       -7.83187        -3.15505         8.34780
| 67>    S       -7.80752        -4.88328         8.03283
| 68>    C       -8.77946        -2.49475         9.09116
| 69>    C       -9.92658        -3.01410         9.72015
| 70>    C      -10.85684        -2.17850        10.43564
| 71>    C      -11.89108        -2.95713        10.90751
| 72>    C      -13.04915        -2.62922        11.64856
| 73>    C      -13.91409        -3.64283        11.95470
| 74>    C      -15.15535        -3.65629        12.66461
| 75>    C      -15.64530        -4.94904        12.68521
| 76>    C      -14.71714        -5.78637        11.98805
| 77>    C      -13.65806        -5.01218        11.53709
| 78>    C      -12.50531        -5.34389        10.80860
| 79>    C      -11.62954        -4.32675        10.49550
| 80>    C      -10.41242        -4.32496         9.77266
| 81>    C      -16.88206        -5.35754        13.30654
| 82>    C      -17.37622        -6.59270        13.30782
| 83>    H        1.81259        -1.79421        -8.62482
| 84>    H        1.72594        -0.45990        -3.85252
| 85>    H        0.59145        -3.83887        -8.10030
| 86>    H        0.48945        -2.55364        -3.28394
| 87>    H       -1.64448        -8.11362        -5.26253
| 88>    H       -3.83302        -8.10637         1.07525
| 89>    H       -2.82621       -12.35707         3.28370
| 90>    H       -4.18308        -8.67747         2.99354
| 91>    H       -4.36021       -11.28559         4.56192
| 92>    H       -5.78978       -10.10907         6.03319
| 93>    H       -3.51061        -7.31981         4.49052
| 94>    H       -4.13413        -4.98532         5.32740
| 95>    H       -5.07901        -3.10573         6.42668
| 96>    H       -6.56071        -1.48564         7.76772
| 97>    H       -8.63214        -1.42528         9.18689
| 98>    H      -10.74480        -1.11653        10.56427
| 99>    H      -13.23346        -1.60800        11.95118
|100>    H      -15.62283        -2.79453        13.10474
|101>    H      -14.82609        -6.84479        11.83917
|102>    H      -12.31921        -6.36343        10.50271
|103>    H       -9.95707        -5.19543         9.34139
|104>    H      -17.42693        -4.56271        13.80063
|105>    H      -16.87338        -7.41455        12.82753
|106>    H      -18.30892        -6.82447        13.79186
|107> *
|108>
|109>                          ****END OF INPUT****

CARTESIAN COORDINATES (ANGSTROEM)
---------------------------------
  C      1.785080   -1.518570   -7.582240
  C      2.364240   -0.348890   -7.176760
  F      2.963770    0.450800   -8.068990
  C      2.338680    0.031190   -5.820290
  F      2.913660    1.184210   -5.449980
  C      1.735160   -0.764640   -4.887260
  C      1.131290   -1.976820   -5.273300
  C      1.153740   -2.361260   -6.645370
  C      0.551570   -3.572290   -7.056610
  C     -0.054850   -4.373700   -6.124740
  C     -0.064520   -3.986280   -4.755640
  C      0.509540   -2.823590   -4.328900
  C     -0.734870   -5.026110   -3.951610
  O     -0.821910   -5.053490   -2.742920
  C     -1.150150   -6.074260   -4.923170
  C     -0.751930   -5.648640   -6.253080
  C     -1.056480   -6.280220   -7.429250
  C     -0.672870   -5.805630   -8.701180
  N     -0.384300   -5.467670   -9.759580
  C     -1.824490   -7.459750   -7.536870
  N     -2.461540   -8.398390   -7.711120
  C     -1.651580   -7.285200   -4.567560
  C     -2.169790   -7.578450   -3.260250
  N     -1.907960   -8.762490   -2.735350
  N     -2.289750   -9.101270   -1.545190
  C     -2.980540   -8.294860   -0.753200
  C     -3.389800   -7.019120   -1.217370
  C     -2.984020   -6.652630   -2.537890
  N     -3.500800   -5.488370   -2.907880
  S     -4.368090   -4.893140   -1.689760
  N     -4.159480   -6.104700   -0.636920
  N     -3.294470   -8.733500    0.490640
  C     -2.939750   -9.956310    0.963050
  S     -2.055100  -11.044510   -0.038710
  C     -2.087960  -12.197580    1.275160
  N     -1.461050  -13.438890    1.093090
  O     -1.503000  -14.236820    2.012180
  O     -0.916860  -13.631010    0.021620
  C     -2.737890  -11.761420    2.393920
  C     -3.248160  -10.451920    2.243490
  C     -3.965460   -9.710470    3.224990
  C     -4.454900  -10.222280    4.391340
  C     -5.178890   -9.513350    5.367680
  C     -5.211990   -8.150710    5.578170
  C     -4.367270   -7.119710    5.107670
  C     -4.681530   -5.876480    5.577670
  C     -5.797800   -5.849600    6.435510
  S     -6.416990   -7.468370    6.663010
  C     -6.374250   -4.746350    7.046760
  C     -5.948640   -3.403300    6.984000
  C     -6.733380   -2.545210    7.695540
  C     -7.831870   -3.155050    8.347800
  S     -7.807520   -4.883280    8.032830
  C     -8.779460   -2.494750    9.091160
  C     -9.926580   -3.014100    9.720150
  C    -10.856840   -2.178500   10.435640
  C    -11.891080   -2.957130   10.907510
  C    -13.049150   -2.629220   11.648560
  C    -13.914090   -3.642830   11.954700
  C    -15.155350   -3.656290   12.664610
  C    -15.645300   -4.949040   12.685210
  C    -14.717140   -5.786370   11.988050
  C    -13.658060   -5.012180   11.537090
  C    -12.505310   -5.343890   10.808600
  C    -11.629540   -4.326750   10.495500
  C    -10.412420   -4.324960    9.772660
  C    -16.882060   -5.357540   13.306540
  C    -17.376220   -6.592700   13.307820
  H      1.812590   -1.794210   -8.624820
  H      1.725940   -0.459900   -3.852520
  H      0.591450   -3.838870   -8.100300
  H      0.489450   -2.553640   -3.283940
  H     -1.644480   -8.113620   -5.262530
  H     -3.833020   -8.106370    1.075250
  H     -2.826210  -12.357070    3.283700
  H     -4.183080   -8.677470    2.993540
  H     -4.360210  -11.285590    4.561920
  H     -5.789780  -10.109070    6.033190
  H     -3.510610   -7.319810    4.490520
  H     -4.134130   -4.985320    5.327400
  H     -5.079010   -3.105730    6.426680
  H     -6.560710   -1.485640    7.767720
  H     -8.632140   -1.425280    9.186890
  H    -10.744800   -1.116530   10.564270
  H    -13.233460   -1.608000   11.951180
  H    -15.622830   -2.794530   13.104740
  H    -14.826090   -6.844790   11.839170
  H    -12.319210   -6.363430   10.502710
  H     -9.957070   -5.195430    9.341390
  H    -17.426930   -4.562710   13.800630
  H    -16.873380   -7.414550   12.827530
  H    -18.308920   -6.824470   13.791860

 Total Charge           Charge          ....    0
 Multiplicity           Mult            ....    1
 Number of Electrons    NEL             ....  492
 Basis Dimension        Dim             .... 1088

ORBITAL ENERGIES
----------------

  NO   OCC          E(Eh)            E(eV)
   0   2.0000     -89.054653     -2423.3003
   1   2.0000     -88.971476     -2421.0370
   2   2.0000     -88.947796     -2420.3926
   3   2.0000     -88.943139     -2420.2658
   4   2.0000     -24.804591      -674.9672
   5   2.0000     -24.803498      -674.9375
   6   2.0000     -19.228953      -523.2464
   7   2.0000     -19.222798      -523.0789
   8   2.0000     -19.221775      -523.0511
   9   2.0000     -14.633102      -398.1869
  10   2.0000     -14.501756      -394.6128
  11   2.0000     -14.475979      -393.9114
  12   2.0000     -14.467693      -393.6859
  13   2.0000     -14.467004      -393.6672
  14   2.0000     -14.457433      -393.4068
  15   2.0000     -14.425023      -392.5248
  16   2.0000     -14.423312      -392.4783
  17   2.0000     -10.394173      -282.8398
  18   2.0000     -10.388614      -282.6886
  19   2.0000     -10.387772      -282.6656
  20   2.0000     -10.380163      -282.4586
  21   2.0000     -10.357874      -281.8521
  22   2.0000     -10.357648      -281.8459
  23   2.0000     -10.354632      -281.7638
  24   2.0000     -10.353977      -281.7460
  25   2.0000     -10.350573      -281.6534
  26   2.0000     -10.341723      -281.4126
  27   2.0000     -10.327395      -281.0227
  28   2.0000     -10.326894      -281.0091
  29   2.0000     -10.324799      -280.9521
  30   2.0000     -10.319591      -280.8104
  31   2.0000     -10.318362      -280.7769
  32   2.0000     -10.318047      -280.7683
  33   2.0000     -10.315927      -280.7106
  34   2.0000     -10.314014      -280.6586
  35   2.0000     -10.313292      -280.6389
  36   2.0000     -10.311002      -280.5766
  37   2.0000     -10.310334      -280.5585
  38   2.0000     -10.309605      -280.5386
  39   2.0000     -10.309067      -280.5240
  40   2.0000     -10.308265      -280.5021
  41   2.0000     -10.307122      -280.4711
  42   2.0000     -10.304188      -280.3912
  43   2.0000     -10.301957      -280.3305
  44   2.0000     -10.300788      -280.2987
  45   2.0000     -10.300415      -280.2885
  46   2.0000     -10.293466      -280.0995
  47   2.0000     -10.292252      -280.0664
  48   2.0000     -10.292138      -280.0633
  49   2.0000     -10.286905      -279.9209
  50   2.0000     -10.286619      -279.9131
  51   2.0000     -10.285657      -279.8869
  52   2.0000     -10.285376      -279.8793
  53   2.0000     -10.284786      -279.8632
  54   2.0000     -10.284742      -279.8621
  55   2.0000     -10.283571      -279.8302
  56   2.0000     -10.281664      -279.7783
  57   2.0000     -10.277007      -279.6516
  58   2.0000     -10.274998      -279.5969
  59   2.0000     -10.272976      -279.5419
  60   2.0000     -10.272586      -279.5313
  61   2.0000     -10.270525      -279.4752
  62   2.0000     -10.270168      -279.4655
  63   2.0000     -10.267756      -279.3998
  64   2.0000     -10.267210      -279.3850
  65   2.0000     -10.266876      -279.3759
  66   2.0000     -10.266513      -279.3660
  67   2.0000     -10.259480      -279.1746
  68   2.0000      -8.146141      -221.6678
  69   2.0000      -8.064032      -219.4335
  70   2.0000      -8.043624      -218.8781
  71   2.0000      -8.039749      -218.7727
  72   2.0000      -6.117351      -166.4616
  73   2.0000      -6.109568      -166.2498
  74   2.0000      -6.108561      -166.2224
  75   2.0000      -6.033889      -164.1905
  76   2.0000      -6.029090      -164.0599
  77   2.0000      -6.025683      -163.9672
  78   2.0000      -6.013335      -163.6312
  79   2.0000      -6.009502      -163.5269
  80   2.0000      -6.009273      -163.5206
  81   2.0000      -6.005470      -163.4171
  82   2.0000      -6.004686      -163.3958
  83   2.0000      -6.000579      -163.2840
  84   2.0000      -1.326715       -36.1018
  85   2.0000      -1.311850       -35.6973
  86   2.0000      -1.303584       -35.4723
  87   2.0000      -1.165676       -31.7197
  88   2.0000      -1.145199       -31.1624
  89   2.0000      -1.142015       -31.0758
  90   2.0000      -1.122033       -30.5321
  91   2.0000      -1.100706       -29.9517
  92   2.0000      -1.028473       -27.9862
  93   2.0000      -1.012219       -27.5439
  94   2.0000      -1.010857       -27.5068
  95   2.0000      -1.002145       -27.2697
  96   2.0000      -0.996129       -27.1061
  97   2.0000      -0.990478       -26.9523
  98   2.0000      -0.990026       -26.9400
  99   2.0000      -0.988076       -26.8869
 100   2.0000      -0.974111       -26.5069
 101   2.0000      -0.961387       -26.1607
 102   2.0000      -0.956154       -26.0183
 103   2.0000      -0.936864       -25.4934
 104   2.0000      -0.930382       -25.3170
 105   2.0000      -0.914972       -24.8977
 106   2.0000      -0.907729       -24.7006
 107   2.0000      -0.901815       -24.5396
 108   2.0000      -0.899445       -24.4752
 109   2.0000      -0.885551       -24.0971
 110   2.0000      -0.874965       -23.8090
 111   2.0000      -0.872365       -23.7383
 112   2.0000      -0.865065       -23.5396
 113   2.0000      -0.861150       -23.4331
 114   2.0000      -0.850065       -23.1314
 115   2.0000      -0.848307       -23.0836
 116   2.0000      -0.842666       -22.9301
 117   2.0000      -0.830209       -22.5911
 118   2.0000      -0.824714       -22.4416
 119   2.0000      -0.818452       -22.2712
 120   2.0000      -0.801484       -21.8095
 121   2.0000      -0.799185       -21.7469
 122   2.0000      -0.790367       -21.5070
 123   2.0000      -0.780359       -21.2347
 124   2.0000      -0.776033       -21.1169
 125   2.0000      -0.767736       -20.8912
 126   2.0000      -0.758162       -20.6306
 127   2.0000      -0.751006       -20.4359
 128   2.0000      -0.743303       -20.2263
 129   2.0000      -0.735479       -20.0134
 130   2.0000      -0.726777       -19.7766
 131   2.0000      -0.724160       -19.7054
 132   2.0000      -0.710404       -19.3311
 133   2.0000      -0.705691       -19.2028
 134   2.0000      -0.698972       -19.0200
 135   2.0000      -0.689743       -18.7689
 136   2.0000      -0.678803       -18.4712
 137   2.0000      -0.669885       -18.2285
 138   2.0000      -0.668742       -18.1974
 139   2.0000      -0.667657       -18.1679
 140   2.0000      -0.661080       -17.9889
 141   2.0000      -0.651591       -17.7307
 142   2.0000      -0.650815       -17.7096
 143   2.0000      -0.646594       -17.5947
 144   2.0000      -0.644498       -17.5377
 145   2.0000      -0.634778       -17.2732
 146   2.0000      -0.629949       -17.1418
 147   2.0000      -0.628181       -17.0937
 148   2.0000      -0.625731       -17.0270
 149   2.0000      -0.622691       -16.9443
 150   2.0000      -0.618073       -16.8186
 151   2.0000      -0.614866       -16.7314
 152   2.0000      -0.613194       -16.6859
 153   2.0000      -0.611169       -16.6307
 154   2.0000      -0.601742       -16.3742
 155   2.0000      -0.599854       -16.3229
 156   2.0000      -0.595761       -16.2115
 157   2.0000      -0.591500       -16.0955
 158   2.0000      -0.590070       -16.0566
 159   2.0000      -0.588220       -16.0063
 160   2.0000      -0.581656       -15.8277
 161   2.0000      -0.579504       -15.7691
 162   2.0000      -0.575391       -15.6572
 163   2.0000      -0.573922       -15.6172
 164   2.0000      -0.563360       -15.3298
 165   2.0000      -0.561752       -15.2861
 166   2.0000      -0.554717       -15.0946
 167   2.0000      -0.553338       -15.0571
 168   2.0000      -0.552875       -15.0445
 169   2.0000      -0.548418       -14.9232
 170   2.0000      -0.545876       -14.8541
 171   2.0000      -0.545090       -14.8326
 172   2.0000      -0.538877       -14.6636
 173   2.0000      -0.535805       -14.5800
 174   2.0000      -0.532594       -14.4926
 175   2.0000      -0.529379       -14.4051
 176   2.0000      -0.526756       -14.3338
 177   2.0000      -0.523457       -14.2440
 178   2.0000      -0.521428       -14.1888
 179   2.0000      -0.514314       -13.9952
 180   2.0000      -0.510465       -13.8905
 181   2.0000      -0.508718       -13.8429
 182   2.0000      -0.508600       -13.8397
 183   2.0000      -0.505075       -13.7438
 184   2.0000      -0.504183       -13.7195
 185   2.0000      -0.502135       -13.6638
 186   2.0000      -0.499376       -13.5887
 187   2.0000      -0.494419       -13.4538
 188   2.0000      -0.493303       -13.4235
 189   2.0000      -0.491389       -13.3714
 190   2.0000      -0.488231       -13.2854
 191   2.0000      -0.487113       -13.2550
 192   2.0000      -0.481542       -13.1034
 193   2.0000      -0.478757       -13.0276
 194   2.0000      -0.472938       -12.8693
 195   2.0000      -0.471260       -12.8236
 196   2.0000      -0.469807       -12.7841
 197   2.0000      -0.467814       -12.7299
 198   2.0000      -0.464906       -12.6507
 199   2.0000      -0.459534       -12.5046
 200   2.0000      -0.458219       -12.4688
 201   2.0000      -0.457547       -12.4505
 202   2.0000      -0.454043       -12.3551
 203   2.0000      -0.452103       -12.3024
 204   2.0000      -0.450692       -12.2640
 205   2.0000      -0.449542       -12.2327
 206   2.0000      -0.445623       -12.1260
 207   2.0000      -0.440625       -11.9900
 208   2.0000      -0.438204       -11.9241
 209   2.0000      -0.436792       -11.8857
 210   2.0000      -0.435117       -11.8401
 211   2.0000      -0.431498       -11.7417
 212   2.0000      -0.428458       -11.6589
 213   2.0000      -0.424414       -11.5489
 214   2.0000      -0.421958       -11.4820
 215   2.0000      -0.421258       -11.4630
 216   2.0000      -0.418226       -11.3805
 217   2.0000      -0.411562       -11.1992
 218   2.0000      -0.409129       -11.1330
 219   2.0000      -0.407534       -11.0896
 220   2.0000      -0.405005       -11.0207
 221   2.0000      -0.399030       -10.8582
 222   2.0000      -0.397723       -10.8226
 223   2.0000      -0.394501       -10.7349
 224   2.0000      -0.392099       -10.6695
 225   2.0000      -0.386560       -10.5188
 226   2.0000      -0.373664       -10.1679
 227   2.0000      -0.370334       -10.0773
 228   2.0000      -0.368172       -10.0185
 229   2.0000      -0.363352        -9.8873
 230   2.0000      -0.362693        -9.8694
 231   2.0000      -0.350870        -9.5477
 232   2.0000      -0.349134        -9.5004
 233   2.0000      -0.345916        -9.4128
 234   2.0000      -0.338627        -9.2145
 235   2.0000      -0.328208        -8.9310
 236   2.0000      -0.324786        -8.8379
 237   2.0000      -0.323816        -8.8115
 238   2.0000      -0.319834        -8.7031
 239   2.0000      -0.317291        -8.6339
 240   2.0000      -0.307150        -8.3580
 241   2.0000      -0.298138        -8.1128
 242   2.0000      -0.274952        -7.4818
 243   2.0000      -0.270000        -7.3471
 244   2.0000      -0.247646        -6.7388
 245   2.0000      -0.202705        -5.5159
 246   0.0000      -0.113058        -3.0765
 247   0.0000      -0.100173        -2.7258
 248   0.0000      -0.083095        -2.2611
 249   0.0000      -0.074665        -2.0317
 250   0.0000      -0.064720        -1.7611

MULLIKEN ATOMIC CHARGES
-----------------------
   0 C :   -0.110957
   1 C :    0.246717
   2 F :   -0.169097
   3 C :    0.241113
   4 F :   -0.171257
   5 C :   -0.107017
   6 C :    0.119656
   7 C :    0.116650
   8 C :   -0.086884
   9 C :    0.055099
  10 C :   -0.005453
  11 C :   -0.082368
  12 C :    0.164063
  13 O :   -0.153061
  14 C :   -0.070220
  15 C :    0.300192
  16 C :   -0.331053
  17 C :   -0.181818
  18 N :    0.157826
  19 C :   -0.203261
  20 N :    0.177026
  21 C :   -0.015979
  22 C :   -0.089204
  23 N :   -0.001655
  24 N :   -0.159892
  25 C :    0.016465
  26 C :    0.049760
  27 C :    0.101676
  28 N :   -0.247805
  29 S :    0.537401
  30 N :   -0.270417
  31 N :    0.010660
  32 C :   -0.127860
  33 S :    0.238606
  34 C :    0.001981
  35 N :    0.264229
  36 O :   -0.255392
  37 O :   -0.260087
  38 C :   -0.008542
  39 C :    0.144667
  40 C :   -0.058449
  41 C :    0.013677
  42 C :    0.029988
  43 C :   -0.064093
  44 C :    0.018748
  45 C :    0.016256
  46 C :   -0.054495
  47 S :    0.086763
  48 C :   -0.024015
  49 C :    0.017986
  50 C :    0.036827
  51 C :   -0.024262
  52 S :    0.061054
  53 C :   -0.012898
  54 C :    0.056636
  55 C :   -0.036810
  56 C :    0.061864
  57 C :   -0.006435
  58 C :    0.063341
  59 C :   -0.026769
  60 C :    0.061816
  61 C :   -0.020729
  62 C :    0.049745
  63 C :   -0.001865
  64 C :    0.052709
  65 C :   -0.040362
  66 C :    0.009226
  67 C :   -0.022650
  68 H :    0.009792
  69 H :   -0.000104
  70 H :   -0.003914
  71 H :   -0.011597
  72 H :    0.051177
  73 H :    0.150801
  74 H :    0.004063
  75 H :   -0.045358
  76 H :   -0.008042
  77 H :   -0.009074
  78 H :   -0.013276
  79 H :   -0.015645
  80 H :   -0.018539
  81 H :   -0.013182
  82 H :   -0.024018
  83 H :   -0.024157
  84 H :   -0.026896
  85 H :   -0.028917
  86 H :   -0.022240
  87 H :   -0.024003
  88 H :   -0.013347
  89 H :   -0.019344
  90 H :    0.008098
  91 H :    0.020410
Sum of atomic charges:   -0.0000000

LOEWDIN ATOMIC CHARGES
----------------------
   0 C :   -0.028221
   1 C :    0.068666
   2 F :   -0.047468
   3 C :    0.069629
   4 F :   -0.048839
   5 C :   -0.033045
   6 C :   -0.008067
   7 C :   -0.005295
   8 C :    0.019250
   9 C :   -0.022426
  10 C :   -0.051734
  11 C :    0.031088
  12 C :    0.088490
  13 O :   -0.142476
  14 C :   -0.071281
  15 C :    0.072566
  16 C :   -0.123665
  17 C :   -0.016286
  18 N :   -0.044592
  19 C :   -0.024699
  20 N :   -0.035671
  21 C :    0.080684
  22 C :   -0.043324
  23 N :   -0.004897
  24 N :   -0.111454
  25 C :    0.039792
  26 C :   -0.076600
  27 C :   -0.042220
  28 N :   -0.260668
  29 S :    0.672346
  30 N :   -0.278946
  31 N :    0.070623
  32 C :   -0.119135
  33 S :    0.517656
  34 C :   -0.216219
  35 N :    0.272341
  36 O :   -0.223405
  37 O :   -0.225769
  38 C :   -0.008749
  39 C :   -0.089200
  40 C :   -0.046908
  41 C :   -0.020492
  42 C :   -0.074144
  43 C :   -0.136748
  44 C :   -0.055258
  45 C :   -0.023615
  46 C :   -0.190251
  47 S :    0.371856
  48 C :   -0.171455
  49 C :   -0.048119
  50 C :   -0.025312
  51 C :   -0.156078
  52 S :    0.387640
  53 C :   -0.040355
  54 C :   -0.068471
  55 C :    0.039273
  56 C :   -0.064216
  57 C :    0.067999
  58 C :   -0.056667
  59 C :    0.012947
  60 C :   -0.057455
  61 C :    0.046387
  62 C :   -0.061002
  63 C :    0.069729
  64 C :   -0.054538
  65 C :   -0.003408
  66 C :   -0.021243
  67 C :   -0.053310
  68 H :    0.048657
  69 H :    0.045003
  70 H :    0.040626
  71 H :    0.039805
  72 H :    0.055407
  73 H :    0.103575
  74 H :    0.039690
  75 H :    0.016196
  76 H :    0.031455
  77 H :    0.029708
  78 H :    0.029269
  79 H :    0.031191
  80 H :    0.029688
  81 H :    0.032939
  82 H :    0.033592
  83 H :    0.024606
  84 H :    0.034193
  85 H :    0.023719
  86 H :    0.025478
  87 H :    0.035258
  88 H :    0.012564
  89 H :    0.029280
  90 H :    0.017959
  91 H :    0.024573

  Mayer bond orders larger than 0.100000
B(  0-C ,  1-C ) :   1.4404 B(  0-C ,  5-C ) :   0.1089 B(  0-C ,  7-C ) :   1.1862
B(  0-C , 68-H ) :   1.0079 B(  1-C ,  2-F ) :   1.1372 B(  1-C ,  3-C ) :   1.1901
B(  3-C ,  4-F ) :   1.1341 B(  3-C ,  5-C ) :   1.4424 B(  5-C ,  6-C ) :   1.1892
B(  5-C , 69-H ) :   1.0079 B(  6-C ,  7-C ) :   1.2559 B(  6-C , 11-C ) :   1.1901
B(  7-C ,  8-C ) :   1.2178 B(  8-C ,  9-C ) :   1.4429 B(  8-C , 70-H ) :   0.9910
B(  9-C , 10-C ) :   1.2215 B(  9-C , 15-C ) :   0.9916 B( 10-C , 11-C ) :   1.4674
B( 10-C , 12-C ) :   0.9507 B( 11-C , 71-H ) :   1.0175 B( 12-C , 13-O ) :   2.2125
B( 12-C , 14-C ) :   0.9327 B( 14-C , 15-C ) :   1.0494 B( 14-C , 21-C ) :   1.6781
B( 15-C , 16-C ) :   1.6680 B( 16-C , 17-C ) :   1.1433 B( 16-C , 19-C ) :   1.1390
B( 17-C , 18-N ) :   2.9662 B( 19-C , 20-N ) :   2.9957 B( 21-C , 22-C ) :   1.0876
B( 21-C , 72-H ) :   0.9452 B( 22-C , 23-N ) :   1.6901 B( 22-C , 27-C ) :   1.0797
B( 23-N , 24-N ) :   1.2649 B( 24-N , 25-C ) :   1.4971 B( 25-C , 26-C ) :   1.0858
B( 25-C , 31-N ) :   1.3210 B( 26-C , 27-C ) :   1.2393 B( 26-C , 30-N ) :   1.5427
B( 27-C , 28-N ) :   1.5436 B( 28-N , 29-S ) :   1.2772 B( 28-N , 30-N ) :   0.1401
B( 29-S , 30-N ) :   1.2653 B( 31-N , 32-C ) :   1.1625 B( 31-N , 73-H ) :   0.8877
B( 32-C , 33-S ) :   1.1648 B( 32-C , 39-C ) :   1.3352 B( 33-S , 34-C ) :   1.0376
B( 34-C , 35-N ) :   0.9673 B( 34-C , 38-C ) :   1.4969 B( 35-N , 36-O ) :   1.5350
B( 35-N , 37-O ) :   1.5229 B( 36-O , 37-O ) :   0.2600 B( 38-C , 39-C ) :   1.2187
B( 38-C , 74-H ) :   0.9989 B( 39-C , 40-C ) :   1.1073 B( 40-C , 41-C ) :   1.6608
B( 40-C , 75-H ) :   0.9570 B( 41-C , 42-C ) :   1.2174 B( 41-C , 76-H ) :   0.9632
B( 42-C , 43-C ) :   1.5493 B( 42-C , 77-H ) :   0.9465 B( 43-C , 44-C ) :   1.1673
B( 43-C , 47-S ) :   1.0480 B( 44-C , 45-C ) :   1.5753 B( 44-C , 78-H ) :   0.9859
B( 45-C , 46-C ) :   1.2117 B( 45-C , 79-H ) :   0.9935 B( 46-C , 47-S ) :   1.0464
B( 46-C , 48-C ) :   1.4749 B( 48-C , 49-C ) :   1.1990 B( 48-C , 52-S ) :   1.0527
B( 49-C , 50-C ) :   1.5738 B( 49-C , 80-H ) :   0.9936 B( 50-C , 51-C ) :   1.1527
B( 50-C , 81-H ) :   0.9991 B( 51-C , 52-S ) :   1.0280 B( 51-C , 53-C ) :   1.5605
B( 53-C , 54-C ) :   1.1446 B( 53-C , 82-H ) :   0.9686 B( 54-C , 55-C ) :   1.1184
B( 54-C , 65-C ) :   1.4374 B( 55-C , 56-C ) :   1.4451 B( 55-C , 83-H ) :   1.0159
B( 56-C , 57-C ) :   1.1156 B( 56-C , 64-C ) :   1.1278 B( 57-C , 58-C ) :   1.4726
B( 57-C , 84-H ) :   1.0057 B( 58-C , 59-C ) :   1.0831 B( 58-C , 62-C ) :   1.1220
B( 59-C , 60-C ) :   1.5064 B( 59-C , 85-H ) :   1.0173 B( 60-C , 61-C ) :   1.1479
B( 60-C , 66-C ) :   1.0832 B( 61-C , 62-C ) :   1.4290 B( 61-C , 86-H ) :   1.0082
B( 62-C , 63-C ) :   1.1429 B( 63-C , 64-C ) :   1.4242 B( 63-C , 87-H ) :   1.0046
B( 64-C , 65-C ) :   1.1420 B( 65-C , 88-H ) :   0.9961 B( 66-C , 67-C ) :   1.9352
B( 66-C , 89-H ) :   0.9666 B( 67-C , 90-H ) :   0.9525 B( 67-C , 91-H ) :   0.9491

-----------------------------------------------------------------------------
         ABSORPTION SPECTRUM VIA TRANSITION ELECTRIC DIPOLE MOMENTS
-----------------------------------------------------------------------------
State   Energy  Wavelength   fosc         T2         TX        TY        TZ
        (cm-1)    (nm)                  (au**2)     (au)      (au)      (au)
-----------------------------------------------------------------------------
   0    6689.9   1494.8   0.113971874   5.60856  -1.63325   0.51499   1.63580
   1    8973.0   1114.5   0.384799461  14.11798  -1.74095   0.02458   3.32964
   2   14087.7    709.8   1.165795504  27.24314   3.38742  -2.43669  -3.13545
   3   15052.6    664.3   0.194921225   4.26308  -1.20365   1.30621   1.05267
   4   16446.3    608.0   0.050142904   1.00373   0.75092  -0.41582  -0.51667
   5   19149.8    522.2   0.312308933   5.36903   0.38534  -1.73480   1.48695
   6   20785.9    481.1   0.001325549   0.02099  -0.02043  -0.12243   0.07475
   7   21194.4    471.8   0.005143036   0.07989  -0.23603  -0.13878   0.07014
   8   22311.2    448.2   0.095019257   1.40205  -1.06999   0.29428   0.41301
   9   23105.2    432.8   0.163554595   2.33039   0.65489   1.30225  -0.45350
  10   23541.4    424.8   0.022141202   0.30963  -0.29123  -0.45662   0.12771
  11   23605.6    423.6   0.277575686   3.87116  -0.44628  -1.30497   1.40323
  12   25551.7    391.4   0.252562553   3.25405  -1.59078  -0.80400   0.27758
  13   25935.4    385.6   0.071931460   0.91307  -0.74962   0.29371   0.51465
  14   26246.4    381.0   0.034331873   0.43063   0.48601   0.42186   0.12830
  15   26391.6    378.9   0.272679178   3.40143   0.97984   1.56248  -0.00002
  16   26675.9    374.9   0.006279859   0.07750   0.22190   0.15848   0.05608
  17   27201.0    367.6   0.018667039   0.22593  -0.36022  -0.29499  -0.09563
  18   28399.8    352.1   0.009427782   0.10929   0.04049   0.03721   0.32598
  19   28550.6    350.3   0.126972322   1.46410  -0.52168  -1.00531   0.42580
  20   28802.8    347.2   0.059098274   0.67548  -0.18838  -0.78180  -0.16967
  21   29280.9    341.5   0.000786442   0.00884   0.05418   0.01842   0.07462
  22   29385.8    340.3   0.033619557   0.37664   0.26400   0.54599  -0.09401
  23   30201.2    331.1   0.004091649   0.04460  -0.08707   0.18059   0.06638
  24   30477.7    328.1   0.045564870   0.49218  -0.16305   0.27255   0.62555
  25   30497.6    327.9   0.092570511   0.99927   0.60077   0.29358  -0.74307
  26   31107.1    321.5   0.154817617   1.63846   0.87971   0.89239  -0.26117
  27   31199.5    320.5   0.081520974   0.86020  -0.67148   0.00542   0.63975
  28   31667.7    315.8   0.020628958   0.21446  -0.27014  -0.01024   0.37600
  29   32201.9    310.5   0.291092469   2.97595  -1.16501  -1.02561   0.75289
  30   32591.8    306.8   0.000096592   0.00098   0.02817  -0.00827  -0.01068
  31   32752.1    305.3   0.056991199   0.57286  -0.55198   0.01830   0.51753
  32   32916.8    303.8   0.603233293   6.03313  -1.26322  -2.07489  -0.36366
  33   33238.7    300.9   0.175726789   1.74048  -1.09059  -0.48436   0.56258
  34   33384.3    299.5   0.033523511   0.33058  -0.24442   0.49871  -0.14879
  35   33428.5    299.1   0.033011329   0.32510  -0.49420   0.11427  -0.26042
  36   34145.7    292.9   0.145310229   1.40099  -0.05640   1.17364  -0.14276
  37   34172.2    292.6   0.050577790   0.48726   0.60074   0.18735  -0.30211
  38   34388.3    290.8   0.045405253   0.43468  -0.07869   0.35499  -0.54998
  39   34889.8    286.6   0.007369626   0.06954   0.14789  -0.13811  -0.16910
  40   35061.5    285.2   0.008122964   0.07627  -0.03454   0.23470  -0.14140
  41   35203.8    284.1   0.016930004   0.15832  -0.02706   0.01362   0.39674
  42   35366.3    282.8   0.080320960   0.74768  -0.57120  -0.60264   0.24131
  43   36114.1    276.9   0.019867317   0.18111  -0.32546  -0.07804  -0.26286
  44   36353.8    275.1   0.315000149   2.85257   1.14379   0.99261  -0.74769
  45   36433.9    274.5   0.158771210   1.43463   0.81375   0.31653  -0.81991
  46   36652.6    272.8   0.363959550   3.26907   0.65436   1.32571   1.04086
  47   36694.9    272.5   0.051718961   0.46400   0.30806   0.33875   0.50433
  48   36750.6    272.1   0.215224618   1.92798   1.01513   0.26744  -0.90883
  49   37097.1    269.6   0.013343733   0.11842   0.08080  -0.30468  -0.13805
  50   37538.0    266.4   0.014484709   0.12703  -0.22359  -0.26805   0.07205
  51   37637.0    265.7   0.100501881   0.87909   0.50972   0.61385  -0.49241
  52   37886.1    263.9   0.021965474   0.19087   0.09978  -0.40384  -0.13351
  53   38281.3    261.2   0.074404254   0.63986  -0.53968  -0.57873   0.11699
  54   38421.7    260.3   0.022843272   0.19573   0.17366   0.39976  -0.07592
  55   38554.2    259.4   0.011565745   0.09876   0.20957   0.14980  -0.17999
  56   39059.4    256.0   0.034092199   0.28735   0.18605  -0.24160  -0.44087
  57   39101.3    255.7   0.003923201   0.03303   0.16419  -0.00330   0.07787
  58   39188.5    255.2   0.001946753   0.01635   0.00984  -0.09301   0.08721
  59   39225.8    254.9   0.033430724   0.28058  -0.41280  -0.15837   0.29171
  60   39292.2    254.5   0.035930880   0.30105   0.14371  -0.33366   0.41118
  61   39446.0    253.5   0.073473084   0.61320   0.29574  -0.71867  -0.09616
  62   39600.4    252.5   0.021697115   0.18038   0.39749   0.07394  -0.13005
  63   39763.0    251.5   0.023430720   0.19399   0.06129   0.33578  -0.27836
  64   39829.7    251.1   0.001649367   0.01363   0.08658   0.07812  -0.00585
  65   40024.0    249.9   0.002881714   0.02370  -0.05971   0.05748  -0.12975

FINAL SINGLE POINT ENERGY     -4409.692456514184

DIPOLE MOMENT
-------------
                                X             Y             Z
Electronic contribution:     74.04081       4.27436     -98.07177
Nuclear contribution   :    -75.88499       0.47203     100.86952
                        -----------------------------------------
Total Dipole Moment    :     -1.84418       4.74639       2.79775
                        -----------------------------------------
Magnitude (a.u.)       :      5.81004
Magnitude (Debye)      :     14.76796

Rotational constants in cm-1:     0.001185     0.000244     0.000216
Rotational constants in MHz :    35.536417     7.322286     6.463184

                             ****ORCA TERMINATED NORMALLY****
TOTAL RUN TIME: 0 days 0 hours 22 minutes 13 seconds 295 msec
