                         Program Version 4.2.0 -  RELEASE  -
|  1> # ORCA input file
|  2> # SCF done       -193.745724037010          0.000389556406
|  3> ! CAM-B3LYP def2-SVP def2/J RIJCOSX Grid4 TightSCF
|  4> %maxcore 5000
|  5> %tddft
|  6>     Mode sTDDFT
|  7>     Ethresh 5.0
|  8>     maxcore 5000
|  9> end
| 10>
| 11> %pal
| 12>   nprocs 6
| 13>   end
| 14> * xyz 0 1
| 15>    C       -0.18427         1.57765         0.67061
| 16>    C        0.60252         1.91025         1.73709
| 17>    F        1.09407         3.15086         1.85079
| 18>    C        0.90715         0.95611         2.72920
| 19>    F        1.68180         1.31032         3.76327
| 20>    C        0.41989        -0.31764         2.64092
| 21>    C       -0.39352        -0.69169         1.55343
| 22>    C       -0.70262         0.27211         0.54994
| 23>    C       -1.51575        -0.08041        -0.55052
| 24>    C       -2.00893        -1.35637        -0.64348
| 25>    C       -1.69356        -2.31238         0.36158
| 26>    C       -0.90557        -2.00240         1.43264
| 27>    C       -2.31140        -3.60981         0.02358
| 28>    O       -2.12672        -4.66098         0.59545
| 29>    C       -3.07305        -3.37071        -1.23531
| 30>    C       -2.86067        -1.99155        -1.64352
| 31>    C       -3.41134        -1.36841        -2.73079
| 32>    C       -4.27578        -1.97455        -3.66788
| 33>    N       -4.98660        -2.38887        -4.46851
| 34>    C       -3.19348        -0.01354        -3.06181
| 35>    N       -3.05274         1.07831        -3.38617
| 36>    C       -3.72440        -4.33697        -1.93069
| 37>    C       -4.08231        -5.62220        -1.39730
| 38>    C       -4.03022        -6.76893        -2.17487
| 39>    C       -4.32227        -8.02884        -1.66623
| 40>    C       -4.70557        -8.20790        -0.34298
| 41>    C       -4.86290        -7.03408         0.45405
| 42>    N       -5.30417        -7.16535         1.71124
| 43>    C       -5.47133        -6.09498         2.43978
| 44>    C       -5.25843        -4.81626         1.89373
| 45>    N       -4.82883        -4.65177         0.67201
| 46>    C       -4.57037        -5.74577        -0.06389
| 47>    C       -4.97869        -9.48371         0.25099
| 48>    C       -4.77913       -10.75125        -0.29246
| 49>    C       -4.06292       -11.01362        -1.47147
| 50>    N       -3.41399       -11.25311        -2.38738
| 51>    C       -5.24109       -11.78996         0.55728
| 52>    C       -5.74028       -11.27352         1.74911
| 53>    S       -5.67659        -9.55203         1.85213
| 54>    S       -6.25837       -12.46689         2.89278
| 55>    C       -5.80997       -13.69470         1.75322
| 56>    C       -5.30882       -13.21556         0.54696
| 57>    C       -5.02872       -14.27914        -0.35188
| 58>    C       -4.81530       -14.08623        -1.72643
| 59>    N       -4.80971       -13.88981        -2.85768
| 60>    C       -5.27152       -15.52603         0.21978
| 61>    S       -5.96041       -15.41047         1.82230
| 62>    C       -5.01803       -16.80931        -0.34166
| 63>    C       -5.65029       -17.96037         0.16928
| 64>    C       -5.47884       -19.26249        -0.41790
| 65>    N       -6.13670       -20.30466         0.08864
| 66>    C       -6.92106       -20.13534         1.13463
| 67>    C       -7.06357       -18.85011         1.74141
| 68>    N       -6.43848       -17.81051         1.24522
| 69>    C       -7.88170       -18.68535         2.88712
| 70>    N       -8.55252       -18.58718         3.81015
| 71>    C       -7.61829       -21.25202         1.65318
| 72>    N       -8.19345       -22.14171         2.09053
| 73>    C       -4.60742       -19.48249        -1.53501
| 74>    C       -3.90267       -18.33422        -1.97739
| 75>    C       -4.09471       -17.03136        -1.38518
| 76>    N       -3.27235       -16.12568        -1.90740
| 77>    S       -2.38736       -16.80283        -3.05703
| 78>    N       -2.97779       -18.29827        -2.93040
| 79>    C       -4.51465       -20.77835        -2.05417
| 80>    C       -3.75675       -21.31656        -3.07455
| 81>    C       -3.83791       -22.69244        -3.41764
| 82>    C       -3.01760       -23.07462        -4.43309
| 83>    C       -2.24306       -22.01107        -4.94725
| 84>    S       -2.59561       -20.51526        -4.09877
| 85>    C       -1.31401       -22.06382        -5.96730
| 86>    C       -0.92984       -23.20654        -6.72436
| 87>    C        0.01235       -22.96053        -7.66195
| 88>    C        0.44525       -21.59370        -7.71648
| 89>    S       -0.43027       -20.65583        -6.49348
| 90>    C        1.35838       -21.05472        -8.53648
| 91>    H       -0.40806         2.31988        -0.07966
| 92>    H        0.66322        -1.03632         3.40775
| 93>    H       -1.72432         0.66944        -1.29625
| 94>    H       -0.67739        -2.74881         2.17834
| 95>    H       -4.00750        -4.15902        -2.96024
| 96>    H       -3.70642        -6.68821        -3.20217
| 97>    H       -4.23663        -8.88065        -2.32020
| 98>    H       -5.81050        -6.23942         3.45550
| 99>    H       -5.46562        -3.91902         2.46077
|100>    H       -5.15911       -21.48799        -1.54733
|101>    H       -4.50476       -23.35522        -2.89470
|102>    H       -2.95410       -24.07797        -4.81400
|103>    H       -1.36783       -24.17169        -6.54318
|104>    H        0.42729       -23.69598        -8.32779
|105>    H        1.86728       -21.66008        -9.26589
|106>    H        1.60967       -20.01073        -8.49468
|107> *
|108>
|109>                          ****END OF INPUT****

CARTESIAN COORDINATES (ANGSTROEM)
---------------------------------
  C     -0.184270    1.577650    0.670610
  C      0.602520    1.910250    1.737090
  F      1.094070    3.150860    1.850790
  C      0.907150    0.956110    2.729200
  F      1.681800    1.310320    3.763270
  C      0.419890   -0.317640    2.640920
  C     -0.393520   -0.691690    1.553430
  C     -0.702620    0.272110    0.549940
  C     -1.515750   -0.080410   -0.550520
  C     -2.008930   -1.356370   -0.643480
  C     -1.693560   -2.312380    0.361580
  C     -0.905570   -2.002400    1.432640
  C     -2.311400   -3.609810    0.023580
  O     -2.126720   -4.660980    0.595450
  C     -3.073050   -3.370710   -1.235310
  C     -2.860670   -1.991550   -1.643520
  C     -3.411340   -1.368410   -2.730790
  C     -4.275780   -1.974550   -3.667880
  N     -4.986600   -2.388870   -4.468510
  C     -3.193480   -0.013540   -3.061810
  N     -3.052740    1.078310   -3.386170
  C     -3.724400   -4.336970   -1.930690
  C     -4.082310   -5.622200   -1.397300
  C     -4.030220   -6.768930   -2.174870
  C     -4.322270   -8.028840   -1.666230
  C     -4.705570   -8.207900   -0.342980
  C     -4.862900   -7.034080    0.454050
  N     -5.304170   -7.165350    1.711240
  C     -5.471330   -6.094980    2.439780
  C     -5.258430   -4.816260    1.893730
  N     -4.828830   -4.651770    0.672010
  C     -4.570370   -5.745770   -0.063890
  C     -4.978690   -9.483710    0.250990
  C     -4.779130  -10.751250   -0.292460
  C     -4.062920  -11.013620   -1.471470
  N     -3.413990  -11.253110   -2.387380
  C     -5.241090  -11.789960    0.557280
  C     -5.740280  -11.273520    1.749110
  S     -5.676590   -9.552030    1.852130
  S     -6.258370  -12.466890    2.892780
  C     -5.809970  -13.694700    1.753220
  C     -5.308820  -13.215560    0.546960
  C     -5.028720  -14.279140   -0.351880
  C     -4.815300  -14.086230   -1.726430
  N     -4.809710  -13.889810   -2.857680
  C     -5.271520  -15.526030    0.219780
  S     -5.960410  -15.410470    1.822300
  C     -5.018030  -16.809310   -0.341660
  C     -5.650290  -17.960370    0.169280
  C     -5.478840  -19.262490   -0.417900
  N     -6.136700  -20.304660    0.088640
  C     -6.921060  -20.135340    1.134630
  C     -7.063570  -18.850110    1.741410
  N     -6.438480  -17.810510    1.245220
  C     -7.881700  -18.685350    2.887120
  N     -8.552520  -18.587180    3.810150
  C     -7.618290  -21.252020    1.653180
  N     -8.193450  -22.141710    2.090530
  C     -4.607420  -19.482490   -1.535010
  C     -3.902670  -18.334220   -1.977390
  C     -4.094710  -17.031360   -1.385180
  N     -3.272350  -16.125680   -1.907400
  S     -2.387360  -16.802830   -3.057030
  N     -2.977790  -18.298270   -2.930400
  C     -4.514650  -20.778350   -2.054170
  C     -3.756750  -21.316560   -3.074550
  C     -3.837910  -22.692440   -3.417640
  C     -3.017600  -23.074620   -4.433090
  C     -2.243060  -22.011070   -4.947250
  S     -2.595610  -20.515260   -4.098770
  C     -1.314010  -22.063820   -5.967300
  C     -0.929840  -23.206540   -6.724360
  C      0.012350  -22.960530   -7.661950
  C      0.445250  -21.593700   -7.716480
  S     -0.430270  -20.655830   -6.493480
  C      1.358380  -21.054720   -8.536480
  H     -0.408060    2.319880   -0.079660
  H      0.663220   -1.036320    3.407750
  H     -1.724320    0.669440   -1.296250
  H     -0.677390   -2.748810    2.178340
  H     -4.007500   -4.159020   -2.960240
  H     -3.706420   -6.688210   -3.202170
  H     -4.236630   -8.880650   -2.320200
  H     -5.810500   -6.239420    3.455500
  H     -5.465620   -3.919020    2.460770
  H     -5.159110  -21.487990   -1.547330
  H     -4.504760  -23.355220   -2.894700
  H     -2.954100  -24.077970   -4.814000
  H     -1.367830  -24.171690   -6.543180
  H      0.427290  -23.695980   -8.327790
  H      1.867280  -21.660080   -9.265890
  H      1.609670  -20.010730   -8.494680

 Total Charge           Charge          ....    0
 Multiplicity           Mult            ....    1
 Number of Electrons    NEL             ....  552
 Basis Dimension        Dim             .... 1168

ORBITAL ENERGIES
----------------

  NO   OCC          E(Eh)            E(eV)
   0   2.0000     -89.034780     -2422.7595
   1   2.0000     -88.969411     -2420.9808
   2   2.0000     -88.969228     -2420.9758
   3   2.0000     -88.965777     -2420.8819
   4   2.0000     -88.965247     -2420.8674
   5   2.0000     -88.964732     -2420.8534
   6   2.0000     -24.800350      -674.8518
   7   2.0000     -24.799270      -674.8225
   8   2.0000     -19.217961      -522.9473
   9   2.0000     -14.459379      -393.4597
  10   2.0000     -14.457065      -393.3967
  11   2.0000     -14.450980      -393.2312
  12   2.0000     -14.442268      -392.9941
  13   2.0000     -14.439066      -392.9070
  14   2.0000     -14.435407      -392.8074
  15   2.0000     -14.428389      -392.6164
  16   2.0000     -14.420992      -392.4151
  17   2.0000     -14.419081      -392.3631
  18   2.0000     -14.418834      -392.3564
  19   2.0000     -14.399603      -391.8331
  20   2.0000     -14.380562      -391.3150
  21   2.0000     -10.383734      -282.5558
  22   2.0000     -10.382817      -282.5308
  23   2.0000     -10.381026      -282.4821
  24   2.0000     -10.370596      -282.1983
  25   2.0000     -10.369863      -282.1783
  26   2.0000     -10.346841      -281.5519
  27   2.0000     -10.344337      -281.4837
  28   2.0000     -10.344051      -281.4759
  29   2.0000     -10.343965      -281.4736
  30   2.0000     -10.341853      -281.4161
  31   2.0000     -10.340663      -281.3838
  32   2.0000     -10.336246      -281.2636
  33   2.0000     -10.334319      -281.2111
  34   2.0000     -10.334302      -281.2107
  35   2.0000     -10.331664      -281.1389
  36   2.0000     -10.331258      -281.1278
  37   2.0000     -10.330502      -281.1073
  38   2.0000     -10.330075      -281.0956
  39   2.0000     -10.323999      -280.9303
  40   2.0000     -10.321620      -280.8656
  41   2.0000     -10.321392      -280.8594
  42   2.0000     -10.321310      -280.8571
  43   2.0000     -10.320909      -280.8462
  44   2.0000     -10.319964      -280.8205
  45   2.0000     -10.318795      -280.7887
  46   2.0000     -10.317781      -280.7611
  47   2.0000     -10.315887      -280.7096
  48   2.0000     -10.315442      -280.6975
  49   2.0000     -10.313736      -280.6510
  50   2.0000     -10.313356      -280.6407
  51   2.0000     -10.312873      -280.6275
  52   2.0000     -10.312813      -280.6259
  53   2.0000     -10.312797      -280.6255
  54   2.0000     -10.312462      -280.6164
  55   2.0000     -10.312174      -280.6085
  56   2.0000     -10.309542      -280.5369
  57   2.0000     -10.306443      -280.4526
  58   2.0000     -10.305507      -280.4271
  59   2.0000     -10.304487      -280.3994
  60   2.0000     -10.304294      -280.3941
  61   2.0000     -10.303180      -280.3638
  62   2.0000     -10.302730      -280.3515
  63   2.0000     -10.302547      -280.3465
  64   2.0000     -10.302342      -280.3410
  65   2.0000     -10.302157      -280.3359
  66   2.0000     -10.300450      -280.2895
  67   2.0000     -10.300358      -280.2870
  68   2.0000     -10.299771      -280.2710
  69   2.0000     -10.298235      -280.2292
  70   2.0000     -10.294888      -280.1381
  71   2.0000     -10.294358      -280.1237
  72   2.0000     -10.293240      -280.0933
  73   2.0000     -10.292672      -280.0779
  74   2.0000     -10.290982      -280.0319
  75   2.0000     -10.285490      -279.8824
  76   2.0000      -8.125965      -221.1188
  77   2.0000      -8.064512      -219.4465
  78   2.0000      -8.062500      -219.3918
  79   2.0000      -8.061984      -219.3777
  80   2.0000      -8.058966      -219.2956
  81   2.0000      -8.058766      -219.2902
  82   2.0000      -6.097157      -165.9121
  83   2.0000      -6.089416      -165.7014
  84   2.0000      -6.088450      -165.6751
  85   2.0000      -6.034463      -164.2061
  86   2.0000      -6.032206      -164.1447
  87   2.0000      -6.031939      -164.1374
  88   2.0000      -6.030143      -164.0885
  89   2.0000      -6.028700      -164.0493
  90   2.0000      -6.028638      -164.0476
  91   2.0000      -6.028236      -164.0367
  92   2.0000      -6.026926      -164.0010
  93   2.0000      -6.025448      -163.9608
  94   2.0000      -6.024332      -163.9304
  95   2.0000      -6.023834      -163.9169
  96   2.0000      -6.023793      -163.9157
  97   2.0000      -6.023250      -163.9010
  98   2.0000      -6.020411      -163.8237
  99   2.0000      -6.020221      -163.8185
 100   2.0000      -1.322796       -35.9951
 101   2.0000      -1.307903       -35.5899
 102   2.0000      -1.135247       -30.8917
 103   2.0000      -1.134238       -30.8642
 104   2.0000      -1.117397       -30.4059
 105   2.0000      -1.097445       -29.8630
 106   2.0000      -1.045125       -28.4393
 107   2.0000      -1.026744       -27.9391
 108   2.0000      -1.022401       -27.8210
 109   2.0000      -1.019179       -27.7333
 110   2.0000      -1.014996       -27.6194
 111   2.0000      -1.010431       -27.4952
 112   2.0000      -1.006636       -27.3920
 113   2.0000      -1.000117       -27.2146
 114   2.0000      -0.997447       -27.1419
 115   2.0000      -0.996943       -27.1282
 116   2.0000      -0.994133       -27.0517
 117   2.0000      -0.986894       -26.8547
 118   2.0000      -0.983779       -26.7700
 119   2.0000      -0.980287       -26.6750
 120   2.0000      -0.973531       -26.4911
 121   2.0000      -0.967453       -26.3257
 122   2.0000      -0.961002       -26.1502
 123   2.0000      -0.935918       -25.4676
 124   2.0000      -0.930483       -25.3197
 125   2.0000      -0.912793       -24.8384
 126   2.0000      -0.908456       -24.7203
 127   2.0000      -0.902130       -24.5482
 128   2.0000      -0.896024       -24.3820
 129   2.0000      -0.891994       -24.2724
 130   2.0000      -0.888974       -24.1902
 131   2.0000      -0.878926       -23.9168
 132   2.0000      -0.871001       -23.7011
 133   2.0000      -0.867843       -23.6152
 134   2.0000      -0.860097       -23.4044
 135   2.0000      -0.854284       -23.2462
 136   2.0000      -0.848649       -23.0929
 137   2.0000      -0.842439       -22.9239
 138   2.0000      -0.840826       -22.8800
 139   2.0000      -0.830703       -22.6046
 140   2.0000      -0.812023       -22.0963
 141   2.0000      -0.810404       -22.0522
 142   2.0000      -0.805327       -21.9141
 143   2.0000      -0.789082       -21.4720
 144   2.0000      -0.777785       -21.1646
 145   2.0000      -0.771028       -20.9807
 146   2.0000      -0.769415       -20.9368
 147   2.0000      -0.760375       -20.6909
 148   2.0000      -0.754800       -20.5392
 149   2.0000      -0.740208       -20.1421
 150   2.0000      -0.730970       -19.8907
 151   2.0000      -0.727626       -19.7997
 152   2.0000      -0.718189       -19.5429
 153   2.0000      -0.711137       -19.3510
 154   2.0000      -0.701693       -19.0940
 155   2.0000      -0.698836       -19.0163
 156   2.0000      -0.694954       -18.9107
 157   2.0000      -0.692400       -18.8412
 158   2.0000      -0.688818       -18.7437
 159   2.0000      -0.678557       -18.4645
 160   2.0000      -0.674024       -18.3411
 161   2.0000      -0.661340       -17.9960
 162   2.0000      -0.658832       -17.9277
 163   2.0000      -0.656984       -17.8774
 164   2.0000      -0.652438       -17.7537
 165   2.0000      -0.648575       -17.6486
 166   2.0000      -0.645628       -17.5684
 167   2.0000      -0.642241       -17.4763
 168   2.0000      -0.641538       -17.4571
 169   2.0000      -0.634436       -17.2639
 170   2.0000      -0.626943       -17.0600
 171   2.0000      -0.622867       -16.9491
 172   2.0000      -0.621458       -16.9107
 173   2.0000      -0.619678       -16.8623
 174   2.0000      -0.616542       -16.7770
 175   2.0000      -0.611883       -16.6502
 176   2.0000      -0.602893       -16.4055
 177   2.0000      -0.592101       -16.1119
 178   2.0000      -0.591200       -16.0874
 179   2.0000      -0.587314       -15.9816
 180   2.0000      -0.578772       -15.7492
 181   2.0000      -0.578112       -15.7312
 182   2.0000      -0.575722       -15.6662
 183   2.0000      -0.574915       -15.6442
 184   2.0000      -0.560513       -15.2523
 185   2.0000      -0.557049       -15.1581
 186   2.0000      -0.553282       -15.0556
 187   2.0000      -0.552237       -15.0271
 188   2.0000      -0.551573       -15.0091
 189   2.0000      -0.550971       -14.9927
 190   2.0000      -0.548936       -14.9373
 191   2.0000      -0.543906       -14.8004
 192   2.0000      -0.540061       -14.6958
 193   2.0000      -0.536900       -14.6098
 194   2.0000      -0.533881       -14.5276
 195   2.0000      -0.533226       -14.5098
 196   2.0000      -0.527715       -14.3599
 197   2.0000      -0.526857       -14.3365
 198   2.0000      -0.523304       -14.2398
 199   2.0000      -0.521344       -14.1865
 200   2.0000      -0.518739       -14.1156
 201   2.0000      -0.516035       -14.0420
 202   2.0000      -0.515769       -14.0348
 203   2.0000      -0.513892       -13.9837
 204   2.0000      -0.505271       -13.7491
 205   2.0000      -0.502488       -13.6734
 206   2.0000      -0.502284       -13.6678
 207   2.0000      -0.500637       -13.6230
 208   2.0000      -0.500013       -13.6060
 209   2.0000      -0.497262       -13.5312
 210   2.0000      -0.492721       -13.4076
 211   2.0000      -0.488991       -13.3061
 212   2.0000      -0.488525       -13.2934
 213   2.0000      -0.486477       -13.2377
 214   2.0000      -0.484329       -13.1793
 215   2.0000      -0.478880       -13.0310
 216   2.0000      -0.476778       -12.9738
 217   2.0000      -0.475085       -12.9277
 218   2.0000      -0.471959       -12.8427
 219   2.0000      -0.471612       -12.8332
 220   2.0000      -0.465384       -12.6637
 221   2.0000      -0.465045       -12.6545
 222   2.0000      -0.461716       -12.5639
 223   2.0000      -0.456614       -12.4251
 224   2.0000      -0.454614       -12.3707
 225   2.0000      -0.453398       -12.3376
 226   2.0000      -0.452693       -12.3184
 227   2.0000      -0.449738       -12.2380
 228   2.0000      -0.448610       -12.2073
 229   2.0000      -0.448160       -12.1951
 230   2.0000      -0.447551       -12.1785
 231   2.0000      -0.447097       -12.1661
 232   2.0000      -0.445039       -12.1101
 233   2.0000      -0.442830       -12.0500
 234   2.0000      -0.441556       -12.0154
 235   2.0000      -0.439556       -11.9609
 236   2.0000      -0.439156       -11.9500
 237   2.0000      -0.431417       -11.7394
 238   2.0000      -0.431204       -11.7337
 239   2.0000      -0.428678       -11.6649
 240   2.0000      -0.427387       -11.6298
 241   2.0000      -0.426111       -11.5951
 242   2.0000      -0.424641       -11.5551
 243   2.0000      -0.421412       -11.4672
 244   2.0000      -0.416631       -11.3371
 245   2.0000      -0.415210       -11.2984
 246   2.0000      -0.412065       -11.2128
 247   2.0000      -0.411829       -11.2064
 248   2.0000      -0.408130       -11.1058
 249   2.0000      -0.402557       -10.9541
 250   2.0000      -0.400745       -10.9048
 251   2.0000      -0.395078       -10.7506
 252   2.0000      -0.391413       -10.6509
 253   2.0000      -0.385839       -10.4992
 254   2.0000      -0.383083       -10.4242
 255   2.0000      -0.378086       -10.2882
 256   2.0000      -0.372843       -10.1456
 257   2.0000      -0.360789        -9.8176
 258   2.0000      -0.358285        -9.7494
 259   2.0000      -0.356177        -9.6921
 260   2.0000      -0.353540        -9.6203
 261   2.0000      -0.349673        -9.5151
 262   2.0000      -0.349022        -9.4974
 263   2.0000      -0.347244        -9.4490
 264   2.0000      -0.344500        -9.3743
 265   2.0000      -0.341058        -9.2807
 266   2.0000      -0.334538        -9.1033
 267   2.0000      -0.330717        -8.9993
 268   2.0000      -0.323487        -8.8025
 269   2.0000      -0.318694        -8.6721
 270   2.0000      -0.309968        -8.4347
 271   2.0000      -0.302697        -8.2368
 272   2.0000      -0.297594        -8.0979
 273   2.0000      -0.276368        -7.5204
 274   2.0000      -0.263158        -7.1609
 275   2.0000      -0.225402        -6.1335
 276   0.0000      -0.126523        -3.4429
 277   0.0000      -0.102116        -2.7787
 278   0.0000      -0.070345        -1.9142
 279   0.0000      -0.067256        -1.8301
 280   0.0000      -0.055105        -1.4995

MULLIKEN ATOMIC CHARGES
-----------------------
   0 C :   -0.109037
   1 C :    0.242821
   2 F :   -0.170198
   3 C :    0.239410
   4 F :   -0.171038
   5 C :   -0.106896
   6 C :    0.118269
   7 C :    0.115843
   8 C :   -0.088835
   9 C :    0.055508
  10 C :   -0.008758
  11 C :   -0.084255
  12 C :    0.155209
  13 O :   -0.146020
  14 C :   -0.050273
  15 C :    0.309220
  16 C :   -0.340822
  17 C :   -0.196053
  18 N :    0.159822
  19 C :   -0.182928
  20 N :    0.152107
  21 C :   -0.045810
  22 C :    0.082108
  23 C :   -0.008719
  24 C :   -0.060431
  25 C :    0.108996
  26 C :   -0.007755
  27 N :   -0.084351
  28 C :    0.055648
  29 C :    0.033033
  30 N :   -0.014021
  31 C :    0.003438
  32 C :   -0.098160
  33 C :   -0.022742
  34 C :   -0.289036
  35 N :    0.178866
  36 C :    0.136245
  37 C :   -0.214930
  38 S :    0.190925
  39 S :    0.173271
  40 C :   -0.202466
  41 C :    0.094744
  42 C :    0.033158
  43 C :   -0.306153
  44 N :    0.173507
  45 C :   -0.198115
  46 S :    0.188459
  47 C :    0.120418
  48 C :   -0.039879
  49 C :   -0.061409
  50 N :    0.059053
  51 C :   -0.155700
  52 C :   -0.089625
  53 N :   -0.007383
  54 C :   -0.233115
  55 N :    0.246744
  56 C :   -0.224652
  57 N :    0.229370
  58 C :    0.120775
  59 C :    0.049055
  60 C :   -0.009331
  61 N :   -0.285314
  62 S :    0.559109
  63 N :   -0.329217
  64 C :   -0.143543
  65 C :    0.027071
  66 C :    0.017773
  67 C :    0.048811
  68 C :   -0.039944
  69 S :    0.147181
  70 C :   -0.059572
  71 C :    0.030683
  72 C :    0.066740
  73 C :   -0.076781
  74 S :    0.114555
  75 C :   -0.005828
  76 H :    0.008161
  77 H :   -0.000313
  78 H :   -0.005534
  79 H :   -0.011612
  80 H :    0.035186
  81 H :   -0.003080
  82 H :    0.008315
  83 H :    0.015741
  84 H :    0.016672
  85 H :    0.004996
  86 H :    0.000687
  87 H :   -0.008879
  88 H :   -0.001959
  89 H :    0.001508
  90 H :    0.034470
  91 H :    0.036798
Sum of atomic charges:   -0.0000000

LOEWDIN ATOMIC CHARGES
----------------------
   0 C :   -0.029045
   1 C :    0.066747
   2 F :   -0.048426
   3 C :    0.068106
   4 F :   -0.048943
   5 C :   -0.033897
   6 C :   -0.008203
   7 C :   -0.006309
   8 C :    0.017565
   9 C :   -0.022654
  10 C :   -0.050229
  11 C :    0.028607
  12 C :    0.086263
  13 O :   -0.139561
  14 C :   -0.073034
  15 C :    0.075514
  16 C :   -0.131941
  17 C :   -0.021614
  18 N :   -0.045401
  19 C :   -0.016881
  20 N :   -0.050347
  21 C :    0.080889
  22 C :   -0.033074
  23 C :    0.022654
  24 C :    0.000618
  25 C :   -0.019362
  26 C :   -0.005086
  27 N :   -0.052042
  28 C :    0.020606
  29 C :    0.013256
  30 N :   -0.024403
  31 C :    0.016387
  32 C :   -0.138642
  33 C :   -0.088682
  34 C :   -0.032874
  35 N :   -0.041813
  36 C :   -0.066788
  37 C :   -0.341283
  38 S :    0.488539
  39 S :    0.416815
  40 C :   -0.340374
  41 C :   -0.067281
  42 C :   -0.092863
  43 C :   -0.036857
  44 N :   -0.064799
  45 C :   -0.129628
  46 S :    0.477914
  47 C :   -0.080684
  48 C :   -0.001810
  49 C :   -0.010432
  50 N :    0.005058
  51 C :   -0.048929
  52 C :   -0.014739
  53 N :   -0.032761
  54 C :   -0.035027
  55 N :   -0.003386
  56 C :   -0.039765
  57 N :   -0.018455
  58 C :   -0.014314
  59 C :   -0.041596
  60 C :   -0.032373
  61 N :   -0.258866
  62 S :    0.677163
  63 N :   -0.293648
  64 C :   -0.050367
  65 C :   -0.117878
  66 C :   -0.034322
  67 C :   -0.015072
  68 C :   -0.202384
  69 S :    0.453189
  70 C :   -0.146390
  71 C :   -0.027157
  72 C :   -0.009327
  73 C :   -0.143514
  74 S :    0.381604
  75 C :   -0.040224
  76 H :    0.048037
  77 H :    0.044819
  78 H :    0.040057
  79 H :    0.039643
  80 H :    0.047417
  81 H :    0.040654
  82 H :    0.043650
  83 H :    0.029476
  84 H :    0.028462
  85 H :    0.041478
  86 H :    0.037882
  87 H :    0.032879
  88 H :    0.036444
  89 H :    0.039063
  90 H :    0.035219
  91 H :    0.033079

  Mayer bond orders larger than 0.100000
B(  0-C ,  1-C ) :   1.4430 B(  0-C ,  5-C ) :   0.1090 B(  0-C ,  7-C ) :   1.1855
B(  0-C , 76-H ) :   1.0065 B(  1-C ,  2-F ) :   1.1360 B(  1-C ,  3-C ) :   1.1902
B(  3-C ,  4-F ) :   1.1340 B(  3-C ,  5-C ) :   1.4446 B(  5-C ,  6-C ) :   1.1906
B(  5-C , 77-H ) :   1.0066 B(  6-C ,  7-C ) :   1.2542 B(  6-C , 11-C ) :   1.1904
B(  7-C ,  8-C ) :   1.2214 B(  8-C ,  9-C ) :   1.4424 B(  8-C , 78-H ) :   0.9884
B(  9-C , 10-C ) :   1.2211 B(  9-C , 15-C ) :   0.9895 B( 10-C , 11-C ) :   1.4716
B( 10-C , 12-C ) :   0.9404 B( 11-C , 79-H ) :   1.0157 B( 12-C , 13-O ) :   2.2316
B( 12-C , 14-C ) :   0.9242 B( 14-C , 15-C ) :   1.0663 B( 14-C , 21-C ) :   1.6744
B( 15-C , 16-C ) :   1.6478 B( 16-C , 17-C ) :   1.1403 B( 16-C , 19-C ) :   1.1432
B( 17-C , 18-N ) :   2.9763 B( 19-C , 20-N ) :   2.9632 B( 21-C , 22-C ) :   1.0685
B( 21-C , 80-H ) :   0.9392 B( 22-C , 23-C ) :   1.3948 B( 22-C , 25-C ) :   0.1043
B( 22-C , 31-C ) :   1.2146 B( 23-C , 24-C ) :   1.2650 B( 23-C , 81-H ) :   1.0001
B( 24-C , 25-C ) :   1.4082 B( 24-C , 82-H ) :   0.9891 B( 25-C , 26-C ) :   1.1889
B( 25-C , 32-C ) :   1.1341 B( 26-C , 27-N ) :   1.4085 B( 26-C , 31-C ) :   1.2547
B( 27-N , 28-C ) :   1.6120 B( 28-C , 29-C ) :   1.2405 B( 28-C , 83-H ) :   0.9727
B( 29-C , 30-N ) :   1.6431 B( 29-C , 84-H ) :   0.9756 B( 30-N , 31-C ) :   1.4550
B( 32-C , 33-C ) :   1.4713 B( 32-C , 38-S ) :   1.1444 B( 33-C , 34-C ) :   1.1512
B( 33-C , 36-C ) :   1.2806 B( 34-C , 35-N ) :   2.9389 B( 36-C , 37-C ) :   1.4040
B( 36-C , 41-C ) :   1.0676 B( 37-C , 38-S ) :   1.0447 B( 37-C , 39-S ) :   1.0894
B( 39-S , 40-C ) :   1.0824 B( 40-C , 41-C ) :   1.4221 B( 40-C , 46-S ) :   1.0473
B( 41-C , 42-C ) :   1.2571 B( 42-C , 43-C ) :   1.1427 B( 42-C , 45-C ) :   1.4666
B( 43-C , 44-N ) :   2.9979 B( 45-C , 46-S ) :   1.1500 B( 45-C , 47-C ) :   1.1672
B( 47-C , 48-C ) :   1.2748 B( 47-C , 58-C ) :   0.1076 B( 47-C , 60-C ) :   1.2007
B( 48-C , 49-C ) :   1.1205 B( 48-C , 53-N ) :   1.3905 B( 49-C , 50-N ) :   1.5113
B( 49-C , 58-C ) :   1.1669 B( 50-N , 51-C ) :   1.6748 B( 51-C , 52-C ) :   1.2425
B( 51-C , 56-C ) :   1.1664 B( 52-C , 53-N ) :   1.6941 B( 52-C , 54-C ) :   1.1563
B( 54-C , 55-N ) :   3.0448 B( 56-C , 57-N ) :   3.0451 B( 58-C , 59-C ) :   1.1365
B( 58-C , 64-C ) :   1.3288 B( 59-C , 60-C ) :   1.1092 B( 59-C , 63-N ) :   1.4914
B( 60-C , 61-N ) :   1.5169 B( 61-N , 62-S ) :   1.2664 B( 61-N , 63-N ) :   0.1380
B( 62-S , 63-N ) :   1.2540 B( 64-C , 65-C ) :   1.4029 B( 64-C , 85-H ) :   0.9453
B( 65-C , 66-C ) :   1.1710 B( 65-C , 69-S ) :   1.0991 B( 66-C , 67-C ) :   1.5576
B( 66-C , 86-H ) :   1.0038 B( 67-C , 68-C ) :   1.1935 B( 67-C , 87-H ) :   0.9929
B( 68-C , 69-S ) :   1.0051 B( 68-C , 70-C ) :   1.5016 B( 70-C , 71-C ) :   1.1595
B( 70-C , 74-S ) :   1.0828 B( 71-C , 72-C ) :   1.6503 B( 71-C , 88-H ) :   0.9929
B( 72-C , 73-C ) :   1.0824 B( 72-C , 89-H ) :   0.9930 B( 73-C , 74-S ) :   1.0033
B( 73-C , 75-C ) :   1.8573 B( 75-C , 90-H ) :   0.9517 B( 75-C , 91-H ) :   0.9416

-----------------------------------------------------------------------------
         ABSORPTION SPECTRUM VIA TRANSITION ELECTRIC DIPOLE MOMENTS
-----------------------------------------------------------------------------
State   Energy  Wavelength   fosc         T2         TX        TY        TZ
        (cm-1)    (nm)                  (au**2)     (au)      (au)      (au)
-----------------------------------------------------------------------------
   0    7278.0   1374.0   0.488223500  22.08425  -1.93236   3.12947   2.92518
   1   17478.4    572.1   0.080648095   1.51904  -0.47159  -0.99856   0.54728
   2   18009.1    555.3   0.053625141   0.98028   0.64680   0.13518  -0.73733
   3   18136.8    551.4   0.106171663   1.92718   0.67823   1.06247  -0.58167
   4   19094.6    523.7   0.555355052   9.57491  -1.65362   1.54689   2.10893
   5   19708.0    507.4   1.007949172  16.83731   1.35775   3.68069  -1.20264
   6   22994.8    434.9   0.146882985   2.10289   0.02313   1.42587   0.26317
   7   23659.2    422.7   0.020282073   0.28222   0.09862   0.51436   0.08902
   8   24213.8    413.0   0.042068701   0.57197   0.43469   0.29583  -0.54360
   9   25568.7    391.1   0.104150244   1.34100   0.83927  -0.13911  -0.78567
  10   25759.7    388.2   0.019676887   0.25147  -0.05778  -0.49642  -0.04125
  11   26026.6    384.2   0.024999723   0.31622  -0.22973  -0.50485   0.09259
  12   26530.4    376.9   0.000423814   0.00526  -0.04488  -0.05171  -0.02390
  13   26846.5    372.5   0.004703716   0.05768   0.13473   0.17031  -0.10258
  14   27242.0    367.1   0.042004974   0.50762   0.47586   0.16047   0.50540
  15   27412.3    364.8   0.000511949   0.00615   0.04325   0.05664  -0.03272
  16   27453.4    364.3   0.002811315   0.03371  -0.10924  -0.08265  -0.12226
  17   27708.1    360.9   0.018519960   0.22004  -0.06810  -0.26326  -0.38223
  18   28931.8    345.6   0.250731359   2.85305  -0.67652  -1.46444   0.50079
  19   29087.5    343.8   0.018952577   0.21451  -0.07478   0.24047  -0.38870
  20   29269.0    341.7   0.084028380   0.94513   0.51484  -0.00761   0.82463
  21   29338.9    340.8   0.043897434   0.49257  -0.06355   0.69848   0.02577
  22   29793.4    335.6   0.005977052   0.06605  -0.02271  -0.20137   0.15804
  23   30526.5    327.6   0.255343641   2.75374  -0.93411  -1.29100  -0.46314
  24   30819.4    324.5   0.060033753   0.64128   0.41532   0.52404  -0.44065
  25   31193.9    320.6   0.278048459   2.93444   1.14488   0.18869  -1.26020
  26   31345.9    319.0   0.203731674   2.13970   0.83896   0.94298  -0.73936
  27   31745.9    315.0   0.007653288   0.07937  -0.14333  -0.24202   0.01584
  28   32394.8    308.7   0.026269628   0.26697  -0.12574   0.40610   0.29367
  29   32452.9    308.1   0.082457829   0.83648  -0.16163  -0.86301  -0.25604
  30   33034.6    302.7   0.070780011   0.70537  -0.60881  -0.56712   0.11441
  31   33292.4    300.4   0.033468857   0.33096   0.06023  -0.06392  -0.56855
  32   33476.4    298.7   0.027815893   0.27355   0.02904  -0.50432  -0.13551
  33   33721.9    296.5   0.017549793   0.17133  -0.21083   0.17624   0.30955
  34   33782.6    296.0   0.038358134   0.37380  -0.24278  -0.53632   0.16499
  35   34030.3    293.9   0.590933311   5.71673   1.54897   0.81181   1.63046
  36   34231.4    292.1   0.158667390   1.52595   0.69993   0.60885   0.81569
  37   34354.8    291.1   0.151020468   1.44719  -0.09043  -1.18633   0.17783
  38   34761.9    287.7   0.087747424   0.83101   0.61709  -0.47635  -0.47255
  39   34996.0    285.7   0.015709961   0.14779  -0.30930  -0.08208  -0.21304
  40   35234.8    283.8   0.028111766   0.26266   0.14884  -0.29118  -0.39461
  41   35405.6    282.4   0.002727869   0.02536   0.03455  -0.00784  -0.15527
  42   35652.5    280.5   0.004856187   0.04484  -0.18692   0.01401   0.09853
  43   35918.8    278.4   0.214573036   1.96666  -0.18043  -1.37566   0.20409
  44   36136.1    276.7   0.017835866   0.16249   0.14517   0.27227  -0.25940
  45   36270.1    275.7   0.054404214   0.49381   0.22726   0.60686  -0.27180
  46   36454.7    274.3   0.066594280   0.60139   0.65424   0.22712  -0.34897
  47   36690.8    272.5   0.094730271   0.84998  -0.47530  -0.58773   0.52786
  48   37068.6    269.8   0.095280726   0.84620   0.36369  -0.72850   0.42805
  49   37273.9    268.3   0.069009185   0.60950   0.54541   0.36901  -0.41936
  50   37356.4    267.7   0.057936077   0.51058  -0.02999  -0.49646   0.51304
  51   37526.4    266.5   0.000308240   0.00270  -0.01322   0.02619   0.04293
  52   37581.3    266.1   0.002361099   0.02068  -0.02908   0.03525   0.13636
  53   37852.0    264.2   0.027644614   0.24043  -0.09315  -0.08910  -0.47310
  54   37965.6    263.4   0.026576098   0.23045  -0.16851  -0.05028   0.44668
  55   38077.2    262.6   0.025690542   0.22212   0.10363   0.32386  -0.32633
  56   38109.8    262.4   0.020109765   0.17372  -0.31119  -0.11929   0.25030
  57   38356.4    260.7   0.179141226   1.53756   0.32460  -0.55764   1.05889
  58   38433.0    260.2   0.072980214   0.62514   0.24373  -0.71887  -0.22128
  59   38653.5    258.7   0.008521097   0.07257   0.15125  -0.21508   0.05865
  60   38952.2    256.7   0.005331677   0.04506   0.01066  -0.17396   0.12118
  61   39050.5    256.1   0.041755362   0.35202   0.07118  -0.49875   0.31337
  62   39081.6    255.9   0.013517931   0.11387  -0.06490   0.16599  -0.28654
  63   39454.8    253.5   0.035694725   0.29784   0.06654  -0.44944  -0.30234
  64   39711.5    251.8   0.001358174   0.01126  -0.07922   0.06983   0.01039
  65   39959.1    250.3   0.013053952   0.10755   0.25818   0.02404  -0.20078
  66   40194.1    248.8   0.012278818   0.10057  -0.17369  -0.24692   0.09711
  67   40298.6    248.1   0.031357935   0.25617  -0.12799  -0.30657   0.38185

FINAL SINGLE POINT ENERGY     -5421.856989944756

DIPOLE MOMENT
-------------
                                X             Y             Z
Electronic contribution:     -8.59324      25.77153      30.46882
Nuclear contribution   :     11.72336     -28.56360     -31.52851
                        -----------------------------------------
Total Dipole Moment    :      3.13012      -2.79208      -1.05968
                        -----------------------------------------
Magnitude (a.u.)       :      4.32623
Magnitude (Debye)      :     10.99641

Rotational constants in cm-1:     0.001271     0.000221     0.000199
Rotational constants in MHz :    38.095174     6.635566     5.974902

                             ****ORCA TERMINATED NORMALLY****
TOTAL RUN TIME: 0 days 0 hours 9 minutes 41 seconds 850 msec
