                         Program Version 4.2.0 -  RELEASE  -
|  1> # ORCA input file
|  2> # SCF done       -187.667590988304          0.000933783357
|  3> ! CAM-B3LYP def2-SVP def2/J RIJCOSX Grid4 TightSCF
|  4> %maxcore 5000
|  5> %tddft
|  6>     Mode sTDDFT
|  7>     Ethresh 5.0
|  8>     maxcore 5000
|  9> end
| 10>
| 11> %pal
| 12>   nprocs 6
| 13>   end
| 14> * xyz 0 1
| 15>    C       -3.21702         3.31455         0.53580
| 16>    C       -2.15261         4.10890         0.21500
| 17>    F       -2.21061         5.43087         0.42591
| 18>    C       -0.98265         3.55184        -0.33986
| 19>    F        0.04570         4.35595        -0.64378
| 20>    C       -0.89325         2.20707        -0.56544
| 21>    C       -1.97285         1.36110        -0.24410
| 22>    C       -3.15770         1.92340         0.31455
| 23>    C       -4.25637         1.09570         0.63781
| 24>    C       -4.17364        -0.25309         0.40716
| 25>    C       -2.98302        -0.80662        -0.14026
| 26>    C       -1.90492        -0.03262        -0.46085
| 27>    C       -3.12954        -2.26740        -0.27997
| 28>    O       -2.27697        -3.04425        -0.64414
| 29>    C       -4.49291        -2.57875         0.23889
| 30>    C       -5.13541        -1.32926         0.61326
| 31>    C       -6.44103        -1.17845         0.99187
| 32>    C       -7.38476        -2.22690         1.06435
| 33>    N       -8.21353        -3.01890         1.11448
| 34>    C       -7.02797         0.06192         1.32135
| 35>    N       -7.55379         1.04131         1.60646
| 36>    C       -4.94462        -3.82840         0.50944
| 37>    C       -4.36589        -5.04405         0.01160
| 38>    C       -3.88870        -5.23400        -1.27780
| 39>    C       -3.95422        -4.31161        -2.32193
| 40>    N       -4.04624        -3.56208        -3.18741
| 41>    S       -3.29417        -6.83835        -1.53808
| 42>    C       -3.70740        -7.29776         0.08542
| 43>    C       -4.26945        -6.23669         0.78456
| 44>    C       -4.53419        -6.19752         2.16422
| 45>    N       -4.67608        -6.00507         3.28869
| 46>    C       -3.43077        -8.61923         0.53632
| 47>    C       -4.08064        -9.20669         1.63614
| 48>    C       -3.67300       -10.48684         2.17155
| 49>    N       -4.25534       -10.94528         3.26698
| 50>    C       -5.24328       -10.26573         3.83482
| 51>    C       -5.73318        -9.07978         3.21889
| 52>    N       -5.14743        -8.57963         2.15881
| 53>    C       -6.88778        -8.45704         3.75753
| 54>    N       -7.83097        -8.02534         4.24342
| 55>    C       -5.83412       -10.73442         5.02092
| 56>    N       -6.36273       -11.06154         5.98652
| 57>    C       -2.64925       -11.27624         1.55774
| 58>    C       -2.10300       -10.72147         0.35766
| 59>    C       -2.48565        -9.42768        -0.13483
| 60>    N       -1.84629        -9.10550        -1.25373
| 61>    S       -0.85205       -10.31805        -1.65560
| 62>    N       -1.19436       -11.29642        -0.41819
| 63>    C       -2.14122       -12.48458         2.01768
| 64>    C       -2.42448       -13.26094         3.13859
| 65>    C       -1.72768       -14.45405         3.41689
| 66>    C       -2.11617       -15.08883         4.56905
| 67>    C       -3.14345       -14.41301         5.23476
| 68>    S       -3.60879       -12.95840         4.37605
| 69>    C       -3.78896       -14.75161         6.42656
| 70>    C       -3.57182       -15.85306         7.27239
| 71>    C       -4.39571       -15.87157         8.36539
| 72>    C       -5.29943       -14.78921         8.43023
| 73>    S       -5.05643       -13.74160         7.04444
| 74>    C       -6.23617       -14.58261         9.42448
| 75>    C       -7.16286       -13.53926         9.54225
| 76>    C       -7.36440       -12.42392         8.66515
| 77>    C       -8.39220       -11.64589         9.16952
| 78>    C       -8.96018       -10.45885         8.67749
| 79>    C       -9.98830        -9.90496         9.40444
| 80>    C      -10.76816        -8.74021         9.19848
| 81>    C      -11.69449        -8.62267        10.23863
| 82>    C      -11.50925        -9.71591        11.11712
| 83>    C      -10.46898       -10.52133        10.63265
| 84>    C       -9.90820       -11.69554        11.12294
| 85>    C       -8.86766       -12.26505        10.39609
| 86>    C       -8.09779       -13.41861        10.59925
| 87>    C      -12.65728        -7.55355        10.35793
| 88>    C      -13.55015        -7.42415        11.33593
| 89>    H       -4.10581         3.75744         0.95746
| 90>    H        0.00859         1.79556        -0.99092
| 91>    H       -5.13662         1.54937         1.06395
| 92>    H       -1.01618        -0.47952        -0.87933
| 93>    H       -5.78803        -3.96129         1.17730
| 94>    H       -1.36044       -12.88966         1.38292
| 95>    H       -0.95254       -14.81433         2.76332
| 96>    H       -1.68374       -16.00613         4.92789
| 97>    H       -2.82500       -16.59770         7.06384
| 98>    H       -4.37553       -16.63529         9.12317
| 99>    H       -6.25512       -15.32883        10.21075
|100>    H       -6.82575       -12.20347         7.76443
|101>    H       -8.59178       -10.01542         7.76407
|102>    H      -10.65908        -8.06110         8.37275
|103>    H      -12.07239        -9.90339        12.01273
|104>    H      -10.26942       -12.14848        12.03564
|105>    H       -8.19624       -14.10549        11.42040
|106>    H      -12.61805        -6.81602         9.56652
|107>    H      -13.62715        -8.13254        12.14320
|108>    H      -14.24014        -6.59899        11.36054
|109> *
|110>
|111>                          ****END OF INPUT****

CARTESIAN COORDINATES (ANGSTROEM)
---------------------------------
  C     -3.217020    3.314550    0.535800
  C     -2.152610    4.108900    0.215000
  F     -2.210610    5.430870    0.425910
  C     -0.982650    3.551840   -0.339860
  F      0.045700    4.355950   -0.643780
  C     -0.893250    2.207070   -0.565440
  C     -1.972850    1.361100   -0.244100
  C     -3.157700    1.923400    0.314550
  C     -4.256370    1.095700    0.637810
  C     -4.173640   -0.253090    0.407160
  C     -2.983020   -0.806620   -0.140260
  C     -1.904920   -0.032620   -0.460850
  C     -3.129540   -2.267400   -0.279970
  O     -2.276970   -3.044250   -0.644140
  C     -4.492910   -2.578750    0.238890
  C     -5.135410   -1.329260    0.613260
  C     -6.441030   -1.178450    0.991870
  C     -7.384760   -2.226900    1.064350
  N     -8.213530   -3.018900    1.114480
  C     -7.027970    0.061920    1.321350
  N     -7.553790    1.041310    1.606460
  C     -4.944620   -3.828400    0.509440
  C     -4.365890   -5.044050    0.011600
  C     -3.888700   -5.234000   -1.277800
  C     -3.954220   -4.311610   -2.321930
  N     -4.046240   -3.562080   -3.187410
  S     -3.294170   -6.838350   -1.538080
  C     -3.707400   -7.297760    0.085420
  C     -4.269450   -6.236690    0.784560
  C     -4.534190   -6.197520    2.164220
  N     -4.676080   -6.005070    3.288690
  C     -3.430770   -8.619230    0.536320
  C     -4.080640   -9.206690    1.636140
  C     -3.673000  -10.486840    2.171550
  N     -4.255340  -10.945280    3.266980
  C     -5.243280  -10.265730    3.834820
  C     -5.733180   -9.079780    3.218890
  N     -5.147430   -8.579630    2.158810
  C     -6.887780   -8.457040    3.757530
  N     -7.830970   -8.025340    4.243420
  C     -5.834120  -10.734420    5.020920
  N     -6.362730  -11.061540    5.986520
  C     -2.649250  -11.276240    1.557740
  C     -2.103000  -10.721470    0.357660
  C     -2.485650   -9.427680   -0.134830
  N     -1.846290   -9.105500   -1.253730
  S     -0.852050  -10.318050   -1.655600
  N     -1.194360  -11.296420   -0.418190
  C     -2.141220  -12.484580    2.017680
  C     -2.424480  -13.260940    3.138590
  C     -1.727680  -14.454050    3.416890
  C     -2.116170  -15.088830    4.569050
  C     -3.143450  -14.413010    5.234760
  S     -3.608790  -12.958400    4.376050
  C     -3.788960  -14.751610    6.426560
  C     -3.571820  -15.853060    7.272390
  C     -4.395710  -15.871570    8.365390
  C     -5.299430  -14.789210    8.430230
  S     -5.056430  -13.741600    7.044440
  C     -6.236170  -14.582610    9.424480
  C     -7.162860  -13.539260    9.542250
  C     -7.364400  -12.423920    8.665150
  C     -8.392200  -11.645890    9.169520
  C     -8.960180  -10.458850    8.677490
  C     -9.988300   -9.904960    9.404440
  C    -10.768160   -8.740210    9.198480
  C    -11.694490   -8.622670   10.238630
  C    -11.509250   -9.715910   11.117120
  C    -10.468980  -10.521330   10.632650
  C     -9.908200  -11.695540   11.122940
  C     -8.867660  -12.265050   10.396090
  C     -8.097790  -13.418610   10.599250
  C    -12.657280   -7.553550   10.357930
  C    -13.550150   -7.424150   11.335930
  H     -4.105810    3.757440    0.957460
  H      0.008590    1.795560   -0.990920
  H     -5.136620    1.549370    1.063950
  H     -1.016180   -0.479520   -0.879330
  H     -5.788030   -3.961290    1.177300
  H     -1.360440  -12.889660    1.382920
  H     -0.952540  -14.814330    2.763320
  H     -1.683740  -16.006130    4.927890
  H     -2.825000  -16.597700    7.063840
  H     -4.375530  -16.635290    9.123170
  H     -6.255120  -15.328830   10.210750
  H     -6.825750  -12.203470    7.764430
  H     -8.591780  -10.015420    7.764070
  H    -10.659080   -8.061100    8.372750
  H    -12.072390   -9.903390   12.012730
  H    -10.269420  -12.148480   12.035640
  H     -8.196240  -14.105490   11.420400
  H    -12.618050   -6.816020    9.566520
  H    -13.627150   -8.132540   12.143200
  H    -14.240140   -6.598990   11.360540

 Total Charge           Charge          ....    0
 Multiplicity           Mult            ....    1
 Number of Electrons    NEL             ....  522
 Basis Dimension        Dim             .... 1152

ORBITAL ENERGIES
----------------

  NO   OCC          E(Eh)            E(eV)
   0   2.0000     -89.012145     -2422.1436
   1   2.0000     -88.975396     -2421.1436
   2   2.0000     -88.969057     -2420.9711
   3   2.0000     -88.965582     -2420.8766
   4   2.0000     -24.790455      -674.5826
   5   2.0000     -24.789679      -674.5615
   6   2.0000     -19.206877      -522.6457
   7   2.0000     -14.449632      -393.1945
   8   2.0000     -14.437307      -392.8591
   9   2.0000     -14.429380      -392.6434
  10   2.0000     -14.426969      -392.5778
  11   2.0000     -14.422489      -392.4559
  12   2.0000     -14.413021      -392.1983
  13   2.0000     -14.408469      -392.0744
  14   2.0000     -14.404912      -391.9776
  15   2.0000     -14.393214      -391.6593
  16   2.0000     -14.382810      -391.3762
  17   2.0000     -10.373148      -282.2677
  18   2.0000     -10.372561      -282.2517
  19   2.0000     -10.363016      -281.9920
  20   2.0000     -10.358844      -281.8785
  21   2.0000     -10.348856      -281.6067
  22   2.0000     -10.345860      -281.5252
  23   2.0000     -10.335917      -281.2546
  24   2.0000     -10.335704      -281.2488
  25   2.0000     -10.333488      -281.1885
  26   2.0000     -10.332283      -281.1557
  27   2.0000     -10.331274      -281.1283
  28   2.0000     -10.330201      -281.0991
  29   2.0000     -10.326741      -281.0049
  30   2.0000     -10.326167      -280.9893
  31   2.0000     -10.323101      -280.9059
  32   2.0000     -10.322966      -280.9022
  33   2.0000     -10.322213      -280.8817
  34   2.0000     -10.320418      -280.8329
  35   2.0000     -10.319500      -280.8079
  36   2.0000     -10.318031      -280.7679
  37   2.0000     -10.317715      -280.7593
  38   2.0000     -10.312816      -280.6260
  39   2.0000     -10.310889      -280.5736
  40   2.0000     -10.310134      -280.5530
  41   2.0000     -10.309630      -280.5393
  42   2.0000     -10.308232      -280.5012
  43   2.0000     -10.308060      -280.4966
  44   2.0000     -10.306988      -280.4674
  45   2.0000     -10.306870      -280.4642
  46   2.0000     -10.303910      -280.3836
  47   2.0000     -10.302021      -280.3322
  48   2.0000     -10.301752      -280.3249
  49   2.0000     -10.301452      -280.3168
  50   2.0000     -10.299978      -280.2767
  51   2.0000     -10.299466      -280.2627
  52   2.0000     -10.298285      -280.2306
  53   2.0000     -10.298064      -280.2246
  54   2.0000     -10.296998      -280.1955
  55   2.0000     -10.296978      -280.1950
  56   2.0000     -10.295963      -280.1674
  57   2.0000     -10.293599      -280.1031
  58   2.0000     -10.293284      -280.0945
  59   2.0000     -10.292601      -280.0759
  60   2.0000     -10.292483      -280.0727
  61   2.0000     -10.292057      -280.0611
  62   2.0000     -10.291972      -280.0588
  63   2.0000     -10.290423      -280.0167
  64   2.0000     -10.290360      -280.0149
  65   2.0000     -10.290129      -280.0087
  66   2.0000     -10.289438      -279.9898
  67   2.0000     -10.289422      -279.9894
  68   2.0000     -10.285933      -279.8945
  69   2.0000     -10.283746      -279.8350
  70   2.0000     -10.283423      -279.8262
  71   2.0000     -10.282351      -279.7970
  72   2.0000     -10.278658      -279.6965
  73   2.0000     -10.272512      -279.5293
  74   2.0000      -8.104133      -220.5247
  75   2.0000      -8.070579      -219.6116
  76   2.0000      -8.061332      -219.3600
  77   2.0000      -8.059641      -219.3140
  78   2.0000      -6.075623      -165.3261
  79   2.0000      -6.067969      -165.1178
  80   2.0000      -6.065784      -165.0584
  81   2.0000      -6.040063      -164.3585
  82   2.0000      -6.035779      -164.2419
  83   2.0000      -6.032258      -164.1461
  84   2.0000      -6.031085      -164.1142
  85   2.0000      -6.029123      -164.0608
  86   2.0000      -6.026375      -163.9860
  87   2.0000      -6.024442      -163.9334
  88   2.0000      -6.023342      -163.9035
  89   2.0000      -6.021871      -163.8634
  90   2.0000      -1.312857       -35.7246
  91   2.0000      -1.297987       -35.3200
  92   2.0000      -1.123517       -30.5724
  93   2.0000      -1.117550       -30.4101
  94   2.0000      -1.101878       -29.9836
  95   2.0000      -1.030313       -28.0362
  96   2.0000      -1.017960       -27.7001
  97   2.0000      -1.011115       -27.5138
  98   2.0000      -1.010070       -27.4854
  99   2.0000      -1.006687       -27.3933
 100   2.0000      -1.004755       -27.3408
 101   2.0000      -0.995086       -27.0777
 102   2.0000      -0.991490       -26.9798
 103   2.0000      -0.989390       -26.9227
 104   2.0000      -0.985078       -26.8053
 105   2.0000      -0.983823       -26.7712
 106   2.0000      -0.977162       -26.5899
 107   2.0000      -0.974244       -26.5105
 108   2.0000      -0.972063       -26.4512
 109   2.0000      -0.964607       -26.2483
 110   2.0000      -0.955669       -26.0051
 111   2.0000      -0.927141       -25.2288
 112   2.0000      -0.924048       -25.1446
 113   2.0000      -0.906678       -24.6720
 114   2.0000      -0.901220       -24.5234
 115   2.0000      -0.892496       -24.2860
 116   2.0000      -0.888868       -24.1873
 117   2.0000      -0.887172       -24.1412
 118   2.0000      -0.883937       -24.0532
 119   2.0000      -0.876490       -23.8505
 120   2.0000      -0.872319       -23.7370
 121   2.0000      -0.863622       -23.5004
 122   2.0000      -0.860712       -23.4212
 123   2.0000      -0.846745       -23.0411
 124   2.0000      -0.839741       -22.8505
 125   2.0000      -0.832396       -22.6506
 126   2.0000      -0.830296       -22.5935
 127   2.0000      -0.821305       -22.3488
 128   2.0000      -0.817072       -22.2337
 129   2.0000      -0.810573       -22.0568
 130   2.0000      -0.791097       -21.5268
 131   2.0000      -0.786788       -21.4096
 132   2.0000      -0.773707       -21.0536
 133   2.0000      -0.768182       -20.9033
 134   2.0000      -0.758020       -20.6268
 135   2.0000      -0.755679       -20.5631
 136   2.0000      -0.736814       -20.0497
 137   2.0000      -0.733658       -19.9638
 138   2.0000      -0.716845       -19.5063
 139   2.0000      -0.714796       -19.4506
 140   2.0000      -0.707851       -19.2616
 141   2.0000      -0.702926       -19.1276
 142   2.0000      -0.696652       -18.9569
 143   2.0000      -0.692233       -18.8366
 144   2.0000      -0.688899       -18.7459
 145   2.0000      -0.682807       -18.5801
 146   2.0000      -0.675965       -18.3939
 147   2.0000      -0.673064       -18.3150
 148   2.0000      -0.670667       -18.2498
 149   2.0000      -0.664677       -18.0868
 150   2.0000      -0.660472       -17.9724
 151   2.0000      -0.649501       -17.6738
 152   2.0000      -0.648284       -17.6407
 153   2.0000      -0.641615       -17.4592
 154   2.0000      -0.637744       -17.3539
 155   2.0000      -0.635940       -17.3048
 156   2.0000      -0.633451       -17.2371
 157   2.0000      -0.628224       -17.0948
 158   2.0000      -0.618556       -16.8318
 159   2.0000      -0.615037       -16.7360
 160   2.0000      -0.605777       -16.4840
 161   2.0000      -0.604981       -16.4624
 162   2.0000      -0.599874       -16.3234
 163   2.0000      -0.597524       -16.2595
 164   2.0000      -0.594458       -16.1760
 165   2.0000      -0.586011       -15.9462
 166   2.0000      -0.581870       -15.8335
 167   2.0000      -0.577336       -15.7101
 168   2.0000      -0.573061       -15.5938
 169   2.0000      -0.570912       -15.5353
 170   2.0000      -0.562697       -15.3118
 171   2.0000      -0.561333       -15.2746
 172   2.0000      -0.555882       -15.1263
 173   2.0000      -0.549397       -14.9498
 174   2.0000      -0.548396       -14.9226
 175   2.0000      -0.545295       -14.8382
 176   2.0000      -0.542106       -14.7515
 177   2.0000      -0.539140       -14.6707
 178   2.0000      -0.537684       -14.6311
 179   2.0000      -0.532506       -14.4902
 180   2.0000      -0.530153       -14.4262
 181   2.0000      -0.529445       -14.4069
 182   2.0000      -0.526860       -14.3366
 183   2.0000      -0.522091       -14.2068
 184   2.0000      -0.521262       -14.1843
 185   2.0000      -0.519781       -14.1440
 186   2.0000      -0.516160       -14.0454
 187   2.0000      -0.513809       -13.9815
 188   2.0000      -0.513780       -13.9807
 189   2.0000      -0.511994       -13.9321
 190   2.0000      -0.507742       -13.8164
 191   2.0000      -0.504032       -13.7154
 192   2.0000      -0.501531       -13.6474
 193   2.0000      -0.500141       -13.6095
 194   2.0000      -0.496658       -13.5148
 195   2.0000      -0.496396       -13.5076
 196   2.0000      -0.491375       -13.3710
 197   2.0000      -0.490244       -13.3402
 198   2.0000      -0.486146       -13.2287
 199   2.0000      -0.485819       -13.2198
 200   2.0000      -0.483084       -13.1454
 201   2.0000      -0.480683       -13.0801
 202   2.0000      -0.477280       -12.9875
 203   2.0000      -0.475701       -12.9445
 204   2.0000      -0.475273       -12.9328
 205   2.0000      -0.468566       -12.7503
 206   2.0000      -0.467847       -12.7308
 207   2.0000      -0.463439       -12.6108
 208   2.0000      -0.461044       -12.5456
 209   2.0000      -0.460420       -12.5287
 210   2.0000      -0.458421       -12.4743
 211   2.0000      -0.455590       -12.3972
 212   2.0000      -0.453533       -12.3413
 213   2.0000      -0.449397       -12.2287
 214   2.0000      -0.443989       -12.0816
 215   2.0000      -0.442659       -12.0454
 216   2.0000      -0.440881       -11.9970
 217   2.0000      -0.439880       -11.9697
 218   2.0000      -0.437229       -11.8976
 219   2.0000      -0.436763       -11.8849
 220   2.0000      -0.436133       -11.8678
 221   2.0000      -0.433239       -11.7890
 222   2.0000      -0.430786       -11.7223
 223   2.0000      -0.425021       -11.5654
 224   2.0000      -0.424195       -11.5429
 225   2.0000      -0.421666       -11.4741
 226   2.0000      -0.420892       -11.4530
 227   2.0000      -0.419942       -11.4272
 228   2.0000      -0.418128       -11.3778
 229   2.0000      -0.416725       -11.3397
 230   2.0000      -0.414437       -11.2774
 231   2.0000      -0.411862       -11.2073
 232   2.0000      -0.409407       -11.1405
 233   2.0000      -0.408598       -11.1185
 234   2.0000      -0.402495       -10.9524
 235   2.0000      -0.401701       -10.9309
 236   2.0000      -0.397879       -10.8268
 237   2.0000      -0.391417       -10.6510
 238   2.0000      -0.390087       -10.6148
 239   2.0000      -0.388619       -10.5749
 240   2.0000      -0.388011       -10.5583
 241   2.0000      -0.384631       -10.4664
 242   2.0000      -0.375553       -10.2193
 243   2.0000      -0.362240        -9.8571
 244   2.0000      -0.359051        -9.7703
 245   2.0000      -0.357772        -9.7355
 246   2.0000      -0.354168        -9.6374
 247   2.0000      -0.346278        -9.4227
 248   2.0000      -0.337108        -9.1732
 249   2.0000      -0.334212        -9.0944
 250   2.0000      -0.333029        -9.0622
 251   2.0000      -0.329131        -8.9561
 252   2.0000      -0.326236        -8.8773
 253   2.0000      -0.311400        -8.4736
 254   2.0000      -0.308756        -8.4017
 255   2.0000      -0.300148        -8.1674
 256   2.0000      -0.289581        -7.8799
 257   2.0000      -0.289242        -7.8707
 258   2.0000      -0.282703        -7.6927
 259   2.0000      -0.258336        -7.0297
 260   2.0000      -0.216664        -5.8957
 261   0.0000      -0.124127        -3.3777
 262   0.0000      -0.116729        -3.1763
 263   0.0000      -0.084237        -2.2922
 264   0.0000      -0.070059        -1.9064
 265   0.0000      -0.049938        -1.3589

MULLIKEN ATOMIC CHARGES
-----------------------
   0 C :   -0.109606
   1 C :    0.240585
   2 F :   -0.173024
   3 C :    0.239013
   4 F :   -0.173516
   5 C :   -0.104691
   6 C :    0.119602
   7 C :    0.118317
   8 C :   -0.089220
   9 C :    0.057116
  10 C :   -0.003507
  11 C :   -0.078475
  12 C :    0.154297
  13 O :   -0.133118
  14 C :   -0.081617
  15 C :    0.302564
  16 C :   -0.331414
  17 C :   -0.203444
  18 N :    0.176874
  19 C :   -0.183249
  20 N :    0.147098
  21 C :   -0.050581
  22 C :    0.195599
  23 C :   -0.264370
  24 C :   -0.208587
  25 N :    0.147686
  26 S :    0.260890
  27 C :   -0.142775
  28 C :   -0.025010
  29 C :   -0.255625
  30 N :    0.124153
  31 C :    0.079172
  32 C :   -0.026138
  33 C :   -0.019519
  34 N :   -0.036124
  35 C :   -0.106842
  36 C :   -0.090729
  37 N :   -0.004959
  38 C :   -0.212423
  39 N :    0.220150
  40 C :   -0.215431
  41 N :    0.194912
  42 C :    0.119724
  43 C :   -0.010003
  44 C :    0.007835
  45 N :   -0.324337
  46 S :    0.491132
  47 N :   -0.274403
  48 C :   -0.128352
  49 C :    0.029729
  50 C :    0.008284
  51 C :    0.042189
  52 C :   -0.043204
  53 S :    0.139555
  54 C :    0.001578
  55 C :    0.009264
  56 C :    0.058754
  57 C :   -0.051798
  58 S :    0.114087
  59 C :    0.035994
  60 C :    0.039027
  61 C :    0.028808
  62 C :    0.007628
  63 C :    0.039862
  64 C :    0.049223
  65 C :    0.002101
  66 C :    0.050863
  67 C :    0.003190
  68 C :    0.038105
  69 C :    0.023910
  70 C :    0.051177
  71 C :   -0.010644
  72 C :    0.012040
  73 C :   -0.018344
  74 H :    0.005566
  75 H :   -0.000850
  76 H :   -0.006406
  77 H :   -0.008865
  78 H :    0.057815
  79 H :    0.001182
  80 H :   -0.007101
  81 H :   -0.014342
  82 H :   -0.006520
  83 H :    0.000976
  84 H :   -0.003068
  85 H :   -0.022142
  86 H :    0.010146
  87 H :    0.005604
  88 H :   -0.014911
  89 H :   -0.015317
  90 H :   -0.014413
  91 H :   -0.005488
  92 H :    0.010594
  93 H :    0.030533
Sum of atomic charges:   -0.0000000

LOEWDIN ATOMIC CHARGES
----------------------
   0 C :   -0.029793
   1 C :    0.065786
   2 F :   -0.050500
   3 C :    0.066686
   4 F :   -0.050931
   5 C :   -0.032639
   6 C :   -0.007675
   7 C :   -0.005739
   8 C :    0.016876
   9 C :   -0.020873
  10 C :   -0.047348
  11 C :    0.033114
  12 C :    0.088737
  13 O :   -0.123655
  14 C :   -0.075671
  15 C :    0.075863
  16 C :   -0.127348
  17 C :   -0.024675
  18 N :   -0.039149
  19 C :   -0.015038
  20 N :   -0.052196
  21 C :    0.080688
  22 C :   -0.021164
  23 C :   -0.208266
  24 C :   -0.050623
  25 N :   -0.057220
  26 S :    0.540392
  27 C :   -0.108296
  28 C :   -0.107158
  29 C :   -0.029208
  30 N :   -0.086041
  31 C :   -0.131344
  32 C :    0.021524
  33 C :   -0.006251
  34 N :   -0.036742
  35 C :   -0.082842
  36 C :   -0.001634
  37 N :   -0.019434
  38 C :   -0.023345
  39 N :   -0.019727
  40 C :   -0.016215
  41 N :   -0.067056
  42 C :   -0.025110
  43 C :   -0.050906
  44 C :   -0.038697
  45 N :   -0.321010
  46 S :    0.613881
  47 N :   -0.274584
  48 C :   -0.033542
  49 C :   -0.127270
  50 C :   -0.048924
  51 C :   -0.018335
  52 C :   -0.225916
  53 S :    0.492422
  54 C :   -0.124653
  55 C :   -0.060315
  56 C :    0.006956
  57 C :   -0.187623
  58 S :    0.465304
  59 C :    0.035712
  60 C :   -0.087864
  61 C :    0.055420
  62 C :   -0.061549
  63 C :    0.109651
  64 C :   -0.062939
  65 C :    0.059306
  66 C :   -0.055120
  67 C :    0.064473
  68 C :   -0.063466
  69 C :    0.097630
  70 C :   -0.071162
  71 C :    0.055578
  72 C :   -0.023438
  73 C :   -0.039260
  74 H :    0.047106
  75 H :    0.044805
  76 H :    0.039501
  77 H :    0.041138
  78 H :    0.053825
  79 H :    0.044185
  80 H :    0.034379
  81 H :    0.030820
  82 H :    0.034581
  83 H :    0.038242
  84 H :    0.043594
  85 H :    0.011662
  86 H :    0.050961
  87 H :    0.037501
  88 H :    0.029284
  89 H :    0.039076
  90 H :    0.028827
  91 H :    0.034113
  92 H :    0.018945
  93 H :    0.028934

  Mayer bond orders larger than 0.100000
B(  0-C ,  1-C ) :   1.4434 B(  0-C ,  5-C ) :   0.1094 B(  0-C ,  7-C ) :   1.1854
B(  0-C , 74-H ) :   1.0066 B(  1-C ,  2-F ) :   1.1329 B(  1-C ,  3-C ) :   1.1909
B(  3-C ,  4-F ) :   1.1314 B(  3-C ,  5-C ) :   1.4439 B(  5-C ,  6-C ) :   1.1912
B(  5-C , 75-H ) :   1.0066 B(  6-C ,  7-C ) :   1.2548 B(  6-C , 11-C ) :   1.1889
B(  7-C ,  8-C ) :   1.2214 B(  8-C ,  9-C ) :   1.4423 B(  8-C , 76-H ) :   0.9896
B(  9-C , 10-C ) :   1.2210 B(  9-C , 15-C ) :   0.9973 B( 10-C , 11-C ) :   1.4751
B( 10-C , 12-C ) :   0.9438 B( 11-C , 77-H ) :   1.0157 B( 12-C , 13-O ) :   2.2275
B( 12-C , 14-C ) :   0.9238 B( 14-C , 15-C ) :   1.0368 B( 14-C , 21-C ) :   1.6655
B( 15-C , 16-C ) :   1.6677 B( 16-C , 17-C ) :   1.1395 B( 16-C , 19-C ) :   1.1419
B( 17-C , 18-N ) :   2.9984 B( 19-C , 20-N ) :   2.9661 B( 21-C , 22-C ) :   1.0839
B( 21-C , 78-H ) :   0.9283 B( 22-C , 23-C ) :   1.4792 B( 22-C , 28-C ) :   1.2472
B( 23-C , 24-C ) :   1.2239 B( 23-C , 26-S ) :   1.1179 B( 23-C , 27-C ) :   0.1037
B( 24-C , 25-N ) :   3.0024 B( 26-S , 27-C ) :   1.1634 B( 27-C , 28-C ) :   1.4577
B( 27-C , 31-C ) :   1.1353 B( 28-C , 29-C ) :   1.1399 B( 29-C , 30-N ) :   2.9447
B( 31-C , 32-C ) :   1.3181 B( 31-C , 44-C ) :   1.1647 B( 32-C , 33-C ) :   1.0932
B( 32-C , 37-N ) :   1.4112 B( 33-C , 34-N ) :   1.5220 B( 33-C , 42-C ) :   1.0842
B( 34-N , 35-C ) :   1.4913 B( 34-N , 53-S ) :   0.1100 B( 35-C , 36-C ) :   1.2912
B( 35-C , 40-C ) :   1.1484 B( 36-C , 37-N ) :   1.6510 B( 36-C , 38-C ) :   1.1602
B( 38-C , 39-N ) :   3.0404 B( 40-C , 41-N ) :   2.9480 B( 41-N , 85-H ) :   0.1327
B( 42-C , 43-C ) :   1.0931 B( 42-C , 48-C ) :   1.4891 B( 43-C , 44-C ) :   1.1280
B( 43-C , 47-N ) :   1.6050 B( 44-C , 45-N ) :   1.5475 B( 45-N , 46-S ) :   1.1942
B( 45-N , 47-N ) :   0.1235 B( 46-S , 47-N ) :   1.2408 B( 48-C , 49-C ) :   1.2555
B( 48-C , 79-H ) :   0.9541 B( 49-C , 50-C ) :   1.2858 B( 49-C , 53-S ) :   1.1269
B( 50-C , 51-C ) :   1.4290 B( 50-C , 80-H ) :   1.0030 B( 51-C , 52-C ) :   1.3194
B( 51-C , 81-H ) :   0.9941 B( 52-C , 53-S ) :   1.0260 B( 52-C , 54-C ) :   1.3062
B( 54-C , 55-C ) :   1.2789 B( 54-C , 58-S ) :   1.1501 B( 55-C , 56-C ) :   1.4807
B( 55-C , 82-H ) :   0.9959 B( 56-C , 57-C ) :   1.2200 B( 56-C , 83-H ) :   0.9993
B( 57-C , 58-S ) :   1.0352 B( 57-C , 59-C ) :   1.4388 B( 59-C , 60-C ) :   1.2374
B( 59-C , 84-H ) :   0.9728 B( 60-C , 61-C ) :   1.1452 B( 60-C , 71-C ) :   1.2627
B( 61-C , 62-C ) :   1.4399 B( 61-C , 85-H ) :   0.9682 B( 62-C , 63-C ) :   1.1744
B( 62-C , 70-C ) :   1.1252 B( 63-C , 64-C ) :   1.3741 B( 63-C , 86-H ) :   1.0082
B( 64-C , 65-C ) :   1.1681 B( 64-C , 68-C ) :   1.1132 B( 65-C , 66-C ) :   1.3744
B( 65-C , 87-H ) :   1.0185 B( 66-C , 67-C ) :   1.2693 B( 66-C , 72-C ) :   1.0794
B( 67-C , 68-C ) :   1.2831 B( 67-C , 88-H ) :   1.0096 B( 68-C , 69-C ) :   1.2809
B( 69-C , 70-C ) :   1.2646 B( 69-C , 89-H ) :   1.0045 B( 70-C , 71-C ) :   1.2620
B( 71-C , 90-H ) :   1.0165 B( 72-C , 73-C ) :   1.9421 B( 72-C , 91-H ) :   0.9669
B( 73-C , 92-H ) :   0.9537 B( 73-C , 93-H ) :   0.9492

-----------------------------------------------------------------------------
         ABSORPTION SPECTRUM VIA TRANSITION ELECTRIC DIPOLE MOMENTS
-----------------------------------------------------------------------------
State   Energy  Wavelength   fosc         T2         TX        TY        TZ
        (cm-1)    (nm)                  (au**2)     (au)      (au)      (au)
-----------------------------------------------------------------------------
   0    6282.5   1591.7   0.104567066   5.47949  -1.12165  -0.75575   1.91056
   1    7491.4   1334.9   0.452177344  19.87113   1.61197   2.09932  -3.58686
   2   12665.8    789.5   0.014397435   0.37422   0.36726  -0.48918   0.00623
   3   15740.0    635.3   0.017708715   0.37039   0.05090   0.51475   0.32068
   4   16600.2    602.4   0.735119975  14.57876   2.74699  -1.75961  -1.98408
   5   16974.9    589.1   0.112981260   2.19116  -1.02868   0.87524   0.60575
   6   20286.9    492.9   0.053216900   0.86360   0.68020  -0.21565  -0.59534
   7   21248.2    470.6   0.435895865   6.75362  -0.82257  -1.74787   1.73838
   8   21926.4    456.1   0.022640371   0.33993   0.23617   0.01314  -0.53290
   9   22718.0    440.2   0.062808103   0.91017  -0.38912   0.80126  -0.34168
  10   23346.1    428.3   0.129418564   1.82498   0.48384  -1.24041   0.22859
  11   23606.1    423.6   0.011127136   0.15518   0.17370   0.34747   0.06533
  12   24560.3    407.2   0.581624423   7.79623   1.89780  -2.01060  -0.38996
  13   25029.7    399.5   0.208001496   2.73581  -0.78580   1.30691   0.64057
  14   25411.5    393.5   0.005460411   0.07074  -0.07517  -0.20639  -0.14998
  15   26146.4    382.5   0.028482095   0.35862   0.25441  -0.47422   0.26270
  16   26798.0    373.2   0.530869874   6.52172   1.52110  -2.04955   0.08546
  17   27613.9    362.1   0.375079652   4.47169  -1.15626   1.76574   0.13013
  18   27877.3    358.7   0.031182385   0.36824  -0.46860  -0.29898  -0.24345
  19   27964.8    357.6   0.166165861   1.95616   0.07484   1.22457  -0.67156
  20   28299.1    353.4   0.008562073   0.09961   0.28229  -0.08546  -0.11231
  21   28450.4    351.5   0.246577953   2.85326   0.57473  -1.56677   0.26109
  22   29213.9    342.3   0.025805992   0.29081   0.21686  -0.33358  -0.36401
  23   29341.0    340.8   0.062980306   0.70665  -0.64988  -0.49258   0.20413
  24   29916.4    334.3   0.114282766   1.25761   0.06644  -1.10634  -0.17090
  25   29956.2    333.8   0.087706646   0.96388   0.29336   0.85570  -0.38157
  26   30178.6    331.4   0.131024353   1.42932   0.80765  -0.56797  -0.67411
  27   30453.7    328.4   0.238023102   2.57309  -1.20748   1.00352   0.32870
  28   30765.4    325.0   0.026893910   0.28778  -0.14261   0.51266   0.06802
  29   31665.7    315.8   0.014299097   0.14866  -0.11825   0.33630  -0.14690
  30   32039.7    312.1   0.022127041   0.22736   0.16169   0.17090  -0.41474
  31   32118.2    311.4   0.006334026   0.06492  -0.10220   0.04607   0.22882
  32   32227.7    310.3   0.125984939   1.28696  -0.79963  -0.31240   0.74158
  33   32242.7    310.1   0.079167635   0.80834   0.19549   0.86233   0.16280
  34   32639.0    306.4   0.069418739   0.70019  -0.10845  -0.82500  -0.08833
  35   32768.4    305.2   0.191695747   1.92590  -1.17313  -0.44323   0.59431
  36   32947.0    303.5   0.021801464   0.21784  -0.30347  -0.35354  -0.02759
  37   32986.5    303.2   0.147438671   1.47147   0.21757   1.02417   0.61254
  38   33166.2    301.5   0.026189623   0.25996   0.41228  -0.22503  -0.19836
  39   33532.3    298.2   0.064096023   0.62928   0.12721   0.48841  -0.61201
  40   33721.6    296.5   0.036404060   0.35540   0.04862   0.37905  -0.45756
  41   33934.7    294.7   0.079299313   0.76931   0.22149  -0.67228   0.51797
  42   34321.9    291.4   0.069264421   0.66438   0.64483   0.43263   0.24779
  43   34411.0    290.6   0.759829423   7.26932   1.92061   1.79859  -0.58791
  44   34763.7    287.7   0.053843908   0.50990   0.65966  -0.03833  -0.27071
  45   34850.0    286.9   0.015720748   0.14851  -0.16396   0.34126   0.07189
  46   35272.5    283.5   0.008742578   0.08160  -0.27292  -0.00322  -0.08427
  47   35376.1    282.7   0.052270271   0.48643   0.27604   0.17179  -0.61703
  48   35489.9    281.8   0.082769876   0.76779  -0.58833   0.09464   0.64242
  49   35754.0    279.7   0.161762001   1.48946   0.69981  -0.97462   0.22325
  50   36192.4    276.3   0.008371704   0.07615   0.03194   0.25723  -0.09466
  51   36261.9    275.8   0.002328159   0.02114  -0.00751  -0.04344  -0.13854
  52   36388.3    274.8   0.006199618   0.05609  -0.12815   0.09547   0.17479
  53   36530.9    273.7   0.007969186   0.07182  -0.09306  -0.16361   0.19076
  54   36676.3    272.7   0.000592490   0.00532   0.00269  -0.05811  -0.04398
  55   36859.2    271.3   0.027900466   0.24920  -0.36178   0.04354   0.34120
  56   36892.5    271.1   0.027346160   0.24402   0.04929   0.44512   0.20847
  57   37075.7    269.7   0.001158365   0.01029   0.01047   0.09611   0.03065
  58   37330.5    267.9   0.019193550   0.16927  -0.11289   0.34325  -0.19673
  59   37638.0    265.7   0.011591772   0.10139   0.05053  -0.27544   0.15156
  60   37682.5    265.4   0.046257924   0.40413   0.20266  -0.56521   0.20880
  61   38009.7    263.1   0.185548030   1.60708   0.93682  -0.79287  -0.31748
  62   38304.9    261.1   0.053170411   0.45697  -0.10752   0.65487  -0.12868
  63   38451.4    260.1   0.017377630   0.14878  -0.33404   0.16465  -0.10043
  64   38620.4    258.9   0.104890870   0.89412  -0.69827  -0.12928   0.62436
  65   38905.3    257.0   0.025972532   0.21978   0.35163  -0.28349  -0.12557
  66   38924.8    256.9   0.094912149   0.80273   0.67128  -0.47109  -0.36082
  67   39159.3    255.4   0.021557214   0.18123   0.30174  -0.12284  -0.27404
  68   39313.9    254.4   0.090169905   0.75508   0.39714  -0.75383  -0.17060
  69   39500.0    253.2   0.030054328   0.25049  -0.27893   0.39686   0.12324
  70   39983.0    250.1   0.001204973   0.00992  -0.04206  -0.05412   0.07228
  71   40142.8    249.1   0.042301965   0.34692  -0.28550  -0.08532   0.50807
  72   40204.6    248.7   0.007328432   0.06001   0.04944  -0.23599   0.04325

FINAL SINGLE POINT ENERGY     -4594.795845615759

DIPOLE MOMENT
-------------
                                X             Y             Z
Electronic contribution:     38.74620      44.72371     -61.36567
Nuclear contribution   :    -38.30228     -51.43341      66.83043
                        -----------------------------------------
Total Dipole Moment    :      0.44392      -6.70970       5.46476
                        -----------------------------------------
Magnitude (a.u.)       :      8.66491
Magnitude (Debye)      :     22.02446

Rotational constants in cm-1:     0.001018     0.000367     0.000287
Rotational constants in MHz :    30.525991    10.987832     8.605644

                             ****ORCA TERMINATED NORMALLY****
TOTAL RUN TIME: 0 days 0 hours 13 minutes 51 seconds 951 msec
