                         Program Version 4.2.0 -  RELEASE  -
|  1> # ORCA input file
|  2> # SCF done       -208.095564467721          0.000821256961
|  3> ! CAM-B3LYP def2-SVP def2/J RIJCOSX Grid4 TightSCF
|  4> %maxcore 5000
|  5> %tddft
|  6>     Mode sTDDFT
|  7>     Ethresh 5.0
|  8>     maxcore 5000
|  9> end
| 10>
| 11> %pal
| 12>   nprocs 6
| 13>   end
| 14> * xyz 0 1
| 15>    C       -4.76522       -11.30095        -6.52403
| 16>    C       -4.71493       -11.16279        -7.88341
| 17>    F       -4.52248       -12.23407        -8.66198
| 18>    C       -4.86472        -9.89559        -8.48198
| 19>    F       -4.81159        -9.78917        -9.81573
| 20>    C       -5.06275        -8.78348        -7.71226
| 21>    C       -5.11988        -8.89410        -6.30955
| 22>    C       -4.96871       -10.17455        -5.70258
| 23>    C       -5.02555       -10.31009        -4.29528
| 24>    C       -5.22983        -9.20071        -3.51963
| 25>    C       -5.38095        -7.92474        -4.13667
| 26>    C       -5.32782        -7.76202        -5.49143
| 27>    C       -5.60163        -6.91826        -3.09442
| 28>    O       -5.77364        -5.71087        -3.24751
| 29>    C       -5.58846        -7.63689        -1.81699
| 30>    C       -5.34180        -9.03833        -2.06965
| 31>    C       -5.22514       -10.03734        -1.13995
| 32>    C       -5.32587        -9.83113         0.25143
| 33>    N       -5.39879        -9.69914         1.38926
| 34>    C       -4.98122       -11.38951        -1.45728
| 35>    N       -4.78680       -12.50228        -1.65985
| 36>    C       -5.82162        -6.98330        -0.62903
| 37>    N       -6.04666        -5.66605        -0.64183
| 38>    C       -6.35790        -4.85025         0.39433
| 39>    S       -6.50684        -5.41731         2.02479
| 40>    C       -6.96024        -3.81545         2.51112
| 41>    N       -7.22136        -3.60738         3.87647
| 42>    O       -7.52828        -2.48706         4.22802
| 43>    O       -7.11329        -4.57899         4.60149
| 44>    C       -7.00071        -2.91117         1.48522
| 45>    C       -6.64557        -3.48573         0.24899
| 46>    C       -6.56183        -2.80434        -1.01329
| 47>    C       -7.15842        -1.63486        -1.31487
| 48>    C       -7.04716        -1.02341        -2.59766
| 49>    C       -7.80982         0.03287        -3.07668
| 50>    C       -8.79714         0.63445        -2.27729
| 51>    N       -9.58452         1.08469        -1.57646
| 52>    C       -7.48685         0.37606        -4.41644
| 53>    C       -6.46107        -0.42688        -4.90543
| 54>    S       -5.89843        -1.60186        -3.78556
| 55>    S       -5.99168        -0.10813        -6.54449
| 56>    C       -7.21837         1.11589        -6.60027
| 57>    C       -7.93682         1.28309        -5.42008
| 58>    C       -8.94172         2.27525        -5.56906
| 59>    C       -9.70991         2.80454        -4.51714
| 60>    N      -10.24946         3.31164        -3.64046
| 61>    C       -8.96971         2.80261        -6.85193
| 62>    S       -7.71533         2.15628        -7.87737
| 63>    C       -9.91989         3.72771        -7.38750
| 64>    C      -11.25279         3.76194        -6.93806
| 65>    C      -12.19987         4.72979        -7.43613
| 66>    N      -13.38789         4.83834        -6.81728
| 67>    C      -13.72068         3.98534        -5.88668
| 68>    C      -12.87388         2.85711        -5.59734
| 69>    N      -11.67113         2.80018        -6.09851
| 70>    C      -13.34751         1.78171        -4.80564
| 71>    N      -13.77000         0.91553        -4.18709
| 72>    C      -14.94988         4.15062        -5.20163
| 73>    N      -15.95042         4.24592        -4.65239
| 74>    C      -11.89628         5.59486        -8.51064
| 75>    C      -10.57688         5.51223        -8.99870
| 76>    C       -9.60669         4.59425        -8.44544
| 77>    N       -8.42754         4.67159        -9.06731
| 78>    S       -8.52895         5.76911       -10.23206
| 79>    N      -10.04994         6.20856       -10.01386
| 80>    C      -12.87641         6.49099        -9.09264
| 81>    C      -12.47270         7.72059        -9.63745
| 82>    C      -13.40662         8.53967       -10.21774
| 83>    C      -14.75988         8.16174       -10.27417
| 84>    C      -15.16907         6.94853        -9.73900
| 85>    C      -14.22899         6.12516        -9.15573
| 86>    C      -15.50280         9.20493       -10.95153
| 87>    C      -14.60812        10.22551       -11.31240
| 88>    C      -13.20247         9.88964       -10.86753
| 89>    C      -12.68149        10.91617        -9.85702
| 90>    C      -12.25112         9.78208       -12.06345
| 91>    C      -15.06074        11.34081       -11.98337
| 92>    C      -16.41170        11.43386       -12.29179
| 93>    C      -17.29587        10.42637       -11.93389
| 94>    C      -16.85138         9.30173       -11.26017
| 95>    H       -4.64890       -12.27858        -6.08299
| 96>    H       -5.17618        -7.82062        -8.18530
| 97>    H       -4.90886       -11.29284        -3.86813
| 98>    H       -5.44629        -6.78393        -5.93235
| 99>    H       -5.84423        -7.49005         0.32715
|100>    H       -6.02040        -5.25856        -1.59802
|101>    H       -7.25727        -1.87839         1.63445
|102>    H       -5.98083        -3.28801        -1.78902
|103>    H       -7.79531        -1.12619        -0.60454
|104>    H      -11.43674         8.01308        -9.57964
|105>    H      -16.20332         6.64380        -9.78762
|106>    H      -14.53474         5.16652        -8.76880
|107>    H      -13.35730        10.98494        -9.00729
|108>    H      -12.60621        11.89663       -10.32096
|109>    H      -11.69793        10.62458        -9.49675
|110>    H      -12.63129         9.05936       -12.78225
|111>    H      -11.26730         9.45779       -11.73338
|112>    H      -12.15514        10.74602       -12.55718
|113>    H      -14.38352        12.13279       -12.26762
|114>    H      -16.77950        12.30270       -12.81741
|115>    H      -18.34189        10.52197       -12.18493
|116>    H      -17.53908         8.51749       -10.98181
|117> *
|118>
|119>                          ****END OF INPUT****

CARTESIAN COORDINATES (ANGSTROEM)
---------------------------------
  C     -4.765220  -11.300950   -6.524030
  C     -4.714930  -11.162790   -7.883410
  F     -4.522480  -12.234070   -8.661980
  C     -4.864720   -9.895590   -8.481980
  F     -4.811590   -9.789170   -9.815730
  C     -5.062750   -8.783480   -7.712260
  C     -5.119880   -8.894100   -6.309550
  C     -4.968710  -10.174550   -5.702580
  C     -5.025550  -10.310090   -4.295280
  C     -5.229830   -9.200710   -3.519630
  C     -5.380950   -7.924740   -4.136670
  C     -5.327820   -7.762020   -5.491430
  C     -5.601630   -6.918260   -3.094420
  O     -5.773640   -5.710870   -3.247510
  C     -5.588460   -7.636890   -1.816990
  C     -5.341800   -9.038330   -2.069650
  C     -5.225140  -10.037340   -1.139950
  C     -5.325870   -9.831130    0.251430
  N     -5.398790   -9.699140    1.389260
  C     -4.981220  -11.389510   -1.457280
  N     -4.786800  -12.502280   -1.659850
  C     -5.821620   -6.983300   -0.629030
  N     -6.046660   -5.666050   -0.641830
  C     -6.357900   -4.850250    0.394330
  S     -6.506840   -5.417310    2.024790
  C     -6.960240   -3.815450    2.511120
  N     -7.221360   -3.607380    3.876470
  O     -7.528280   -2.487060    4.228020
  O     -7.113290   -4.578990    4.601490
  C     -7.000710   -2.911170    1.485220
  C     -6.645570   -3.485730    0.248990
  C     -6.561830   -2.804340   -1.013290
  C     -7.158420   -1.634860   -1.314870
  C     -7.047160   -1.023410   -2.597660
  C     -7.809820    0.032870   -3.076680
  C     -8.797140    0.634450   -2.277290
  N     -9.584520    1.084690   -1.576460
  C     -7.486850    0.376060   -4.416440
  C     -6.461070   -0.426880   -4.905430
  S     -5.898430   -1.601860   -3.785560
  S     -5.991680   -0.108130   -6.544490
  C     -7.218370    1.115890   -6.600270
  C     -7.936820    1.283090   -5.420080
  C     -8.941720    2.275250   -5.569060
  C     -9.709910    2.804540   -4.517140
  N    -10.249460    3.311640   -3.640460
  C     -8.969710    2.802610   -6.851930
  S     -7.715330    2.156280   -7.877370
  C     -9.919890    3.727710   -7.387500
  C    -11.252790    3.761940   -6.938060
  C    -12.199870    4.729790   -7.436130
  N    -13.387890    4.838340   -6.817280
  C    -13.720680    3.985340   -5.886680
  C    -12.873880    2.857110   -5.597340
  N    -11.671130    2.800180   -6.098510
  C    -13.347510    1.781710   -4.805640
  N    -13.770000    0.915530   -4.187090
  C    -14.949880    4.150620   -5.201630
  N    -15.950420    4.245920   -4.652390
  C    -11.896280    5.594860   -8.510640
  C    -10.576880    5.512230   -8.998700
  C     -9.606690    4.594250   -8.445440
  N     -8.427540    4.671590   -9.067310
  S     -8.528950    5.769110  -10.232060
  N    -10.049940    6.208560  -10.013860
  C    -12.876410    6.490990   -9.092640
  C    -12.472700    7.720590   -9.637450
  C    -13.406620    8.539670  -10.217740
  C    -14.759880    8.161740  -10.274170
  C    -15.169070    6.948530   -9.739000
  C    -14.228990    6.125160   -9.155730
  C    -15.502800    9.204930  -10.951530
  C    -14.608120   10.225510  -11.312400
  C    -13.202470    9.889640  -10.867530
  C    -12.681490   10.916170   -9.857020
  C    -12.251120    9.782080  -12.063450
  C    -15.060740   11.340810  -11.983370
  C    -16.411700   11.433860  -12.291790
  C    -17.295870   10.426370  -11.933890
  C    -16.851380    9.301730  -11.260170
  H     -4.648900  -12.278580   -6.082990
  H     -5.176180   -7.820620   -8.185300
  H     -4.908860  -11.292840   -3.868130
  H     -5.446290   -6.783930   -5.932350
  H     -5.844230   -7.490050    0.327150
  H     -6.020400   -5.258560   -1.598020
  H     -7.257270   -1.878390    1.634450
  H     -5.980830   -3.288010   -1.789020
  H     -7.795310   -1.126190   -0.604540
  H    -11.436740    8.013080   -9.579640
  H    -16.203320    6.643800   -9.787620
  H    -14.534740    5.166520   -8.768800
  H    -13.357300   10.984940   -9.007290
  H    -12.606210   11.896630  -10.320960
  H    -11.697930   10.624580   -9.496750
  H    -12.631290    9.059360  -12.782250
  H    -11.267300    9.457790  -11.733380
  H    -12.155140   10.746020  -12.557180
  H    -14.383520   12.132790  -12.267620
  H    -16.779500   12.302700  -12.817410
  H    -18.341890   10.521970  -12.184930
  H    -17.539080    8.517490  -10.981810

 Total Charge           Charge          ....    0
 Multiplicity           Mult            ....    1
 Number of Electrons    NEL             ....  576
 Basis Dimension        Dim             .... 1250

ORBITAL ENERGIES
----------------

  NO   OCC          E(Eh)            E(eV)
   0   2.0000     -89.057871     -2423.3879
   1   2.0000     -88.999011     -2421.7862
   2   2.0000     -88.994399     -2421.6607
   3   2.0000     -88.991297     -2421.5763
   4   2.0000     -88.989964     -2421.5400
   5   2.0000     -24.807317      -675.0414
   6   2.0000     -24.806026      -675.0063
   7   2.0000     -19.244873      -523.6796
   8   2.0000     -19.244699      -523.6749
   9   2.0000     -19.244542      -523.6706
  10   2.0000     -14.656674      -398.8284
  11   2.0000     -14.505931      -394.7265
  12   2.0000     -14.465954      -393.6386
  13   2.0000     -14.464226      -393.5916
  14   2.0000     -14.462779      -393.5522
  15   2.0000     -14.461827      -393.5263
  16   2.0000     -14.427648      -392.5963
  17   2.0000     -14.427035      -392.5796
  18   2.0000     -14.426238      -392.5579
  19   2.0000     -14.423025      -392.4705
  20   2.0000     -14.407272      -392.0418
  21   2.0000     -14.404303      -391.9610
  22   2.0000     -10.390954      -282.7522
  23   2.0000     -10.390949      -282.7521
  24   2.0000     -10.390315      -282.7348
  25   2.0000     -10.382415      -282.5199
  26   2.0000     -10.381272      -282.4888
  27   2.0000     -10.381183      -282.4864
  28   2.0000     -10.380772      -282.4752
  29   2.0000     -10.355738      -281.7940
  30   2.0000     -10.355400      -281.7848
  31   2.0000     -10.354894      -281.7710
  32   2.0000     -10.354242      -281.7532
  33   2.0000     -10.352796      -281.7139
  34   2.0000     -10.351220      -281.6710
  35   2.0000     -10.351202      -281.6705
  36   2.0000     -10.344910      -281.4993
  37   2.0000     -10.343089      -281.4498
  38   2.0000     -10.341066      -281.3947
  39   2.0000     -10.339840      -281.3614
  40   2.0000     -10.329788      -281.0878
  41   2.0000     -10.329518      -281.0805
  42   2.0000     -10.329390      -281.0770
  43   2.0000     -10.328297      -281.0472
  44   2.0000     -10.326495      -280.9982
  45   2.0000     -10.326009      -280.9850
  46   2.0000     -10.320996      -280.8486
  47   2.0000     -10.320706      -280.8407
  48   2.0000     -10.320246      -280.8282
  49   2.0000     -10.319943      -280.8199
  50   2.0000     -10.319205      -280.7999
  51   2.0000     -10.319058      -280.7958
  52   2.0000     -10.317377      -280.7501
  53   2.0000     -10.316171      -280.7173
  54   2.0000     -10.316072      -280.7146
  55   2.0000     -10.315003      -280.6855
  56   2.0000     -10.313117      -280.6342
  57   2.0000     -10.311822      -280.5989
  58   2.0000     -10.311160      -280.5809
  59   2.0000     -10.310356      -280.5590
  60   2.0000     -10.309660      -280.5401
  61   2.0000     -10.309653      -280.5399
  62   2.0000     -10.307576      -280.4834
  63   2.0000     -10.307220      -280.4737
  64   2.0000     -10.306295      -280.4485
  65   2.0000     -10.293298      -280.0949
  66   2.0000     -10.286910      -279.9210
  67   2.0000     -10.281404      -279.7712
  68   2.0000     -10.280307      -279.7414
  69   2.0000     -10.278716      -279.6981
  70   2.0000     -10.275653      -279.6147
  71   2.0000     -10.273701      -279.5616
  72   2.0000     -10.273231      -279.5488
  73   2.0000     -10.273112      -279.5456
  74   2.0000     -10.272260      -279.5224
  75   2.0000     -10.271906      -279.5128
  76   2.0000     -10.271391      -279.4988
  77   2.0000     -10.270299      -279.4690
  78   2.0000     -10.263943      -279.2961
  79   2.0000     -10.263576      -279.2861
  80   2.0000      -8.149011      -221.7459
  81   2.0000      -8.094205      -220.2545
  82   2.0000      -8.089427      -220.1245
  83   2.0000      -8.086543      -220.0460
  84   2.0000      -8.084669      -219.9950
  85   2.0000      -6.119976      -166.5330
  86   2.0000      -6.112224      -166.3221
  87   2.0000      -6.112037      -166.3170
  88   2.0000      -6.063846      -165.0056
  89   2.0000      -6.059426      -164.8854
  90   2.0000      -6.059414      -164.8850
  91   2.0000      -6.056065      -164.7939
  92   2.0000      -6.055746      -164.7852
  93   2.0000      -6.055140      -164.7687
  94   2.0000      -6.054329      -164.7467
  95   2.0000      -6.051928      -164.6813
  96   2.0000      -6.050312      -164.6374
  97   2.0000      -6.049890      -164.6259
  98   2.0000      -6.048138      -164.5782
  99   2.0000      -6.046271      -164.5274
 100   2.0000      -1.329922       -36.1890
 101   2.0000      -1.327410       -36.1207
 102   2.0000      -1.315014       -35.7833
 103   2.0000      -1.159833       -31.5606
 104   2.0000      -1.154233       -31.4083
 105   2.0000      -1.146957       -31.2103
 106   2.0000      -1.123540       -30.5731
 107   2.0000      -1.113799       -30.3080
 108   2.0000      -1.052064       -28.6281
 109   2.0000      -1.046096       -28.4657
 110   2.0000      -1.031136       -28.0586
 111   2.0000      -1.020159       -27.7599
 112   2.0000      -1.018301       -27.7094
 113   2.0000      -1.015392       -27.6302
 114   2.0000      -1.011384       -27.5212
 115   2.0000      -1.006352       -27.3842
 116   2.0000      -1.004064       -27.3220
 117   2.0000      -1.000523       -27.2256
 118   2.0000      -0.993625       -27.0379
 119   2.0000      -0.992015       -26.9941
 120   2.0000      -0.991825       -26.9889
 121   2.0000      -0.985405       -26.8142
 122   2.0000      -0.982073       -26.7236
 123   2.0000      -0.957406       -26.0523
 124   2.0000      -0.944993       -25.7146
 125   2.0000      -0.942808       -25.6551
 126   2.0000      -0.932045       -25.3622
 127   2.0000      -0.916545       -24.9405
 128   2.0000      -0.914698       -24.8902
 129   2.0000      -0.912189       -24.8219
 130   2.0000      -0.904888       -24.6232
 131   2.0000      -0.901561       -24.5327
 132   2.0000      -0.899450       -24.4753
 133   2.0000      -0.893249       -24.3065
 134   2.0000      -0.878174       -23.8963
 135   2.0000      -0.871153       -23.7053
 136   2.0000      -0.866453       -23.5774
 137   2.0000      -0.865620       -23.5547
 138   2.0000      -0.851818       -23.1791
 139   2.0000      -0.841918       -22.9098
 140   2.0000      -0.837328       -22.7849
 141   2.0000      -0.828014       -22.5314
 142   2.0000      -0.825020       -22.4499
 143   2.0000      -0.823265       -22.4022
 144   2.0000      -0.815656       -22.1951
 145   2.0000      -0.810630       -22.0584
 146   2.0000      -0.792431       -21.5631
 147   2.0000      -0.780912       -21.2497
 148   2.0000      -0.777307       -21.1516
 149   2.0000      -0.775927       -21.1140
 150   2.0000      -0.757994       -20.6261
 151   2.0000      -0.749289       -20.3892
 152   2.0000      -0.746675       -20.3181
 153   2.0000      -0.739331       -20.1182
 154   2.0000      -0.735416       -20.0117
 155   2.0000      -0.728893       -19.8342
 156   2.0000      -0.723733       -19.6938
 157   2.0000      -0.715301       -19.4643
 158   2.0000      -0.710243       -19.3267
 159   2.0000      -0.706967       -19.2376
 160   2.0000      -0.698262       -19.0007
 161   2.0000      -0.697594       -18.9825
 162   2.0000      -0.692030       -18.8311
 163   2.0000      -0.688432       -18.7332
 164   2.0000      -0.676551       -18.4099
 165   2.0000      -0.670797       -18.2533
 166   2.0000      -0.666883       -18.1468
 167   2.0000      -0.666186       -18.1278
 168   2.0000      -0.661147       -17.9907
 169   2.0000      -0.657397       -17.8887
 170   2.0000      -0.653418       -17.7804
 171   2.0000      -0.650800       -17.7092
 172   2.0000      -0.646801       -17.6004
 173   2.0000      -0.644316       -17.5327
 174   2.0000      -0.638291       -17.3688
 175   2.0000      -0.635137       -17.2830
 176   2.0000      -0.632991       -17.2246
 177   2.0000      -0.632461       -17.2101
 178   2.0000      -0.631629       -17.1875
 179   2.0000      -0.616219       -16.7682
 180   2.0000      -0.608379       -16.5548
 181   2.0000      -0.607810       -16.5394
 182   2.0000      -0.598171       -16.2771
 183   2.0000      -0.594791       -16.1851
 184   2.0000      -0.594364       -16.1735
 185   2.0000      -0.592363       -16.1190
 186   2.0000      -0.586970       -15.9723
 187   2.0000      -0.585009       -15.9189
 188   2.0000      -0.580909       -15.8073
 189   2.0000      -0.572580       -15.5807
 190   2.0000      -0.569982       -15.5100
 191   2.0000      -0.568608       -15.4726
 192   2.0000      -0.568448       -15.4682
 193   2.0000      -0.563768       -15.3409
 194   2.0000      -0.561994       -15.2926
 195   2.0000      -0.559284       -15.2189
 196   2.0000      -0.555741       -15.1225
 197   2.0000      -0.549201       -14.9445
 198   2.0000      -0.547455       -14.8970
 199   2.0000      -0.545847       -14.8533
 200   2.0000      -0.542520       -14.7627
 201   2.0000      -0.541716       -14.7408
 202   2.0000      -0.541063       -14.7231
 203   2.0000      -0.536888       -14.6095
 204   2.0000      -0.534284       -14.5386
 205   2.0000      -0.531273       -14.4567
 206   2.0000      -0.527391       -14.3510
 207   2.0000      -0.526590       -14.3293
 208   2.0000      -0.522147       -14.2084
 209   2.0000      -0.521166       -14.1817
 210   2.0000      -0.520423       -14.1614
 211   2.0000      -0.514395       -13.9974
 212   2.0000      -0.512972       -13.9587
 213   2.0000      -0.511963       -13.9312
 214   2.0000      -0.510092       -13.8803
 215   2.0000      -0.509377       -13.8608
 216   2.0000      -0.506974       -13.7955
 217   2.0000      -0.504470       -13.7273
 218   2.0000      -0.500843       -13.6286
 219   2.0000      -0.499102       -13.5813
 220   2.0000      -0.494964       -13.4687
 221   2.0000      -0.487420       -13.2634
 222   2.0000      -0.486888       -13.2489
 223   2.0000      -0.483656       -13.1609
 224   2.0000      -0.481701       -13.1078
 225   2.0000      -0.476616       -12.9694
 226   2.0000      -0.474395       -12.9090
 227   2.0000      -0.474266       -12.9054
 228   2.0000      -0.473966       -12.8973
 229   2.0000      -0.469850       -12.7853
 230   2.0000      -0.466260       -12.6876
 231   2.0000      -0.465746       -12.6736
 232   2.0000      -0.464048       -12.6274
 233   2.0000      -0.460819       -12.5395
 234   2.0000      -0.460264       -12.5244
 235   2.0000      -0.459178       -12.4949
 236   2.0000      -0.457021       -12.4362
 237   2.0000      -0.452753       -12.3200
 238   2.0000      -0.452479       -12.3126
 239   2.0000      -0.450470       -12.2579
 240   2.0000      -0.449627       -12.2350
 241   2.0000      -0.447172       -12.1682
 242   2.0000      -0.443503       -12.0683
 243   2.0000      -0.442625       -12.0444
 244   2.0000      -0.440790       -11.9945
 245   2.0000      -0.439686       -11.9645
 246   2.0000      -0.438068       -11.9204
 247   2.0000      -0.437233       -11.8977
 248   2.0000      -0.437013       -11.8917
 249   2.0000      -0.436873       -11.8879
 250   2.0000      -0.432623       -11.7723
 251   2.0000      -0.430338       -11.7101
 252   2.0000      -0.429711       -11.6930
 253   2.0000      -0.426015       -11.5924
 254   2.0000      -0.424159       -11.5420
 255   2.0000      -0.422064       -11.4849
 256   2.0000      -0.420501       -11.4424
 257   2.0000      -0.419989       -11.4285
 258   2.0000      -0.416001       -11.3200
 259   2.0000      -0.414534       -11.2800
 260   2.0000      -0.405839       -11.0434
 261   2.0000      -0.405487       -11.0339
 262   2.0000      -0.400466       -10.8972
 263   2.0000      -0.397373       -10.8131
 264   2.0000      -0.396799       -10.7974
 265   2.0000      -0.394225       -10.7274
 266   2.0000      -0.391531       -10.6541
 267   2.0000      -0.390134       -10.6161
 268   2.0000      -0.388044       -10.5592
 269   2.0000      -0.383899       -10.4464
 270   2.0000      -0.378181       -10.2908
 271   2.0000      -0.374060       -10.1787
 272   2.0000      -0.367050        -9.9879
 273   2.0000      -0.365403        -9.9431
 274   2.0000      -0.357373        -9.7246
 275   2.0000      -0.356064        -9.6890
 276   2.0000      -0.353696        -9.6246
 277   2.0000      -0.350993        -9.5510
 278   2.0000      -0.332887        -9.0583
 279   2.0000      -0.330015        -8.9802
 280   2.0000      -0.324432        -8.8282
 281   2.0000      -0.321827        -8.7574
 282   2.0000      -0.316767        -8.6197
 283   2.0000      -0.313920        -8.5422
 284   2.0000      -0.300302        -8.1716
 285   2.0000      -0.295686        -8.0460
 286   2.0000      -0.270947        -7.3729
 287   2.0000      -0.264968        -7.2101
 288   0.0000      -0.125093        -3.4040
 289   0.0000      -0.100504        -2.7348
 290   0.0000      -0.078673        -2.1408
 291   0.0000      -0.061154        -1.6641
 292   0.0000      -0.052976        -1.4416

MULLIKEN ATOMIC CHARGES
-----------------------
   0 C :   -0.105797
   1 C :    0.242811
   2 F :   -0.167671
   3 C :    0.241175
   4 F :   -0.169993
   5 C :   -0.103796
   6 C :    0.113798
   7 C :    0.111943
   8 C :   -0.081894
   9 C :    0.046834
  10 C :    0.003336
  11 C :   -0.076197
  12 C :    0.174361
  13 O :   -0.226810
  14 C :   -0.138842
  15 C :    0.330274
  16 C :   -0.338211
  17 C :   -0.198695
  18 N :    0.146278
  19 C :   -0.180602
  20 N :    0.152404
  21 C :    0.037062
  22 N :   -0.010552
  23 C :   -0.111170
  24 S :    0.189124
  25 C :    0.003493
  26 N :    0.273173
  27 O :   -0.236617
  28 O :   -0.253157
  29 C :    0.012858
  30 C :    0.125552
  31 C :   -0.064419
  32 C :    0.009099
  33 C :   -0.094421
  34 C :   -0.015826
  35 C :   -0.319890
  36 N :    0.212884
  37 C :    0.161900
  38 C :   -0.232068
  39 S :    0.159299
  40 S :    0.186639
  41 C :   -0.219216
  42 C :    0.107355
  43 C :    0.058945
  44 C :   -0.322735
  45 N :    0.207825
  46 C :   -0.197669
  47 S :    0.216119
  48 C :    0.098687
  49 C :   -0.049603
  50 C :   -0.066240
  51 N :    0.045036
  52 C :   -0.139038
  53 C :   -0.105144
  54 N :    0.016830
  55 C :   -0.189569
  56 N :    0.236927
  57 C :   -0.186726
  58 N :    0.224070
  59 C :    0.120190
  60 C :    0.001115
  61 C :   -0.006482
  62 N :   -0.294259
  63 S :    0.553471
  64 N :   -0.279308
  65 C :    0.006241
  66 C :   -0.061127
  67 C :    0.018972
  68 C :    0.103681
  69 C :   -0.060473
  70 C :    0.033986
  71 C :    0.098346
  72 C :    0.016510
  73 C :   -0.151333
  74 C :    0.110664
  75 C :    0.109971
  76 C :   -0.050117
  77 C :    0.031128
  78 C :    0.033557
  79 C :   -0.052168
  80 H :    0.010025
  81 H :   -0.001212
  82 H :   -0.003501
  83 H :   -0.011554
  84 H :    0.047169
  85 H :    0.183015
  86 H :    0.022527
  87 H :    0.013074
  88 H :    0.023623
  89 H :   -0.028797
  90 H :   -0.029276
  91 H :   -0.020099
  92 H :    0.021307
  93 H :    0.007778
  94 H :    0.005265
  95 H :    0.017882
  96 H :    0.006234
  97 H :    0.007132
  98 H :   -0.034138
  99 H :   -0.016177
 100 H :   -0.015785
 101 H :   -0.030583
Sum of atomic charges:   -0.0000000

LOEWDIN ATOMIC CHARGES
----------------------
   0 C :   -0.027708
   1 C :    0.068643
   2 F :   -0.045777
   3 C :    0.068642
   4 F :   -0.047459
   5 C :   -0.032364
   6 C :   -0.010107
   7 C :   -0.005450
   8 C :    0.020882
   9 C :   -0.019718
  10 C :   -0.052969
  11 C :    0.032694
  12 C :    0.097326
  13 O :   -0.178353
  14 C :   -0.145148
  15 C :    0.077639
  16 C :   -0.145440
  17 C :   -0.020450
  18 N :   -0.050327
  19 C :   -0.019238
  20 N :   -0.051190
  21 C :    0.116128
  22 N :    0.081273
  23 C :   -0.114088
  24 S :    0.479135
  25 C :   -0.195953
  26 N :    0.272169
  27 O :   -0.203140
  28 O :   -0.220270
  29 C :    0.006035
  30 C :   -0.085269
  31 C :   -0.026995
  32 C :   -0.024025
  33 C :   -0.130078
  34 C :   -0.091620
  35 C :   -0.042380
  36 N :   -0.026600
  37 C :   -0.062086
  38 C :   -0.331064
  39 S :    0.454355
  40 S :    0.423310
  41 C :   -0.331934
  42 C :   -0.063487
  43 C :   -0.079912
  44 C :   -0.038365
  45 N :   -0.046565
  46 C :   -0.129892
  47 S :    0.481997
  48 C :   -0.055436
  49 C :    0.005604
  50 C :   -0.012684
  51 N :    0.012232
  52 C :   -0.026852
  53 C :   -0.009559
  54 N :    0.012673
  55 C :   -0.032328
  56 N :    0.003267
  57 C :   -0.035480
  58 N :   -0.003219
  59 C :    0.012961
  60 C :   -0.042026
  61 C :   -0.042977
  62 N :   -0.303062
  63 S :    0.686045
  64 N :   -0.271702
  65 C :   -0.029255
  66 C :    0.002333
  67 C :   -0.003513
  68 C :    0.004299
  69 C :   -0.024194
  70 C :    0.009453
  71 C :   -0.023014
  72 C :    0.004420
  73 C :   -0.038460
  74 C :   -0.025563
  75 C :   -0.025991
  76 C :   -0.026713
  77 C :   -0.017013
  78 C :   -0.024042
  79 C :   -0.015806
  80 H :    0.048873
  81 H :    0.044628
  82 H :    0.041441
  83 H :    0.040184
  84 H :    0.038295
  85 H :    0.082551
  86 H :    0.050266
  87 H :    0.022647
  88 H :    0.045698
  89 H :    0.023615
  90 H :    0.029753
  91 H :    0.026604
  92 H :    0.029949
  93 H :    0.022687
  94 H :    0.021594
  95 H :    0.028802
  96 H :    0.022204
  97 H :    0.022127
  98 H :    0.025227
  99 H :    0.027877
 100 H :    0.028447
 101 H :    0.027322

  Mayer bond orders larger than 0.100000
B(  0-C ,  1-C ) :   1.4371 B(  0-C ,  5-C ) :   0.1075 B(  0-C ,  7-C ) :   1.1921
B(  0-C , 80-H ) :   1.0073 B(  1-C ,  2-F ) :   1.1390 B(  1-C ,  3-C ) :   1.1920
B(  3-C ,  4-F ) :   1.1353 B(  3-C ,  5-C ) :   1.4403 B(  5-C ,  6-C ) :   1.1927
B(  5-C , 81-H ) :   1.0076 B(  6-C ,  7-C ) :   1.2594 B(  6-C , 11-C ) :   1.1846
B(  7-C ,  8-C ) :   1.2072 B(  8-C ,  9-C ) :   1.4643 B(  8-C , 82-H ) :   0.9906
B(  9-C , 10-C ) :   1.2196 B(  9-C , 15-C ) :   0.9872 B( 10-C , 11-C ) :   1.4695
B( 10-C , 12-C ) :   0.9843 B( 11-C , 83-H ) :   1.0184 B( 12-C , 13-O ) :   2.0146
B( 12-C , 14-C ) :   1.0129 B( 13-O , 85-H ) :   0.1541 B( 14-C , 15-C ) :   1.0957
B( 14-C , 21-C ) :   1.4406 B( 15-C , 16-C ) :   1.6352 B( 16-C , 17-C ) :   1.1451
B( 16-C , 19-C ) :   1.1445 B( 17-C , 18-N ) :   2.9568 B( 19-C , 20-N ) :   2.9623
B( 21-C , 22-N ) :   1.3481 B( 21-C , 84-H ) :   0.9339 B( 22-N , 23-C ) :   1.1918
B( 22-N , 85-H ) :   0.8148 B( 23-C , 24-S ) :   1.1378 B( 23-C , 30-C ) :   1.3789
B( 24-S , 25-C ) :   1.0874 B( 25-C , 26-N ) :   0.9561 B( 25-C , 29-C ) :   1.5073
B( 26-N , 27-O ) :   1.5453 B( 26-N , 28-O ) :   1.5182 B( 27-O , 28-O ) :   0.2658
B( 29-C , 30-C ) :   1.2237 B( 29-C , 86-H ) :   1.0014 B( 30-C , 31-C ) :   1.0713
B( 31-C , 32-C ) :   1.7041 B( 31-C , 87-H ) :   0.9577 B( 32-C , 33-C ) :   1.1693
B( 32-C , 88-H ) :   0.9666 B( 33-C , 34-C ) :   1.4907 B( 33-C , 39-S ) :   1.1196
B( 34-C , 35-C ) :   1.1728 B( 34-C , 37-C ) :   1.2475 B( 35-C , 36-N ) :   2.9876
B( 37-C , 38-C ) :   1.4120 B( 37-C , 42-C ) :   1.0694 B( 38-C , 39-S ) :   1.0971
B( 38-C , 40-S ) :   1.0820 B( 40-S , 41-C ) :   1.0848 B( 41-C , 42-C ) :   1.4079
B( 41-C , 47-S ) :   1.0828 B( 42-C , 43-C ) :   1.2659 B( 43-C , 44-C ) :   1.1600
B( 43-C , 46-C ) :   1.4870 B( 44-C , 45-N ) :   2.9562 B( 46-C , 47-S ) :   1.1554
B( 46-C , 48-C ) :   1.1341 B( 48-C , 49-C ) :   1.3152 B( 48-C , 59-C ) :   0.1310
B( 48-C , 61-C ) :   1.2224 B( 49-C , 50-C ) :   1.0954 B( 49-C , 54-N ) :   1.3895
B( 50-C , 51-N ) :   1.4098 B( 50-C , 59-C ) :   1.2932 B( 51-N , 52-C ) :   1.7549
B( 52-C , 53-C ) :   1.1641 B( 52-C , 57-C ) :   1.1413 B( 53-C , 54-N ) :   1.7218
B( 53-C , 55-C ) :   1.1472 B( 55-C , 56-N ) :   3.0497 B( 57-C , 58-N ) :   3.0508
B( 59-C , 60-C ) :   1.2341 B( 59-C , 65-C ) :   1.0399 B( 60-C , 61-C ) :   1.1088
B( 60-C , 64-N ) :   1.4820 B( 61-C , 62-N ) :   1.5044 B( 62-N , 63-S ) :   1.2756
B( 62-N , 64-N ) :   0.1549 B( 63-S , 64-N ) :   1.3074 B( 65-C , 66-C ) :   1.3002
B( 65-C , 70-C ) :   1.3420 B( 66-C , 67-C ) :   1.4093 B( 66-C , 89-H ) :   0.9913
B( 67-C , 68-C ) :   1.3782 B( 67-C , 73-C ) :   0.9338 B( 68-C , 69-C ) :   1.3338
B( 68-C , 71-C ) :   0.9933 B( 69-C , 70-C ) :   1.3989 B( 69-C , 90-H ) :   0.9947
B( 70-C , 91-H ) :   0.9786 B( 71-C , 72-C ) :   1.3870 B( 71-C , 79-C ) :   1.3519
B( 72-C , 73-C ) :   0.9408 B( 72-C , 76-C ) :   1.4061 B( 73-C , 74-C ) :   1.0292
B( 73-C , 75-C ) :   1.0336 B( 74-C , 92-H ) :   0.9645 B( 74-C , 93-H ) :   0.9634
B( 74-C , 94-H ) :   0.9634 B( 75-C , 95-H ) :   0.9643 B( 75-C , 96-H ) :   0.9623
B( 75-C , 97-H ) :   0.9630 B( 76-C , 77-C ) :   1.3599 B( 76-C , 98-H ) :   1.0006
B( 77-C , 78-C ) :   1.3893 B( 77-C , 99-H ) :   0.9850 B( 78-C , 79-C ) :   1.3833
B( 78-C ,100-H ) :   0.9851 B( 79-C ,101-H ) :   0.9915

-----------------------------------------------------------------------------
         ABSORPTION SPECTRUM VIA TRANSITION ELECTRIC DIPOLE MOMENTS
-----------------------------------------------------------------------------
State   Energy  Wavelength   fosc         T2         TX        TY        TZ
        (cm-1)    (nm)                  (au**2)     (au)      (au)      (au)
-----------------------------------------------------------------------------
   0   13901.5    719.3   0.579375101  13.72059  -2.20234   2.49322  -1.62914
   1   19646.8    509.0   0.001373958   0.02302  -0.09001  -0.07937   0.09285
   2   21173.3    472.3   0.544558678   8.46704  -0.80886   2.61460   0.98826
   3   21390.2    467.5   0.345545951   5.31823   0.44356  -2.20097  -0.52649
   4   23600.9    423.7   0.007713126   0.10759  -0.23426  -0.22021  -0.06495
   5   25707.1    389.0   0.043488862   0.55693   0.05820   0.15247  -0.72821
   6   25928.2    385.7   0.021614476   0.27444  -0.29436   0.40678  -0.14941
   7   26420.2    378.5   0.021238434   0.26464  -0.15139   0.30262  -0.38749
   8   27543.7    363.1   0.014254855   0.17038   0.05316  -0.20880   0.35207
   9   27630.5    361.9   0.042817221   0.51016  -0.12313  -0.52925   0.46356
  10   27794.8    359.8   0.179999191   2.13198   0.48515  -1.27036   0.53178
  11   28181.8    354.8   0.151115642   1.76529  -0.57626   0.64194  -1.01051
  12   28627.4    349.3   0.459211543   5.28088  -0.16761   0.82050  -2.13999
  13   29190.9    342.6   0.034430863   0.38831  -0.58526   0.20950  -0.04343
  14   29599.9    337.8   0.001941641   0.02160  -0.06372   0.10692  -0.07813
  15   29842.1    335.1   0.072780359   0.80290  -0.07134   0.13079   0.88357
  16   30468.7    328.2   0.550048349   5.94322   0.15820  -0.64191  -2.34652
  17   30604.1    326.8   0.015006822   0.16143  -0.07456   0.34874  -0.18507
  18   31997.4    312.5   0.637105055   6.55498  -2.36645   0.97313   0.08889
  19   32364.1    309.0   0.006827554   0.06945  -0.04940   0.17783  -0.18812
  20   32441.5    308.2   0.047336117   0.48036  -0.67488   0.15556   0.02642
  21   32763.8    305.2   0.162542641   1.63323  -0.54569  -0.84455   0.78879
  22   33062.4    302.5   0.431575995   4.29733   0.32630   0.35695  -2.01580
  23   33121.3    301.9   0.679328297   6.75225   0.46560   1.77874  -1.83618
  24   33279.3    300.5   0.100529209   0.99447  -0.00013  -0.71522   0.69493
  25   33368.7    299.7   0.000880423   0.00869  -0.00893  -0.00370  -0.09270
  26   34056.9    293.6   0.021268718   0.20559   0.06607   0.21917  -0.39140
  27   34177.3    292.6   0.015887460   0.15304   0.25966  -0.24321   0.16268
  28   34629.6    288.8   0.867944547   8.25126   0.08142   0.51737  -2.82435
  29   34710.1    288.1   0.015440517   0.14645   0.04201  -0.14365   0.35220
  30   35342.8    282.9   0.039462079   0.36758   0.32189   0.29535  -0.42040
  31   35430.8    282.2   0.082109402   0.76294  -0.25557  -0.45107   0.70296
  32   36183.4    276.4   0.003783047   0.03442  -0.03596  -0.18090  -0.02003
  33   36758.7    272.0   0.022108951   0.19801   0.31370   0.02198  -0.31483
  34   36825.5    271.6   0.002118329   0.01894   0.02503  -0.13358   0.02160
  35   37143.2    269.2   0.171682398   1.52167   0.24731  -1.16334   0.32733
  36   37151.9    269.2   0.087157539   0.77232   0.21657  -0.84684   0.09100
  37   37481.4    266.8   0.096824314   0.85044  -0.10063   0.47094   0.78647
  38   37554.8    266.3   0.183440574   1.60807  -1.08685  -0.26932   0.59522
  39   37725.6    265.1   0.002645277   0.02308   0.06964   0.11229   0.07500
  40   38199.8    261.8   0.058163076   0.50126  -0.49793  -0.28152   0.41722
  41   38398.1    260.4   0.003859517   0.03309  -0.07705  -0.03050   0.16193
  42   38622.7    258.9   0.011217716   0.09562   0.03732   0.18182  -0.24732
  43   38971.9    256.6   0.015786613   0.13336  -0.10394   0.09599   0.33666
  44   39002.5    256.4   0.036288790   0.30631   0.28587  -0.42869  -0.20200
  45   39078.4    255.9   0.000915100   0.00771  -0.01130  -0.00085  -0.08707
  46   39647.1    252.2   0.000909280   0.00755  -0.05946  -0.00971  -0.06261
  47   39668.4    252.1   0.006366479   0.05284   0.12260   0.03711  -0.19086
  48   39904.1    250.6   0.047068573   0.38832   0.39877  -0.31039   0.36464
  49   39979.9    250.1   0.275968905   2.27245  -1.04524   1.01702  -0.38156
  50   40117.5    249.3   0.038385703   0.31500   0.05010  -0.53115  -0.17427
  51   40276.1    248.3   0.004576689   0.03741  -0.12129   0.13704   0.06260

FINAL SINGLE POINT ENERGY     -5291.844566272101

DIPOLE MOMENT
-------------
                                X             Y             Z
Electronic contribution:     48.93194     -90.18019      34.40297
Nuclear contribution   :    -46.41369      92.23718     -40.77157
                        -----------------------------------------
Total Dipole Moment    :      2.51824       2.05699      -6.36861
                        -----------------------------------------
Magnitude (a.u.)       :      7.15066
Magnitude (Debye)      :     18.17553

Rotational constants in cm-1:     0.001142     0.000222     0.000199
Rotational constants in MHz :    34.222773     6.656013     5.963163

                             ****ORCA TERMINATED NORMALLY****
TOTAL RUN TIME: 0 days 0 hours 10 minutes 1 seconds 655 msec
