                         Program Version 4.2.0 -  RELEASE  -
|  1> # ORCA input file
|  2> # SCF done       -207.772230273014          0.000556622353
|  3> ! CAM-B3LYP def2-SVP def2/J RIJCOSX Grid4 TightSCF
|  4> %maxcore 5000
|  5> %tddft
|  6>     Mode sTDDFT
|  7>     Ethresh 5.0
|  8>     maxcore 5000
|  9> end
| 10>
| 11> %pal
| 12>   nprocs 6
| 13>   end
| 14> * xyz 0 1
| 15>    C       -9.10819       -10.96402        -2.31838
| 16>    C      -10.41519       -10.67683        -2.59768
| 17>    F      -11.12050       -11.46418        -3.41892
| 18>    C      -11.03484        -9.54433        -2.03249
| 19>    F      -12.30905        -9.26360        -2.34583
| 20>    C      -10.34330        -8.72065        -1.18883
| 21>    C       -8.99316        -8.98749        -0.88790
| 22>    C       -8.36098       -10.12513        -1.46737
| 23>    C       -6.99561       -10.38710        -1.21674
| 24>    C       -6.28210        -9.52444        -0.42873
| 25>    C       -6.92272        -8.39372         0.14915
| 26>    C       -8.24491        -8.12577        -0.05843
| 27>    C       -5.92935        -7.57864         0.86314
| 28>    O       -6.13196        -6.52015         1.43321
| 29>    C       -4.63060        -8.23103         0.61997
| 30>    C       -4.86671        -9.48158        -0.08319
| 31>    C       -3.94590       -10.45925        -0.34089
| 32>    C       -2.58911       -10.39362         0.04133
| 33>    N       -1.47802       -10.37796         0.32963
| 34>    C       -4.24780       -11.67171        -0.99795
| 35>    N       -4.43512       -12.67450        -1.52250
| 36>    C       -3.41387        -7.63209         0.77594
| 37>    N       -3.15427        -6.46901         1.40919
| 38>    C       -3.82837        -5.90777         2.47870
| 39>    S       -4.18569        -6.85337         3.88738
| 40>    C       -4.64410        -5.40707         4.71442
| 41>    N       -5.12364        -5.52238         6.03088
| 42>    O       -5.43119        -4.49965         6.60864
| 43>    O       -5.19523        -6.64682         6.48886
| 44>    C       -4.51757        -4.27384         3.95510
| 45>    C       -4.06110        -4.55158         2.65395
| 46>    C       -4.08537        -3.56903         1.57767
| 47>    C       -4.67447        -3.86206         0.41420
| 48>    C       -4.94807        -2.89926        -0.64544
| 49>    C       -6.17381        -2.68305        -1.21832
| 50>    O       -7.40018        -3.22453        -1.08393
| 51>    C       -7.58649        -4.43114        -0.37534
| 52>    S       -6.19030        -1.31651        -2.30429
| 53>    C       -4.49064        -1.06363        -2.04532
| 54>    O       -3.76960        -0.09483        -2.62898
| 55>    C       -4.43987         0.73151        -3.56147
| 56>    C       -3.97364        -1.96867        -1.15363
| 57>    N       -2.62160        -1.90076        -0.81529
| 58>    C       -1.70515        -2.84680        -0.54418
| 59>    S       -0.28074        -2.27383         0.28694
| 60>    C        0.31788        -3.90047         0.40976
| 61>    N        1.55644        -4.10473         1.03341
| 62>    O        1.94150        -5.25182         1.15116
| 63>    O        2.14260        -3.10893         1.41720
| 64>    C       -0.52089        -4.81522        -0.15347
| 65>    C       -1.67801        -4.24536        -0.74171
| 66>    C       -2.58169        -5.08799        -1.45226
| 67>    C       -3.54898        -4.74867        -2.34261
| 68>    C       -4.49871        -5.70677        -2.75163
| 69>    C       -5.67071        -5.50573        -3.42328
| 70>    C       -6.74926        -6.51426        -3.27003
| 71>    O       -6.63677        -7.62570        -2.79251
| 72>    C       -7.98244        -5.84221        -3.71489
| 73>    C       -9.26799        -6.30119        -3.68687
| 74>    C      -10.30998        -5.45590        -4.12885
| 75>    C       -9.99547        -4.13998        -4.57902
| 76>    C      -11.03774        -3.29747        -5.01396
| 77>    C      -12.33017        -3.74229        -5.00913
| 78>    C      -12.64009        -5.04474        -4.56605
| 79>    C      -11.65203        -5.88468        -4.13266
| 80>    F      -13.91398        -5.44999        -4.57226
| 81>    F      -13.31766        -2.94229        -5.42680
| 82>    C       -8.65429        -3.69324        -4.59932
| 83>    C       -7.65926        -4.53722        -4.18562
| 84>    C       -6.20882        -4.36635        -4.13159
| 85>    C       -5.50782        -3.39219        -4.79235
| 86>    C       -4.10459        -3.34238        -4.92574
| 87>    N       -2.97456        -3.24136        -5.10024
| 88>    C       -6.10595        -2.31500        -5.47905
| 89>    N       -6.50934        -1.38724        -6.02186
| 90>    H       -8.64756       -11.83244        -2.76255
| 91>    H      -10.83424        -7.85948        -0.76189
| 92>    H       -6.53903       -11.24395        -1.68488
| 93>    H       -8.70639        -7.25634         0.38536
| 94>    H       -2.55097        -8.07431         0.29235
| 95>    H       -2.28905        -6.00129         1.16269
| 96>    H       -4.77937        -3.29646         4.31797
| 97>    H       -3.75795        -2.56680         1.81463
| 98>    H       -5.05865        -4.86037         0.27784
| 99>    H       -7.23165        -4.36064         0.65443
|100>    H       -7.09130        -5.26734        -0.87649
|101>    H       -8.66313        -4.59354        -0.38467
|102>    H       -4.82595         0.14653        -4.40044
|103>    H       -3.69783         1.44204        -3.91722
|104>    H       -5.26828         1.26190        -3.08326
|105>    H       -2.26771        -0.95089        -0.81289
|106>    H       -0.27274        -5.86212        -0.19983
|107>    H       -2.44469        -6.14589        -1.26343
|108>    H       -3.64817        -3.73205        -2.67445
|109>    H       -4.38516        -6.70803        -2.34455
|110>    H       -9.48529        -7.29869        -3.33564
|111>    H      -10.81829        -2.29951        -5.35989
|112>    H      -11.91041        -6.87776        -3.79981
|113>    H       -8.44863        -2.68982        -4.93599
|114> *
|115>
|116>                          ****END OF INPUT****

CARTESIAN COORDINATES (ANGSTROEM)
---------------------------------
  C     -9.108190  -10.964020   -2.318380
  C    -10.415190  -10.676830   -2.597680
  F    -11.120500  -11.464180   -3.418920
  C    -11.034840   -9.544330   -2.032490
  F    -12.309050   -9.263600   -2.345830
  C    -10.343300   -8.720650   -1.188830
  C     -8.993160   -8.987490   -0.887900
  C     -8.360980  -10.125130   -1.467370
  C     -6.995610  -10.387100   -1.216740
  C     -6.282100   -9.524440   -0.428730
  C     -6.922720   -8.393720    0.149150
  C     -8.244910   -8.125770   -0.058430
  C     -5.929350   -7.578640    0.863140
  O     -6.131960   -6.520150    1.433210
  C     -4.630600   -8.231030    0.619970
  C     -4.866710   -9.481580   -0.083190
  C     -3.945900  -10.459250   -0.340890
  C     -2.589110  -10.393620    0.041330
  N     -1.478020  -10.377960    0.329630
  C     -4.247800  -11.671710   -0.997950
  N     -4.435120  -12.674500   -1.522500
  C     -3.413870   -7.632090    0.775940
  N     -3.154270   -6.469010    1.409190
  C     -3.828370   -5.907770    2.478700
  S     -4.185690   -6.853370    3.887380
  C     -4.644100   -5.407070    4.714420
  N     -5.123640   -5.522380    6.030880
  O     -5.431190   -4.499650    6.608640
  O     -5.195230   -6.646820    6.488860
  C     -4.517570   -4.273840    3.955100
  C     -4.061100   -4.551580    2.653950
  C     -4.085370   -3.569030    1.577670
  C     -4.674470   -3.862060    0.414200
  C     -4.948070   -2.899260   -0.645440
  C     -6.173810   -2.683050   -1.218320
  O     -7.400180   -3.224530   -1.083930
  C     -7.586490   -4.431140   -0.375340
  S     -6.190300   -1.316510   -2.304290
  C     -4.490640   -1.063630   -2.045320
  O     -3.769600   -0.094830   -2.628980
  C     -4.439870    0.731510   -3.561470
  C     -3.973640   -1.968670   -1.153630
  N     -2.621600   -1.900760   -0.815290
  C     -1.705150   -2.846800   -0.544180
  S     -0.280740   -2.273830    0.286940
  C      0.317880   -3.900470    0.409760
  N      1.556440   -4.104730    1.033410
  O      1.941500   -5.251820    1.151160
  O      2.142600   -3.108930    1.417200
  C     -0.520890   -4.815220   -0.153470
  C     -1.678010   -4.245360   -0.741710
  C     -2.581690   -5.087990   -1.452260
  C     -3.548980   -4.748670   -2.342610
  C     -4.498710   -5.706770   -2.751630
  C     -5.670710   -5.505730   -3.423280
  C     -6.749260   -6.514260   -3.270030
  O     -6.636770   -7.625700   -2.792510
  C     -7.982440   -5.842210   -3.714890
  C     -9.267990   -6.301190   -3.686870
  C    -10.309980   -5.455900   -4.128850
  C     -9.995470   -4.139980   -4.579020
  C    -11.037740   -3.297470   -5.013960
  C    -12.330170   -3.742290   -5.009130
  C    -12.640090   -5.044740   -4.566050
  C    -11.652030   -5.884680   -4.132660
  F    -13.913980   -5.449990   -4.572260
  F    -13.317660   -2.942290   -5.426800
  C     -8.654290   -3.693240   -4.599320
  C     -7.659260   -4.537220   -4.185620
  C     -6.208820   -4.366350   -4.131590
  C     -5.507820   -3.392190   -4.792350
  C     -4.104590   -3.342380   -4.925740
  N     -2.974560   -3.241360   -5.100240
  C     -6.105950   -2.315000   -5.479050
  N     -6.509340   -1.387240   -6.021860
  H     -8.647560  -11.832440   -2.762550
  H    -10.834240   -7.859480   -0.761890
  H     -6.539030  -11.243950   -1.684880
  H     -8.706390   -7.256340    0.385360
  H     -2.550970   -8.074310    0.292350
  H     -2.289050   -6.001290    1.162690
  H     -4.779370   -3.296460    4.317970
  H     -3.757950   -2.566800    1.814630
  H     -5.058650   -4.860370    0.277840
  H     -7.231650   -4.360640    0.654430
  H     -7.091300   -5.267340   -0.876490
  H     -8.663130   -4.593540   -0.384670
  H     -4.825950    0.146530   -4.400440
  H     -3.697830    1.442040   -3.917220
  H     -5.268280    1.261900   -3.083260
  H     -2.267710   -0.950890   -0.812890
  H     -0.272740   -5.862120   -0.199830
  H     -2.444690   -6.145890   -1.263430
  H     -3.648170   -3.732050   -2.674450
  H     -4.385160   -6.708030   -2.344550
  H     -9.485290   -7.298690   -3.335640
  H    -10.818290   -2.299510   -5.359890
  H    -11.910410   -6.877760   -3.799810
  H     -8.448630   -2.689820   -4.935990

 Total Charge           Charge          ....    0
 Multiplicity           Mult            ....    1
 Number of Electrons    NEL             ....  540
 Basis Dimension        Dim             .... 1182

ORBITAL ENERGIES
----------------

  NO   OCC          E(Eh)            E(eV)
   0   2.0000     -88.998545     -2421.7735
   1   2.0000     -88.989675     -2421.5322
   2   2.0000     -88.984744     -2421.3980
   3   2.0000     -24.814332      -675.2323
   4   2.0000     -24.806845      -675.0286
   5   2.0000     -24.806562      -675.0209
   6   2.0000     -24.806432      -675.0173
   7   2.0000     -19.286482      -524.8119
   8   2.0000     -19.278204      -524.5866
   9   2.0000     -19.249387      -523.8024
  10   2.0000     -19.248026      -523.7654
  11   2.0000     -19.244675      -523.6742
  12   2.0000     -19.244398      -523.6667
  13   2.0000     -19.235310      -523.4194
  14   2.0000     -19.231651      -523.3198
  15   2.0000     -14.660959      -398.9450
  16   2.0000     -14.656100      -398.8128
  17   2.0000     -14.507811      -394.7776
  18   2.0000     -14.499376      -394.5481
  19   2.0000     -14.431062      -392.6892
  20   2.0000     -14.427640      -392.5960
  21   2.0000     -14.425703      -392.5433
  22   2.0000     -14.422482      -392.4557
  23   2.0000     -10.398034      -282.9449
  24   2.0000     -10.393189      -282.8130
  25   2.0000     -10.390893      -282.7506
  26   2.0000     -10.390471      -282.7391
  27   2.0000     -10.390156      -282.7305
  28   2.0000     -10.386961      -282.6436
  29   2.0000     -10.381832      -282.5040
  30   2.0000     -10.381392      -282.4920
  31   2.0000     -10.378639      -282.4171
  32   2.0000     -10.376853      -282.3685
  33   2.0000     -10.370858      -282.2054
  34   2.0000     -10.358040      -281.8566
  35   2.0000     -10.354714      -281.7661
  36   2.0000     -10.354196      -281.7520
  37   2.0000     -10.353538      -281.7341
  38   2.0000     -10.351750      -281.6854
  39   2.0000     -10.351628      -281.6821
  40   2.0000     -10.346351      -281.5385
  41   2.0000     -10.341156      -281.3972
  42   2.0000     -10.338388      -281.3218
  43   2.0000     -10.334464      -281.2150
  44   2.0000     -10.330226      -281.0997
  45   2.0000     -10.330125      -281.0970
  46   2.0000     -10.330040      -281.0947
  47   2.0000     -10.329484      -281.0795
  48   2.0000     -10.328307      -281.0475
  49   2.0000     -10.325252      -280.9644
  50   2.0000     -10.321096      -280.8513
  51   2.0000     -10.320965      -280.8477
  52   2.0000     -10.320717      -280.8410
  53   2.0000     -10.319681      -280.8128
  54   2.0000     -10.318542      -280.7818
  55   2.0000     -10.318432      -280.7788
  56   2.0000     -10.314237      -280.6646
  57   2.0000     -10.314206      -280.6638
  58   2.0000     -10.314056      -280.6597
  59   2.0000     -10.313422      -280.6425
  60   2.0000     -10.312936      -280.6292
  61   2.0000     -10.312791      -280.6253
  62   2.0000     -10.312355      -280.6135
  63   2.0000     -10.310114      -280.5525
  64   2.0000     -10.309827      -280.5447
  65   2.0000     -10.309795      -280.5438
  66   2.0000     -10.309745      -280.5424
  67   2.0000     -10.309343      -280.5315
  68   2.0000     -10.308364      -280.5049
  69   2.0000     -10.307419      -280.4791
  70   2.0000     -10.305564      -280.4286
  71   2.0000     -10.303427      -280.3705
  72   2.0000     -10.303175      -280.3636
  73   2.0000     -10.302078      -280.3338
  74   2.0000     -10.301876      -280.3283
  75   2.0000      -8.094794      -220.2706
  76   2.0000      -8.085241      -220.0106
  77   2.0000      -8.080325      -219.8768
  78   2.0000      -6.064608      -165.0264
  79   2.0000      -6.060107      -164.9039
  80   2.0000      -6.055844      -164.7879
  81   2.0000      -6.054658      -164.7556
  82   2.0000      -6.050398      -164.6397
  83   2.0000      -6.049894      -164.6260
  84   2.0000      -6.046998      -164.5472
  85   2.0000      -6.045974      -164.5193
  86   2.0000      -6.041514      -164.3980
  87   2.0000      -1.333357       -36.2825
  88   2.0000      -1.330755       -36.2117
  89   2.0000      -1.330319       -36.1998
  90   2.0000      -1.327168       -36.1141
  91   2.0000      -1.317636       -35.8547
  92   2.0000      -1.315333       -35.7920
  93   2.0000      -1.192798       -32.4577
  94   2.0000      -1.182018       -32.1644
  95   2.0000      -1.151316       -31.3289
  96   2.0000      -1.150593       -31.3092
  97   2.0000      -1.146457       -31.1967
  98   2.0000      -1.144820       -31.1521
  99   2.0000      -1.106205       -30.1014
 100   2.0000      -1.102398       -29.9978
 101   2.0000      -1.032403       -28.0931
 102   2.0000      -1.030125       -28.0311
 103   2.0000      -1.022737       -27.8301
 104   2.0000      -1.016049       -27.6481
 105   2.0000      -1.014978       -27.6189
 106   2.0000      -1.013281       -27.5728
 107   2.0000      -1.007222       -27.4079
 108   2.0000      -1.003670       -27.3113
 109   2.0000      -0.994342       -27.0574
 110   2.0000      -0.991867       -26.9901
 111   2.0000      -0.991404       -26.9775
 112   2.0000      -0.953102       -25.9352
 113   2.0000      -0.941924       -25.6311
 114   2.0000      -0.938699       -25.5433
 115   2.0000      -0.931773       -25.3548
 116   2.0000      -0.916989       -24.9525
 117   2.0000      -0.912489       -24.8301
 118   2.0000      -0.906263       -24.6607
 119   2.0000      -0.902443       -24.5567
 120   2.0000      -0.902293       -24.5526
 121   2.0000      -0.897470       -24.4214
 122   2.0000      -0.891678       -24.2638
 123   2.0000      -0.876432       -23.8489
 124   2.0000      -0.869433       -23.6585
 125   2.0000      -0.865244       -23.5445
 126   2.0000      -0.853458       -23.2238
 127   2.0000      -0.851189       -23.1620
 128   2.0000      -0.850687       -23.1484
 129   2.0000      -0.834419       -22.7057
 130   2.0000      -0.827813       -22.5259
 131   2.0000      -0.819816       -22.3083
 132   2.0000      -0.811964       -22.0947
 133   2.0000      -0.797108       -21.6904
 134   2.0000      -0.780915       -21.2498
 135   2.0000      -0.779465       -21.2103
 136   2.0000      -0.779132       -21.2013
 137   2.0000      -0.771544       -20.9948
 138   2.0000      -0.752661       -20.4809
 139   2.0000      -0.745499       -20.2861
 140   2.0000      -0.736789       -20.0490
 141   2.0000      -0.732102       -19.9215
 142   2.0000      -0.729456       -19.8495
 143   2.0000      -0.728749       -19.8303
 144   2.0000      -0.709972       -19.3193
 145   2.0000      -0.707907       -19.2631
 146   2.0000      -0.702168       -19.1070
 147   2.0000      -0.701256       -19.0821
 148   2.0000      -0.694907       -18.9094
 149   2.0000      -0.692809       -18.8523
 150   2.0000      -0.688120       -18.7247
 151   2.0000      -0.670743       -18.2519
 152   2.0000      -0.667917       -18.1749
 153   2.0000      -0.666200       -18.1282
 154   2.0000      -0.661837       -18.0095
 155   2.0000      -0.655980       -17.8501
 156   2.0000      -0.654109       -17.7992
 157   2.0000      -0.653040       -17.7701
 158   2.0000      -0.650548       -17.7023
 159   2.0000      -0.646088       -17.5810
 160   2.0000      -0.643517       -17.5110
 161   2.0000      -0.642554       -17.4848
 162   2.0000      -0.641703       -17.4616
 163   2.0000      -0.641419       -17.4539
 164   2.0000      -0.637509       -17.3475
 165   2.0000      -0.627444       -17.0736
 166   2.0000      -0.625671       -17.0254
 167   2.0000      -0.622267       -16.9327
 168   2.0000      -0.615078       -16.7371
 169   2.0000      -0.609003       -16.5718
 170   2.0000      -0.606837       -16.5129
 171   2.0000      -0.601341       -16.3633
 172   2.0000      -0.598607       -16.2889
 173   2.0000      -0.596772       -16.2390
 174   2.0000      -0.595754       -16.2113
 175   2.0000      -0.595332       -16.1998
 176   2.0000      -0.594461       -16.1761
 177   2.0000      -0.590829       -16.0773
 178   2.0000      -0.588899       -16.0248
 179   2.0000      -0.587088       -15.9755
 180   2.0000      -0.581772       -15.8308
 181   2.0000      -0.579071       -15.7573
 182   2.0000      -0.576877       -15.6976
 183   2.0000      -0.574433       -15.6311
 184   2.0000      -0.566895       -15.4260
 185   2.0000      -0.565802       -15.3963
 186   2.0000      -0.563187       -15.3251
 187   2.0000      -0.561818       -15.2879
 188   2.0000      -0.558125       -15.1874
 189   2.0000      -0.557291       -15.1647
 190   2.0000      -0.555956       -15.1283
 191   2.0000      -0.549309       -14.9474
 192   2.0000      -0.547216       -14.8905
 193   2.0000      -0.544468       -14.8157
 194   2.0000      -0.543187       -14.7809
 195   2.0000      -0.541554       -14.7364
 196   2.0000      -0.540513       -14.7081
 197   2.0000      -0.538914       -14.6646
 198   2.0000      -0.537871       -14.6362
 199   2.0000      -0.533439       -14.5156
 200   2.0000      -0.532392       -14.4871
 201   2.0000      -0.528950       -14.3935
 202   2.0000      -0.526100       -14.3159
 203   2.0000      -0.524641       -14.2762
 204   2.0000      -0.518395       -14.1063
 205   2.0000      -0.517435       -14.0801
 206   2.0000      -0.514064       -13.9884
 207   2.0000      -0.511670       -13.9233
 208   2.0000      -0.509297       -13.8587
 209   2.0000      -0.506705       -13.7882
 210   2.0000      -0.504714       -13.7340
 211   2.0000      -0.500623       -13.6226
 212   2.0000      -0.498323       -13.5601
 213   2.0000      -0.497084       -13.5263
 214   2.0000      -0.495832       -13.4923
 215   2.0000      -0.486821       -13.2471
 216   2.0000      -0.484766       -13.1911
 217   2.0000      -0.480509       -13.0753
 218   2.0000      -0.475660       -12.9434
 219   2.0000      -0.474964       -12.9244
 220   2.0000      -0.474746       -12.9185
 221   2.0000      -0.469477       -12.7751
 222   2.0000      -0.467226       -12.7139
 223   2.0000      -0.465944       -12.6790
 224   2.0000      -0.463580       -12.6147
 225   2.0000      -0.459689       -12.5088
 226   2.0000      -0.459071       -12.4919
 227   2.0000      -0.458184       -12.4678
 228   2.0000      -0.456897       -12.4328
 229   2.0000      -0.454756       -12.3745
 230   2.0000      -0.452354       -12.3092
 231   2.0000      -0.451937       -12.2978
 232   2.0000      -0.448130       -12.1942
 233   2.0000      -0.443930       -12.0799
 234   2.0000      -0.442289       -12.0353
 235   2.0000      -0.439285       -11.9535
 236   2.0000      -0.437356       -11.9011
 237   2.0000      -0.436211       -11.8699
 238   2.0000      -0.434742       -11.8299
 239   2.0000      -0.432468       -11.7681
 240   2.0000      -0.431949       -11.7539
 241   2.0000      -0.431084       -11.7304
 242   2.0000      -0.420653       -11.4465
 243   2.0000      -0.420023       -11.4294
 244   2.0000      -0.408095       -11.1048
 245   2.0000      -0.401264       -10.9189
 246   2.0000      -0.400086       -10.8869
 247   2.0000      -0.395945       -10.7742
 248   2.0000      -0.395313       -10.7570
 249   2.0000      -0.391410       -10.6508
 250   2.0000      -0.389419       -10.5966
 251   2.0000      -0.388712       -10.5774
 252   2.0000      -0.386379       -10.5139
 253   2.0000      -0.382655       -10.4126
 254   2.0000      -0.377730       -10.2785
 255   2.0000      -0.373397       -10.1607
 256   2.0000      -0.372080       -10.1248
 257   2.0000      -0.368932       -10.0392
 258   2.0000      -0.357355        -9.7241
 259   2.0000      -0.351451        -9.5635
 260   2.0000      -0.339135        -9.2283
 261   2.0000      -0.334221        -9.0946
 262   2.0000      -0.328783        -8.9466
 263   2.0000      -0.325774        -8.8648
 264   2.0000      -0.321522        -8.7491
 265   2.0000      -0.311938        -8.4883
 266   2.0000      -0.309676        -8.4267
 267   2.0000      -0.299525        -8.1505
 268   2.0000      -0.288265        -7.8441
 269   2.0000      -0.263176        -7.1614
 270   0.0000      -0.108089        -2.9413
 271   0.0000      -0.093563        -2.5460
 272   0.0000      -0.074075        -2.0157
 273   0.0000      -0.072986        -1.9860
 274   0.0000      -0.068064        -1.8521

MULLIKEN ATOMIC CHARGES
-----------------------
   0 C :   -0.110510
   1 C :    0.248638
   2 F :   -0.168569
   3 C :    0.233768
   4 F :   -0.173305
   5 C :   -0.132539
   6 C :    0.136585
   7 C :    0.130396
   8 C :   -0.070297
   9 C :    0.075811
  10 C :    0.029605
  11 C :   -0.099213
  12 C :    0.151110
  13 O :   -0.183522
  14 C :   -0.116270
  15 C :    0.293118
  16 C :   -0.338347
  17 C :   -0.218887
  18 N :    0.160340
  19 C :   -0.180425
  20 N :    0.153353
  21 C :    0.003094
  22 N :   -0.051703
  23 C :   -0.090554
  24 S :    0.210068
  25 C :   -0.005197
  26 N :    0.275144
  27 O :   -0.243345
  28 O :   -0.255815
  29 C :    0.008498
  30 C :    0.113506
  31 C :   -0.010201
  32 C :   -0.033735
  33 C :    0.093664
  34 C :   -0.032980
  35 O :   -0.304626
  36 C :    0.164032
  37 S :    0.084207
  38 C :   -0.021864
  39 O :   -0.298287
  40 C :    0.168744
  41 C :    0.018413
  42 N :    0.015654
  43 C :   -0.108624
  44 S :    0.167984
  45 C :    0.006609
  46 N :    0.279056
  47 O :   -0.245637
  48 O :   -0.258606
  49 C :   -0.050380
  50 C :    0.116346
  51 C :   -0.042790
  52 C :    0.076781
  53 C :   -0.000856
  54 C :   -0.127431
  55 C :    0.145736
  56 O :   -0.161139
  57 C :    0.006367
  58 C :   -0.089002
  59 C :    0.127316
  60 C :    0.111017
  61 C :   -0.104773
  62 C :    0.239024
  63 C :    0.237818
  64 C :   -0.109387
  65 F :   -0.166582
  66 F :   -0.167278
  67 C :   -0.080680
  68 C :    0.041426
  69 C :    0.327857
  70 C :   -0.354299
  71 C :   -0.232453
  72 N :    0.179713
  73 C :   -0.150402
  74 N :    0.129100
  75 H :    0.010419
  76 H :   -0.003093
  77 H :   -0.004910
  78 H :   -0.022985
  79 H :    0.057027
  80 H :    0.165806
  81 H :    0.009915
  82 H :   -0.005187
  83 H :    0.009695
  84 H :    0.063915
  85 H :    0.031066
  86 H :    0.034467
  87 H :    0.045111
  88 H :    0.053084
  89 H :    0.034604
  90 H :    0.149497
  91 H :    0.025134
  92 H :   -0.021711
  93 H :    0.030883
  94 H :    0.006322
  95 H :   -0.025706
  96 H :    0.004653
  97 H :   -0.008935
  98 H :   -0.008460
Sum of atomic charges:    0.0000000

LOEWDIN ATOMIC CHARGES
----------------------
   0 C :   -0.023432
   1 C :    0.064670
   2 F :   -0.047001
   3 C :    0.059671
   4 F :   -0.050373
   5 C :   -0.040286
   6 C :   -0.006463
   7 C :    0.001744
   8 C :    0.031338
   9 C :   -0.013641
  10 C :   -0.046905
  11 C :    0.026162
  12 C :    0.085210
  13 O :   -0.159800
  14 C :   -0.142175
  15 C :    0.082247
  16 C :   -0.144739
  17 C :   -0.026383
  18 N :   -0.051579
  19 C :   -0.018726
  20 N :   -0.048877
  21 C :    0.096734
  22 N :    0.059372
  23 C :   -0.119290
  24 S :    0.484806
  25 C :   -0.196978
  26 N :    0.273229
  27 O :   -0.209284
  28 O :   -0.220981
  29 C :   -0.003534
  30 C :   -0.073055
  31 C :   -0.029914
  32 C :   -0.007763
  33 C :   -0.119803
  34 C :   -0.100275
  35 O :   -0.108318
  36 C :    0.078907
  37 S :    0.432772
  38 C :   -0.126284
  39 O :   -0.101099
  40 C :    0.075904
  41 C :   -0.077365
  42 N :    0.045553
  43 C :   -0.062889
  44 S :    0.453123
  45 C :   -0.210636
  46 N :    0.272464
  47 O :   -0.211616
  48 O :   -0.223960
  49 C :   -0.016798
  50 C :   -0.130221
  51 C :    0.033139
  52 C :   -0.032396
  53 C :    0.068493
  54 C :   -0.103799
  55 C :    0.083003
  56 O :   -0.156649
  57 C :   -0.056793
  58 C :    0.025398
  59 C :   -0.010299
  60 C :   -0.004764
  61 C :   -0.030118
  62 C :    0.067838
  63 C :    0.067649
  64 C :   -0.034608
  65 F :   -0.044733
  66 F :   -0.045916
  67 C :    0.015610
  68 C :   -0.018402
  69 C :    0.069749
  70 C :   -0.147863
  71 C :   -0.028236
  72 N :   -0.047440
  73 C :   -0.020518
  74 N :   -0.063409
  75 H :    0.049355
  76 H :    0.042726
  77 H :    0.040962
  78 H :    0.035265
  79 H :    0.042733
  80 H :    0.099583
  81 H :    0.045554
  82 H :    0.028006
  83 H :    0.025309
  84 H :    0.026280
  85 H :    0.013082
  86 H :    0.028896
  87 H :    0.022553
  88 H :    0.036487
  89 H :    0.017551
  90 H :    0.095543
  91 H :    0.045686
  92 H :    0.029665
  93 H :    0.033832
  94 H :    0.038255
  95 H :    0.037022
  96 H :    0.047047
  97 H :    0.041791
  98 H :    0.038411

  Mayer bond orders larger than 0.100000
B(  0-C ,  1-C ) :   1.4353 B(  0-C ,  5-C ) :   0.1088 B(  0-C ,  7-C ) :   1.1886
B(  0-C , 75-H ) :   1.0073 B(  1-C ,  2-F ) :   1.1382 B(  1-C ,  3-C ) :   1.1975
B(  3-C ,  4-F ) :   1.1068 B(  3-C ,  5-C ) :   1.4271 B(  5-C ,  6-C ) :   1.1843
B(  5-C , 76-H ) :   1.0111 B(  6-C ,  7-C ) :   1.2651 B(  6-C , 11-C ) :   1.1859
B(  7-C ,  8-C ) :   1.2132 B(  8-C ,  9-C ) :   1.4590 B(  8-C , 77-H ) :   0.9877
B(  9-C , 10-C ) :   1.2174 B(  9-C , 15-C ) :   0.9996 B( 10-C , 11-C ) :   1.4657
B( 10-C , 12-C ) :   0.9596 B( 11-C , 78-H ) :   1.0151 B( 12-C , 13-O ) :   2.1030
B( 12-C , 14-C ) :   0.9681 B( 14-C , 15-C ) :   1.0672 B( 14-C , 21-C ) :   1.5399
B( 15-C , 16-C ) :   1.6525 B( 16-C , 17-C ) :   1.1377 B( 16-C , 19-C ) :   1.1435
B( 17-C , 18-N ) :   2.9915 B( 19-C , 20-N ) :   2.9710 B( 21-C , 22-N ) :   1.3058
B( 21-C , 79-H ) :   0.9285 B( 22-N , 23-C ) :   1.0664 B( 22-N , 80-H ) :   0.8996
B( 23-C , 24-S ) :   1.1340 B( 23-C , 30-C ) :   1.4744 B( 24-S , 25-C ) :   1.1244
B( 25-C , 26-N ) :   0.9529 B( 25-C , 29-C ) :   1.4965 B( 26-N , 27-O ) :   1.5455
B( 26-N , 28-O ) :   1.5231 B( 27-O , 28-O ) :   0.2649 B( 29-C , 30-C ) :   1.2328
B( 29-C , 81-H ) :   1.0022 B( 30-C , 31-C ) :   1.0422 B( 31-C , 32-C ) :   1.8467
B( 31-C , 82-H ) :   0.9639 B( 32-C , 33-C ) :   1.0206 B( 32-C , 83-H ) :   0.9281
B( 33-C , 34-C ) :   1.4412 B( 33-C , 41-C ) :   1.2044 B( 34-C , 35-O ) :   1.1734
B( 34-C , 37-S ) :   1.1111 B( 35-O , 36-C ) :   0.9230 B( 36-C , 84-H ) :   0.9592
B( 36-C , 85-H ) :   0.9692 B( 36-C , 86-H ) :   0.9694 B( 37-S , 38-C ) :   1.0854
B( 38-C , 39-O ) :   1.1864 B( 38-C , 41-C ) :   1.5215 B( 39-O , 40-C ) :   0.9215
B( 40-C , 87-H ) :   0.9665 B( 40-C , 88-H ) :   0.9800 B( 40-C , 89-H ) :   0.9667
B( 41-C , 42-N ) :   1.0497 B( 42-N , 43-C ) :   1.2883 B( 42-N , 90-H ) :   0.8890
B( 43-C , 44-S ) :   1.1501 B( 43-C , 50-C ) :   1.2891 B( 44-S , 45-C ) :   1.0619
B( 45-C , 46-N ) :   0.9674 B( 45-C , 49-C ) :   1.5150 B( 46-N , 47-O ) :   1.5364
B( 46-N , 48-O ) :   1.5095 B( 47-O , 48-O ) :   0.2614 B( 49-C , 50-C ) :   1.1803
B( 49-C , 91-H ) :   0.9942 B( 50-C , 51-C ) :   1.1071 B( 51-C , 52-C ) :   1.6500
B( 51-C , 92-H ) :   0.9637 B( 52-C , 53-C ) :   1.1825 B( 52-C , 93-H ) :   0.9231
B( 53-C , 54-C ) :   1.5701 B( 53-C , 94-H ) :   0.9529 B( 54-C , 55-C ) :   0.9674
B( 54-C , 69-C ) :   1.0348 B( 55-C , 56-O ) :   2.1815 B( 55-C , 57-C ) :   0.9292
B( 57-C , 58-C ) :   1.4707 B( 57-C , 68-C ) :   1.2131 B( 58-C , 59-C ) :   1.1951
B( 58-C , 95-H ) :   1.0142 B( 59-C , 60-C ) :   1.2500 B( 59-C , 64-C ) :   1.1867
B( 60-C , 61-C ) :   1.1911 B( 60-C , 67-C ) :   1.2146 B( 61-C , 62-C ) :   1.4412
B( 61-C , 64-C ) :   0.1089 B( 61-C , 96-H ) :   1.0061 B( 62-C , 63-C ) :   1.1897
B( 62-C , 66-F ) :   1.1390 B( 63-C , 64-C ) :   1.4474 B( 63-C , 65-F ) :   1.1398
B( 64-C , 97-H ) :   1.0027 B( 67-C , 68-C ) :   1.4572 B( 67-C , 98-H ) :   0.9912
B( 68-C , 69-C ) :   0.9932 B( 69-C , 70-C ) :   1.6352 B( 70-C , 71-C ) :   1.1709
B( 70-C , 73-C ) :   1.1392 B( 71-C , 72-N ) :   2.9913 B( 73-C , 74-N ) :   2.8991

-----------------------------------------------------------------------------
         ABSORPTION SPECTRUM VIA TRANSITION ELECTRIC DIPOLE MOMENTS
-----------------------------------------------------------------------------
State   Energy  Wavelength   fosc         T2         TX        TY        TZ
        (cm-1)    (nm)                  (au**2)     (au)      (au)      (au)
-----------------------------------------------------------------------------
   0   14755.4    677.7   0.088259894   1.96920  -0.87835  -0.59540  -0.91826
   1   21211.9    471.4   0.217094102   3.36933  -1.41494  -0.04355  -1.16850
   2   22084.9    452.8   0.057359261   0.85504  -0.28551  -0.70955  -0.51967
   3   23506.6    425.4   0.022717178   0.31816   0.39704   0.39547   0.06420
   4   24824.1    402.8   0.211356313   2.80296  -1.17093   0.74694  -0.93486
   5   25041.6    399.3   0.337408537   4.43578   0.65133   1.47772   1.35199
   6   25499.7    392.2   0.241693064   3.12036  -1.58391   0.58295  -0.52131
   7   26126.5    382.8   0.031238074   0.39362   0.09652  -0.54312  -0.29888
   8   27431.7    364.5   0.102318904   1.22794   1.10406   0.09261   0.02037
   9   27941.7    357.9   0.071283293   0.83987  -0.72519   0.20158  -0.52281
  10   28413.8    351.9   0.049852694   0.57761   0.59252  -0.18781   0.43733
  11   28502.3    350.8   0.074338821   0.85864   0.10320  -0.46790  -0.79313
  12   29130.5    343.3   0.056632154   0.64002   0.66287  -0.05008   0.44510
  13   29362.2    340.6   0.020069225   0.22502   0.34103  -0.25984  -0.20297
  14   29536.6    338.6   0.032064991   0.35739  -0.54776   0.23935   0.00831
  15   29839.6    335.1   0.001566195   0.01728  -0.13106   0.00973  -0.00270
  16   30051.3    332.8   0.206222920   2.25917  -1.18308  -0.90418  -0.20485
  17   30248.0    330.6   0.096811881   1.05368  -0.78160  -0.19331  -0.63671
  18   30425.1    328.7   0.124126583   1.34310   0.93975   0.05916   0.67562
  19   30601.2    326.8   0.014715258   0.15831  -0.33479   0.16591   0.13675
  20   31458.9    317.9   0.068380429   0.71559  -0.53532   0.30956  -0.57723
  21   31485.0    317.6   0.087898044   0.91908  -0.69621  -0.46537  -0.46669
  22   32364.9    309.0   0.028774452   0.29269  -0.29845  -0.00774  -0.45117
  23   32427.3    308.4   0.127827954   1.29775  -0.67696   0.31256  -0.86126
  24   32711.1    305.7   0.028831089   0.29016   0.43107  -0.31195   0.08386
  25   32863.3    304.3   0.051319079   0.51410   0.56384   0.28376  -0.34008
  26   33053.7    302.5   0.050277653   0.50076   0.00161   0.24264   0.66474
  27   33163.6    301.5   0.112469874   1.11648  -0.93449  -0.48179  -0.10531
  28   33503.4    298.5   0.001475574   0.01450   0.09544   0.01023   0.07270
  29   33598.1    297.6   0.095355577   0.93434  -0.49111  -0.78401   0.28015
  30   33799.9    295.9   0.077020034   0.75018   0.86248   0.06258  -0.04884
  31   33974.5    294.3   0.199196279   1.93021   1.22728  -0.43244   0.48682
  32   34119.9    293.1   0.160171248   1.54544   1.15844   0.23702   0.38378
  33   34295.8    291.6   0.186649274   1.79168  -1.23932  -0.08079  -0.49923
  34   34443.1    290.3   0.103668232   0.99087  -0.95183  -0.28617  -0.05475
  35   34714.0    288.1   0.033657545   0.31919   0.47789   0.27098  -0.13184
  36   34735.8    287.9   0.113490826   1.07562   0.91991   0.07491   0.47304
  37   35044.9    285.3   0.093991485   0.88296   0.93413  -0.04255  -0.09248
  38   35139.6    284.6   0.859496955   8.05235   2.79942  -0.42997   0.17531
  39   36067.7    277.3   0.030244292   0.27606  -0.13233  -0.25381   0.44060
  40   36544.4    273.6   0.058344883   0.52560   0.66430  -0.17005   0.23534
  41   36744.9    272.1   0.092416545   0.82800   0.47330  -0.21384  -0.74716
  42   36914.7    270.9   0.007931699   0.07074  -0.04451  -0.21998   0.14271
  43   37081.7    269.7   0.174811536   1.55198  -1.15169  -0.43393  -0.19315
  44   37188.3    268.9   0.030935108   0.27386  -0.37961   0.34198   0.11313
  45   37540.0    266.4   0.014919945   0.13084   0.19163  -0.06545  -0.29973
  46   37603.4    265.9   0.091660390   0.80247  -0.09052   0.79485  -0.40311
  47   37924.0    263.7   0.013735550   0.11924  -0.32892  -0.00709  -0.10488
  48   38081.1    262.6   0.072711469   0.62859  -0.70465   0.20313  -0.30132
  49   38267.3    261.3   0.067775802   0.58307  -0.20379  -0.60585  -0.41772
  50   38332.5    260.9   0.279222220   2.39805   0.69139   1.32980   0.38944
  51   38519.1    259.6   0.081012169   0.69239  -0.48670   0.63059  -0.24056
  52   38602.8    259.0   0.247485505   2.11061   0.35241  -0.27364   1.38258
  53   39156.8    255.4   0.008730534   0.07340   0.24734  -0.02000   0.10875
  54   39252.7    254.8   0.078654454   0.65967   0.09710   0.53766  -0.60097
  55   39786.7    251.3   0.024440802   0.20223   0.41855  -0.06175  -0.15243
  56   40033.6    249.8   0.031911860   0.26242   0.45645   0.02207  -0.23150

FINAL SINGLE POINT ENERGY     -4624.840097258874

DIPOLE MOMENT
-------------
                                X             Y             Z
Electronic contribution:    -24.00921     -19.36381      -4.68230
Nuclear contribution   :     21.79274      21.92642       3.52878
                        -----------------------------------------
Total Dipole Moment    :     -2.21646       2.56260      -1.15353
                        -----------------------------------------
Magnitude (a.u.)       :      3.57914
Magnitude (Debye)      :      9.09746

Rotational constants in cm-1:     0.001115     0.000749     0.000576
Rotational constants in MHz :    33.441197    22.464185    17.277569

                             ****ORCA TERMINATED NORMALLY****
TOTAL RUN TIME: 0 days 0 hours 13 minutes 13 seconds 513 msec
