                         Program Version 4.2.0 -  RELEASE  -
|  1> # ORCA input file
|  2> # SCF done       -179.776379674829          0.000735388403
|  3> ! CAM-B3LYP def2-SVP def2/J RIJCOSX Grid4 TightSCF
|  4> %maxcore 5000
|  5> %tddft
|  6>     Mode sTDDFT
|  7>     Ethresh 5.0
|  8>     maxcore 5000
|  9> end
| 10>
| 11> %pal
| 12>   nprocs 6
| 13>   end
| 14> * xyz 0 1
| 15>    C      -16.40361        -8.65842        -5.55587
| 16>    C      -17.37776        -7.70109        -5.48824
| 17>    F      -18.66633        -8.04117        -5.62319
| 18>    C      -17.04113        -6.34995        -5.27701
| 19>    F      -18.01517        -5.43124        -5.21570
| 20>    C      -15.73424        -5.97392        -5.13531
| 21>    C      -14.70909        -6.93656        -5.20005
| 22>    C      -15.04797        -8.30346        -5.41469
| 23>    C      -14.03382        -9.28815        -5.48659
| 24>    C      -12.72399        -8.91679        -5.34916
| 25>    C      -12.39455        -7.54678        -5.13323
| 26>    C      -13.35035        -6.57506        -5.05831
| 27>    C      -10.93623        -7.42422        -5.02830
| 28>    O      -10.28440        -6.39813        -4.83612
| 29>    C      -10.39588        -8.77197        -5.20151
| 30>    C      -11.48666        -9.69702        -5.38507
| 31>    C      -11.40253       -11.05580        -5.55539
| 32>    C      -10.18990       -11.77317        -5.57416
| 33>    N       -9.22343       -12.39274        -5.59265
| 34>    C      -12.51567       -11.90274        -5.72517
| 35>    N      -13.38346       -12.64093        -5.86776
| 36>    C       -9.03728        -9.00622        -5.19165
| 37>    N       -8.19360        -7.98567        -5.00576
| 38>    C       -6.84268        -8.01337        -4.99845
| 39>    S       -5.95294        -9.47954        -5.27306
| 40>    C       -4.47732        -8.57817        -5.12159
| 41>    N       -3.26738        -9.27986        -5.24972
| 42>    O       -2.23570        -8.64683        -5.13769
| 43>    O       -3.34804       -10.47554        -5.46117
| 44>    C       -4.65848        -7.24677        -4.87922
| 45>    C       -6.02275        -6.88448        -4.79588
| 46>    C       -6.52559        -5.58369        -4.51957
| 47>    C       -5.76925        -4.45063        -4.40487
| 48>    C       -6.32232        -3.20881        -4.07829
| 49>    C       -5.61536        -2.02917        -3.97073
| 50>    C       -6.13023        -0.77448        -3.58609
| 51>    C       -5.19922         0.22730        -3.55826
| 52>    C       -3.90996        -0.18547        -3.93437
| 53>    S       -3.89904        -1.88892        -4.30857
| 54>    C       -2.76769         0.60914        -4.03344
| 55>    C       -2.64857         1.96722        -3.70597
| 56>    C       -1.39682         2.48363        -3.93133
| 57>    C       -0.48324         1.55805        -4.45308
| 58>    S       -1.24804        -0.00228        -4.63347
| 59>    C        0.84674         1.74653        -4.83797
| 60>    C        1.53498         2.92974        -4.72107
| 61>    C        2.84456         3.13760        -5.15672
| 62>    C        3.57695         4.32604        -5.04360
| 63>    C        4.83754         4.26181        -5.58444
| 64>    C        5.14260         3.01569        -6.14854
| 65>    S        3.79799         1.91777        -5.96730
| 66>    C        6.32225         2.64163        -6.79171
| 67>    C        7.46236         3.43442        -7.00608
| 68>    C        8.46614         2.79855        -7.68425
| 69>    C        8.16392         1.46752        -8.03925
| 70>    S        6.55373         1.05371        -7.47306
| 71>    C        8.90054         0.52082        -8.72026
| 72>    C       10.18825         0.64110        -9.25458
| 73>    S       11.20264         2.05927        -9.17953
| 74>    C       12.49845         1.28852       -10.05065
| 75>    C       12.15575        -0.01289       -10.38393
| 76>    C       10.86045        -0.38088        -9.93969
| 77>    C       10.29711        -1.64487       -10.16197
| 78>    N        9.82507        -2.67606       -10.33931
| 79>    C       12.96734        -0.91999       -11.08820
| 80>    N       13.59508        -1.69152       -11.65895
| 81>    C       13.69150         2.04182       -10.30491
| 82>    C       14.77131         1.60487       -10.95376
| 83>    H      -16.67897        -9.68873        -5.71850
| 84>    H      -15.49324        -4.93481        -4.97428
| 85>    H      -14.32306       -10.31328        -5.65163
| 86>    H      -13.07527        -5.54411        -4.89526
| 87>    H       -8.61222        -9.99069        -5.33505
| 88>    H       -8.67731        -7.07521        -4.87855
| 89>    H       -3.83209        -6.57135        -4.75680
| 90>    H       -7.59390        -5.48189        -4.38210
| 91>    H       -4.70086        -4.49010        -4.56557
| 92>    H       -7.38540        -3.15929        -3.88109
| 93>    H       -7.16843        -0.64560        -3.33692
| 94>    H       -5.41798         1.24426        -3.28762
| 95>    H       -3.46972         2.53804        -3.31199
| 96>    H       -1.13413         3.50759        -3.73697
| 97>    H        1.36078         0.89641        -5.26771
| 98>    H        1.05104         3.78413        -4.26815
| 99>    H        3.16756         5.20171        -4.57150
|100>    H        5.53300         5.08109        -5.58681
|101>    H        7.52548         4.45095        -6.66210
|102>    H        9.40212         3.26527        -7.92924
|103>    H        8.43633        -0.44627        -8.87110
|104>    H       13.66953         3.05220        -9.91547
|105>    H       14.84052         0.60976       -11.35578
|106>    H       15.62415         2.24498       -11.09469
|107> *
|108>
|109>                          ****END OF INPUT****

CARTESIAN COORDINATES (ANGSTROEM)
---------------------------------
  C    -16.403610   -8.658420   -5.555870
  C    -17.377760   -7.701090   -5.488240
  F    -18.666330   -8.041170   -5.623190
  C    -17.041130   -6.349950   -5.277010
  F    -18.015170   -5.431240   -5.215700
  C    -15.734240   -5.973920   -5.135310
  C    -14.709090   -6.936560   -5.200050
  C    -15.047970   -8.303460   -5.414690
  C    -14.033820   -9.288150   -5.486590
  C    -12.723990   -8.916790   -5.349160
  C    -12.394550   -7.546780   -5.133230
  C    -13.350350   -6.575060   -5.058310
  C    -10.936230   -7.424220   -5.028300
  O    -10.284400   -6.398130   -4.836120
  C    -10.395880   -8.771970   -5.201510
  C    -11.486660   -9.697020   -5.385070
  C    -11.402530  -11.055800   -5.555390
  C    -10.189900  -11.773170   -5.574160
  N     -9.223430  -12.392740   -5.592650
  C    -12.515670  -11.902740   -5.725170
  N    -13.383460  -12.640930   -5.867760
  C     -9.037280   -9.006220   -5.191650
  N     -8.193600   -7.985670   -5.005760
  C     -6.842680   -8.013370   -4.998450
  S     -5.952940   -9.479540   -5.273060
  C     -4.477320   -8.578170   -5.121590
  N     -3.267380   -9.279860   -5.249720
  O     -2.235700   -8.646830   -5.137690
  O     -3.348040  -10.475540   -5.461170
  C     -4.658480   -7.246770   -4.879220
  C     -6.022750   -6.884480   -4.795880
  C     -6.525590   -5.583690   -4.519570
  C     -5.769250   -4.450630   -4.404870
  C     -6.322320   -3.208810   -4.078290
  C     -5.615360   -2.029170   -3.970730
  C     -6.130230   -0.774480   -3.586090
  C     -5.199220    0.227300   -3.558260
  C     -3.909960   -0.185470   -3.934370
  S     -3.899040   -1.888920   -4.308570
  C     -2.767690    0.609140   -4.033440
  C     -2.648570    1.967220   -3.705970
  C     -1.396820    2.483630   -3.931330
  C     -0.483240    1.558050   -4.453080
  S     -1.248040   -0.002280   -4.633470
  C      0.846740    1.746530   -4.837970
  C      1.534980    2.929740   -4.721070
  C      2.844560    3.137600   -5.156720
  C      3.576950    4.326040   -5.043600
  C      4.837540    4.261810   -5.584440
  C      5.142600    3.015690   -6.148540
  S      3.797990    1.917770   -5.967300
  C      6.322250    2.641630   -6.791710
  C      7.462360    3.434420   -7.006080
  C      8.466140    2.798550   -7.684250
  C      8.163920    1.467520   -8.039250
  S      6.553730    1.053710   -7.473060
  C      8.900540    0.520820   -8.720260
  C     10.188250    0.641100   -9.254580
  S     11.202640    2.059270   -9.179530
  C     12.498450    1.288520  -10.050650
  C     12.155750   -0.012890  -10.383930
  C     10.860450   -0.380880   -9.939690
  C     10.297110   -1.644870  -10.161970
  N      9.825070   -2.676060  -10.339310
  C     12.967340   -0.919990  -11.088200
  N     13.595080   -1.691520  -11.658950
  C     13.691500    2.041820  -10.304910
  C     14.771310    1.604870  -10.953760
  H    -16.678970   -9.688730   -5.718500
  H    -15.493240   -4.934810   -4.974280
  H    -14.323060  -10.313280   -5.651630
  H    -13.075270   -5.544110   -4.895260
  H     -8.612220   -9.990690   -5.335050
  H     -8.677310   -7.075210   -4.878550
  H     -3.832090   -6.571350   -4.756800
  H     -7.593900   -5.481890   -4.382100
  H     -4.700860   -4.490100   -4.565570
  H     -7.385400   -3.159290   -3.881090
  H     -7.168430   -0.645600   -3.336920
  H     -5.417980    1.244260   -3.287620
  H     -3.469720    2.538040   -3.311990
  H     -1.134130    3.507590   -3.736970
  H      1.360780    0.896410   -5.267710
  H      1.051040    3.784130   -4.268150
  H      3.167560    5.201710   -4.571500
  H      5.533000    5.081090   -5.586810
  H      7.525480    4.450950   -6.662100
  H      9.402120    3.265270   -7.929240
  H      8.436330   -0.446270   -8.871100
  H     13.669530    3.052200   -9.915470
  H     14.840520    0.609760  -11.355780
  H     15.624150    2.244980  -11.094690

 Total Charge           Charge          ....    0
 Multiplicity           Mult            ....    1
 Number of Electrons    NEL             ....  510
 Basis Dimension        Dim             .... 1096

ORBITAL ENERGIES
----------------

  NO   OCC          E(Eh)            E(eV)
   0   2.0000     -88.995481     -2421.6902
   1   2.0000     -88.975964     -2421.1591
   2   2.0000     -88.961496     -2420.7654
   3   2.0000     -88.961035     -2420.7528
   4   2.0000     -88.957931     -2420.6684
   5   2.0000     -88.951966     -2420.5060
   6   2.0000     -24.805182      -674.9833
   7   2.0000     -24.804080      -674.9533
   8   2.0000     -19.244622      -523.6728
   9   2.0000     -19.243683      -523.6472
  10   2.0000     -19.241218      -523.5802
  11   2.0000     -14.655808      -398.8048
  12   2.0000     -14.504842      -394.6968
  13   2.0000     -14.424945      -392.5227
  14   2.0000     -14.420363      -392.3980
  15   2.0000     -14.404180      -391.9577
  16   2.0000     -14.397781      -391.7835
  17   2.0000     -10.389033      -282.7000
  18   2.0000     -10.388333      -282.6809
  19   2.0000     -10.387989      -282.6716
  20   2.0000     -10.377788      -282.3940
  21   2.0000     -10.377180      -282.3774
  22   2.0000     -10.354474      -281.7596
  23   2.0000     -10.352592      -281.7084
  24   2.0000     -10.347985      -281.5830
  25   2.0000     -10.328970      -281.0656
  26   2.0000     -10.327348      -281.0214
  27   2.0000     -10.327218      -281.0179
  28   2.0000     -10.325221      -280.9636
  29   2.0000     -10.324275      -280.9378
  30   2.0000     -10.323899      -280.9276
  31   2.0000     -10.323578      -280.9188
  32   2.0000     -10.322241      -280.8825
  33   2.0000     -10.321997      -280.8758
  34   2.0000     -10.319356      -280.8040
  35   2.0000     -10.318976      -280.7936
  36   2.0000     -10.318632      -280.7843
  37   2.0000     -10.318520      -280.7812
  38   2.0000     -10.317643      -280.7573
  39   2.0000     -10.316865      -280.7362
  40   2.0000     -10.315672      -280.7037
  41   2.0000     -10.315326      -280.6943
  42   2.0000     -10.314689      -280.6769
  43   2.0000     -10.313979      -280.6576
  44   2.0000     -10.312954      -280.6298
  45   2.0000     -10.310857      -280.5727
  46   2.0000     -10.309444      -280.5342
  47   2.0000     -10.307887      -280.4919
  48   2.0000     -10.307495      -280.4812
  49   2.0000     -10.305433      -280.4251
  50   2.0000     -10.304314      -280.3946
  51   2.0000     -10.301468      -280.3172
  52   2.0000     -10.300954      -280.3032
  53   2.0000     -10.300932      -280.3026
  54   2.0000     -10.298124      -280.2262
  55   2.0000     -10.298025      -280.2235
  56   2.0000     -10.297746      -280.2159
  57   2.0000     -10.297330      -280.2046
  58   2.0000     -10.296968      -280.1947
  59   2.0000     -10.296133      -280.1720
  60   2.0000     -10.295120      -280.1445
  61   2.0000     -10.294801      -280.1358
  62   2.0000     -10.293916      -280.1117
  63   2.0000     -10.293544      -280.1016
  64   2.0000     -10.290991      -280.0321
  65   2.0000     -10.288235      -279.9571
  66   2.0000     -10.287313      -279.9320
  67   2.0000     -10.275305      -279.6053
  68   2.0000      -8.090695      -220.1590
  69   2.0000      -8.071148      -219.6271
  70   2.0000      -8.057765      -219.2629
  71   2.0000      -8.057413      -219.2534
  72   2.0000      -8.054141      -219.1643
  73   2.0000      -8.048412      -219.0084
  74   2.0000      -6.060334      -164.9101
  75   2.0000      -6.056025      -164.7928
  76   2.0000      -6.052107      -164.6862
  77   2.0000      -6.040379      -164.3671
  78   2.0000      -6.036354      -164.2576
  79   2.0000      -6.033278      -164.1738
  80   2.0000      -6.027409      -164.0141
  81   2.0000      -6.027033      -164.0039
  82   2.0000      -6.023722      -163.9138
  83   2.0000      -6.023439      -163.9061
  84   2.0000      -6.022940      -163.8925
  85   2.0000      -6.019727      -163.8051
  86   2.0000      -6.018799      -163.7799
  87   2.0000      -6.018624      -163.7751
  88   2.0000      -6.018131      -163.7617
  89   2.0000      -6.015350      -163.6860
  90   2.0000      -6.014059      -163.6509
  91   2.0000      -6.009363      -163.5231
  92   2.0000      -1.327443       -36.1216
  93   2.0000      -1.326207       -36.0879
  94   2.0000      -1.312588       -35.7173
  95   2.0000      -1.155597       -31.4454
  96   2.0000      -1.145440       -31.1690
  97   2.0000      -1.111767       -30.2527
  98   2.0000      -1.028571       -27.9888
  99   2.0000      -1.016249       -27.6535
 100   2.0000      -1.015989       -27.6465
 101   2.0000      -1.013098       -27.5678
 102   2.0000      -1.010675       -27.5019
 103   2.0000      -1.004638       -27.3376
 104   2.0000      -1.001299       -27.2467
 105   2.0000      -0.990019       -26.9398
 106   2.0000      -0.989463       -26.9247
 107   2.0000      -0.985306       -26.8115
 108   2.0000      -0.981381       -26.7047
 109   2.0000      -0.976515       -26.5723
 110   2.0000      -0.941024       -25.6066
 111   2.0000      -0.934918       -25.4404
 112   2.0000      -0.920163       -25.0389
 113   2.0000      -0.915459       -24.9109
 114   2.0000      -0.909800       -24.7569
 115   2.0000      -0.904044       -24.6003
 116   2.0000      -0.899189       -24.4682
 117   2.0000      -0.889498       -24.2045
 118   2.0000      -0.884093       -24.0574
 119   2.0000      -0.871872       -23.7248
 120   2.0000      -0.868180       -23.6244
 121   2.0000      -0.862878       -23.4801
 122   2.0000      -0.857195       -23.3255
 123   2.0000      -0.853355       -23.2210
 124   2.0000      -0.849728       -23.1223
 125   2.0000      -0.842475       -22.9249
 126   2.0000      -0.837801       -22.7977
 127   2.0000      -0.833454       -22.6794
 128   2.0000      -0.824006       -22.4224
 129   2.0000      -0.820640       -22.3307
 130   2.0000      -0.803626       -21.8678
 131   2.0000      -0.783302       -21.3147
 132   2.0000      -0.778533       -21.1850
 133   2.0000      -0.770245       -20.9594
 134   2.0000      -0.755208       -20.5502
 135   2.0000      -0.746725       -20.3194
 136   2.0000      -0.737666       -20.0729
 137   2.0000      -0.733065       -19.9477
 138   2.0000      -0.727421       -19.7941
 139   2.0000      -0.722228       -19.6528
 140   2.0000      -0.712667       -19.3927
 141   2.0000      -0.700027       -19.0487
 142   2.0000      -0.697360       -18.9761
 143   2.0000      -0.694464       -18.8973
 144   2.0000      -0.687424       -18.7058
 145   2.0000      -0.679561       -18.4918
 146   2.0000      -0.673638       -18.3306
 147   2.0000      -0.665941       -18.1212
 148   2.0000      -0.664497       -18.0819
 149   2.0000      -0.657323       -17.8867
 150   2.0000      -0.650274       -17.6949
 151   2.0000      -0.645612       -17.5680
 152   2.0000      -0.644679       -17.5426
 153   2.0000      -0.640453       -17.4276
 154   2.0000      -0.637266       -17.3409
 155   2.0000      -0.633352       -17.2344
 156   2.0000      -0.632890       -17.2218
 157   2.0000      -0.631430       -17.1821
 158   2.0000      -0.628663       -17.1068
 159   2.0000      -0.621487       -16.9115
 160   2.0000      -0.616224       -16.7683
 161   2.0000      -0.612341       -16.6626
 162   2.0000      -0.607062       -16.5190
 163   2.0000      -0.604426       -16.4473
 164   2.0000      -0.593041       -16.1375
 165   2.0000      -0.592226       -16.1153
 166   2.0000      -0.587899       -15.9975
 167   2.0000      -0.584231       -15.8977
 168   2.0000      -0.580203       -15.7881
 169   2.0000      -0.576762       -15.6945
 170   2.0000      -0.570838       -15.5333
 171   2.0000      -0.566372       -15.4118
 172   2.0000      -0.563984       -15.3468
 173   2.0000      -0.561773       -15.2866
 174   2.0000      -0.557862       -15.1802
 175   2.0000      -0.553553       -15.0629
 176   2.0000      -0.549737       -14.9591
 177   2.0000      -0.545349       -14.8397
 178   2.0000      -0.542202       -14.7541
 179   2.0000      -0.541864       -14.7449
 180   2.0000      -0.540951       -14.7200
 181   2.0000      -0.539228       -14.6731
 182   2.0000      -0.534755       -14.5514
 183   2.0000      -0.530505       -14.4358
 184   2.0000      -0.524900       -14.2833
 185   2.0000      -0.522733       -14.2243
 186   2.0000      -0.519643       -14.1402
 187   2.0000      -0.515664       -14.0319
 188   2.0000      -0.513994       -13.9865
 189   2.0000      -0.512210       -13.9379
 190   2.0000      -0.511697       -13.9240
 191   2.0000      -0.507023       -13.7968
 192   2.0000      -0.506864       -13.7925
 193   2.0000      -0.505598       -13.7580
 194   2.0000      -0.504915       -13.7394
 195   2.0000      -0.498500       -13.5649
 196   2.0000      -0.497974       -13.5506
 197   2.0000      -0.488450       -13.2914
 198   2.0000      -0.484385       -13.1808
 199   2.0000      -0.481924       -13.1138
 200   2.0000      -0.479746       -13.0546
 201   2.0000      -0.477553       -12.9949
 202   2.0000      -0.475275       -12.9329
 203   2.0000      -0.473580       -12.8868
 204   2.0000      -0.472301       -12.8520
 205   2.0000      -0.472204       -12.8493
 206   2.0000      -0.469615       -12.7789
 207   2.0000      -0.466682       -12.6991
 208   2.0000      -0.459500       -12.5036
 209   2.0000      -0.458780       -12.4840
 210   2.0000      -0.456167       -12.4129
 211   2.0000      -0.454847       -12.3770
 212   2.0000      -0.450279       -12.2527
 213   2.0000      -0.450142       -12.2490
 214   2.0000      -0.443940       -12.0802
 215   2.0000      -0.442316       -12.0360
 216   2.0000      -0.441148       -12.0043
 217   2.0000      -0.439912       -11.9706
 218   2.0000      -0.438150       -11.9227
 219   2.0000      -0.434404       -11.8207
 220   2.0000      -0.434358       -11.8195
 221   2.0000      -0.434017       -11.8102
 222   2.0000      -0.432311       -11.7638
 223   2.0000      -0.431154       -11.7323
 224   2.0000      -0.430019       -11.7014
 225   2.0000      -0.424077       -11.5397
 226   2.0000      -0.417188       -11.3523
 227   2.0000      -0.416108       -11.3229
 228   2.0000      -0.415062       -11.2944
 229   2.0000      -0.410277       -11.1642
 230   2.0000      -0.404078       -10.9955
 231   2.0000      -0.403917       -10.9911
 232   2.0000      -0.399043       -10.8585
 233   2.0000      -0.397287       -10.8107
 234   2.0000      -0.392327       -10.6758
 235   2.0000      -0.391145       -10.6436
 236   2.0000      -0.384836       -10.4719
 237   2.0000      -0.380172       -10.3450
 238   2.0000      -0.373063       -10.1516
 239   2.0000      -0.364463        -9.9175
 240   2.0000      -0.362051        -9.8519
 241   2.0000      -0.352443        -9.5905
 242   2.0000      -0.350206        -9.5296
 243   2.0000      -0.344612        -9.3774
 244   2.0000      -0.341423        -9.2906
 245   2.0000      -0.337086        -9.1726
 246   2.0000      -0.330820        -9.0021
 247   2.0000      -0.328042        -8.9265
 248   2.0000      -0.327560        -8.9134
 249   2.0000      -0.317594        -8.6422
 250   2.0000      -0.309130        -8.4119
 251   2.0000      -0.294546        -8.0150
 252   2.0000      -0.276845        -7.5333
 253   2.0000      -0.243256        -6.6193
 254   2.0000      -0.195933        -5.3316
 255   0.0000      -0.120565        -3.2807
 256   0.0000      -0.096161        -2.6167
 257   0.0000      -0.076345        -2.0775
 258   0.0000      -0.068385        -1.8608
 259   0.0000      -0.051858        -1.4111

MULLIKEN ATOMIC CHARGES
-----------------------
   0 C :   -0.106412
   1 C :    0.243492
   2 F :   -0.169794
   3 C :    0.239066
   4 F :   -0.171635
   5 C :   -0.103883
   6 C :    0.113242
   7 C :    0.111322
   8 C :   -0.080997
   9 C :    0.044489
  10 C :    0.005425
  11 C :   -0.077573
  12 C :    0.171039
  13 O :   -0.228747
  14 C :   -0.139695
  15 C :    0.330543
  16 C :   -0.341351
  17 C :   -0.199240
  18 N :    0.146545
  19 C :   -0.182107
  20 N :    0.149925
  21 C :    0.031887
  22 N :    0.001012
  23 C :   -0.127860
  24 S :    0.180400
  25 C :    0.009601
  26 N :    0.273570
  27 O :   -0.241901
  28 O :   -0.251591
  29 C :    0.002493
  30 C :    0.157882
  31 C :   -0.064228
  32 C :    0.011502
  33 C :   -0.014049
  34 C :   -0.018152
  35 C :    0.034524
  36 C :    0.023621
  37 C :   -0.038501
  38 S :    0.089184
  39 C :   -0.053478
  40 C :    0.019408
  41 C :    0.019407
  42 C :   -0.056965
  43 S :    0.120638
  44 C :    0.037138
  45 C :    0.003193
  46 C :   -0.037238
  47 C :    0.034157
  48 C :    0.010853
  49 C :   -0.033977
  50 S :    0.100676
  51 C :   -0.050207
  52 C :    0.018943
  53 C :    0.007407
  54 C :   -0.062677
  55 S :    0.111375
  56 C :   -0.007319
  57 C :   -0.056486
  58 S :    0.113509
  59 C :   -0.095723
  60 C :   -0.014036
  61 C :   -0.019680
  62 C :   -0.265707
  63 N :    0.194001
  64 C :   -0.258658
  65 N :    0.189239
  66 C :    0.029083
  67 C :   -0.012311
  68 H :    0.011024
  69 H :   -0.001271
  70 H :   -0.004340
  71 H :   -0.011652
  72 H :    0.047974
  73 H :    0.186145
  74 H :    0.015619
  75 H :   -0.005953
  76 H :    0.001922
  77 H :   -0.008297
  78 H :   -0.008939
  79 H :   -0.010548
  80 H :   -0.012053
  81 H :   -0.011124
  82 H :   -0.004537
  83 H :   -0.016244
  84 H :   -0.012106
  85 H :   -0.011947
  86 H :   -0.012795
  87 H :   -0.004524
  88 H :    0.008315
  89 H :   -0.010947
  90 H :    0.046472
  91 H :    0.032192
Sum of atomic charges:   -0.0000000

LOEWDIN ATOMIC CHARGES
----------------------
   0 C :   -0.027914
   1 C :    0.068604
   2 F :   -0.047418
   3 C :    0.068653
   4 F :   -0.048993
   5 C :   -0.032629
   6 C :   -0.010437
   7 C :   -0.005898
   8 C :    0.019888
   9 C :   -0.019428
  10 C :   -0.052265
  11 C :    0.031332
  12 C :    0.096142
  13 O :   -0.182692
  14 C :   -0.145772
  15 C :    0.077114
  16 C :   -0.147991
  17 C :   -0.021000
  18 N :   -0.052048
  19 C :   -0.019434
  20 N :   -0.053623
  21 C :    0.112135
  22 N :    0.087115
  23 C :   -0.119422
  24 S :    0.471385
  25 C :   -0.194571
  26 N :    0.272790
  27 O :   -0.208561
  28 O :   -0.218361
  29 C :    0.003886
  30 C :   -0.081232
  31 C :   -0.031404
  32 C :   -0.019990
  33 C :   -0.050098
  34 C :   -0.144624
  35 C :   -0.032384
  36 C :   -0.032042
  37 C :   -0.172321
  38 S :    0.384663
  39 C :   -0.183142
  40 C :   -0.026390
  41 C :   -0.042152
  42 C :   -0.143699
  43 S :    0.402825
  44 C :   -0.059963
  45 C :   -0.038618
  46 C :   -0.158370
  47 C :   -0.029960
  48 C :   -0.043429
  49 C :   -0.163312
  50 S :    0.396138
  51 C :   -0.192583
  52 C :   -0.014296
  53 C :   -0.065052
  54 C :   -0.131823
  55 S :    0.394641
  56 C :   -0.093887
  57 C :   -0.128236
  58 S :    0.461775
  59 C :   -0.143139
  60 C :   -0.084710
  61 C :   -0.097808
  62 C :   -0.035493
  63 N :   -0.048169
  64 C :   -0.025407
  65 N :   -0.043136
  66 C :   -0.053208
  67 C :   -0.011345
  68 H :    0.048907
  69 H :    0.044530
  70 H :    0.041227
  71 H :    0.039942
  72 H :    0.036981
  73 H :    0.084832
  74 H :    0.046517
  75 H :    0.031011
  76 H :    0.023865
  77 H :    0.036137
  78 H :    0.034987
  79 H :    0.033078
  80 H :    0.032795
  81 H :    0.032162
  82 H :    0.026756
  83 H :    0.032623
  84 H :    0.033735
  85 H :    0.031883
  86 H :    0.033255
  87 H :    0.018145
  88 H :    0.043173
  89 H :    0.029638
  90 H :    0.033419
  91 H :    0.031195

  Mayer bond orders larger than 0.100000
B(  0-C ,  1-C ) :   1.4341 B(  0-C ,  5-C ) :   0.1075 B(  0-C ,  7-C ) :   1.1961
B(  0-C , 68-H ) :   1.0070 B(  1-C ,  2-F ) :   1.1366 B(  1-C ,  3-C ) :   1.1944
B(  3-C ,  4-F ) :   1.1337 B(  3-C ,  5-C ) :   1.4403 B(  5-C ,  6-C ) :   1.1931
B(  5-C , 69-H ) :   1.0071 B(  6-C ,  7-C ) :   1.2596 B(  6-C , 11-C ) :   1.1851
B(  7-C ,  8-C ) :   1.2046 B(  8-C ,  9-C ) :   1.4692 B(  8-C , 70-H ) :   0.9898
B(  9-C , 10-C ) :   1.2190 B(  9-C , 15-C ) :   0.9857 B( 10-C , 11-C ) :   1.4698
B( 10-C , 12-C ) :   0.9821 B( 11-C , 71-H ) :   1.0180 B( 12-C , 13-O ) :   2.0222
B( 12-C , 14-C ) :   1.0149 B( 13-O , 73-H ) :   0.1465 B( 14-C , 15-C ) :   1.1036
B( 14-C , 21-C ) :   1.4291 B( 15-C , 16-C ) :   1.6253 B( 16-C , 17-C ) :   1.1476
B( 16-C , 19-C ) :   1.1477 B( 17-C , 18-N ) :   2.9545 B( 19-C , 20-N ) :   2.9599
B( 21-C , 22-N ) :   1.3521 B( 21-C , 72-H ) :   0.9324 B( 22-N , 23-C ) :   1.2024
B( 22-N , 73-H ) :   0.8188 B( 23-C , 24-S ) :   1.1301 B( 23-C , 30-C ) :   1.3472
B( 24-S , 25-C ) :   1.0806 B( 25-C , 26-N ) :   0.9573 B( 25-C , 29-C ) :   1.5226
B( 26-N , 27-O ) :   1.5383 B( 26-N , 28-O ) :   1.5200 B( 27-O , 28-O ) :   0.2655
B( 29-C , 30-C ) :   1.2009 B( 29-C , 74-H ) :   0.9992 B( 30-C , 31-C ) :   1.0860
B( 31-C , 32-C ) :   1.6300 B( 31-C , 75-H ) :   0.9793 B( 32-C , 33-C ) :   1.1803
B( 32-C , 76-H ) :   0.9727 B( 33-C , 34-C ) :   1.5129 B( 33-C , 77-H ) :   0.9854
B( 34-C , 35-C ) :   1.1724 B( 34-C , 38-S ) :   1.0381 B( 35-C , 36-C ) :   1.5414
B( 35-C , 78-H ) :   1.0005 B( 36-C , 37-C ) :   1.2356 B( 36-C , 79-H ) :   0.9943
B( 37-C , 38-S ) :   1.0646 B( 37-C , 39-C ) :   1.4141 B( 39-C , 40-C ) :   1.2515
B( 39-C , 43-S ) :   1.0677 B( 40-C , 41-C ) :   1.5231 B( 40-C , 80-H ) :   0.9929
B( 41-C , 42-C ) :   1.2371 B( 41-C , 81-H ) :   0.9911 B( 42-C , 43-S ) :   1.0691
B( 42-C , 44-C ) :   1.4081 B( 44-C , 45-C ) :   1.3210 B( 44-C , 82-H ) :   0.9598
B( 45-C , 46-C ) :   1.4443 B( 45-C , 83-H ) :   0.9722 B( 46-C , 47-C ) :   1.2236
B( 46-C , 50-S ) :   1.0504 B( 47-C , 48-C ) :   1.5018 B( 47-C , 84-H ) :   0.9994
B( 48-C , 49-C ) :   1.2573 B( 48-C , 85-H ) :   0.9948 B( 49-C , 50-S ) :   1.0758
B( 49-C , 51-C ) :   1.4035 B( 51-C , 52-C ) :   1.2492 B( 51-C , 55-S ) :   1.0577
B( 52-C , 53-C ) :   1.5531 B( 52-C , 86-H ) :   0.9926 B( 53-C , 54-C ) :   1.1918
B( 53-C , 87-H ) :   0.9779 B( 54-C , 55-S ) :   1.0674 B( 54-C , 56-C ) :   1.4897
B( 56-C , 57-C ) :   1.2932 B( 56-C , 88-H ) :   0.9390 B( 57-C , 58-S ) :   1.0963
B( 57-C , 61-C ) :   1.4178 B( 58-S , 59-C ) :   1.1073 B( 59-C , 60-C ) :   1.4920
B( 59-C , 66-C ) :   1.1206 B( 60-C , 61-C ) :   1.3242 B( 60-C , 64-C ) :   1.1591
B( 61-C , 62-C ) :   1.1618 B( 62-C , 63-N ) :   2.9930 B( 64-C , 65-N ) :   2.9639
B( 66-C , 67-C ) :   1.9264 B( 66-C , 89-H ) :   0.9425 B( 67-C , 90-H ) :   0.9483
B( 67-C , 91-H ) :   0.9452

-----------------------------------------------------------------------------
         ABSORPTION SPECTRUM VIA TRANSITION ELECTRIC DIPOLE MOMENTS
-----------------------------------------------------------------------------
State   Energy  Wavelength   fosc         T2         TX        TY        TZ
        (cm-1)    (nm)                  (au**2)     (au)      (au)      (au)
-----------------------------------------------------------------------------
   0    6034.7   1657.1   1.345566428  73.40540  -7.83816  -2.81235   2.01479
   1   12251.4    816.2   0.062461681   1.67842   0.13367  -1.00100  -0.81151
   2   13989.6    714.8   0.156011645   3.67136  -0.88660  -1.61311  -0.53214
   3   17356.6    576.2   0.616386762  11.69135   0.31332  -3.06277  -1.48749
   4   17453.5    573.0   0.349966702   6.60114   0.45243  -2.32919  -0.98555
   5   20542.7    486.8   0.015088166   0.24180   0.48031   0.01704   0.10397
   6   21818.6    458.3   0.335676934   5.06488   2.23799  -0.04182  -0.23356
   7   22118.5    452.1   0.027754838   0.41310  -0.63987   0.04123  -0.04433
   8   23838.4    419.5   0.193756017   2.67580  -1.30121  -0.99039   0.04209
   9   25721.1    388.8   0.015222393   0.19484   0.40954   0.12061  -0.11209
  10   25988.9    384.8   0.085421245   1.08207   0.82553  -0.62702   0.08609
  11   26205.2    381.6   0.063293503   0.79515  -0.40662   0.78974   0.07820
  12   26571.0    376.3   0.066639884   0.82566  -0.80235   0.42176   0.06332
  13   27747.4    360.4   0.114582071   1.35947   1.10678   0.35544   0.09035
  14   29121.1    343.4   0.047065370   0.53207  -0.68965   0.20573   0.11886
  15   29561.8    338.3   0.057740790   0.64302   0.77036   0.13527   0.17683
  16   29739.6    336.3   0.045862014   0.50768  -0.51039   0.49647   0.02654
  17   29968.2    333.7   0.182191231   2.00144  -1.27424   0.61072   0.06900
  18   30165.5    331.5   0.034925053   0.38116   0.45691  -0.28046  -0.30615
  19   30752.9    325.2   0.020944838   0.22422  -0.42858   0.19935  -0.02820
  20   30945.1    323.2   0.057106516   0.60753   0.52665  -0.57450   0.01096
  21   31316.2    319.3   0.062839142   0.66060   0.70255  -0.40867  -0.00245
  22   31661.8    315.8   0.001955684   0.02033   0.07798  -0.11872  -0.01267
  23   32269.7    309.9   0.129650697   1.32268  -0.85701   0.72478   0.25083
  24   32525.9    307.4   0.112192229   1.13556  -1.00812   0.31407   0.14356
  25   32702.0    305.8   0.021798526   0.21945  -0.43450   0.10424   0.14067
  26   32855.3    304.4   0.025940976   0.25993   0.25910   0.40586  -0.16756
  27   33167.3    301.5   0.000103145   0.00102  -0.02532  -0.01454   0.01308
  28   33612.1    297.5   0.014760109   0.14457   0.13728   0.27765   0.22053
  29   33854.5    295.4   0.083988293   0.81673  -0.84488   0.31490   0.06121
  30   33893.7    295.0   0.102955769   1.00002  -0.31704   0.93075   0.18222
  31   34062.8    293.6   0.008197140   0.07922   0.22980   0.06675  -0.14818
  32   34285.7    291.7   0.854100020   8.20108  -2.16247   1.86875   0.18055
  33   34722.3    288.0   0.008353583   0.07920   0.18645  -0.10643  -0.18196
  34   35444.1    282.1   0.057409659   0.53323  -0.21993   0.66451   0.20808
  35   36351.4    275.1   0.000273579   0.00248  -0.01057   0.01481  -0.04633
  36   36423.7    274.5   0.006917547   0.06252   0.24576  -0.04078  -0.02152
  37   36560.7    273.5   0.000360920   0.00325   0.04911  -0.00127  -0.02892
  38   36714.5    272.4   0.000202433   0.00182  -0.03220  -0.02422   0.01385
  39   36930.8    270.8   0.108250207   0.96497   0.56591   0.80187   0.04153
  40   37258.0    268.4   0.019893922   0.17578  -0.36375   0.14354   0.15122
  41   37331.2    267.9   0.028757277   0.25360  -0.32167  -0.35402  -0.15749
  42   37513.8    266.6   0.156624605   1.37450   0.07272   1.14877   0.22257
  43   37738.1    265.0   0.080679500   0.70382  -0.09471   0.81809   0.15994
  44   38201.1    261.8   0.211723995   1.82461  -0.04482   1.33218   0.21885
  45   38664.4    258.6   0.048863594   0.41605  -0.30549  -0.56773  -0.02043
  46   38777.9    257.9   0.022701747   0.19273   0.14200   0.41354   0.03936
  47   39047.9    256.1   0.068040823   0.57365  -0.58445   0.47972   0.04392
  48   39603.6    252.5   0.068832519   0.57218   0.70660   0.24345   0.11673
  49   39924.0    250.5   0.098813454   0.81481   0.89073   0.13940   0.04452

FINAL SINGLE POINT ENERGY     -5096.525526252119

DIPOLE MOMENT
-------------
                                X             Y             Z
Electronic contribution:    -53.20506     -44.55028      -2.96915
Nuclear contribution   :     49.35562      51.41063       5.85827
                        -----------------------------------------
Total Dipole Moment    :     -3.84944       6.86035       2.88912
                        -----------------------------------------
Magnitude (a.u.)       :      8.38032
Magnitude (Debye)      :     21.30107

Rotational constants in cm-1:     0.001441     0.000158     0.000146
Rotational constants in MHz :    43.198457     4.738615     4.366881

                             ****ORCA TERMINATED NORMALLY****
TOTAL RUN TIME: 0 days 0 hours 20 minutes 17 seconds 65 msec
