                         Program Version 4.2.0 -  RELEASE  -
|  1> # ORCA input file
|  2> # SCF done       -162.338108760493          0.000647472978
|  3> ! CAM-B3LYP def2-SVP def2/J RIJCOSX Grid4 TightSCF
|  4> %maxcore 5000
|  5> %tddft
|  6>     Mode sTDDFT
|  7>     Ethresh 5.0
|  8>     maxcore 5000
|  9> end
| 10>
| 11> %pal
| 12>   nprocs 6
| 13>   end
| 14> * xyz 0 1
| 15>    C       -2.46751         5.92747         4.41848
| 16>    C       -2.90251         7.06565         3.79705
| 17>    F       -2.74785         8.25785         4.38997
| 18>    C       -3.51721         7.00070         2.53256
| 19>    F       -3.93787         8.13131         1.94495
| 20>    C       -3.68811         5.79804         1.90420
| 21>    C       -3.25065         4.60968         2.51817
| 22>    C       -2.62997         4.67324         3.79876
| 23>    C       -2.18619         3.49078         4.43731
| 24>    C       -2.35817         2.28375         3.81465
| 25>    C       -2.97742         2.23051         2.53186
| 26>    C       -3.41538         3.35342         1.89137
| 27>    C       -3.03838         0.83029         2.09703
| 28>    O       -3.49833         0.39920         1.03838
| 29>    C       -2.44006         0.03932         3.16961
| 30>    C       -2.01318         0.92410         4.22530
| 31>    C       -1.39543         0.57545         5.40149
| 32>    C       -1.00341         1.49634         6.39205
| 33>    N       -0.66378         2.20162         7.23261
| 34>    C       -1.07411        -0.74755         5.76206
| 35>    N       -0.79168        -1.80937         6.09675
| 36>    C       -2.35272        -1.33463         3.08946
| 37>    N       -2.82202        -1.96063         2.00523
| 38>    C       -2.83305        -3.28854         1.74189
| 39>    S       -2.17561        -4.45386         2.84923
| 40>    C       -2.59642        -5.71171         1.73056
| 41>    N       -2.29510        -7.02938         2.08319
| 42>    O       -2.59053        -7.90889         1.29112
| 43>    O       -1.75305        -7.20183         3.16318
| 44>    C       -3.19960        -5.25633         0.58686
| 45>    C       -3.35090        -3.85881         0.56873
| 46>    C       -3.94274        -3.07491        -0.48575
| 47>    C       -4.40549        -3.56532        -1.64811
| 48>    C       -4.99500        -2.78993        -2.71301
| 49>    C       -4.71905        -1.52806        -3.06737
| 50>    C       -3.67500        -0.66182        -2.43704
| 51>    C       -5.44094        -0.85374        -4.21828
| 52>    N       -6.42409        -1.65389        -4.89208
| 53>    C       -7.70803        -1.74467        -4.48391
| 54>    C       -8.57404        -2.70155        -4.91471
| 55>    C       -9.93998        -2.81274        -4.58441
| 56>    C      -10.75274        -1.96637        -3.87376
| 57>    C      -12.12393        -2.20503        -3.60141
| 58>    C      -12.75309        -1.21450        -2.91285
| 59>    C      -11.92091        -0.11747        -2.59588
| 60>    S      -10.29992        -0.40576        -3.19204
| 61>    C      -12.26309         1.04354        -1.93367
| 62>    C      -13.52144         1.38743        -1.38725
| 63>    C      -13.56413         2.61526        -0.80519
| 64>    C      -12.33887         3.33190        -0.85707
| 65>    S      -11.12264         2.34790        -1.67320
| 66>    C      -12.03588         4.58458        -0.40233
| 67>    C      -12.94614         5.43264         0.28110
| 68>    C      -12.69579         6.69849         0.67620
| 69>    C      -11.41904         7.42936         0.39831
| 70>    C      -13.72460         7.48283         1.44870
| 71>    N      -14.73797         6.65016         2.04010
| 72>    C      -16.01278         7.11196         2.26613
| 73>    C      -16.86281         6.60140         3.15022
| 74>    H       -1.99896         5.99492         5.38782
| 75>    H       -4.16097         5.76573         0.93510
| 76>    H       -1.72181         3.57240         5.40647
| 77>    H       -3.88375         3.28697         0.92109
| 78>    H       -1.91900        -1.94092         3.87316
| 79>    H       -3.22129        -1.31262         1.30126
| 80>    H       -3.51575        -5.92638        -0.19069
| 81>    H       -4.04620        -2.01879        -0.29501
| 82>    H       -4.38548        -4.63294        -1.82219
| 83>    H       -5.72603        -3.33774        -3.29520
| 84>    H       -2.84444        -1.26153        -2.07155
| 85>    H       -4.08440        -0.10243        -1.59607
| 86>    H       -3.29712         0.06014        -3.15867
| 87>    H       -4.69766        -0.52785        -4.95591
| 88>    H       -5.93636         0.04354        -3.83126
| 89>    H       -6.07326        -2.39823        -5.47817
| 90>    H       -8.01824        -0.97520        -3.79438
| 91>    H       -8.18591        -3.47074        -5.57133
| 92>    H      -10.43547        -3.70172        -4.95574
| 93>    H      -12.60414        -3.10987        -3.93136
| 94>    H      -13.79123        -1.23703        -2.63445
| 95>    H      -14.36045         0.71647        -1.44004
| 96>    H      -14.44357         3.03059        -0.34731
| 97>    H      -11.02990         4.94147        -0.56747
| 98>    H      -13.92265         5.02765         0.50556
| 99>    H      -10.65720         7.15851         1.13091
|100>    H      -11.57542         8.50408         0.45996
|101>    H      -11.03473         7.19117        -0.59003
|102>    H      -14.21989         8.18576         0.76691
|103>    H      -13.19993         8.09030         2.20729
|104>    H      -14.39562         5.99957         2.73339
|105>    H      -16.31271         7.91538         1.60597
|106>    H      -16.57945         5.80006         3.81123
|107>    H      -17.87097         6.96074         3.22549
|108> *
|109>
|110>                          ****END OF INPUT****

CARTESIAN COORDINATES (ANGSTROEM)
---------------------------------
  C     -2.467510    5.927470    4.418480
  C     -2.902510    7.065650    3.797050
  F     -2.747850    8.257850    4.389970
  C     -3.517210    7.000700    2.532560
  F     -3.937870    8.131310    1.944950
  C     -3.688110    5.798040    1.904200
  C     -3.250650    4.609680    2.518170
  C     -2.629970    4.673240    3.798760
  C     -2.186190    3.490780    4.437310
  C     -2.358170    2.283750    3.814650
  C     -2.977420    2.230510    2.531860
  C     -3.415380    3.353420    1.891370
  C     -3.038380    0.830290    2.097030
  O     -3.498330    0.399200    1.038380
  C     -2.440060    0.039320    3.169610
  C     -2.013180    0.924100    4.225300
  C     -1.395430    0.575450    5.401490
  C     -1.003410    1.496340    6.392050
  N     -0.663780    2.201620    7.232610
  C     -1.074110   -0.747550    5.762060
  N     -0.791680   -1.809370    6.096750
  C     -2.352720   -1.334630    3.089460
  N     -2.822020   -1.960630    2.005230
  C     -2.833050   -3.288540    1.741890
  S     -2.175610   -4.453860    2.849230
  C     -2.596420   -5.711710    1.730560
  N     -2.295100   -7.029380    2.083190
  O     -2.590530   -7.908890    1.291120
  O     -1.753050   -7.201830    3.163180
  C     -3.199600   -5.256330    0.586860
  C     -3.350900   -3.858810    0.568730
  C     -3.942740   -3.074910   -0.485750
  C     -4.405490   -3.565320   -1.648110
  C     -4.995000   -2.789930   -2.713010
  C     -4.719050   -1.528060   -3.067370
  C     -3.675000   -0.661820   -2.437040
  C     -5.440940   -0.853740   -4.218280
  N     -6.424090   -1.653890   -4.892080
  C     -7.708030   -1.744670   -4.483910
  C     -8.574040   -2.701550   -4.914710
  C     -9.939980   -2.812740   -4.584410
  C    -10.752740   -1.966370   -3.873760
  C    -12.123930   -2.205030   -3.601410
  C    -12.753090   -1.214500   -2.912850
  C    -11.920910   -0.117470   -2.595880
  S    -10.299920   -0.405760   -3.192040
  C    -12.263090    1.043540   -1.933670
  C    -13.521440    1.387430   -1.387250
  C    -13.564130    2.615260   -0.805190
  C    -12.338870    3.331900   -0.857070
  S    -11.122640    2.347900   -1.673200
  C    -12.035880    4.584580   -0.402330
  C    -12.946140    5.432640    0.281100
  C    -12.695790    6.698490    0.676200
  C    -11.419040    7.429360    0.398310
  C    -13.724600    7.482830    1.448700
  N    -14.737970    6.650160    2.040100
  C    -16.012780    7.111960    2.266130
  C    -16.862810    6.601400    3.150220
  H     -1.998960    5.994920    5.387820
  H     -4.160970    5.765730    0.935100
  H     -1.721810    3.572400    5.406470
  H     -3.883750    3.286970    0.921090
  H     -1.919000   -1.940920    3.873160
  H     -3.221290   -1.312620    1.301260
  H     -3.515750   -5.926380   -0.190690
  H     -4.046200   -2.018790   -0.295010
  H     -4.385480   -4.632940   -1.822190
  H     -5.726030   -3.337740   -3.295200
  H     -2.844440   -1.261530   -2.071550
  H     -4.084400   -0.102430   -1.596070
  H     -3.297120    0.060140   -3.158670
  H     -4.697660   -0.527850   -4.955910
  H     -5.936360    0.043540   -3.831260
  H     -6.073260   -2.398230   -5.478170
  H     -8.018240   -0.975200   -3.794380
  H     -8.185910   -3.470740   -5.571330
  H    -10.435470   -3.701720   -4.955740
  H    -12.604140   -3.109870   -3.931360
  H    -13.791230   -1.237030   -2.634450
  H    -14.360450    0.716470   -1.440040
  H    -14.443570    3.030590   -0.347310
  H    -11.029900    4.941470   -0.567470
  H    -13.922650    5.027650    0.505560
  H    -10.657200    7.158510    1.130910
  H    -11.575420    8.504080    0.459960
  H    -11.034730    7.191170   -0.590030
  H    -14.219890    8.185760    0.766910
  H    -13.199930    8.090300    2.207290
  H    -14.395620    5.999570    2.733390
  H    -16.312710    7.915380    1.605970
  H    -16.579450    5.800060    3.811230
  H    -17.870970    6.960740    3.225490

 Total Charge           Charge          ....    0
 Multiplicity           Mult            ....    1
 Number of Electrons    NEL             ....  436
 Basis Dimension        Dim             .... 1008

ORBITAL ENERGIES
----------------

  NO   OCC          E(Eh)            E(eV)
   0   2.0000     -88.995079     -2421.6792
   1   2.0000     -88.930766     -2419.9292
   2   2.0000     -88.923795     -2419.7395
   3   2.0000     -24.805230      -674.9846
   4   2.0000     -24.804417      -674.9625
   5   2.0000     -19.243202      -523.6341
   6   2.0000     -19.243197      -523.6340
   7   2.0000     -19.242183      -523.6064
   8   2.0000     -14.654325      -398.7644
   9   2.0000     -14.505021      -394.7017
  10   2.0000     -14.438339      -392.8872
  11   2.0000     -14.425728      -392.5440
  12   2.0000     -14.421126      -392.4188
  13   2.0000     -14.403467      -391.9383
  14   2.0000     -10.389582      -282.7149
  15   2.0000     -10.389491      -282.7124
  16   2.0000     -10.388873      -282.6956
  17   2.0000     -10.379916      -282.4519
  18   2.0000     -10.376308      -282.3537
  19   2.0000     -10.353562      -281.7348
  20   2.0000     -10.353384      -281.7299
  21   2.0000     -10.348691      -281.6022
  22   2.0000     -10.327870      -281.0356
  23   2.0000     -10.324263      -280.9375
  24   2.0000     -10.321364      -280.8586
  25   2.0000     -10.319524      -280.8085
  26   2.0000     -10.319185      -280.7993
  27   2.0000     -10.317318      -280.7485
  28   2.0000     -10.316455      -280.7250
  29   2.0000     -10.314668      -280.6764
  30   2.0000     -10.313086      -280.6333
  31   2.0000     -10.312751      -280.6242
  32   2.0000     -10.311558      -280.5918
  33   2.0000     -10.309813      -280.5443
  34   2.0000     -10.308433      -280.5067
  35   2.0000     -10.308382      -280.5053
  36   2.0000     -10.306128      -280.4440
  37   2.0000     -10.295733      -280.1611
  38   2.0000     -10.294417      -280.1253
  39   2.0000     -10.293869      -280.1104
  40   2.0000     -10.291620      -280.0492
  41   2.0000     -10.291543      -280.0471
  42   2.0000     -10.289075      -279.9800
  43   2.0000     -10.288929      -279.9760
  44   2.0000     -10.284887      -279.8660
  45   2.0000     -10.283334      -279.8237
  46   2.0000     -10.274682      -279.5883
  47   2.0000     -10.273712      -279.5619
  48   2.0000     -10.273170      -279.5472
  49   2.0000     -10.270976      -279.4875
  50   2.0000     -10.269803      -279.4555
  51   2.0000     -10.265791      -279.3464
  52   2.0000     -10.265757      -279.3454
  53   2.0000     -10.262718      -279.2628
  54   2.0000     -10.258463      -279.1470
  55   2.0000     -10.257673      -279.1255
  56   2.0000     -10.253379      -279.0086
  57   2.0000     -10.248176      -278.8670
  58   2.0000     -10.223407      -278.1930
  59   2.0000      -8.090323      -220.1489
  60   2.0000      -8.026517      -218.4126
  61   2.0000      -8.020308      -218.2437
  62   2.0000      -6.059959      -164.8999
  63   2.0000      -6.055627      -164.7820
  64   2.0000      -6.051767      -164.6769
  65   2.0000      -5.996266      -163.1667
  66   2.0000      -5.992323      -163.0594
  67   2.0000      -5.990136      -162.9999
  68   2.0000      -5.987494      -162.9280
  69   2.0000      -5.986194      -162.8926
  70   2.0000      -5.980976      -162.7506
  71   2.0000      -1.327132       -36.1131
  72   2.0000      -1.322363       -35.9833
  73   2.0000      -1.312318       -35.7100
  74   2.0000      -1.156386       -31.4669
  75   2.0000      -1.141364       -31.0581
  76   2.0000      -1.111912       -30.2567
  77   2.0000      -1.041346       -28.3365
  78   2.0000      -1.029304       -28.0088
  79   2.0000      -1.015810       -27.6416
  80   2.0000      -1.013713       -27.5845
  81   2.0000      -1.007007       -27.4021
  82   2.0000      -1.001749       -27.2590
  83   2.0000      -0.990760       -26.9600
  84   2.0000      -0.975949       -26.5569
  85   2.0000      -0.953962       -25.9586
  86   2.0000      -0.941471       -25.6187
  87   2.0000      -0.934700       -25.4345
  88   2.0000      -0.919349       -25.0168
  89   2.0000      -0.908267       -24.7152
  90   2.0000      -0.901176       -24.5223
  91   2.0000      -0.898275       -24.4433
  92   2.0000      -0.893116       -24.3029
  93   2.0000      -0.881548       -23.9881
  94   2.0000      -0.869472       -23.6595
  95   2.0000      -0.858932       -23.3727
  96   2.0000      -0.850493       -23.1431
  97   2.0000      -0.850079       -23.1318
  98   2.0000      -0.831492       -22.6260
  99   2.0000      -0.824173       -22.4269
 100   2.0000      -0.820023       -22.3140
 101   2.0000      -0.812699       -22.1147
 102   2.0000      -0.805224       -21.9113
 103   2.0000      -0.796523       -21.6745
 104   2.0000      -0.790876       -21.5208
 105   2.0000      -0.779437       -21.2096
 106   2.0000      -0.770051       -20.9542
 107   2.0000      -0.763325       -20.7711
 108   2.0000      -0.748028       -20.3549
 109   2.0000      -0.747135       -20.3306
 110   2.0000      -0.738857       -20.1053
 111   2.0000      -0.733281       -19.9536
 112   2.0000      -0.725230       -19.7345
 113   2.0000      -0.713635       -19.4190
 114   2.0000      -0.708933       -19.2910
 115   2.0000      -0.696371       -18.9492
 116   2.0000      -0.685338       -18.6490
 117   2.0000      -0.680681       -18.5223
 118   2.0000      -0.667852       -18.1732
 119   2.0000      -0.664302       -18.0766
 120   2.0000      -0.663977       -18.0677
 121   2.0000      -0.660686       -17.9782
 122   2.0000      -0.652247       -17.7485
 123   2.0000      -0.648910       -17.6577
 124   2.0000      -0.638477       -17.3738
 125   2.0000      -0.635025       -17.2799
 126   2.0000      -0.633347       -17.2342
 127   2.0000      -0.629491       -17.1293
 128   2.0000      -0.615613       -16.7517
 129   2.0000      -0.614710       -16.7271
 130   2.0000      -0.612070       -16.6553
 131   2.0000      -0.605550       -16.4779
 132   2.0000      -0.603333       -16.4175
 133   2.0000      -0.601146       -16.3580
 134   2.0000      -0.592665       -16.1272
 135   2.0000      -0.592214       -16.1150
 136   2.0000      -0.587937       -15.9986
 137   2.0000      -0.581886       -15.8339
 138   2.0000      -0.579979       -15.7820
 139   2.0000      -0.577728       -15.7208
 140   2.0000      -0.572327       -15.5738
 141   2.0000      -0.568605       -15.4725
 142   2.0000      -0.566770       -15.4226
 143   2.0000      -0.562180       -15.2977
 144   2.0000      -0.561061       -15.2672
 145   2.0000      -0.555471       -15.1151
 146   2.0000      -0.553497       -15.0614
 147   2.0000      -0.549534       -14.9536
 148   2.0000      -0.546890       -14.8816
 149   2.0000      -0.541535       -14.7359
 150   2.0000      -0.540920       -14.7192
 151   2.0000      -0.539068       -14.6688
 152   2.0000      -0.534609       -14.5474
 153   2.0000      -0.531427       -14.4609
 154   2.0000      -0.526576       -14.3289
 155   2.0000      -0.524267       -14.2660
 156   2.0000      -0.520841       -14.1728
 157   2.0000      -0.512865       -13.9558
 158   2.0000      -0.508608       -13.8399
 159   2.0000      -0.507606       -13.8126
 160   2.0000      -0.505233       -13.7481
 161   2.0000      -0.504091       -13.7170
 162   2.0000      -0.498746       -13.5716
 163   2.0000      -0.497999       -13.5512
 164   2.0000      -0.494767       -13.4633
 165   2.0000      -0.489237       -13.3128
 166   2.0000      -0.483195       -13.1484
 167   2.0000      -0.480350       -13.0710
 168   2.0000      -0.479752       -13.0547
 169   2.0000      -0.478081       -13.0092
 170   2.0000      -0.475793       -12.9470
 171   2.0000      -0.473855       -12.8943
 172   2.0000      -0.472799       -12.8655
 173   2.0000      -0.472084       -12.8460
 174   2.0000      -0.465860       -12.6767
 175   2.0000      -0.462948       -12.5974
 176   2.0000      -0.459840       -12.5129
 177   2.0000      -0.457500       -12.4492
 178   2.0000      -0.455385       -12.3917
 179   2.0000      -0.452062       -12.3012
 180   2.0000      -0.450896       -12.2695
 181   2.0000      -0.448781       -12.2120
 182   2.0000      -0.447657       -12.1814
 183   2.0000      -0.441917       -12.0252
 184   2.0000      -0.441262       -12.0073
 185   2.0000      -0.439409       -11.9569
 186   2.0000      -0.435035       -11.8379
 187   2.0000      -0.434908       -11.8344
 188   2.0000      -0.434722       -11.8294
 189   2.0000      -0.428080       -11.6486
 190   2.0000      -0.420401       -11.4397
 191   2.0000      -0.418076       -11.3764
 192   2.0000      -0.417501       -11.3608
 193   2.0000      -0.411940       -11.2095
 194   2.0000      -0.409202       -11.1349
 195   2.0000      -0.404207       -10.9990
 196   2.0000      -0.398199       -10.8355
 197   2.0000      -0.392651       -10.6846
 198   2.0000      -0.390304       -10.6207
 199   2.0000      -0.387957       -10.5569
 200   2.0000      -0.383881       -10.4459
 201   2.0000      -0.381957       -10.3936
 202   2.0000      -0.381828       -10.3901
 203   2.0000      -0.371552       -10.1105
 204   2.0000      -0.365937        -9.9576
 205   2.0000      -0.358288        -9.7495
 206   2.0000      -0.351817        -9.5734
 207   2.0000      -0.349682        -9.5153
 208   2.0000      -0.328673        -8.9437
 209   2.0000      -0.322391        -8.7727
 210   2.0000      -0.316310        -8.6072
 211   2.0000      -0.310225        -8.4416
 212   2.0000      -0.304706        -8.2915
 213   2.0000      -0.301463        -8.2032
 214   2.0000      -0.271691        -7.3931
 215   2.0000      -0.257060        -6.9950
 216   2.0000      -0.251220        -6.8361
 217   2.0000      -0.189694        -5.1618
 218   0.0000      -0.098334        -2.6758
 219   0.0000      -0.077387        -2.1058
 220   0.0000      -0.053580        -1.4580
 221   0.0000      -0.051466        -1.4005
 222   0.0000      -0.031767        -0.8644

MULLIKEN ATOMIC CHARGES
-----------------------
   0 C :   -0.103673
   1 C :    0.242979
   2 F :   -0.169978
   3 C :    0.238441
   4 F :   -0.171754
   5 C :   -0.100633
   6 C :    0.110688
   7 C :    0.110988
   8 C :   -0.077279
   9 C :    0.039104
  10 C :    0.007574
  11 C :   -0.075569
  12 C :    0.175343
  13 O :   -0.228966
  14 C :   -0.139508
  15 C :    0.336052
  16 C :   -0.344608
  17 C :   -0.182238
  18 N :    0.148735
  19 C :   -0.195901
  20 N :    0.146658
  21 C :    0.037457
  22 N :   -0.001743
  23 C :   -0.128640
  24 S :    0.181022
  25 C :   -0.000266
  26 N :    0.278319
  27 O :   -0.248097
  28 O :   -0.255941
  29 C :    0.005729
  30 C :    0.136049
  31 C :   -0.045137
  32 C :    0.019101
  33 C :    0.003738
  34 C :   -0.208997
  35 C :    0.072106
  36 C :    0.182440
  37 N :   -0.152844
  38 C :    0.062158
  39 C :   -0.035938
  40 C :    0.005655
  41 C :   -0.041638
  42 C :    0.038827
  43 C :    0.011475
  44 C :   -0.029190
  45 S :    0.022718
  46 C :   -0.056842
  47 C :    0.020960
  48 C :    0.019789
  49 C :   -0.040805
  50 S :    0.056997
  51 C :    0.013652
  52 C :    0.007394
  53 C :   -0.263252
  54 C :    0.091661
  55 C :    0.229189
  56 N :   -0.189814
  57 C :    0.046191
  58 C :   -0.089250
  59 H :    0.009765
  60 H :   -0.000865
  61 H :   -0.005374
  62 H :   -0.012382
  63 H :    0.047214
  64 H :    0.184077
  65 H :    0.014416
  66 H :   -0.012156
  67 H :   -0.009533
  68 H :   -0.013026
  69 H :    0.027095
  70 H :    0.055387
  71 H :    0.007366
  72 H :    0.025232
  73 H :    0.033103
  74 H :    0.118984
  75 H :    0.018025
  76 H :   -0.036309
  77 H :   -0.019955
  78 H :   -0.021512
  79 H :   -0.022656
  80 H :   -0.019309
  81 H :   -0.014938
  82 H :   -0.037370
  83 H :   -0.027203
  84 H :    0.027165
  85 H :    0.008468
  86 H :    0.026399
  87 H :    0.020438
  88 H :    0.000306
  89 H :    0.110825
  90 H :   -0.001848
  91 H :   -0.007821
  92 H :    0.007305
Sum of atomic charges:    0.0000000

LOEWDIN ATOMIC CHARGES
----------------------
   0 C :   -0.027295
   1 C :    0.069174
   2 F :   -0.047998
   3 C :    0.069428
   4 F :   -0.049857
   5 C :   -0.031784
   6 C :   -0.010233
   7 C :   -0.005902
   8 C :    0.021130
   9 C :   -0.020129
  10 C :   -0.052220
  11 C :    0.032487
  12 C :    0.098802
  13 O :   -0.183903
  14 C :   -0.147279
  15 C :    0.078220
  16 C :   -0.148066
  17 C :   -0.018978
  18 N :   -0.053515
  19 C :   -0.021254
  20 N :   -0.051950
  21 C :    0.117335
  22 N :    0.085913
  23 C :   -0.119655
  24 S :    0.471737
  25 C :   -0.197861
  26 N :    0.275080
  27 O :   -0.214654
  28 O :   -0.222735
  29 C :    0.003991
  30 C :   -0.077461
  31 C :   -0.038639
  32 C :   -0.006986
  33 C :   -0.066689
  34 C :   -0.023832
  35 C :   -0.053540
  36 C :    0.038448
  37 N :    0.003414
  38 C :    0.044723
  39 C :   -0.134951
  40 C :   -0.040517
  41 C :   -0.176333
  42 C :   -0.027030
  43 C :   -0.058631
  44 C :   -0.173632
  45 S :    0.354072
  46 C :   -0.195125
  47 C :   -0.026288
  48 C :   -0.049167
  49 C :   -0.141523
  50 S :    0.341975
  51 C :   -0.071925
  52 C :   -0.055010
  53 C :   -0.050264
  54 C :   -0.051694
  55 C :    0.038219
  56 N :   -0.035995
  57 C :    0.022543
  58 C :   -0.160283
  59 H :    0.048838
  60 H :    0.044898
  61 H :    0.041199
  62 H :    0.039984
  63 H :    0.037628
  64 H :    0.084186
  65 H :    0.045683
  66 H :    0.029151
  67 H :    0.028214
  68 H :    0.026245
  69 H :    0.035127
  70 H :    0.041138
  71 H :    0.028076
  72 H :    0.032340
  73 H :    0.038420
  74 H :    0.077389
  75 H :    0.013210
  76 H :    0.020487
  77 H :    0.033308
  78 H :    0.029981
  79 H :    0.027857
  80 H :    0.029986
  81 H :    0.030699
  82 H :    0.019683
  83 H :    0.020646
  84 H :    0.036736
  85 H :    0.027907
  86 H :    0.032232
  87 H :    0.033044
  88 H :    0.012432
  89 H :    0.072370
  90 H :    0.022354
  91 H :    0.012447
  92 H :    0.020197

  Mayer bond orders larger than 0.100000
B(  0-C ,  1-C ) :   1.4336 B(  0-C ,  5-C ) :   0.1083 B(  0-C ,  7-C ) :   1.1965
B(  0-C , 59-H ) :   1.0059 B(  1-C ,  2-F ) :   1.1357 B(  1-C ,  3-C ) :   1.1972
B(  3-C ,  4-F ) :   1.1338 B(  3-C ,  5-C ) :   1.4391 B(  5-C ,  6-C ) :   1.1950
B(  5-C , 60-H ) :   1.0057 B(  6-C ,  7-C ) :   1.2583 B(  6-C , 11-C ) :   1.1848
B(  7-C ,  8-C ) :   1.2055 B(  8-C ,  9-C ) :   1.4698 B(  8-C , 61-H ) :   0.9881
B(  9-C , 10-C ) :   1.2184 B(  9-C , 15-C ) :   0.9850 B( 10-C , 11-C ) :   1.4699
B( 10-C , 12-C ) :   0.9814 B( 11-C , 62-H ) :   1.0169 B( 12-C , 13-O ) :   2.0015
B( 12-C , 14-C ) :   1.0189 B( 13-O , 64-H ) :   0.1463 B( 14-C , 15-C ) :   1.1003
B( 14-C , 21-C ) :   1.4255 B( 15-C , 16-C ) :   1.6266 B( 16-C , 17-C ) :   1.1502
B( 16-C , 19-C ) :   1.1472 B( 17-C , 18-N ) :   2.9584 B( 19-C , 20-N ) :   2.9538
B( 21-C , 22-N ) :   1.3585 B( 21-C , 63-H ) :   0.9327 B( 22-N , 23-C ) :   1.1905
B( 22-N , 64-H ) :   0.8215 B( 23-C , 24-S ) :   1.1313 B( 23-C , 30-C ) :   1.3775
B( 24-S , 25-C ) :   1.0869 B( 25-C , 26-N ) :   0.9692 B( 25-C , 29-C ) :   1.4996
B( 26-N , 27-O ) :   1.5297 B( 26-N , 28-O ) :   1.5126 B( 27-O , 28-O ) :   0.2642
B( 29-C , 30-C ) :   1.2223 B( 29-C , 65-H ) :   0.9989 B( 30-C , 31-C ) :   1.0707
B( 31-C , 32-C ) :   1.7744 B( 31-C , 66-H ) :   0.9643 B( 32-C , 33-C ) :   1.0799
B( 32-C , 67-H ) :   0.9580 B( 33-C , 34-C ) :   1.8535 B( 33-C , 68-H ) :   0.9351
B( 34-C , 35-C ) :   1.0840 B( 34-C , 36-C ) :   0.9955 B( 35-C , 69-H ) :   0.9437
B( 35-C , 70-H ) :   0.9364 B( 35-C , 71-H ) :   0.9485 B( 36-C , 37-N ) :   1.0564
B( 36-C , 72-H ) :   0.9346 B( 36-C , 73-H ) :   0.9294 B( 37-N , 38-C ) :   1.2134
B( 37-N , 74-H ) :   0.9411 B( 38-C , 39-C ) :   1.5838 B( 38-C , 75-H ) :   0.9481
B( 39-C , 40-C ) :   1.2182 B( 39-C , 76-H ) :   0.9594 B( 40-C , 41-C ) :   1.5938
B( 40-C , 77-H ) :   0.9583 B( 41-C , 42-C ) :   1.1522 B( 41-C , 45-S ) :   1.0085
B( 42-C , 43-C ) :   1.5924 B( 42-C , 78-H ) :   0.9966 B( 43-C , 44-C ) :   1.1834
B( 43-C , 79-H ) :   0.9918 B( 44-C , 45-S ) :   1.0385 B( 44-C , 46-C ) :   1.5193
B( 46-C , 47-C ) :   1.1862 B( 46-C , 50-S ) :   1.0312 B( 47-C , 48-C ) :   1.6112
B( 47-C , 80-H ) :   0.9920 B( 48-C , 49-C ) :   1.1419 B( 48-C , 81-H ) :   0.9911
B( 49-C , 50-S ) :   1.0255 B( 49-C , 51-C ) :   1.6034 B( 51-C , 52-C ) :   1.1252
B( 51-C , 82-H ) :   0.9547 B( 52-C , 53-C ) :   1.7902 B( 52-C , 83-H ) :   0.9540
B( 53-C , 54-C ) :   1.0785 B( 53-C , 55-C ) :   1.0067 B( 54-C , 84-H ) :   0.9446
B( 54-C , 85-H ) :   0.9548 B( 54-C , 86-H ) :   0.9493 B( 55-C , 56-N ) :   1.0380
B( 55-C , 87-H ) :   0.9149 B( 55-C , 88-H ) :   0.9339 B( 56-N , 57-C ) :   1.1521
B( 56-N , 89-H ) :   0.9405 B( 57-C , 58-C ) :   1.9048 B( 57-C , 90-H ) :   0.9607
B( 58-C , 91-H ) :   0.9610 B( 58-C , 92-H ) :   0.9529

-----------------------------------------------------------------------------
         ABSORPTION SPECTRUM VIA TRANSITION ELECTRIC DIPOLE MOMENTS
-----------------------------------------------------------------------------
State   Energy  Wavelength   fosc         T2         TX        TY        TZ
        (cm-1)    (nm)                  (au**2)     (au)      (au)      (au)
-----------------------------------------------------------------------------
   0   10292.0    971.6   0.000161301   0.00516  -0.05805   0.00055  -0.04230
   1   14489.8    690.1   0.000026429   0.00060  -0.01849   0.01602  -0.00146
   2   16996.1    588.4   1.116974425  21.63562  -2.29664   3.47336   2.07288
   3   20013.5    499.7   0.000378656   0.00623  -0.02015   0.07489   0.01462
   4   21119.3    473.5   0.992081955  15.46476  -0.38513  -3.34527  -2.03115
   5   22447.1    445.5   0.000356521   0.00523   0.03217   0.05693  -0.03088
   6   24343.6    410.8   0.002658861   0.03596   0.01166   0.16627   0.09042
   7   25216.4    396.6   0.077303333   1.00923  -0.39082   0.71993  -0.58153
   8   26322.9    379.9   0.014716022   0.18405   0.28437   0.30624   0.09694
   9   26959.5    370.9   0.000233405   0.00285  -0.00608  -0.05186  -0.01110
  10   28404.2    352.1   0.000861326   0.00998   0.00045   0.09966   0.00719
  11   28544.5    350.3   0.020555227   0.23707  -0.18946  -0.21060  -0.39601
  12   29125.0    343.3   0.000456147   0.00516  -0.01603  -0.06996   0.00207
  13   29367.6    340.5   0.024673679   0.27659   0.44087   0.23919   0.15815
  14   29694.5    336.8   0.102886167   1.14066  -0.29772   0.96681  -0.34249
  15   30299.3    330.0   0.124979521   1.35795   0.40995   0.74620   0.79566
  16   30871.7    323.9   0.490606630   5.23177   0.76985  -2.09250   0.51043
  17   30972.0    322.9   0.001833407   0.01949   0.03604  -0.13196   0.02787
  18   31393.0    318.5   0.308961914   3.24002  -1.21224  -1.32615  -0.10868
  19   32086.5    311.7   0.214048786   2.19617   1.18057   0.89049   0.09715
  20   32929.6    303.7   0.000233557   0.00233  -0.00899   0.04494  -0.01530
  21   33585.5    297.7   0.088208550   0.86464   0.28260  -0.81759   0.34105
  22   33737.8    296.4   0.426075436   4.15763   0.56697  -1.79892   0.77464
  23   33845.7    295.5   0.001139726   0.01109   0.03520  -0.08046   0.05807
  24   34451.1    290.3   0.271881964   2.59809  -0.54461   1.38603  -0.61678
  25   34589.8    289.1   0.000673026   0.00641  -0.01082  -0.03964  -0.06868
  26   34818.6    287.2   0.039944410   0.37768   0.23483   0.44840   0.34853
  27   36353.8    275.1   0.550647329   4.98654   0.83471  -0.83596   1.89498
  28   36509.8    273.9   0.054870974   0.49478   0.31548  -0.22545   0.58687
  29   36618.0    273.1   0.191182055   1.71881   0.51849  -0.37755   1.14343
  30   36948.0    270.7   0.001184307   0.01055   0.04495   0.04736   0.07930
  31   37007.3    270.2   0.001593966   0.01418   0.05831   0.10210  -0.01886
  32   37113.1    269.4   0.015376853   0.13640   0.15478  -0.05270  -0.33116
  33   37161.3    269.1   0.194841696   1.72610  -0.27501  -1.22141  -0.39827
  34   37206.3    268.8   0.001571441   0.01390   0.09046   0.07207   0.02294
  35   37279.9    268.2   0.000798654   0.00705  -0.03471   0.02230  -0.07315
  36   38490.1    259.8   0.000805320   0.00689   0.00135  -0.08254   0.00854
  37   38710.0    258.3   0.110378972   0.93873   0.01011  -0.89555  -0.36962
  38   38783.3    257.8   0.008376652   0.07111  -0.00095   0.24992   0.09297
  39   38930.8    256.9   0.018021327   0.15239   0.11457  -0.29772   0.22501
  40   38939.7    256.8   0.005000701   0.04228  -0.05455   0.16208  -0.11416
  41   39625.2    252.4   0.001203924   0.01000  -0.03824  -0.03847  -0.08402
  42   39970.9    250.2   0.181070343   1.49135   0.36742   0.65564   0.96254

FINAL SINGLE POINT ENERGY     -3679.992835542281

DIPOLE MOMENT
-------------
                                X             Y             Z
Electronic contribution:     78.93415     -16.28853      41.80388
Nuclear contribution   :    -78.86499      17.68067     -44.61584
                        -----------------------------------------
Total Dipole Moment    :      0.06917       1.39214      -2.81196
                        -----------------------------------------
Magnitude (a.u.)       :      3.13847
Magnitude (Debye)      :      7.97734

Rotational constants in cm-1:     0.000923     0.000626     0.000425
Rotational constants in MHz :    27.663514    18.779529    12.751297

                             ****ORCA TERMINATED NORMALLY****
TOTAL RUN TIME: 0 days 0 hours 7 minutes 14 seconds 654 msec
