                         Program Version 4.2.0 -  RELEASE  -
|  1> # ORCA input file
|  2> # SCF done       -200.713622470693          0.000927482807
|  3> ! CAM-B3LYP def2-SVP def2/J RIJCOSX Grid4 TightSCF
|  4> %maxcore 5000
|  5> %tddft
|  6>     Mode sTDDFT
|  7>     Ethresh 5.0
|  8>     maxcore 5000
|  9> end
| 10>
| 11> %pal
| 12>   nprocs 6
| 13>   end
| 14> * xyz 0 1
| 15>    C      -12.19747        -9.75579        -7.40897
| 16>    C      -12.90836       -10.85785        -7.79279
| 17>    F      -13.54399       -10.87425        -8.96988
| 18>    C      -12.99337       -11.98347        -6.95013
| 19>    F      -13.70112       -13.05003        -7.34639
| 20>    C      -12.37232       -11.98980        -5.73279
| 21>    C      -11.63385       -10.86884        -5.30881
| 22>    C      -11.53945        -9.73322        -6.16389
| 23>    C      -10.78388        -8.60619        -5.76815
| 24>    C      -10.12460        -8.62366        -4.56793
| 25>    C      -10.22479        -9.76113        -3.72022
| 26>    C      -10.97301       -10.85075        -4.06016
| 27>    C       -9.38397        -9.54771        -2.52687
| 28>    O       -9.27966       -10.30418        -1.57529
| 29>    C       -8.73264        -8.25117        -2.71785
| 30>    C       -9.23445        -7.65266        -3.93560
| 31>    C       -8.93953        -6.41209        -4.44545
| 32>    C       -9.49159        -5.89265        -5.63282
| 33>    N       -9.89840        -5.39877        -6.58681
| 34>    C       -8.04955        -5.47392        -3.88653
| 35>    N       -7.33613        -4.65265        -3.51443
| 36>    C       -7.77973        -7.68800        -1.90062
| 37>    C       -7.10138        -8.19841        -0.79315
| 38>    S       -7.32423        -9.78638        -0.09666
| 39>    C       -6.01507        -9.52827         1.00117
| 40>    C       -5.47220        -8.25348         0.87801
| 41>    C       -6.07344        -7.50510        -0.12915
| 42>    C       -5.56840        -6.14809        -0.51365
| 43>    C       -4.59516        -6.33091        -1.68822
| 44>    C       -4.86355        -5.41376         0.65052
| 45>    C       -4.93653        -6.15588         1.98063
| 46>    C       -4.48830        -7.60591         1.79677
| 47>    C       -5.58732       -10.55925         1.89991
| 48>    C       -4.29752       -10.71710         2.25203
| 49>    C       -3.75603       -11.65840         3.20068
| 50>    C       -4.28121       -12.01104         4.38040
| 51>    C       -5.57872       -11.49630         4.91832
| 52>    C       -3.50178       -12.91208         5.30818
| 53>    N       -4.31645       -13.97156         5.85706
| 54>    C       -5.21271       -14.65923         5.14146
| 55>    C       -5.97596       -15.66968         5.65417
| 56>    C       -6.98583       -16.36976         4.97920
| 57>    C       -7.52650       -16.17479         3.72869
| 58>    C       -8.58373       -16.94813         3.19703
| 59>    C       -9.00575       -16.56299         1.96000
| 60>    C       -8.29782       -15.46418         1.42937
| 61>    S       -7.08230       -14.93164         2.55865
| 62>    C       -8.50426       -14.86800         0.19351
| 63>    C       -9.51109       -15.20746        -0.72820
| 64>    C       -9.48084       -14.45881        -1.86966
| 65>    C       -8.44300       -13.50758        -1.90809
| 66>    S       -7.51200       -13.56694        -0.44095
| 67>    C       -8.21354       -12.65834        -2.98066
| 68>    C       -7.20411       -11.72766        -3.09490
| 69>    C       -7.03519       -10.82256        -4.13870
| 70>    C       -6.21394        -9.62520        -3.91826
| 71>    O       -5.50369        -9.38229        -2.95767
| 72>    C       -6.47828        -8.73506        -5.07022
| 73>    C       -6.00705        -7.48074        -5.32551
| 74>    C       -6.44752        -6.79902        -6.48360
| 75>    C       -7.34859        -7.44916        -7.37340
| 76>    C       -7.77993        -6.77032        -8.52925
| 77>    C       -7.34463        -5.50015        -8.78380
| 78>    C       -6.46392        -4.85356        -7.89537
| 79>    C       -6.02086        -5.48848        -6.76908
| 80>    F       -6.05282        -3.60697        -8.16963
| 81>    F       -7.74552        -4.85958        -9.88967
| 82>    C       -7.80320        -8.75863        -7.09149
| 83>    C       -7.38304        -9.38915        -5.95243
| 84>    C       -7.66078       -10.72769        -5.42293
| 85>    C       -8.29314       -11.71608        -6.15234
| 86>    C       -8.26846       -13.09297        -5.86624
| 87>    N       -8.24914       -14.23586        -5.74269
| 88>    C       -8.99847       -11.48524        -7.34503
| 89>    N       -9.64664       -11.36999        -8.28847
| 90>    H      -12.13520        -8.90492        -8.06876
| 91>    H      -12.44710       -12.86144        -5.10125
| 92>    H      -10.73328        -7.76100        -6.43500
| 93>    H      -11.05351       -11.69194        -3.38811
| 94>    H       -7.45087        -6.69911        -2.18870
| 95>    H       -6.40534        -5.53458        -0.85918
| 96>    H       -3.68489        -6.82029        -1.34946
| 97>    H       -4.34256        -5.36528        -2.11864
| 98>    H       -5.03946        -6.96100        -2.45290
| 99>    H       -5.30015        -4.42132         0.76863
|100>    H       -3.81152        -5.27573         0.39390
|101>    H       -5.96120        -6.14788         2.35954
|102>    H       -4.30186        -5.65328         2.71246
|103>    H       -4.45930        -8.13062         2.75389
|104>    H       -3.48293        -7.62351         1.36783
|105>    H       -6.33964       -11.26287         2.22632
|106>    H       -3.55303       -10.11149         1.75212
|107>    H       -2.77122       -12.03416         2.94759
|108>    H       -5.82040       -10.53539         4.47021
|109>    H       -5.52199       -11.38463         5.99986
|110>    H       -6.39659       -12.18228         4.69820
|111>    H       -3.12072       -12.32022         6.14743
|112>    H       -2.63847       -13.33499         4.77748
|113>    H       -4.17479       -14.23258         6.82124
|114>    H       -5.29750       -14.35887         4.10827
|115>    H       -5.79959       -15.96077         6.68187
|116>    H       -7.44207       -17.17913         5.53638
|117>    H       -9.00623       -17.76896         3.74965
|118>    H       -9.79869       -17.04517         1.41895
|119>    H      -10.23259       -15.98033        -0.53530
|120>    H      -10.15966       -14.58064        -2.69470
|121>    H       -8.93960       -12.73779        -3.77471
|122>    H       -6.52796       -11.59581        -2.25686
|123>    H       -5.30832        -7.00116        -4.65713
|124>    H       -8.45942        -7.24966        -9.21611
|125>    H       -5.35201        -4.97789        -6.09417
|126>    H       -8.48408        -9.22471        -7.78477
|127> *
|128>
|129>                          ****END OF INPUT****

CARTESIAN COORDINATES (ANGSTROEM)
---------------------------------
  C    -12.197470   -9.755790   -7.408970
  C    -12.908360  -10.857850   -7.792790
  F    -13.543990  -10.874250   -8.969880
  C    -12.993370  -11.983470   -6.950130
  F    -13.701120  -13.050030   -7.346390
  C    -12.372320  -11.989800   -5.732790
  C    -11.633850  -10.868840   -5.308810
  C    -11.539450   -9.733220   -6.163890
  C    -10.783880   -8.606190   -5.768150
  C    -10.124600   -8.623660   -4.567930
  C    -10.224790   -9.761130   -3.720220
  C    -10.973010  -10.850750   -4.060160
  C     -9.383970   -9.547710   -2.526870
  O     -9.279660  -10.304180   -1.575290
  C     -8.732640   -8.251170   -2.717850
  C     -9.234450   -7.652660   -3.935600
  C     -8.939530   -6.412090   -4.445450
  C     -9.491590   -5.892650   -5.632820
  N     -9.898400   -5.398770   -6.586810
  C     -8.049550   -5.473920   -3.886530
  N     -7.336130   -4.652650   -3.514430
  C     -7.779730   -7.688000   -1.900620
  C     -7.101380   -8.198410   -0.793150
  S     -7.324230   -9.786380   -0.096660
  C     -6.015070   -9.528270    1.001170
  C     -5.472200   -8.253480    0.878010
  C     -6.073440   -7.505100   -0.129150
  C     -5.568400   -6.148090   -0.513650
  C     -4.595160   -6.330910   -1.688220
  C     -4.863550   -5.413760    0.650520
  C     -4.936530   -6.155880    1.980630
  C     -4.488300   -7.605910    1.796770
  C     -5.587320  -10.559250    1.899910
  C     -4.297520  -10.717100    2.252030
  C     -3.756030  -11.658400    3.200680
  C     -4.281210  -12.011040    4.380400
  C     -5.578720  -11.496300    4.918320
  C     -3.501780  -12.912080    5.308180
  N     -4.316450  -13.971560    5.857060
  C     -5.212710  -14.659230    5.141460
  C     -5.975960  -15.669680    5.654170
  C     -6.985830  -16.369760    4.979200
  C     -7.526500  -16.174790    3.728690
  C     -8.583730  -16.948130    3.197030
  C     -9.005750  -16.562990    1.960000
  C     -8.297820  -15.464180    1.429370
  S     -7.082300  -14.931640    2.558650
  C     -8.504260  -14.868000    0.193510
  C     -9.511090  -15.207460   -0.728200
  C     -9.480840  -14.458810   -1.869660
  C     -8.443000  -13.507580   -1.908090
  S     -7.512000  -13.566940   -0.440950
  C     -8.213540  -12.658340   -2.980660
  C     -7.204110  -11.727660   -3.094900
  C     -7.035190  -10.822560   -4.138700
  C     -6.213940   -9.625200   -3.918260
  O     -5.503690   -9.382290   -2.957670
  C     -6.478280   -8.735060   -5.070220
  C     -6.007050   -7.480740   -5.325510
  C     -6.447520   -6.799020   -6.483600
  C     -7.348590   -7.449160   -7.373400
  C     -7.779930   -6.770320   -8.529250
  C     -7.344630   -5.500150   -8.783800
  C     -6.463920   -4.853560   -7.895370
  C     -6.020860   -5.488480   -6.769080
  F     -6.052820   -3.606970   -8.169630
  F     -7.745520   -4.859580   -9.889670
  C     -7.803200   -8.758630   -7.091490
  C     -7.383040   -9.389150   -5.952430
  C     -7.660780  -10.727690   -5.422930
  C     -8.293140  -11.716080   -6.152340
  C     -8.268460  -13.092970   -5.866240
  N     -8.249140  -14.235860   -5.742690
  C     -8.998470  -11.485240   -7.345030
  N     -9.646640  -11.369990   -8.288470
  H    -12.135200   -8.904920   -8.068760
  H    -12.447100  -12.861440   -5.101250
  H    -10.733280   -7.761000   -6.435000
  H    -11.053510  -11.691940   -3.388110
  H     -7.450870   -6.699110   -2.188700
  H     -6.405340   -5.534580   -0.859180
  H     -3.684890   -6.820290   -1.349460
  H     -4.342560   -5.365280   -2.118640
  H     -5.039460   -6.961000   -2.452900
  H     -5.300150   -4.421320    0.768630
  H     -3.811520   -5.275730    0.393900
  H     -5.961200   -6.147880    2.359540
  H     -4.301860   -5.653280    2.712460
  H     -4.459300   -8.130620    2.753890
  H     -3.482930   -7.623510    1.367830
  H     -6.339640  -11.262870    2.226320
  H     -3.553030  -10.111490    1.752120
  H     -2.771220  -12.034160    2.947590
  H     -5.820400  -10.535390    4.470210
  H     -5.521990  -11.384630    5.999860
  H     -6.396590  -12.182280    4.698200
  H     -3.120720  -12.320220    6.147430
  H     -2.638470  -13.334990    4.777480
  H     -4.174790  -14.232580    6.821240
  H     -5.297500  -14.358870    4.108270
  H     -5.799590  -15.960770    6.681870
  H     -7.442070  -17.179130    5.536380
  H     -9.006230  -17.768960    3.749650
  H     -9.798690  -17.045170    1.418950
  H    -10.232590  -15.980330   -0.535300
  H    -10.159660  -14.580640   -2.694700
  H     -8.939600  -12.737790   -3.774710
  H     -6.527960  -11.595810   -2.256860
  H     -5.308320   -7.001160   -4.657130
  H     -8.459420   -7.249660   -9.216110
  H     -5.352010   -4.977890   -6.094170
  H     -8.484080   -9.224710   -7.784770

 Total Charge           Charge          ....    0
 Multiplicity           Mult            ....    1
 Number of Electrons    NEL             ....  538
 Basis Dimension        Dim             .... 1247

ORBITAL ENERGIES
----------------

  NO   OCC          E(Eh)            E(eV)
   0   2.0000     -88.972477     -2421.0642
   1   2.0000     -88.960098     -2420.7273
   2   2.0000     -88.949049     -2420.4267
   3   2.0000     -24.780627      -674.3152
   4   2.0000     -24.778041      -674.2448
   5   2.0000     -24.773888      -674.1318
   6   2.0000     -24.772930      -674.1057
   7   2.0000     -19.204004      -522.5675
   8   2.0000     -19.188676      -522.1504
   9   2.0000     -14.477485      -393.9524
  10   2.0000     -14.408134      -392.0653
  11   2.0000     -14.400432      -391.8557
  12   2.0000     -14.390605      -391.5883
  13   2.0000     -14.387268      -391.4975
  14   2.0000     -10.362636      -281.9817
  15   2.0000     -10.360201      -281.9154
  16   2.0000     -10.355474      -281.7868
  17   2.0000     -10.354580      -281.7625
  18   2.0000     -10.354320      -281.7554
  19   2.0000     -10.352878      -281.7161
  20   2.0000     -10.340325      -281.3746
  21   2.0000     -10.339728      -281.3583
  22   2.0000     -10.338877      -281.3351
  23   2.0000     -10.327201      -281.0174
  24   2.0000     -10.324369      -280.9404
  25   2.0000     -10.321549      -280.8636
  26   2.0000     -10.317711      -280.7592
  27   2.0000     -10.317137      -280.7436
  28   2.0000     -10.314955      -280.6842
  29   2.0000     -10.313693      -280.6499
  30   2.0000     -10.312260      -280.6109
  31   2.0000     -10.308919      -280.5199
  32   2.0000     -10.307901      -280.4922
  33   2.0000     -10.306447      -280.4527
  34   2.0000     -10.305045      -280.4145
  35   2.0000     -10.302766      -280.3525
  36   2.0000     -10.299587      -280.2660
  37   2.0000     -10.298801      -280.2446
  38   2.0000     -10.296173      -280.1731
  39   2.0000     -10.296064      -280.1701
  40   2.0000     -10.294852      -280.1372
  41   2.0000     -10.292792      -280.0811
  42   2.0000     -10.292249      -280.0663
  43   2.0000     -10.291298      -280.0405
  44   2.0000     -10.290413      -280.0164
  45   2.0000     -10.289666      -279.9960
  46   2.0000     -10.289114      -279.9810
  47   2.0000     -10.288305      -279.9590
  48   2.0000     -10.287594      -279.9397
  49   2.0000     -10.286580      -279.9121
  50   2.0000     -10.286085      -279.8986
  51   2.0000     -10.285269      -279.8764
  52   2.0000     -10.284673      -279.8602
  53   2.0000     -10.284334      -279.8510
  54   2.0000     -10.282984      -279.8142
  55   2.0000     -10.282124      -279.7908
  56   2.0000     -10.281803      -279.7821
  57   2.0000     -10.281345      -279.7696
  58   2.0000     -10.281049      -279.7616
  59   2.0000     -10.280314      -279.7416
  60   2.0000     -10.280262      -279.7401
  61   2.0000     -10.276776      -279.6453
  62   2.0000     -10.276745      -279.6444
  63   2.0000     -10.275820      -279.6193
  64   2.0000     -10.275484      -279.6101
  65   2.0000     -10.274267      -279.5770
  66   2.0000     -10.271523      -279.5023
  67   2.0000     -10.270062      -279.4626
  68   2.0000     -10.269162      -279.4381
  69   2.0000     -10.268271      -279.4139
  70   2.0000     -10.265562      -279.3401
  71   2.0000     -10.263142      -279.2743
  72   2.0000     -10.261926      -279.2412
  73   2.0000     -10.258005      -279.1345
  74   2.0000     -10.244725      -278.7731
  75   2.0000      -8.067851      -219.5374
  76   2.0000      -8.055850      -219.2108
  77   2.0000      -8.042332      -218.8430
  78   2.0000      -6.037491      -164.2885
  79   2.0000      -6.033434      -164.1781
  80   2.0000      -6.029187      -164.0625
  81   2.0000      -6.025363      -163.9585
  82   2.0000      -6.021398      -163.8506
  83   2.0000      -6.017243      -163.7375
  84   2.0000      -6.011746      -163.5879
  85   2.0000      -6.007262      -163.4659
  86   2.0000      -6.004591      -163.3932
  87   2.0000      -1.302411       -35.4404
  88   2.0000      -1.296044       -35.2672
  89   2.0000      -1.287485       -35.0342
  90   2.0000      -1.281248       -34.8645
  91   2.0000      -1.118811       -30.4444
  92   2.0000      -1.101545       -29.9746
  93   2.0000      -1.076312       -29.2879
  94   2.0000      -1.010666       -27.5016
  95   2.0000      -1.008272       -27.4365
  96   2.0000      -0.994540       -27.0628
  97   2.0000      -0.989467       -26.9248
  98   2.0000      -0.988371       -26.8949
  99   2.0000      -0.986213       -26.8362
 100   2.0000      -0.983046       -26.7501
 101   2.0000      -0.978700       -26.6318
 102   2.0000      -0.968930       -26.3659
 103   2.0000      -0.964430       -26.2435
 104   2.0000      -0.954186       -25.9647
 105   2.0000      -0.940378       -25.5890
 106   2.0000      -0.923010       -25.1164
 107   2.0000      -0.918166       -24.9846
 108   2.0000      -0.913280       -24.8516
 109   2.0000      -0.908710       -24.7272
 110   2.0000      -0.900657       -24.5081
 111   2.0000      -0.892711       -24.2919
 112   2.0000      -0.883517       -24.0417
 113   2.0000      -0.875548       -23.8249
 114   2.0000      -0.873770       -23.7765
 115   2.0000      -0.868349       -23.6290
 116   2.0000      -0.865260       -23.5449
 117   2.0000      -0.860855       -23.4250
 118   2.0000      -0.851329       -23.1658
 119   2.0000      -0.848858       -23.0986
 120   2.0000      -0.837041       -22.7770
 121   2.0000      -0.834449       -22.7065
 122   2.0000      -0.823643       -22.4125
 123   2.0000      -0.821384       -22.3510
 124   2.0000      -0.815330       -22.1862
 125   2.0000      -0.813746       -22.1431
 126   2.0000      -0.809758       -22.0346
 127   2.0000      -0.797449       -21.6997
 128   2.0000      -0.786906       -21.4128
 129   2.0000      -0.769278       -20.9331
 130   2.0000      -0.759538       -20.6681
 131   2.0000      -0.752723       -20.4826
 132   2.0000      -0.748015       -20.3545
 133   2.0000      -0.743432       -20.2298
 134   2.0000      -0.738591       -20.0981
 135   2.0000      -0.720345       -19.6016
 136   2.0000      -0.718692       -19.5566
 137   2.0000      -0.705195       -19.1893
 138   2.0000      -0.703201       -19.1351
 139   2.0000      -0.699462       -19.0333
 140   2.0000      -0.693144       -18.8614
 141   2.0000      -0.691163       -18.8075
 142   2.0000      -0.689131       -18.7522
 143   2.0000      -0.685635       -18.6571
 144   2.0000      -0.672745       -18.3063
 145   2.0000      -0.670204       -18.2372
 146   2.0000      -0.656996       -17.8778
 147   2.0000      -0.655807       -17.8454
 148   2.0000      -0.653128       -17.7725
 149   2.0000      -0.650706       -17.7066
 150   2.0000      -0.641736       -17.4625
 151   2.0000      -0.638206       -17.3665
 152   2.0000      -0.634167       -17.2565
 153   2.0000      -0.629336       -17.1251
 154   2.0000      -0.625738       -17.0272
 155   2.0000      -0.623834       -16.9754
 156   2.0000      -0.619312       -16.8523
 157   2.0000      -0.615597       -16.7512
 158   2.0000      -0.613824       -16.7030
 159   2.0000      -0.608205       -16.5501
 160   2.0000      -0.606440       -16.5021
 161   2.0000      -0.599546       -16.3145
 162   2.0000      -0.596383       -16.2284
 163   2.0000      -0.589973       -16.0540
 164   2.0000      -0.589028       -16.0283
 165   2.0000      -0.587156       -15.9773
 166   2.0000      -0.573193       -15.5974
 167   2.0000      -0.571027       -15.5384
 168   2.0000      -0.566863       -15.4251
 169   2.0000      -0.566540       -15.4163
 170   2.0000      -0.563411       -15.3312
 171   2.0000      -0.561142       -15.2695
 172   2.0000      -0.558796       -15.2056
 173   2.0000      -0.557177       -15.1615
 174   2.0000      -0.552701       -15.0398
 175   2.0000      -0.544967       -14.8293
 176   2.0000      -0.544712       -14.8224
 177   2.0000      -0.542844       -14.7715
 178   2.0000      -0.540990       -14.7211
 179   2.0000      -0.537096       -14.6151
 180   2.0000      -0.535602       -14.5745
 181   2.0000      -0.529984       -14.4216
 182   2.0000      -0.528443       -14.3797
 183   2.0000      -0.528240       -14.3741
 184   2.0000      -0.523414       -14.2428
 185   2.0000      -0.522382       -14.2147
 186   2.0000      -0.518033       -14.0964
 187   2.0000      -0.515483       -14.0270
 188   2.0000      -0.513272       -13.9668
 189   2.0000      -0.512149       -13.9363
 190   2.0000      -0.511690       -13.9238
 191   2.0000      -0.509375       -13.8608
 192   2.0000      -0.506684       -13.7876
 193   2.0000      -0.506149       -13.7730
 194   2.0000      -0.504513       -13.7285
 195   2.0000      -0.502423       -13.6716
 196   2.0000      -0.500926       -13.6309
 197   2.0000      -0.499281       -13.5861
 198   2.0000      -0.497528       -13.5384
 199   2.0000      -0.493595       -13.4314
 200   2.0000      -0.492345       -13.3974
 201   2.0000      -0.491056       -13.3623
 202   2.0000      -0.489614       -13.3231
 203   2.0000      -0.488766       -13.3000
 204   2.0000      -0.485351       -13.2071
 205   2.0000      -0.480915       -13.0864
 206   2.0000      -0.480654       -13.0793
 207   2.0000      -0.478475       -13.0200
 208   2.0000      -0.477394       -12.9906
 209   2.0000      -0.477160       -12.9842
 210   2.0000      -0.473803       -12.8928
 211   2.0000      -0.466935       -12.7059
 212   2.0000      -0.464125       -12.6295
 213   2.0000      -0.463017       -12.5993
 214   2.0000      -0.462362       -12.5815
 215   2.0000      -0.456119       -12.4116
 216   2.0000      -0.453400       -12.3376
 217   2.0000      -0.452279       -12.3071
 218   2.0000      -0.451696       -12.2913
 219   2.0000      -0.448785       -12.2121
 220   2.0000      -0.447334       -12.1726
 221   2.0000      -0.445144       -12.1130
 222   2.0000      -0.443916       -12.0796
 223   2.0000      -0.441554       -12.0153
 224   2.0000      -0.439454       -11.9581
 225   2.0000      -0.437744       -11.9116
 226   2.0000      -0.434273       -11.8172
 227   2.0000      -0.433698       -11.8015
 228   2.0000      -0.433462       -11.7951
 229   2.0000      -0.430150       -11.7050
 230   2.0000      -0.428801       -11.6683
 231   2.0000      -0.424977       -11.5642
 232   2.0000      -0.423869       -11.5341
 233   2.0000      -0.422806       -11.5051
 234   2.0000      -0.420185       -11.4338
 235   2.0000      -0.419024       -11.4022
 236   2.0000      -0.416578       -11.3357
 237   2.0000      -0.414212       -11.2713
 238   2.0000      -0.412144       -11.2150
 239   2.0000      -0.404485       -11.0066
 240   2.0000      -0.402504       -10.9527
 241   2.0000      -0.397735       -10.8229
 242   2.0000      -0.397232       -10.8092
 243   2.0000      -0.393659       -10.7120
 244   2.0000      -0.392840       -10.6897
 245   2.0000      -0.387694       -10.5497
 246   2.0000      -0.385865       -10.4999
 247   2.0000      -0.385520       -10.4905
 248   2.0000      -0.382523       -10.4090
 249   2.0000      -0.379840       -10.3360
 250   2.0000      -0.372333       -10.1317
 251   2.0000      -0.368603       -10.0302
 252   2.0000      -0.362326        -9.8594
 253   2.0000      -0.354225        -9.6390
 254   2.0000      -0.348890        -9.4938
 255   2.0000      -0.344825        -9.3832
 256   2.0000      -0.335029        -9.1166
 257   2.0000      -0.322473        -8.7749
 258   2.0000      -0.321073        -8.7368
 259   2.0000      -0.314720        -8.5640
 260   2.0000      -0.313000        -8.5172
 261   2.0000      -0.302175        -8.2226
 262   2.0000      -0.297962        -8.1080
 263   2.0000      -0.293050        -7.9743
 264   2.0000      -0.288462        -7.8494
 265   2.0000      -0.277506        -7.5513
 266   2.0000      -0.269642        -7.3373
 267   2.0000      -0.255498        -6.9524
 268   2.0000      -0.218425        -5.9437
 269   0.0000      -0.102397        -2.7864
 270   0.0000      -0.083202        -2.2641
 271   0.0000      -0.049970        -1.3597
 272   0.0000      -0.046725        -1.2714
 273   0.0000      -0.034087        -0.9276

MULLIKEN ATOMIC CHARGES
-----------------------
   0 C :   -0.105997
   1 C :    0.260972
   2 F :   -0.170865
   3 C :    0.242868
   4 F :   -0.174172
   5 C :   -0.112876
   6 C :    0.130409
   7 C :    0.129743
   8 C :   -0.096419
   9 C :    0.035341
  10 C :    0.014910
  11 C :   -0.112627
  12 C :    0.173025
  13 O :   -0.175553
  14 C :   -0.113917
  15 C :    0.368651
  16 C :   -0.387242
  17 C :   -0.192791
  18 N :    0.151011
  19 C :   -0.199449
  20 N :    0.145980
  21 C :   -0.040987
  22 C :   -0.058476
  23 S :    0.186689
  24 C :   -0.118281
  25 C :   -0.072033
  26 C :   -0.016406
  27 C :   -0.069118
  28 C :    0.082346
  29 C :    0.082074
  30 C :    0.031263
  31 C :    0.118572
  32 C :    0.004050
  33 C :   -0.003351
  34 C :    0.018803
  35 C :   -0.261193
  36 C :    0.110942
  37 C :    0.221219
  38 N :   -0.148402
  39 C :    0.071021
  40 C :   -0.045473
  41 C :    0.031815
  42 C :   -0.057703
  43 C :    0.058661
  44 C :    0.003976
  45 C :   -0.008400
  46 S :    0.061897
  47 C :   -0.070916
  48 C :    0.038565
  49 C :    0.020741
  50 C :    0.008480
  51 S :    0.125645
  52 C :   -0.003368
  53 C :    0.047159
  54 C :   -0.183754
  55 C :    0.166389
  56 O :   -0.175429
  57 C :    0.024703
  58 C :   -0.121580
  59 C :    0.098388
  60 C :    0.132705
  61 C :   -0.114129
  62 C :    0.254859
  63 C :    0.238058
  64 C :   -0.102482
  65 F :   -0.176028
  66 F :   -0.174078
  67 C :   -0.106089
  68 C :    0.033680
  69 C :    0.342455
  70 C :   -0.383631
  71 C :   -0.235828
  72 N :    0.152751
  73 C :   -0.167032
  74 N :    0.112869
  75 H :   -0.001607
  76 H :   -0.011955
  77 H :   -0.012511
  78 H :   -0.023294
  79 H :   -0.016675
  80 H :    0.021078
  81 H :   -0.001772
  82 H :    0.019446
  83 H :    0.018032
  84 H :    0.005427
  85 H :   -0.013889
  86 H :    0.006703
  87 H :   -0.000793
  88 H :    0.004192
  89 H :    0.008173
  90 H :   -0.004077
  91 H :    0.017944
  92 H :   -0.010789
  93 H :    0.037973
  94 H :    0.006505
  95 H :    0.033955
  96 H :    0.031132
  97 H :    0.021329
  98 H :    0.128351
  99 H :    0.055711
 100 H :   -0.020800
 101 H :    0.000997
 102 H :   -0.004661
 103 H :   -0.008630
 104 H :   -0.007424
 105 H :   -0.002349
 106 H :   -0.006795
 107 H :    0.004553
 108 H :   -0.024786
 109 H :   -0.004373
 110 H :   -0.004674
 111 H :   -0.017255
Sum of atomic charges:   -0.0000000

LOEWDIN ATOMIC CHARGES
----------------------
   0 C :   -0.021165
   1 C :    0.073153
   2 F :   -0.047845
   3 C :    0.072713
   4 F :   -0.051099
   5 C :   -0.037602
   6 C :   -0.008710
   7 C :   -0.006849
   8 C :    0.018016
   9 C :   -0.024329
  10 C :   -0.050590
  11 C :    0.018714
  12 C :    0.079320
  13 O :   -0.168052
  14 C :   -0.115046
  15 C :    0.083173
  16 C :   -0.154692
  17 C :   -0.015284
  18 N :   -0.067582
  19 C :   -0.014289
  20 N :   -0.071379
  21 C :    0.064264
  22 C :   -0.181134
  23 S :    0.509783
  24 C :   -0.159907
  25 C :   -0.062237
  26 C :    0.005408
  27 C :   -0.030659
  28 C :   -0.037996
  29 C :   -0.021041
  30 C :   -0.026206
  31 C :   -0.030288
  32 C :   -0.034008
  33 C :   -0.017434
  34 C :   -0.040823
  35 C :   -0.042764
  36 C :   -0.051992
  37 C :    0.045681
  38 N :    0.027603
  39 C :    0.078863
  40 C :   -0.137097
  41 C :    0.007389
  42 C :   -0.192307
  43 C :    0.001815
  44 C :   -0.065302
  45 C :   -0.132179
  46 S :    0.390230
  47 C :   -0.210218
  48 C :   -0.004216
  49 C :   -0.049311
  50 C :   -0.090909
  51 S :    0.411120
  52 C :   -0.074348
  53 C :    0.054136
  54 C :   -0.126831
  55 C :    0.075362
  56 O :   -0.173947
  57 C :   -0.054351
  58 C :    0.014412
  59 C :   -0.015263
  60 C :   -0.010634
  61 C :   -0.027973
  62 C :    0.070691
  63 C :    0.067589
  64 C :   -0.033465
  65 F :   -0.053585
  66 F :   -0.050844
  67 C :    0.005496
  68 C :   -0.019739
  69 C :    0.068654
  70 C :   -0.171914
  71 C :   -0.026652
  72 N :   -0.076602
  73 C :   -0.014518
  74 N :   -0.085070
  75 H :    0.044892
  76 H :    0.040649
  77 H :    0.037224
  78 H :    0.034040
  79 H :    0.044997
  80 H :    0.032166
  81 H :    0.021253
  82 H :    0.025412
  83 H :    0.019430
  84 H :    0.027832
  85 H :    0.021548
  86 H :    0.022702
  87 H :    0.022242
  88 H :    0.027245
  89 H :    0.027883
  90 H :    0.027489
  91 H :    0.035998
  92 H :    0.029453
  93 H :    0.038694
  94 H :    0.028096
  95 H :    0.034072
  96 H :    0.036882
  97 H :    0.027012
  98 H :    0.086600
  99 H :    0.021382
 100 H :    0.026822
 101 H :    0.043278
 102 H :    0.037331
 103 H :    0.033388
 104 H :    0.034700
 105 H :    0.036995
 106 H :    0.032514
 107 H :    0.026334
 108 H :    0.035702
 109 H :    0.043428
 110 H :    0.043801
 111 H :    0.035207

  Mayer bond orders larger than 0.100000
B(  0-C ,  1-C ) :   1.4341 B(  0-C ,  5-C ) :   0.1091 B(  0-C ,  7-C ) :   1.1903
B(  0-C , 75-H ) :   1.0062 B(  1-C ,  2-F ) :   1.1368 B(  1-C ,  3-C ) :   1.1954
B(  3-C ,  4-F ) :   1.1311 B(  3-C ,  5-C ) :   1.4395 B(  5-C ,  6-C ) :   1.1905
B(  5-C , 76-H ) :   1.0073 B(  6-C ,  7-C ) :   1.2589 B(  6-C , 11-C ) :   1.1773
B(  7-C ,  8-C ) :   1.2112 B(  8-C ,  9-C ) :   1.4544 B(  8-C , 77-H ) :   0.9824
B(  9-C , 10-C ) :   1.2297 B(  9-C , 15-C ) :   0.9768 B( 10-C , 11-C ) :   1.4631
B( 10-C , 12-C ) :   0.9528 B( 11-C , 78-H ) :   1.0081 B( 12-C , 13-O ) :   2.1206
B( 12-C , 14-C ) :   0.9829 B( 14-C , 15-C ) :   1.1003 B( 14-C , 21-C ) :   1.4684
B( 15-C , 16-C ) :   1.6004 B( 16-C , 17-C ) :   1.1659 B( 16-C , 19-C ) :   1.1575
B( 17-C , 18-N ) :   2.9125 B( 19-C , 20-N ) :   2.9402 B( 21-C , 22-C ) :   1.3024
B( 21-C , 79-H ) :   0.9248 B( 22-C , 23-S ) :   1.0744 B( 22-C , 26-C ) :   1.3618
B( 23-S , 24-C ) :   1.1348 B( 24-C , 25-C ) :   1.4372 B( 24-C , 32-C ) :   1.0857
B( 25-C , 26-C ) :   1.3853 B( 25-C , 31-C ) :   1.0579 B( 26-C , 27-C ) :   1.0641
B( 27-C , 28-C ) :   1.0771 B( 27-C , 29-C ) :   1.0211 B( 27-C , 80-H ) :   0.8757
B( 28-C , 81-H ) :   0.9493 B( 28-C , 82-H ) :   0.9606 B( 28-C , 83-H ) :   0.9495
B( 29-C , 30-C ) :   1.1281 B( 29-C , 84-H ) :   0.9312 B( 29-C , 85-H ) :   0.9232
B( 30-C , 31-C ) :   1.0918 B( 30-C , 86-H ) :   0.9326 B( 30-C , 87-H ) :   0.9368
B( 31-C , 88-H ) :   0.9160 B( 31-C , 89-H ) :   0.8983 B( 32-C , 33-C ) :   1.7538
B( 32-C , 90-H ) :   0.9606 B( 33-C , 34-C ) :   1.0826 B( 33-C , 91-H ) :   0.9540
B( 34-C , 35-C ) :   1.8327 B( 34-C , 92-H ) :   0.9489 B( 35-C , 36-C ) :   1.0721
B( 35-C , 37-C ) :   1.0390 B( 36-C , 93-H ) :   0.9422 B( 36-C , 94-H ) :   0.9468
B( 36-C , 95-H ) :   0.9337 B( 37-C , 38-N ) :   0.9741 B( 37-C , 96-H ) :   0.9312
B( 37-C , 97-H ) :   0.9434 B( 38-N , 39-C ) :   1.3183 B( 38-N , 98-H ) :   0.9380
B( 39-C , 40-C ) :   1.4827 B( 39-C , 99-H ) :   0.9450 B( 40-C , 41-C ) :   1.2900
B( 40-C ,100-H ) :   0.9624 B( 41-C , 42-C ) :   1.5156 B( 41-C ,101-H ) :   0.9609
B( 42-C , 43-C ) :   1.1936 B( 42-C , 46-S ) :   1.0082 B( 43-C , 44-C ) :   1.5320
B( 43-C ,102-H ) :   0.9986 B( 44-C , 45-C ) :   1.2323 B( 44-C ,103-H ) :   0.9940
B( 45-C , 46-S ) :   1.0916 B( 45-C , 47-C ) :   1.4181 B( 47-C , 48-C ) :   1.2527
B( 47-C , 51-S ) :   1.0395 B( 48-C , 49-C ) :   1.4944 B( 48-C ,104-H ) :   0.9947
B( 49-C , 50-C ) :   1.2281 B( 49-C ,105-H ) :   0.9994 B( 50-C , 51-S ) :   1.1070
B( 50-C , 52-C ) :   1.4192 B( 52-C , 53-C ) :   1.3070 B( 52-C ,106-H ) :   0.9481
B( 53-C , 54-C ) :   1.4111 B( 53-C ,107-H ) :   0.9476 B( 54-C , 55-C ) :   1.0131
B( 54-C , 69-C ) :   1.1358 B( 55-C , 56-O ) :   2.1552 B( 55-C , 57-C ) :   0.9122
B( 57-C , 58-C ) :   1.4690 B( 57-C , 68-C ) :   1.2218 B( 58-C , 59-C ) :   1.1703
B( 58-C ,108-H ) :   1.0220 B( 59-C , 60-C ) :   1.2562 B( 59-C , 64-C ) :   1.1937
B( 60-C , 61-C ) :   1.1945 B( 60-C , 67-C ) :   1.2009 B( 61-C , 62-C ) :   1.4293
B( 61-C , 64-C ) :   0.1098 B( 61-C ,109-H ) :   1.0083 B( 62-C , 63-C ) :   1.1968
B( 62-C , 66-F ) :   1.1335 B( 63-C , 64-C ) :   1.4354 B( 63-C , 65-F ) :   1.1300
B( 64-C ,110-H ) :   1.0077 B( 67-C , 68-C ) :   1.4694 B( 67-C ,111-H ) :   0.9796
B( 68-C , 69-C ) :   0.9916 B( 69-C , 70-C ) :   1.5387 B( 70-C , 71-C ) :   1.1818
B( 70-C , 73-C ) :   1.1469 B( 71-C , 72-N ) :   3.0022 B( 73-C , 74-N ) :   2.9146

-----------------------------------------------------------------------------
         ABSORPTION SPECTRUM VIA TRANSITION ELECTRIC DIPOLE MOMENTS
-----------------------------------------------------------------------------
State   Energy  Wavelength   fosc         T2         TX        TY        TZ
        (cm-1)    (nm)                  (au**2)     (au)      (au)      (au)
-----------------------------------------------------------------------------
   0   11143.0    897.4   0.965078658  28.51266  -0.45035   2.57203  -4.65774
   1   14342.6    697.2   0.107630721   2.47050   0.28798  -0.09935   1.54198
   2   18772.9    532.7   0.070316182   1.23311   0.47680   0.19745   0.98325
   3   20530.7    487.1   0.029191747   0.46809  -0.44280   0.44196   0.27694
   4   21077.0    474.5   1.155260464  18.04459  -1.88728   1.31253  -3.57212
   5   21809.5    458.5   0.062054892   0.93671   0.50125  -0.30799   0.76850
   6   22839.4    437.8   0.015741166   0.22690  -0.35856   0.12526  -0.28747
   7   23436.8    426.7   0.018219150   0.25592  -0.30899  -0.34856   0.19736
   8   23662.3    422.6   0.018119987   0.25210  -0.04371   0.44034  -0.23726
   9   25154.8    397.5   0.161115428   2.10859   1.12243   0.81182   0.43553
  10   26033.7    384.1   0.015208879   0.19233  -0.17037   0.19836   0.35207
  11   26880.7    372.0   0.140797120   1.72436  -0.52703  -1.20265   0.01524
  12   27078.0    369.3   0.043337457   0.52689   0.62230   0.37173   0.03810
  13   27408.7    364.8   0.009590836   0.11520  -0.13111  -0.31284  -0.01171
  14   27704.9    360.9   0.033014614   0.39231   0.56404   0.01145   0.27208
  15   27812.2    359.6   0.115672310   1.36921   0.76035  -0.04018   0.88851
  16   27936.4    358.0   0.064353377   0.75836  -0.50461  -0.24936  -0.66449
  17   28247.4    354.0   0.086346422   1.00633  -0.87100   0.18154  -0.46339
  18   28454.4    351.4   0.018461001   0.21359   0.25407  -0.04218   0.38375
  19   28637.8    349.2   0.029030083   0.33372   0.31124   0.08257   0.47961
  20   28773.9    347.5   0.044096331   0.50452   0.66131   0.12389   0.22769
  21   29110.5    343.5   0.051965214   0.58768   0.67955   0.28146   0.21602
  22   29382.0    340.3   0.057176561   0.64064  -0.29057  -0.25599  -0.70048
  23   29625.9    337.5   0.011639161   0.12934  -0.25743  -0.25110  -0.00398
  24   30019.9    333.1   0.003266785   0.03583   0.17417   0.01445  -0.07267
  25   30754.1    325.2   0.179596840   1.92252  -0.59732  -1.19679   0.36526
  26   30813.8    324.5   0.022707719   0.24261  -0.36597  -0.32667   0.04430
  27   30913.1    323.5   0.026433081   0.28150  -0.20261  -0.03832   0.48886
  28   31201.1    320.5   0.005217376   0.05505  -0.09119  -0.03558  -0.21324
  29   31577.4    316.7   0.530613912   5.53194  -1.15449  -2.04911  -0.01585
  30   31898.4    313.5   0.016332728   0.16856  -0.07361  -0.22479  -0.33558
  31   32334.2    309.3   0.017668652   0.17989  -0.05242   0.25085  -0.33796
  32   32785.8    305.0   0.066409853   0.66684  -0.18522  -0.74756   0.27146
  33   32805.4    304.8   0.014316361   0.14367  -0.17540   0.17882  -0.28447
  34   32994.8    303.1   0.109605797   1.09361  -0.83093  -0.60460  -0.19397
  35   33297.6    300.3   0.198524038   1.96280   0.73098   1.14142   0.35445
  36   33382.5    299.6   0.006574439   0.06484  -0.09527  -0.15299  -0.17987
  37   33942.7    294.6   0.002075125   0.02013   0.01607   0.12647   0.06224
  38   34363.8    291.0   0.201910361   1.93434   0.95983   0.84396   0.54844
  39   34477.0    290.0   0.096299850   0.91954   0.13678  -0.74853   0.58355
  40   34722.6    288.0   0.086458862   0.81973  -0.44346  -0.77949  -0.12438
  41   35521.7    281.5   0.034206277   0.31702   0.08147  -0.33806   0.44283
  42   35751.5    279.7   0.226939018   2.08973  -0.11489  -1.34042   0.52896
  43   35923.3    278.4   0.050068247   0.45884  -0.21689  -0.63918   0.05703
  44   36121.7    276.8   0.103381301   0.94221  -0.75841  -0.57078   0.20308
  45   36368.8    275.0   0.003154881   0.02856  -0.11648   0.09166   0.08117
  46   36381.4    274.9   0.228689162   2.06938  -0.07137   1.42353  -0.19455
  47   37074.3    269.7   0.014004212   0.12435  -0.22910   0.16598  -0.21052
  48   37172.9    269.0   0.049748294   0.44058  -0.45646  -0.48160  -0.01719
  49   37282.3    268.2   0.173681934   1.53366  -0.71190  -0.98464   0.23946
  50   37505.6    266.6   0.038483614   0.33780   0.35157   0.00120   0.46281
  51   37854.0    264.2   0.001545147   0.01344   0.08391   0.06426   0.04762
  52   38366.1    260.6   0.094953117   0.81477  -0.03623   0.50839  -0.74498
  53   38526.8    259.6   0.276092776   2.35921  -0.89231  -1.18386  -0.40185
  54   38604.4    259.0   0.086072382   0.73401  -0.54793  -0.20529  -0.62581
  55   39075.6    255.9   0.010329458   0.08703  -0.09392   0.15826  -0.23056
  56   39442.5    253.5   0.016921123   0.14123   0.06419  -0.32704   0.17367
  57   39678.4    252.0   0.030262925   0.25109   0.12485  -0.34213   0.34417
  58   39767.7    251.5   0.009653560   0.07992   0.09633   0.13397  -0.22954
  59   40063.3    249.6   0.009436739   0.07754  -0.02003   0.10981  -0.25512
  60   40096.5    249.4   0.016403467   0.13468  -0.11502  -0.32049   0.13689
  61   40284.5    248.2   0.013736725   0.11226   0.09334  -0.20825   0.24532

FINAL SINGLE POINT ENERGY     -4360.454949444616

DIPOLE MOMENT
-------------
                                X             Y             Z
Electronic contribution:    -52.02766       7.91294    -103.66009
Nuclear contribution   :     54.20873     -11.17558     112.52468
                        -----------------------------------------
Total Dipole Moment    :      2.18107      -3.26264       8.86458
                        -----------------------------------------
Magnitude (a.u.)       :      9.69447
Magnitude (Debye)      :     24.64139

Rotational constants in cm-1:     0.001393     0.000625     0.000471
Rotational constants in MHz :    41.750965    18.746529    14.130203

                             ****ORCA TERMINATED NORMALLY****
TOTAL RUN TIME: 0 days 0 hours 16 minutes 8 seconds 651 msec
