                         Program Version 4.2.0 -  RELEASE  -
|  1> # ORCA input file
|  2> # SCF done       -203.549686208765          0.000306768432
|  3> ! CAM-B3LYP def2-SVP def2/J RIJCOSX Grid4 TightSCF
|  4> %maxcore 5000
|  5> %tddft
|  6>     Mode sTDDFT
|  7>     Ethresh 5.0
|  8>     maxcore 5000
|  9> end
| 10>
| 11> %pal
| 12>   nprocs 6
| 13>   end
| 14> * xyz 0 1
| 15>    C       -3.61902        -0.12341        11.01885
| 16>    C       -2.65407        -0.10404        11.98555
| 17>    F       -2.62169         0.88703        12.88905
| 18>    C       -1.69120        -1.12884        12.06055
| 19>    F       -0.78220        -1.10325        13.04708
| 20>    C       -1.68581        -2.14403        11.14683
| 21>    C       -2.66072        -2.18594        10.13102
| 22>    C       -3.65957        -1.17170        10.07804
| 23>    C       -4.68105        -1.22570         9.10334
| 24>    C       -4.69586        -2.25726         8.20269
| 25>    C       -3.67249        -3.24224         8.23654
| 26>    C       -2.67395        -3.21727         9.16734
| 27>    C       -3.90126        -4.22725         7.15983
| 28>    O       -3.19042        -5.19282         6.93592
| 29>    C       -5.15863        -3.82839         6.50782
| 30>    C       -5.60890        -2.58395         7.11199
| 31>    C       -6.64591        -1.79200         6.69708
| 32>    C       -7.46606        -2.02386         5.57121
| 33>    N       -8.15131        -2.11182         4.65405
| 34>    C       -7.00198        -0.57405         7.31610
| 35>    N       -7.33694         0.42825         7.76341
| 36>    C       -5.89849        -4.53042         5.58736
| 37>    C       -5.58966        -5.66740         4.82465
| 38>    S       -6.88847        -6.38506         3.89906
| 39>    C       -5.84042        -7.58558         3.24660
| 40>    C       -4.53879        -7.41105         3.71268
| 41>    C       -4.40077        -6.35203         4.59034
| 42>    C       -6.36863        -8.64179         2.45108
| 43>    C       -5.62330        -9.66983         1.99527
| 44>    N       -6.13612       -10.77139         1.36870
| 45>    C       -5.48175       -11.95345         1.18408
| 46>    S       -5.99461       -12.97235        -0.12834
| 47>    C       -4.69131       -14.06473         0.21520
| 48>    N       -4.58016       -15.21808        -0.57127
| 49>    O       -3.66177       -15.97814        -0.33222
| 50>    O       -5.42037       -15.36710        -1.44126
| 51>    C       -3.91494       -13.66083         1.26625
| 52>    C       -4.36812       -12.46808         1.86246
| 53>    C       -3.75728       -11.93862         3.06293
| 54>    C       -4.43378       -11.29408         4.03137
| 55>    C       -3.85475       -10.60370         5.13449
| 56>    C       -4.54395        -9.70721         5.94193
| 57>    C       -5.92445        -9.51109         5.79007
| 58>    N       -7.05201        -9.39962         5.61155
| 59>    C       -3.69789        -9.04988         6.87190
| 60>    C       -2.38602        -9.49419         6.75984
| 61>    S       -2.15277       -10.66991         5.52426
| 62>    S       -1.26883        -8.77032         7.87525
| 63>    C       -2.58051        -7.83923         8.50375
| 64>    C       -3.81204        -8.05708         7.88527
| 65>    C       -4.80539        -7.20236         8.41038
| 66>    C       -6.10564        -7.05756         7.90304
| 67>    N       -7.14541        -6.86148         7.46151
| 68>    C       -4.33692        -6.40944         9.45594
| 69>    S       -2.63119        -6.66352         9.74614
| 70>    C       -5.09760        -5.41187        10.11200
| 71>    C       -4.86506        -4.76921        11.28566
| 72>    C       -5.54262        -3.46718        11.54706
| 73>    O       -6.41343        -2.96603        10.87402
| 74>    C       -4.85407        -2.89853        12.71839
| 75>    C       -5.06245        -1.70003        13.33928
| 76>    C       -4.24082        -1.33675        14.42957
| 77>    C       -3.19959        -2.21848        14.84501
| 78>    C       -2.35286        -1.82968        15.90138
| 79>    C       -2.53724        -0.62638        16.52307
| 80>    C       -3.57723         0.23786        16.12258
| 81>    C       -4.41310        -0.10955        15.09834
| 82>    F       -3.74141         1.40162        16.75885
| 83>    F       -1.73531        -0.25978        17.52758
| 84>    C       -3.02924        -3.46804        14.20638
| 85>    C       -3.85549        -3.80994        13.16964
| 86>    C       -3.97535        -5.04140        12.39588
| 87>    C       -3.58173        -6.28046        12.82632
| 88>    C       -4.01772        -7.48175        12.22910
| 89>    N       -4.39298        -8.47599        11.79553
| 90>    C       -2.78882        -6.49430        13.97306
| 91>    N       -2.12741        -6.71475        14.88396
| 92>    H       -4.35372         0.66518        10.97843
| 93>    H       -0.93334        -2.91480        11.20842
| 94>    H       -5.43712        -0.45876         9.10662
| 95>    H       -1.90230        -3.97237         9.17212
| 96>    H       -6.90350        -4.16444         5.41475
| 97>    H       -3.71910        -8.03982         3.41404
| 98>    H       -3.47407        -6.07167         5.05564
| 99>    H       -7.43695        -8.63440         2.28874
|100>    H       -4.55406        -9.68537         2.12684
|101>    H       -7.08741       -10.71325         1.02673
|102>    H       -3.07357       -14.23076         1.61753
|103>    H       -2.69339       -12.10807         3.16855
|104>    H       -5.50950       -11.19588         3.96791
|105>    H       -5.96601        -5.06025         9.55919
|106>    H       -5.84654        -1.03864        13.00352
|107>    H       -1.55341        -2.47911        16.22134
|108>    H       -5.19701         0.56715        14.79704
|109>    H       -2.24172        -4.12115        14.54747
|110> *
|111>
|112>                          ****END OF INPUT****

CARTESIAN COORDINATES (ANGSTROEM)
---------------------------------
  C     -3.619020   -0.123410   11.018850
  C     -2.654070   -0.104040   11.985550
  F     -2.621690    0.887030   12.889050
  C     -1.691200   -1.128840   12.060550
  F     -0.782200   -1.103250   13.047080
  C     -1.685810   -2.144030   11.146830
  C     -2.660720   -2.185940   10.131020
  C     -3.659570   -1.171700   10.078040
  C     -4.681050   -1.225700    9.103340
  C     -4.695860   -2.257260    8.202690
  C     -3.672490   -3.242240    8.236540
  C     -2.673950   -3.217270    9.167340
  C     -3.901260   -4.227250    7.159830
  O     -3.190420   -5.192820    6.935920
  C     -5.158630   -3.828390    6.507820
  C     -5.608900   -2.583950    7.111990
  C     -6.645910   -1.792000    6.697080
  C     -7.466060   -2.023860    5.571210
  N     -8.151310   -2.111820    4.654050
  C     -7.001980   -0.574050    7.316100
  N     -7.336940    0.428250    7.763410
  C     -5.898490   -4.530420    5.587360
  C     -5.589660   -5.667400    4.824650
  S     -6.888470   -6.385060    3.899060
  C     -5.840420   -7.585580    3.246600
  C     -4.538790   -7.411050    3.712680
  C     -4.400770   -6.352030    4.590340
  C     -6.368630   -8.641790    2.451080
  C     -5.623300   -9.669830    1.995270
  N     -6.136120  -10.771390    1.368700
  C     -5.481750  -11.953450    1.184080
  S     -5.994610  -12.972350   -0.128340
  C     -4.691310  -14.064730    0.215200
  N     -4.580160  -15.218080   -0.571270
  O     -3.661770  -15.978140   -0.332220
  O     -5.420370  -15.367100   -1.441260
  C     -3.914940  -13.660830    1.266250
  C     -4.368120  -12.468080    1.862460
  C     -3.757280  -11.938620    3.062930
  C     -4.433780  -11.294080    4.031370
  C     -3.854750  -10.603700    5.134490
  C     -4.543950   -9.707210    5.941930
  C     -5.924450   -9.511090    5.790070
  N     -7.052010   -9.399620    5.611550
  C     -3.697890   -9.049880    6.871900
  C     -2.386020   -9.494190    6.759840
  S     -2.152770  -10.669910    5.524260
  S     -1.268830   -8.770320    7.875250
  C     -2.580510   -7.839230    8.503750
  C     -3.812040   -8.057080    7.885270
  C     -4.805390   -7.202360    8.410380
  C     -6.105640   -7.057560    7.903040
  N     -7.145410   -6.861480    7.461510
  C     -4.336920   -6.409440    9.455940
  S     -2.631190   -6.663520    9.746140
  C     -5.097600   -5.411870   10.112000
  C     -4.865060   -4.769210   11.285660
  C     -5.542620   -3.467180   11.547060
  O     -6.413430   -2.966030   10.874020
  C     -4.854070   -2.898530   12.718390
  C     -5.062450   -1.700030   13.339280
  C     -4.240820   -1.336750   14.429570
  C     -3.199590   -2.218480   14.845010
  C     -2.352860   -1.829680   15.901380
  C     -2.537240   -0.626380   16.523070
  C     -3.577230    0.237860   16.122580
  C     -4.413100   -0.109550   15.098340
  F     -3.741410    1.401620   16.758850
  F     -1.735310   -0.259780   17.527580
  C     -3.029240   -3.468040   14.206380
  C     -3.855490   -3.809940   13.169640
  C     -3.975350   -5.041400   12.395880
  C     -3.581730   -6.280460   12.826320
  C     -4.017720   -7.481750   12.229100
  N     -4.392980   -8.475990   11.795530
  C     -2.788820   -6.494300   13.973060
  N     -2.127410   -6.714750   14.883960
  H     -4.353720    0.665180   10.978430
  H     -0.933340   -2.914800   11.208420
  H     -5.437120   -0.458760    9.106620
  H     -1.902300   -3.972370    9.172120
  H     -6.903500   -4.164440    5.414750
  H     -3.719100   -8.039820    3.414040
  H     -3.474070   -6.071670    5.055640
  H     -7.436950   -8.634400    2.288740
  H     -4.554060   -9.685370    2.126840
  H     -7.087410  -10.713250    1.026730
  H     -3.073570  -14.230760    1.617530
  H     -2.693390  -12.108070    3.168550
  H     -5.509500  -11.195880    3.967910
  H     -5.966010   -5.060250    9.559190
  H     -5.846540   -1.038640   13.003520
  H     -1.553410   -2.479110   16.221340
  H     -5.197010    0.567150   14.797040
  H     -2.241720   -4.121150   14.547470

 Total Charge           Charge          ....    0
 Multiplicity           Mult            ....    1
 Number of Electrons    NEL             ....  558
 Basis Dimension        Dim             .... 1188

ORBITAL ENERGIES
----------------

  NO   OCC          E(Eh)            E(eV)
   0   2.0000     -89.005624     -2421.9662
   1   2.0000     -89.004130     -2421.9255
   2   2.0000     -89.002899     -2421.8920
   3   2.0000     -88.995883     -2421.7011
   4   2.0000     -88.971621     -2421.0409
   5   2.0000     -24.809655      -675.1050
   6   2.0000     -24.809404      -675.0982
   7   2.0000     -24.801820      -674.8918
   8   2.0000     -24.801668      -674.8877
   9   2.0000     -19.245706      -523.7023
  10   2.0000     -19.245060      -523.6847
  11   2.0000     -19.229193      -523.2529
  12   2.0000     -19.223152      -523.0886
  13   2.0000     -14.657468      -398.8500
  14   2.0000     -14.499370      -394.5479
  15   2.0000     -14.429522      -392.6472
  16   2.0000     -14.427367      -392.5886
  17   2.0000     -14.425863      -392.5477
  18   2.0000     -14.421195      -392.4207
  19   2.0000     -14.413950      -392.2235
  20   2.0000     -14.412473      -392.1833
  21   2.0000     -10.389400      -282.7100
  22   2.0000     -10.388374      -282.6820
  23   2.0000     -10.385430      -282.6019
  24   2.0000     -10.385030      -282.5910
  25   2.0000     -10.384873      -282.5868
  26   2.0000     -10.379545      -282.4418
  27   2.0000     -10.374834      -282.3136
  28   2.0000     -10.359581      -281.8985
  29   2.0000     -10.358911      -281.8803
  30   2.0000     -10.356307      -281.8094
  31   2.0000     -10.355403      -281.7848
  32   2.0000     -10.353455      -281.7318
  33   2.0000     -10.351345      -281.6744
  34   2.0000     -10.350312      -281.6463
  35   2.0000     -10.350065      -281.6396
  36   2.0000     -10.347092      -281.5587
  37   2.0000     -10.340383      -281.3761
  38   2.0000     -10.339774      -281.3596
  39   2.0000     -10.338902      -281.3358
  40   2.0000     -10.337869      -281.3077
  41   2.0000     -10.333482      -281.1883
  42   2.0000     -10.331218      -281.1267
  43   2.0000     -10.328857      -281.0625
  44   2.0000     -10.326538      -280.9994
  45   2.0000     -10.325992      -280.9845
  46   2.0000     -10.325700      -280.9766
  47   2.0000     -10.323582      -280.9190
  48   2.0000     -10.321456      -280.8611
  49   2.0000     -10.320664      -280.8395
  50   2.0000     -10.318296      -280.7751
  51   2.0000     -10.317396      -280.7506
  52   2.0000     -10.316826      -280.7351
  53   2.0000     -10.316771      -280.7336
  54   2.0000     -10.316746      -280.7329
  55   2.0000     -10.316608      -280.7292
  56   2.0000     -10.316370      -280.7227
  57   2.0000     -10.315929      -280.7107
  58   2.0000     -10.315786      -280.7068
  59   2.0000     -10.315151      -280.6895
  60   2.0000     -10.315032      -280.6863
  61   2.0000     -10.312704      -280.6229
  62   2.0000     -10.312681      -280.6223
  63   2.0000     -10.310628      -280.5665
  64   2.0000     -10.310132      -280.5529
  65   2.0000     -10.308400      -280.5058
  66   2.0000     -10.307330      -280.4767
  67   2.0000     -10.306631      -280.4577
  68   2.0000     -10.305254      -280.4202
  69   2.0000     -10.304843      -280.4090
  70   2.0000     -10.304422      -280.3976
  71   2.0000     -10.303973      -280.3854
  72   2.0000     -10.303476      -280.3718
  73   2.0000     -10.298799      -280.2446
  74   2.0000     -10.297963      -280.2218
  75   2.0000     -10.294728      -280.1338
  76   2.0000     -10.290974      -280.0316
  77   2.0000      -8.100741      -220.4324
  78   2.0000      -8.098195      -220.3631
  79   2.0000      -8.097989      -220.3575
  80   2.0000      -8.091865      -220.1909
  81   2.0000      -8.067350      -219.5238
  82   2.0000      -6.070719      -165.1927
  83   2.0000      -6.067820      -165.1138
  84   2.0000      -6.067561      -165.1067
  85   2.0000      -6.066404      -165.0752
  86   2.0000      -6.063582      -164.9984
  87   2.0000      -6.063374      -164.9928
  88   2.0000      -6.061583      -164.9441
  89   2.0000      -6.061572      -164.9438
  90   2.0000      -6.059871      -164.8975
  91   2.0000      -6.059596      -164.8900
  92   2.0000      -6.057092      -164.8219
  93   2.0000      -6.053212      -164.7163
  94   2.0000      -6.036448      -164.2601
  95   2.0000      -6.032428      -164.1507
  96   2.0000      -6.029599      -164.0737
  97   2.0000      -1.330882       -36.2152
  98   2.0000      -1.327125       -36.1129
  99   2.0000      -1.325753       -36.0756
 100   2.0000      -1.316007       -35.8104
 101   2.0000      -1.310811       -35.6690
 102   2.0000      -1.146514       -31.1982
 103   2.0000      -1.144424       -31.1414
 104   2.0000      -1.137085       -30.9417
 105   2.0000      -1.103697       -30.0331
 106   2.0000      -1.059924       -28.8420
 107   2.0000      -1.034567       -28.1520
 108   2.0000      -1.026454       -27.9312
 109   2.0000      -1.020546       -27.7705
 110   2.0000      -1.017178       -27.6788
 111   2.0000      -1.014037       -27.5934
 112   2.0000      -1.011052       -27.5121
 113   2.0000      -1.006950       -27.4005
 114   2.0000      -1.006894       -27.3990
 115   2.0000      -1.003121       -27.2963
 116   2.0000      -0.999231       -27.1905
 117   2.0000      -0.992057       -26.9952
 118   2.0000      -0.990798       -26.9610
 119   2.0000      -0.984630       -26.7931
 120   2.0000      -0.971095       -26.4248
 121   2.0000      -0.941624       -25.6229
 122   2.0000      -0.937038       -25.4981
 123   2.0000      -0.934202       -25.4209
 124   2.0000      -0.923149       -25.1202
 125   2.0000      -0.918850       -25.0032
 126   2.0000      -0.911184       -24.7946
 127   2.0000      -0.905180       -24.6312
 128   2.0000      -0.901248       -24.5242
 129   2.0000      -0.897856       -24.4319
 130   2.0000      -0.896011       -24.3817
 131   2.0000      -0.889416       -24.2023
 132   2.0000      -0.882974       -24.0269
 133   2.0000      -0.877388       -23.8749
 134   2.0000      -0.868520       -23.6336
 135   2.0000      -0.849796       -23.1241
 136   2.0000      -0.848745       -23.0955
 137   2.0000      -0.845190       -22.9988
 138   2.0000      -0.842514       -22.9260
 139   2.0000      -0.831352       -22.6222
 140   2.0000      -0.826002       -22.4766
 141   2.0000      -0.802301       -21.8317
 142   2.0000      -0.794419       -21.6172
 143   2.0000      -0.779197       -21.2030
 144   2.0000      -0.775200       -21.0943
 145   2.0000      -0.770669       -20.9710
 146   2.0000      -0.758416       -20.6376
 147   2.0000      -0.752412       -20.4742
 148   2.0000      -0.745566       -20.2879
 149   2.0000      -0.739725       -20.1289
 150   2.0000      -0.729419       -19.8485
 151   2.0000      -0.726890       -19.7797
 152   2.0000      -0.721156       -19.6237
 153   2.0000      -0.718171       -19.5424
 154   2.0000      -0.713886       -19.4258
 155   2.0000      -0.705826       -19.2065
 156   2.0000      -0.697122       -18.9697
 157   2.0000      -0.690596       -18.7921
 158   2.0000      -0.686317       -18.6756
 159   2.0000      -0.681767       -18.5518
 160   2.0000      -0.673611       -18.3299
 161   2.0000      -0.671541       -18.2736
 162   2.0000      -0.664104       -18.0712
 163   2.0000      -0.662142       -18.0178
 164   2.0000      -0.660391       -17.9702
 165   2.0000      -0.655268       -17.8308
 166   2.0000      -0.650276       -17.6949
 167   2.0000      -0.647752       -17.6262
 168   2.0000      -0.645090       -17.5538
 169   2.0000      -0.639424       -17.3996
 170   2.0000      -0.638472       -17.3737
 171   2.0000      -0.634957       -17.2781
 172   2.0000      -0.626627       -17.0514
 173   2.0000      -0.625054       -17.0086
 174   2.0000      -0.622213       -16.9313
 175   2.0000      -0.614634       -16.7250
 176   2.0000      -0.611534       -16.6407
 177   2.0000      -0.603624       -16.4254
 178   2.0000      -0.601587       -16.3700
 179   2.0000      -0.597828       -16.2677
 180   2.0000      -0.595657       -16.2087
 181   2.0000      -0.593769       -16.1573
 182   2.0000      -0.592687       -16.1278
 183   2.0000      -0.587365       -15.9830
 184   2.0000      -0.581602       -15.8262
 185   2.0000      -0.580030       -15.7834
 186   2.0000      -0.573993       -15.6191
 187   2.0000      -0.568438       -15.4680
 188   2.0000      -0.563075       -15.3220
 189   2.0000      -0.561605       -15.2820
 190   2.0000      -0.559403       -15.2221
 191   2.0000      -0.557940       -15.1823
 192   2.0000      -0.557006       -15.1569
 193   2.0000      -0.553772       -15.0689
 194   2.0000      -0.550971       -14.9927
 195   2.0000      -0.550608       -14.9828
 196   2.0000      -0.547909       -14.9094
 197   2.0000      -0.542708       -14.7678
 198   2.0000      -0.540504       -14.7079
 199   2.0000      -0.539484       -14.6801
 200   2.0000      -0.538430       -14.6514
 201   2.0000      -0.536579       -14.6011
 202   2.0000      -0.536058       -14.5869
 203   2.0000      -0.531948       -14.4751
 204   2.0000      -0.528627       -14.3847
 205   2.0000      -0.526119       -14.3164
 206   2.0000      -0.526051       -14.3146
 207   2.0000      -0.523191       -14.2367
 208   2.0000      -0.522627       -14.2214
 209   2.0000      -0.518022       -14.0961
 210   2.0000      -0.515580       -14.0296
 211   2.0000      -0.515031       -14.0147
 212   2.0000      -0.513637       -13.9768
 213   2.0000      -0.508925       -13.8486
 214   2.0000      -0.506386       -13.7795
 215   2.0000      -0.499618       -13.5953
 216   2.0000      -0.498897       -13.5757
 217   2.0000      -0.494034       -13.4434
 218   2.0000      -0.491732       -13.3807
 219   2.0000      -0.490268       -13.3409
 220   2.0000      -0.487527       -13.2663
 221   2.0000      -0.485217       -13.2034
 222   2.0000      -0.482040       -13.1170
 223   2.0000      -0.477642       -12.9973
 224   2.0000      -0.476497       -12.9661
 225   2.0000      -0.474591       -12.9143
 226   2.0000      -0.471918       -12.8415
 227   2.0000      -0.471310       -12.8250
 228   2.0000      -0.469677       -12.7806
 229   2.0000      -0.467062       -12.7094
 230   2.0000      -0.463888       -12.6230
 231   2.0000      -0.462384       -12.5821
 232   2.0000      -0.459899       -12.5145
 233   2.0000      -0.457913       -12.4604
 234   2.0000      -0.454910       -12.3787
 235   2.0000      -0.454256       -12.3609
 236   2.0000      -0.453221       -12.3328
 237   2.0000      -0.451069       -12.2742
 238   2.0000      -0.450422       -12.2566
 239   2.0000      -0.447703       -12.1826
 240   2.0000      -0.446399       -12.1471
 241   2.0000      -0.444048       -12.0832
 242   2.0000      -0.441920       -12.0252
 243   2.0000      -0.441426       -12.0118
 244   2.0000      -0.440620       -11.9899
 245   2.0000      -0.439040       -11.9469
 246   2.0000      -0.433915       -11.8074
 247   2.0000      -0.432248       -11.7621
 248   2.0000      -0.429820       -11.6960
 249   2.0000      -0.425433       -11.5766
 250   2.0000      -0.422280       -11.4908
 251   2.0000      -0.420953       -11.4547
 252   2.0000      -0.416833       -11.3426
 253   2.0000      -0.410870       -11.1803
 254   2.0000      -0.406939       -11.0734
 255   2.0000      -0.404626       -11.0104
 256   2.0000      -0.400646       -10.9021
 257   2.0000      -0.394285       -10.7291
 258   2.0000      -0.392933       -10.6923
 259   2.0000      -0.389118       -10.5884
 260   2.0000      -0.387285       -10.5386
 261   2.0000      -0.384112       -10.4522
 262   2.0000      -0.381427       -10.3791
 263   2.0000      -0.374187       -10.1822
 264   2.0000      -0.371073       -10.0974
 265   2.0000      -0.358457        -9.7541
 266   2.0000      -0.351790        -9.5727
 267   2.0000      -0.349584        -9.5127
 268   2.0000      -0.346648        -9.4328
 269   2.0000      -0.338754        -9.2180
 270   2.0000      -0.331755        -9.0275
 271   2.0000      -0.328583        -8.9412
 272   2.0000      -0.320688        -8.7264
 273   2.0000      -0.317349        -8.6355
 274   2.0000      -0.310162        -8.4399
 275   2.0000      -0.297652        -8.0995
 276   2.0000      -0.296120        -8.0578
 277   2.0000      -0.284616        -7.7448
 278   2.0000      -0.263776        -7.1777
 279   0.0000      -0.114609        -3.1187
 280   0.0000      -0.099314        -2.7025
 281   0.0000      -0.071632        -1.9492
 282   0.0000      -0.069824        -1.9000
 283   0.0000      -0.066157        -1.8002

MULLIKEN ATOMIC CHARGES
-----------------------
   0 C :   -0.104940
   1 C :    0.253711
   2 F :   -0.173693
   3 C :    0.238007
   4 F :   -0.177497
   5 C :   -0.100262
   6 C :    0.110192
   7 C :    0.116871
   8 C :   -0.068169
   9 C :    0.056061
  10 C :    0.005622
  11 C :   -0.120766
  12 C :    0.155877
  13 O :   -0.187712
  14 C :   -0.099966
  15 C :    0.324037
  16 C :   -0.346156
  17 C :   -0.211945
  18 N :    0.159488
  19 C :   -0.180995
  20 N :    0.145765
  21 C :    0.076313
  22 C :   -0.134422
  23 S :    0.199520
  24 C :   -0.085117
  25 C :    0.009587
  26 C :    0.037078
  27 C :    0.061933
  28 C :    0.048389
  29 N :   -0.029243
  30 C :   -0.116274
  31 S :    0.181023
  32 C :   -0.009971
  33 N :    0.277931
  34 O :   -0.247157
  35 O :   -0.261444
  36 C :    0.010983
  37 C :    0.087605
  38 C :   -0.052560
  39 C :   -0.021281
  40 C :   -0.105217
  41 C :   -0.010138
  42 C :   -0.304003
  43 N :    0.201069
  44 C :    0.152879
  45 C :   -0.237732
  46 S :    0.165783
  47 S :    0.207780
  48 C :   -0.202509
  49 C :    0.167163
  50 C :    0.039603
  51 C :   -0.304914
  52 N :    0.225197
  53 C :   -0.123089
  54 S :    0.194877
  55 C :    0.004190
  56 C :   -0.119563
  57 C :    0.154170
  58 O :   -0.139648
  59 C :    0.003505
  60 C :   -0.083489
  61 C :    0.100567
  62 C :    0.120903
  63 C :   -0.109530
  64 C :    0.250133
  65 C :    0.243355
  66 C :   -0.102395
  67 F :   -0.166741
  68 F :   -0.167341
  69 C :   -0.094629
  70 C :    0.058837
  71 C :    0.241931
  72 C :   -0.313951
  73 C :   -0.211808
  74 N :    0.184891
  75 C :   -0.180121
  76 N :    0.162703
  77 H :    0.005859
  78 H :   -0.005934
  79 H :   -0.006515
  80 H :   -0.018311
  81 H :    0.021806
  82 H :   -0.019931
  83 H :    0.014150
  84 H :   -0.006991
  85 H :    0.047945
  86 H :    0.143905
  87 H :    0.011817
  88 H :    0.007074
  89 H :    0.042630
  90 H :    0.045491
  91 H :   -0.008949
  92 H :    0.003514
  93 H :   -0.001507
  94 H :   -0.005197
Sum of atomic charges:   -0.0000000

LOEWDIN ATOMIC CHARGES
----------------------
   0 C :   -0.025927
   1 C :    0.064091
   2 F :   -0.046086
   3 C :    0.065033
   4 F :   -0.049324
   5 C :   -0.032894
   6 C :   -0.015824
   7 C :   -0.008975
   8 C :    0.027557
   9 C :   -0.018215
  10 C :   -0.051294
  11 C :    0.010219
  12 C :    0.082109
  13 O :   -0.166191
  14 C :   -0.113894
  15 C :    0.077016
  16 C :   -0.137859
  17 C :   -0.025600
  18 N :   -0.050100
  19 C :   -0.014256
  20 N :   -0.056705
  21 C :    0.066884
  22 C :   -0.189512
  23 S :    0.497412
  24 C :   -0.134249
  25 C :   -0.073957
  26 C :   -0.002456
  27 C :   -0.084173
  28 C :    0.050659
  29 N :    0.034069
  30 C :   -0.103045
  31 S :    0.458709
  32 C :   -0.208981
  33 N :    0.273379
  34 O :   -0.212837
  35 O :   -0.227262
  36 C :    0.005191
  37 C :   -0.108009
  38 C :   -0.023007
  39 C :   -0.043254
  40 C :   -0.132506
  41 C :   -0.093127
  42 C :   -0.033902
  43 N :   -0.040371
  44 C :   -0.058321
  45 C :   -0.328719
  46 S :    0.450016
  47 S :    0.444000
  48 C :   -0.303137
  49 C :   -0.055058
  50 C :   -0.053991
  51 C :   -0.030830
  52 N :   -0.024233
  53 C :   -0.146471
  54 S :    0.505327
  55 C :    0.050104
  56 C :   -0.085060
  57 C :    0.084862
  58 O :   -0.134545
  59 C :   -0.059216
  60 C :    0.036720
  61 C :   -0.015477
  62 C :   -0.007074
  63 C :   -0.028972
  64 C :    0.070649
  65 C :    0.069154
  66 C :   -0.030814
  67 F :   -0.044544
  68 F :   -0.044713
  69 C :    0.011707
  70 C :   -0.020645
  71 C :    0.058143
  72 C :   -0.135010
  73 C :   -0.039018
  74 N :   -0.040073
  75 C :   -0.020177
  76 N :   -0.042461
  77 H :    0.046867
  78 H :    0.042406
  79 H :    0.040839
  80 H :    0.025207
  81 H :    0.047097
  82 H :    0.026079
  83 H :    0.034554
  84 H :    0.033056
  85 H :    0.036351
  86 H :    0.097346
  87 H :    0.047322
  88 H :    0.027937
  89 H :    0.045536
  90 H :    0.057191
  91 H :    0.040428
  92 H :    0.047136
  93 H :    0.044774
  94 H :    0.039218

  Mayer bond orders larger than 0.100000
B(  0-C ,  1-C ) :   1.4222 B(  0-C ,  5-C ) :   0.1107 B(  0-C ,  7-C ) :   1.2002
B(  0-C , 77-H ) :   1.0104 B(  1-C ,  2-F ) :   1.1084 B(  1-C ,  3-C ) :   1.2029
B(  3-C ,  4-F ) :   1.1098 B(  3-C ,  5-C ) :   1.4414 B(  5-C ,  6-C ) :   1.1899
B(  5-C , 78-H ) :   1.0107 B(  6-C ,  7-C ) :   1.2611 B(  6-C , 11-C ) :   1.1804
B(  7-C ,  8-C ) :   1.2072 B(  8-C ,  9-C ) :   1.4459 B(  8-C , 79-H ) :   0.9899
B(  9-C , 10-C ) :   1.2289 B(  9-C , 15-C ) :   0.9732 B( 10-C , 11-C ) :   1.4457
B( 10-C , 12-C ) :   0.9538 B( 11-C , 80-H ) :   1.0184 B( 12-C , 13-O ) :   2.1057
B( 12-C , 14-C ) :   0.9813 B( 14-C , 15-C ) :   1.0793 B( 14-C , 21-C ) :   1.5300
B( 15-C , 16-C ) :   1.6298 B( 16-C , 17-C ) :   1.1381 B( 16-C , 19-C ) :   1.1518
B( 17-C , 18-N ) :   2.9891 B( 19-C , 20-N ) :   2.9586 B( 21-C , 22-C ) :   1.2505
B( 21-C , 81-H ) :   0.9171 B( 22-C , 23-S ) :   1.1032 B( 22-C , 26-C ) :   1.3962
B( 23-S , 24-C ) :   1.1993 B( 24-C , 25-C ) :   1.4140 B( 24-C , 27-C ) :   1.1417
B( 25-C , 26-C ) :   1.3392 B( 25-C , 82-H ) :   0.9831 B( 26-C , 83-H ) :   0.9816
B( 27-C , 28-C ) :   1.6954 B( 27-C , 84-H ) :   0.9561 B( 28-C , 29-N ) :   1.1407
B( 28-C , 85-H ) :   0.9462 B( 29-N , 30-C ) :   1.1781 B( 29-N , 86-H ) :   0.9099
B( 30-C , 31-S ) :   1.1418 B( 30-C , 37-C ) :   1.3910 B( 31-S , 32-C ) :   1.0833
B( 32-C , 33-N ) :   0.9674 B( 32-C , 36-C ) :   1.4947 B( 33-N , 34-O ) :   1.5383
B( 33-N , 35-O ) :   1.5123 B( 34-O , 35-O ) :   0.2606 B( 36-C , 37-C ) :   1.2240
B( 36-C , 87-H ) :   1.0078 B( 37-C , 38-C ) :   1.0633 B( 38-C , 39-C ) :   1.7077
B( 38-C , 88-H ) :   0.9671 B( 39-C , 40-C ) :   1.1984 B( 39-C , 89-H ) :   0.9355
B( 40-C , 41-C ) :   1.4796 B( 40-C , 46-S ) :   1.1162 B( 41-C , 42-C ) :   1.1894
B( 41-C , 44-C ) :   1.2603 B( 42-C , 43-N ) :   2.9272 B( 44-C , 45-C ) :   1.4155
B( 44-C , 49-C ) :   1.0571 B( 45-C , 46-S ) :   1.0898 B( 45-C , 47-S ) :   1.0800
B( 47-S , 48-C ) :   1.1036 B( 48-C , 49-C ) :   1.3752 B( 48-C , 54-S ) :   1.1261
B( 49-C , 50-C ) :   1.2973 B( 50-C , 51-C ) :   1.1966 B( 50-C , 53-C ) :   1.4327
B( 51-C , 52-N ) :   2.9317 B( 53-C , 54-S ) :   1.1349 B( 53-C , 55-C ) :   1.1564
B( 55-C , 56-C ) :   1.6631 B( 55-C , 90-H ) :   0.9298 B( 56-C , 57-C ) :   0.9381
B( 56-C , 71-C ) :   1.0257 B( 57-C , 58-O ) :   2.2302 B( 57-C , 59-C ) :   0.9292
B( 59-C , 60-C ) :   1.4686 B( 59-C , 70-C ) :   1.2255 B( 60-C , 61-C ) :   1.1911
B( 60-C , 91-H ) :   1.0101 B( 61-C , 62-C ) :   1.2699 B( 61-C , 66-C ) :   1.1868
B( 62-C , 63-C ) :   1.1892 B( 62-C , 69-C ) :   1.2032 B( 63-C , 64-C ) :   1.4350
B( 63-C , 66-C ) :   0.1100 B( 63-C , 92-H ) :   1.0078 B( 64-C , 65-C ) :   1.1904
B( 64-C , 68-F ) :   1.1385 B( 65-C , 66-C ) :   1.4362 B( 65-C , 67-F ) :   1.1397
B( 66-C , 93-H ) :   1.0103 B( 69-C , 70-C ) :   1.4409 B( 69-C , 94-H ) :   0.9977
B( 70-C , 71-C ) :   0.9972 B( 71-C , 72-C ) :   1.6647 B( 72-C , 73-C ) :   1.1557
B( 72-C , 75-C ) :   1.1352 B( 73-C , 74-N ) :   3.0163 B( 75-C , 76-N ) :   2.9916

-----------------------------------------------------------------------------
         ABSORPTION SPECTRUM VIA TRANSITION ELECTRIC DIPOLE MOMENTS
-----------------------------------------------------------------------------
State   Energy  Wavelength   fosc         T2         TX        TY        TZ
        (cm-1)    (nm)                  (au**2)     (au)      (au)      (au)
-----------------------------------------------------------------------------
   0   18237.8    548.3   0.008708866   0.15720   0.28105  -0.25978   0.10359
   1   19120.0    523.0   0.790710389  13.61463   0.09187  -3.29426  -1.65954
   2   21650.2    461.9   0.845277464  12.85324  -0.19599   2.12204   2.88301
   3   21898.7    456.6   0.072154510   1.08473  -0.24279   0.33264   0.95663
   4   23041.2    434.0   0.028281280   0.40408  -0.14074  -0.33326  -0.52270
   5   24603.2    406.5   0.176858984   2.36652   0.33579   0.78338   1.28066
   6   24673.2    405.3   0.158540445   2.11539   0.18755   0.77340   1.21740
   7   25895.6    386.2   0.109558241   1.39282   0.10915   0.89009   0.76723
   8   26450.3    378.1   0.020530643   0.25553   0.40218  -0.09883   0.28986
   9   26726.1    374.2   0.021166397   0.26073  -0.40884  -0.16183  -0.25959
  10   26901.0    371.7   0.078099952   0.95578  -0.31991   0.92371   0.01398
  11   27432.2    364.5   0.019488772   0.23388  -0.27583   0.12190  -0.37807
  12   28131.1    355.5   0.447230769   5.23383   0.49706   1.46949   1.68148
  13   28323.2    353.1   0.011229686   0.13053   0.14079  -0.32872  -0.05149
  14   28575.8    349.9   0.148014413   1.70523  -0.74077   1.03699  -0.28486
  15   28720.0    348.2   0.040361672   0.46266  -0.35206  -0.33510  -0.47583
  16   29339.7    340.8   0.014282015   0.16025   0.21042  -0.19900  -0.27636
  17   29490.3    339.1   0.012978878   0.14489   0.11536   0.31586   0.17837
  18   29597.4    337.9   0.012401036   0.13794   0.16281  -0.02060   0.33317
  19   30234.1    330.8   0.133504972   1.45370   0.23808  -0.93953  -0.71715
  20   30507.0    327.8   0.636853759   6.87252  -0.34495  -1.79981  -1.87462
  21   30681.4    325.9   0.144974312   1.55558   0.14735   0.66108   1.04730
  22   31442.4    318.0   0.461037497   4.82722  -0.44691   2.06643   0.59780
  23   31917.8    313.3   0.334556193   3.45073  -0.86726  -0.38835  -1.59618
  24   32127.8    311.3   0.008108405   0.08309  -0.20239   0.20051  -0.04384
  25   32311.5    309.5   0.045556328   0.46416  -0.08751  -0.62005  -0.26840
  26   32780.1    305.1   0.075461056   0.75786  -0.23601  -0.55009  -0.63210
  27   32872.7    304.2   0.019499009   0.19528   0.29774  -0.20078   0.25752
  28   33432.6    299.1   0.000506852   0.00499  -0.06823   0.00827   0.01633
  29   33510.4    298.4   0.105536228   1.03680  -0.16593   1.00410   0.03243
  30   33760.9    296.2   0.141701898   1.38177   0.70160  -0.10929   0.93679
  31   33943.8    294.6   0.080835481   0.78400   0.23881   0.26598   0.81008
  32   34127.5    293.0   0.363217658   3.50378  -0.94914  -1.14305  -1.13858
  33   34154.8    292.8   0.013870992   0.13370  -0.33227  -0.11936  -0.09512
  34   34257.5    291.9   0.146456589   1.40744   0.59424   0.47501   0.91032
  35   34739.1    287.9   0.066564559   0.63081  -0.54019  -0.00241  -0.58224
  36   35053.4    285.3   0.028712131   0.26966  -0.37222   0.34170  -0.11978
  37   35227.1    283.9   0.016938403   0.15830  -0.24214   0.26012   0.17889
  38   35426.9    282.3   0.030388768   0.28239   0.42795  -0.31481  -0.01221
  39   35553.5    281.3   0.023328712   0.21601  -0.02719  -0.21434  -0.41150
  40   35689.0    280.2   0.003979468   0.03671   0.05016  -0.17537  -0.05865
  41   36001.9    277.8   0.008950873   0.08185  -0.05345  -0.28106  -0.00073
  42   36668.2    272.7   0.034281590   0.30778  -0.31442  -0.08234  -0.44960
  43   37230.0    268.6   0.196588407   1.73836   0.44326  -1.08853  -0.59748
  44   37242.3    268.5   0.048501642   0.42874  -0.58747   0.15269  -0.24558
  45   37422.1    267.2   0.021100075   0.18562  -0.02903   0.37469   0.21068
  46   37709.5    265.2   0.054716544   0.47769  -0.28307  -0.38984  -0.49557
  47   37804.8    264.5   0.046391873   0.40399   0.52691  -0.19780   0.29535
  48   37991.4    263.2   0.095630367   0.82868  -0.68947   0.58494  -0.10560
  49   38335.4    260.9   0.014915282   0.12809   0.18063   0.13144   0.27962
  50   38591.8    259.1   0.017423329   0.14863   0.07603  -0.28943  -0.24306
  51   38756.1    258.0   0.027422349   0.23294  -0.38689   0.27806  -0.07706
  52   39167.5    255.3   0.039396948   0.33114  -0.22389   0.00938  -0.53003
  53   39247.3    254.8   0.093507302   0.78435  -0.57569   0.56505  -0.36559
  54   39362.8    254.0   0.094937335   0.79401   0.50238  -0.27709   0.68180
  55   39586.0    252.6   0.016036006   0.13336   0.03616  -0.08314   0.35375
  56   39819.2    251.1   0.109707014   0.90702   0.11067  -0.80020  -0.50444
  57   40088.7    249.4   0.080772800   0.66331   0.36928  -0.66646  -0.28772

FINAL SINGLE POINT ENERGY     -5269.139031024701

DIPOLE MOMENT
-------------
                                X             Y             Z
Electronic contribution:     11.40729      18.91129      33.80318
Nuclear contribution   :     -8.72077     -19.17563     -34.35254
                        -----------------------------------------
Total Dipole Moment    :      2.68652      -0.26434      -0.54936
                        -----------------------------------------
Magnitude (a.u.)       :      2.75483
Magnitude (Debye)      :      7.00221

Rotational constants in cm-1:     0.002102     0.000381     0.000344
Rotational constants in MHz :    63.016308    11.435322    10.302422

                             ****ORCA TERMINATED NORMALLY****
TOTAL RUN TIME: 0 days 0 hours 19 minutes 36 seconds 735 msec
