                         Program Version 4.2.0 -  RELEASE  -
|  1> # ORCA input file
|  2> # SCF done       -196.148571467851          0.000569977103
|  3> ! CAM-B3LYP def2-SVP def2/J RIJCOSX Grid4 TightSCF
|  4> %maxcore 5000
|  5> %tddft
|  6>     Mode sTDDFT
|  7>     Ethresh 5.0
|  8>     maxcore 5000
|  9> end
| 10>
| 11> %pal
| 12>   nprocs 6
| 13>   end
| 14> * xyz 0 1
| 15>    C       -4.82420         0.94111         4.57505
| 16>    C       -4.09211         1.14495         5.71084
| 17>    F       -4.21167         2.29178         6.39436
| 18>    C       -3.20791         0.15337         6.18155
| 19>    F       -2.51074         0.37351         7.30904
| 20>    C       -3.05786        -1.02082         5.50162
| 21>    C       -3.77093        -1.24716         4.30963
| 22>    C       -4.68594        -0.25851         3.84633
| 23>    C       -5.44618        -0.48506         2.67732
| 24>    C       -5.27271        -1.65313         1.97956
| 25>    C       -4.30149        -2.60041         2.41425
| 26>    C       -3.57267        -2.42291         3.55477
| 27>    C       -4.25583        -3.72159         1.46738
| 28>    O       -3.41342        -4.58522         1.38529
| 29>    C       -5.41010        -3.50541         0.53671
| 30>    C       -5.95081        -2.17462         0.79841
| 31>    C       -6.94930        -1.54772         0.10779
| 32>    C       -7.64228        -2.08238        -1.00132
| 33>    N       -8.26295        -2.45421        -1.89182
| 34>    C       -7.44280        -0.26126         0.42216
| 35>    N       -7.88907         0.77612         0.62343
| 36>    C       -5.82838        -4.39393        -0.39074
| 37>    C       -5.37798        -5.76131        -0.48237
| 38>    C       -5.23286        -6.42747        -1.69256
| 39>    C       -5.43240        -5.86242        -2.95579
| 40>    N       -5.60216        -5.38638        -3.98556
| 41>    S       -4.70374        -8.06729        -1.51578
| 42>    C       -4.69967        -7.89150         0.20489
| 43>    C       -5.08901        -6.62278         0.61071
| 44>    C       -5.30712        -6.30280         1.96309
| 45>    N       -5.54841        -6.05121         3.05565
| 46>    C       -4.32364        -8.97052         1.04948
| 47>    O       -4.06453        -8.74796         2.36229
| 48>    C       -4.16931       -10.31423         0.78925
| 49>    C       -4.23492       -11.33462        -0.26372
| 50>    O       -4.48477       -11.22979        -1.43619
| 51>    N       -3.92559       -12.50958         0.40765
| 52>    C       -3.66053       -12.36933         1.77514
| 53>    O       -3.37459       -13.27051         2.51732
| 54>    C       -3.82206       -10.93317         2.01220
| 55>    C       -3.75297        -9.92818         2.96721
| 56>    C       -3.40334        -9.97222         4.33331
| 57>    C       -3.14238        -8.86020         5.08260
| 58>    C       -2.78993        -8.92812         6.43774
| 59>    C       -2.33829        -7.87670         7.19853
| 60>    C       -2.01728        -7.92972         8.57842
| 61>    C       -1.53506        -6.76290         9.08424
| 62>    C       -1.42605        -5.72824         8.12485
| 63>    S       -2.00607        -6.27307         6.56994
| 64>    C       -0.89896        -4.46493         8.33482
| 65>    C       -0.45475        -3.92009         9.56020
| 66>    C        0.03974        -2.65513         9.45321
| 67>    C        0.02327        -2.13315         8.13852
| 68>    S       -0.65994        -3.31515         7.03989
| 69>    C        0.48879        -0.89030         7.76584
| 70>    C        0.47468        -0.39286         6.46423
| 71>    C        0.97400         0.84260         6.10712
| 72>    C        0.96184         1.44071         4.79564
| 73>    C        0.37313         0.94070         3.65652
| 74>    C        0.36447         1.60005         2.41107
| 75>    N        0.31058         2.08304         1.37037
| 76>    C       -0.32018        -0.27836         3.56012
| 77>    N       -0.91172        -1.25042         3.39572
| 78>    C        1.67365         2.71353         4.87706
| 79>    C        2.08740         2.91707         6.21571
| 80>    C        1.65937         1.76783         7.03837
| 81>    O        1.86103         1.62484         8.22738
| 82>    C        2.79344         4.02486         6.61426
| 83>    C        3.11246         4.97947         5.64207
| 84>    C        2.69850         4.76655         4.30600
| 85>    C        1.98038         3.64620         3.90454
| 86>    S        3.20630         6.06208         3.26547
| 87>    C        3.95775         6.86089         4.62091
| 88>    C        3.83502         6.19420         5.79342
| 89>   Br        4.83624         8.49700         4.35992
| 90>    H       -5.50546         1.70576         4.23550
| 91>    H       -2.38210        -1.77595         5.86759
| 92>    H       -6.14862         0.27046         2.36474
| 93>    H       -2.85128        -3.15956         3.86966
| 94>    H       -6.55611        -4.10106        -1.13690
| 95>    H       -3.88766       -13.40564        -0.05741
| 96>    H       -3.30243       -10.96196         4.75475
| 97>    H       -3.19157        -7.88688         4.61113
| 98>    H       -2.86102        -9.89021         6.92917
| 99>    H       -2.15504        -8.83056         9.14950
|100>    H       -1.23883        -6.62538        10.10808
|101>    H       -0.51760        -4.46612        10.48378
|102>    H        0.41994        -2.07613        10.27546
|103>    H        0.89285        -0.26291         8.54763
|104>    H        0.05384        -1.02618         5.69280
|105>    H        3.09395         4.15018         7.64264
|106>    H        1.69220         3.53012         2.87330
|107>    H        4.23792         6.54259         6.72682
|108> *
|109>
|110>                          ****END OF INPUT****

CARTESIAN COORDINATES (ANGSTROEM)
---------------------------------
  C     -4.824200    0.941110    4.575050
  C     -4.092110    1.144950    5.710840
  F     -4.211670    2.291780    6.394360
  C     -3.207910    0.153370    6.181550
  F     -2.510740    0.373510    7.309040
  C     -3.057860   -1.020820    5.501620
  C     -3.770930   -1.247160    4.309630
  C     -4.685940   -0.258510    3.846330
  C     -5.446180   -0.485060    2.677320
  C     -5.272710   -1.653130    1.979560
  C     -4.301490   -2.600410    2.414250
  C     -3.572670   -2.422910    3.554770
  C     -4.255830   -3.721590    1.467380
  O     -3.413420   -4.585220    1.385290
  C     -5.410100   -3.505410    0.536710
  C     -5.950810   -2.174620    0.798410
  C     -6.949300   -1.547720    0.107790
  C     -7.642280   -2.082380   -1.001320
  N     -8.262950   -2.454210   -1.891820
  C     -7.442800   -0.261260    0.422160
  N     -7.889070    0.776120    0.623430
  C     -5.828380   -4.393930   -0.390740
  C     -5.377980   -5.761310   -0.482370
  C     -5.232860   -6.427470   -1.692560
  C     -5.432400   -5.862420   -2.955790
  N     -5.602160   -5.386380   -3.985560
  S     -4.703740   -8.067290   -1.515780
  C     -4.699670   -7.891500    0.204890
  C     -5.089010   -6.622780    0.610710
  C     -5.307120   -6.302800    1.963090
  N     -5.548410   -6.051210    3.055650
  C     -4.323640   -8.970520    1.049480
  O     -4.064530   -8.747960    2.362290
  C     -4.169310  -10.314230    0.789250
  C     -4.234920  -11.334620   -0.263720
  O     -4.484770  -11.229790   -1.436190
  N     -3.925590  -12.509580    0.407650
  C     -3.660530  -12.369330    1.775140
  O     -3.374590  -13.270510    2.517320
  C     -3.822060  -10.933170    2.012200
  C     -3.752970   -9.928180    2.967210
  C     -3.403340   -9.972220    4.333310
  C     -3.142380   -8.860200    5.082600
  C     -2.789930   -8.928120    6.437740
  C     -2.338290   -7.876700    7.198530
  C     -2.017280   -7.929720    8.578420
  C     -1.535060   -6.762900    9.084240
  C     -1.426050   -5.728240    8.124850
  S     -2.006070   -6.273070    6.569940
  C     -0.898960   -4.464930    8.334820
  C     -0.454750   -3.920090    9.560200
  C      0.039740   -2.655130    9.453210
  C      0.023270   -2.133150    8.138520
  S     -0.659940   -3.315150    7.039890
  C      0.488790   -0.890300    7.765840
  C      0.474680   -0.392860    6.464230
  C      0.974000    0.842600    6.107120
  C      0.961840    1.440710    4.795640
  C      0.373130    0.940700    3.656520
  C      0.364470    1.600050    2.411070
  N      0.310580    2.083040    1.370370
  C     -0.320180   -0.278360    3.560120
  N     -0.911720   -1.250420    3.395720
  C      1.673650    2.713530    4.877060
  C      2.087400    2.917070    6.215710
  C      1.659370    1.767830    7.038370
  O      1.861030    1.624840    8.227380
  C      2.793440    4.024860    6.614260
  C      3.112460    4.979470    5.642070
  C      2.698500    4.766550    4.306000
  C      1.980380    3.646200    3.904540
  S      3.206300    6.062080    3.265470
  C      3.957750    6.860890    4.620910
  C      3.835020    6.194200    5.793420
  Br     4.836240    8.497000    4.359920
  H     -5.505460    1.705760    4.235500
  H     -2.382100   -1.775950    5.867590
  H     -6.148620    0.270460    2.364740
  H     -2.851280   -3.159560    3.869660
  H     -6.556110   -4.101060   -1.136900
  H     -3.887660  -13.405640   -0.057410
  H     -3.302430  -10.961960    4.754750
  H     -3.191570   -7.886880    4.611130
  H     -2.861020   -9.890210    6.929170
  H     -2.155040   -8.830560    9.149500
  H     -1.238830   -6.625380   10.108080
  H     -0.517600   -4.466120   10.483780
  H      0.419940   -2.076130   10.275460
  H      0.892850   -0.262910    8.547630
  H      0.053840   -1.026180    5.692800
  H      3.093950    4.150180    7.642640
  H      1.692200    3.530120    2.873300
  H      4.237920    6.542590    6.726820

 Total Charge           Charge          ....    0
 Multiplicity           Mult            ....    1
 Number of Electrons    NEL             ....  560
 Basis Dimension        Dim             .... 1174

ORBITAL ENERGIES
----------------

  NO   OCC          E(Eh)            E(eV)
   0   2.0000    -482.883717    -13139.9340
   1   2.0000     -89.006733     -2421.9963
   2   2.0000     -88.977259     -2421.1943
   3   2.0000     -88.976463     -2421.1727
   4   2.0000     -88.973081     -2421.0806
   5   2.0000     -62.561433     -1702.3831
   6   2.0000     -56.395382     -1534.5964
   7   2.0000     -56.392670     -1534.5226
   8   2.0000     -56.392636     -1534.5216
   9   2.0000     -24.797892      -674.7849
  10   2.0000     -24.795132      -674.7099
  11   2.0000     -19.331310      -526.0317
  12   2.0000     -19.227732      -523.2132
  13   2.0000     -19.224383      -523.1220
  14   2.0000     -19.222894      -523.0815
  15   2.0000     -19.213447      -522.8245
  16   2.0000     -14.468882      -393.7183
  17   2.0000     -14.425569      -392.5397
  18   2.0000     -14.421635      -392.4326
  19   2.0000     -14.420439      -392.4001
  20   2.0000     -14.419379      -392.3712
  21   2.0000     -14.418270      -392.3411
  22   2.0000     -14.410928      -392.1413
  23   2.0000     -10.416663      -283.4518
  24   2.0000     -10.414333      -283.3884
  25   2.0000     -10.388718      -282.6914
  26   2.0000     -10.381004      -282.4815
  27   2.0000     -10.378181      -282.4047
  28   2.0000     -10.377059      -282.3741
  29   2.0000     -10.373980      -282.2903
  30   2.0000     -10.363600      -282.0079
  31   2.0000     -10.359656      -281.9006
  32   2.0000     -10.359050      -281.8841
  33   2.0000     -10.356645      -281.8186
  34   2.0000     -10.351621      -281.6819
  35   2.0000     -10.347537      -281.5708
  36   2.0000     -10.347462      -281.5688
  37   2.0000     -10.342566      -281.4355
  38   2.0000     -10.339896      -281.3629
  39   2.0000     -10.338577      -281.3270
  40   2.0000     -10.338398      -281.3221
  41   2.0000     -10.338370      -281.3213
  42   2.0000     -10.337708      -281.3033
  43   2.0000     -10.336575      -281.2725
  44   2.0000     -10.329110      -281.0694
  45   2.0000     -10.325288      -280.9654
  46   2.0000     -10.323291      -280.9110
  47   2.0000     -10.322838      -280.8987
  48   2.0000     -10.322535      -280.8905
  49   2.0000     -10.322316      -280.8845
  50   2.0000     -10.322006      -280.8761
  51   2.0000     -10.317324      -280.7487
  52   2.0000     -10.316523      -280.7269
  53   2.0000     -10.316487      -280.7259
  54   2.0000     -10.315686      -280.7041
  55   2.0000     -10.314740      -280.6784
  56   2.0000     -10.313258      -280.6380
  57   2.0000     -10.313011      -280.6313
  58   2.0000     -10.311744      -280.5968
  59   2.0000     -10.311569      -280.5921
  60   2.0000     -10.311036      -280.5775
  61   2.0000     -10.308510      -280.5088
  62   2.0000     -10.306942      -280.4661
  63   2.0000     -10.306686      -280.4592
  64   2.0000     -10.306296      -280.4486
  65   2.0000     -10.304765      -280.4069
  66   2.0000     -10.304699      -280.4051
  67   2.0000     -10.303450      -280.3711
  68   2.0000     -10.302423      -280.3432
  69   2.0000     -10.299562      -280.2653
  70   2.0000     -10.297875      -280.2194
  71   2.0000     -10.297425      -280.2072
  72   2.0000     -10.296431      -280.1801
  73   2.0000     -10.294514      -280.1280
  74   2.0000     -10.293744      -280.1070
  75   2.0000     -10.292941      -280.0852
  76   2.0000     -10.289308      -279.9863
  77   2.0000     -10.288520      -279.9649
  78   2.0000     -10.288195      -279.9560
  79   2.0000      -8.790864      -239.2116
  80   2.0000      -8.101391      -220.4500
  81   2.0000      -8.072612      -219.6669
  82   2.0000      -8.072450      -219.6625
  83   2.0000      -8.069099      -219.5713
  84   2.0000      -6.627165      -180.3343
  85   2.0000      -6.612601      -179.9380
  86   2.0000      -6.612398      -179.9325
  87   2.0000      -6.070839      -165.1959
  88   2.0000      -6.066363      -165.0741
  89   2.0000      -6.063364      -164.9925
  90   2.0000      -6.042286      -164.4190
  91   2.0000      -6.042079      -164.4133
  92   2.0000      -6.038773      -164.3234
  93   2.0000      -6.038257      -164.3093
  94   2.0000      -6.038107      -164.3052
  95   2.0000      -6.034521      -164.2077
  96   2.0000      -6.033712      -164.1857
  97   2.0000      -6.033614      -164.1830
  98   2.0000      -6.030316      -164.0932
  99   2.0000      -2.743022       -74.6414
 100   2.0000      -2.738955       -74.5308
 101   2.0000      -2.738801       -74.5266
 102   2.0000      -2.727231       -74.2117
 103   2.0000      -2.727215       -74.2113
 104   2.0000      -1.318125       -35.8680
 105   2.0000      -1.303407       -35.4675
 106   2.0000      -1.248701       -33.9789
 107   2.0000      -1.170542       -31.8521
 108   2.0000      -1.150124       -31.2965
 109   2.0000      -1.140523       -31.0352
 110   2.0000      -1.127655       -30.6851
 111   2.0000      -1.058209       -28.7953
 112   2.0000      -1.043662       -28.3995
 113   2.0000      -1.025234       -27.8980
 114   2.0000      -1.023692       -27.8561
 115   2.0000      -1.020685       -27.7742
 116   2.0000      -1.012937       -27.5634
 117   2.0000      -1.007544       -27.4167
 118   2.0000      -1.004269       -27.3276
 119   2.0000      -1.002859       -27.2892
 120   2.0000      -0.999159       -27.1885
 121   2.0000      -0.998177       -27.1618
 122   2.0000      -0.994183       -27.0531
 123   2.0000      -0.986448       -26.8426
 124   2.0000      -0.981723       -26.7140
 125   2.0000      -0.952571       -25.9208
 126   2.0000      -0.944402       -25.6985
 127   2.0000      -0.941659       -25.6238
 128   2.0000      -0.935832       -25.4653
 129   2.0000      -0.927480       -25.2380
 130   2.0000      -0.920098       -25.0371
 131   2.0000      -0.912702       -24.8359
 132   2.0000      -0.905981       -24.6530
 133   2.0000      -0.896454       -24.3937
 134   2.0000      -0.894626       -24.3440
 135   2.0000      -0.888076       -24.1658
 136   2.0000      -0.883149       -24.0317
 137   2.0000      -0.880917       -23.9710
 138   2.0000      -0.874380       -23.7931
 139   2.0000      -0.863021       -23.4840
 140   2.0000      -0.852729       -23.2039
 141   2.0000      -0.851311       -23.1654
 142   2.0000      -0.837824       -22.7983
 143   2.0000      -0.835387       -22.7320
 144   2.0000      -0.826560       -22.4919
 145   2.0000      -0.809867       -22.0376
 146   2.0000      -0.799955       -21.7679
 147   2.0000      -0.789737       -21.4898
 148   2.0000      -0.784943       -21.3594
 149   2.0000      -0.775304       -21.0971
 150   2.0000      -0.769364       -20.9355
 151   2.0000      -0.759004       -20.6536
 152   2.0000      -0.756062       -20.5735
 153   2.0000      -0.750993       -20.4356
 154   2.0000      -0.733059       -19.9475
 155   2.0000      -0.730298       -19.8724
 156   2.0000      -0.718514       -19.5518
 157   2.0000      -0.716187       -19.4884
 158   2.0000      -0.714776       -19.4500
 159   2.0000      -0.702659       -19.1203
 160   2.0000      -0.694789       -18.9062
 161   2.0000      -0.693353       -18.8671
 162   2.0000      -0.688959       -18.7475
 163   2.0000      -0.685827       -18.6623
 164   2.0000      -0.671822       -18.2812
 165   2.0000      -0.663916       -18.0661
 166   2.0000      -0.657934       -17.9033
 167   2.0000      -0.657143       -17.8818
 168   2.0000      -0.654173       -17.8009
 169   2.0000      -0.648088       -17.6354
 170   2.0000      -0.642513       -17.4837
 171   2.0000      -0.640857       -17.4386
 172   2.0000      -0.638068       -17.3627
 173   2.0000      -0.631953       -17.1963
 174   2.0000      -0.621388       -16.9088
 175   2.0000      -0.616007       -16.7624
 176   2.0000      -0.612725       -16.6731
 177   2.0000      -0.608535       -16.5591
 178   2.0000      -0.606860       -16.5135
 179   2.0000      -0.602559       -16.3965
 180   2.0000      -0.600522       -16.3410
 181   2.0000      -0.598671       -16.2907
 182   2.0000      -0.593104       -16.1392
 183   2.0000      -0.587528       -15.9875
 184   2.0000      -0.585342       -15.9280
 185   2.0000      -0.583064       -15.8660
 186   2.0000      -0.574097       -15.6220
 187   2.0000      -0.569701       -15.5023
 188   2.0000      -0.568072       -15.4580
 189   2.0000      -0.561919       -15.2906
 190   2.0000      -0.560428       -15.2500
 191   2.0000      -0.557468       -15.1695
 192   2.0000      -0.552638       -15.0380
 193   2.0000      -0.548563       -14.9272
 194   2.0000      -0.546377       -14.8677
 195   2.0000      -0.545631       -14.8474
 196   2.0000      -0.542875       -14.7724
 197   2.0000      -0.541184       -14.7264
 198   2.0000      -0.538630       -14.6569
 199   2.0000      -0.536909       -14.6100
 200   2.0000      -0.531642       -14.4667
 201   2.0000      -0.530500       -14.4356
 202   2.0000      -0.528807       -14.3896
 203   2.0000      -0.527365       -14.3503
 204   2.0000      -0.525342       -14.2953
 205   2.0000      -0.523364       -14.2415
 206   2.0000      -0.523015       -14.2320
 207   2.0000      -0.520116       -14.1531
 208   2.0000      -0.518398       -14.1063
 209   2.0000      -0.517314       -14.0768
 210   2.0000      -0.513946       -13.9852
 211   2.0000      -0.511302       -13.9132
 212   2.0000      -0.508465       -13.8360
 213   2.0000      -0.506835       -13.7917
 214   2.0000      -0.505024       -13.7424
 215   2.0000      -0.499328       -13.5874
 216   2.0000      -0.497663       -13.5421
 217   2.0000      -0.496637       -13.5142
 218   2.0000      -0.496221       -13.5028
 219   2.0000      -0.493527       -13.4296
 220   2.0000      -0.491818       -13.3830
 221   2.0000      -0.490313       -13.3421
 222   2.0000      -0.487514       -13.2659
 223   2.0000      -0.485063       -13.1992
 224   2.0000      -0.480328       -13.0704
 225   2.0000      -0.475715       -12.9449
 226   2.0000      -0.470332       -12.7984
 227   2.0000      -0.469377       -12.7724
 228   2.0000      -0.465817       -12.6755
 229   2.0000      -0.462024       -12.5723
 230   2.0000      -0.461420       -12.5559
 231   2.0000      -0.456611       -12.4250
 232   2.0000      -0.455742       -12.4014
 233   2.0000      -0.452934       -12.3250
 234   2.0000      -0.451349       -12.2818
 235   2.0000      -0.450061       -12.2468
 236   2.0000      -0.448831       -12.2133
 237   2.0000      -0.448245       -12.1974
 238   2.0000      -0.447602       -12.1799
 239   2.0000      -0.444892       -12.1061
 240   2.0000      -0.443963       -12.0808
 241   2.0000      -0.442043       -12.0286
 242   2.0000      -0.439792       -11.9674
 243   2.0000      -0.437123       -11.8947
 244   2.0000      -0.432170       -11.7599
 245   2.0000      -0.430194       -11.7062
 246   2.0000      -0.428359       -11.6562
 247   2.0000      -0.427980       -11.6459
 248   2.0000      -0.426222       -11.5981
 249   2.0000      -0.424452       -11.5499
 250   2.0000      -0.422813       -11.5053
 251   2.0000      -0.422554       -11.4983
 252   2.0000      -0.416032       -11.3208
 253   2.0000      -0.412601       -11.2275
 254   2.0000      -0.410313       -11.1652
 255   2.0000      -0.407225       -11.0812
 256   2.0000      -0.404755       -11.0139
 257   2.0000      -0.395273       -10.7559
 258   2.0000      -0.387703       -10.5499
 259   2.0000      -0.384437       -10.4611
 260   2.0000      -0.382125       -10.3981
 261   2.0000      -0.377924       -10.2838
 262   2.0000      -0.375760       -10.2249
 263   2.0000      -0.373167       -10.1544
 264   2.0000      -0.370214       -10.0740
 265   2.0000      -0.365674        -9.9505
 266   2.0000      -0.361775        -9.8444
 267   2.0000      -0.360063        -9.7978
 268   2.0000      -0.353073        -9.6076
 269   2.0000      -0.347410        -9.4535
 270   2.0000      -0.342577        -9.3220
 271   2.0000      -0.332912        -9.0590
 272   2.0000      -0.325284        -8.8514
 273   2.0000      -0.317262        -8.6331
 274   2.0000      -0.313880        -8.5411
 275   2.0000      -0.312405        -8.5010
 276   2.0000      -0.296935        -8.0800
 277   2.0000      -0.292247        -7.9524
 278   2.0000      -0.286639        -7.7998
 279   2.0000      -0.238632        -6.4935
 280   0.0000      -0.125871        -3.4251
 281   0.0000      -0.102348        -2.7850
 282   0.0000      -0.083615        -2.2753
 283   0.0000      -0.073290        -1.9943
 284   0.0000      -0.061018        -1.6604

MULLIKEN ATOMIC CHARGES
-----------------------
   0 C :   -0.113163
   1 C :    0.248974
   2 F :   -0.172551
   3 C :    0.239564
   4 F :   -0.175510
   5 C :   -0.077843
   6 C :    0.117381
   7 C :    0.111981
   8 C :   -0.095170
   9 C :    0.068608
  10 C :   -0.007055
  11 C :   -0.010539
  12 C :    0.130526
  13 O :   -0.136362
  14 C :   -0.045392
  15 C :    0.311573
  16 C :   -0.344448
  17 C :   -0.181873
  18 N :    0.168099
  19 C :   -0.179672
  20 N :    0.159681
  21 C :   -0.084589
  22 C :    0.234309
  23 C :   -0.288641
  24 C :   -0.188777
  25 N :    0.172151
  26 S :    0.302478
  27 C :   -0.103910
  28 C :   -0.011926
  29 C :   -0.282423
  30 N :    0.179869
  31 C :    0.113408
  32 O :   -0.202405
  33 C :   -0.080229
  34 C :    0.174402
  35 O :   -0.138817
  36 N :   -0.167404
  37 C :    0.166808
  38 O :   -0.134857
  39 C :   -0.030071
  40 C :    0.116460
  41 C :   -0.046146
  42 C :    0.035397
  43 C :   -0.012906
  44 C :   -0.014764
  45 C :    0.048838
  46 C :    0.026820
  47 C :   -0.036305
  48 S :    0.126644
  49 C :   -0.057863
  50 C :    0.042093
  51 C :    0.036978
  52 C :    0.007146
  53 S :    0.103561
  54 C :   -0.015327
  55 C :   -0.033650
  56 C :   -0.087018
  57 C :    0.334276
  58 C :   -0.368218
  59 C :   -0.186645
  60 N :    0.145798
  61 C :   -0.167771
  62 N :    0.120907
  63 C :    0.012312
  64 C :   -0.009306
  65 C :    0.144853
  66 O :   -0.159303
  67 C :   -0.075876
  68 C :    0.121648
  69 C :   -0.091898
  70 C :   -0.024529
  71 S :    0.185974
  72 C :   -0.123947
  73 C :    0.037511
  74 Br:    0.021950
  75 H :    0.006330
  76 H :   -0.037155
  77 H :   -0.007545
  78 H :   -0.011855
  79 H :    0.047519
  80 H :    0.144025
  81 H :    0.018984
  82 H :    0.035816
  83 H :    0.002389
  84 H :    0.002142
  85 H :   -0.001529
  86 H :   -0.002609
  87 H :    0.005023
  88 H :    0.021306
  89 H :   -0.001936
  90 H :   -0.012880
  91 H :   -0.007237
  92 H :   -0.004667
Sum of atomic charges:   -0.0000000

LOEWDIN ATOMIC CHARGES
----------------------
   0 C :   -0.031692
   1 C :    0.067511
   2 F :   -0.050674
   3 C :    0.062335
   4 F :   -0.051914
   5 C :   -0.028590
   6 C :   -0.002647
   7 C :   -0.002864
   8 C :    0.016586
   9 C :   -0.021399
  10 C :   -0.054377
  11 C :    0.059462
  12 C :    0.090422
  13 O :   -0.126213
  14 C :   -0.052656
  15 C :    0.074040
  16 C :   -0.120947
  17 C :   -0.022225
  18 N :   -0.033754
  19 C :   -0.015489
  20 N :   -0.041541
  21 C :    0.055935
  22 C :   -0.006380
  23 C :   -0.200639
  24 C :   -0.058729
  25 N :   -0.017362
  26 S :    0.554114
  27 C :   -0.150250
  28 C :   -0.074231
  29 C :   -0.031878
  30 N :   -0.052931
  31 C :    0.044779
  32 O :    0.033279
  33 C :   -0.089613
  34 C :    0.080934
  35 O :   -0.155630
  36 N :   -0.003213
  37 C :    0.087061
  38 O :   -0.151550
  39 C :   -0.094637
  40 C :    0.078023
  41 C :   -0.032249
  42 C :    0.004644
  43 C :   -0.036020
  44 C :   -0.138050
  45 C :   -0.014713
  46 C :   -0.027286
  47 C :   -0.153538
  48 S :    0.403426
  49 C :   -0.184985
  50 C :   -0.009855
  51 C :   -0.030860
  52 C :   -0.105926
  53 S :    0.414286
  54 C :   -0.060424
  55 C :    0.048763
  56 C :   -0.098212
  57 C :    0.075668
  58 C :   -0.155010
  59 C :   -0.020425
  60 N :   -0.059912
  61 C :   -0.005840
  62 N :   -0.063289
  63 C :   -0.020002
  64 C :   -0.049024
  65 C :    0.084961
  66 O :   -0.150536
  67 C :    0.020256
  68 C :   -0.033111
  69 C :   -0.144839
  70 C :   -0.010821
  71 S :    0.432237
  72 C :   -0.272376
  73 C :   -0.070461
  74 Br:    0.135578
  75 H :    0.047270
  76 H :    0.019493
  77 H :    0.039346
  78 H :    0.040503
  79 H :    0.052769
  80 H :    0.098029
  81 H :    0.047918
  82 H :    0.037600
  83 H :    0.039815
  84 H :    0.039733
  85 H :    0.036455
  86 H :    0.036809
  87 H :    0.041765
  88 H :    0.041176
  89 H :    0.029600
  90 H :    0.040049
  91 H :    0.040834
  92 H :    0.038325

  Mayer bond orders larger than 0.100000
B(  0-C ,  1-C ) :   1.4441 B(  0-C ,  5-C ) :   0.1119 B(  0-C ,  7-C ) :   1.1822
B(  0-C , 75-H ) :   1.0072 B(  1-C ,  2-F ) :   1.1340 B(  1-C ,  3-C ) :   1.1916
B(  3-C ,  4-F ) :   1.1105 B(  3-C ,  5-C ) :   1.4331 B(  5-C ,  6-C ) :   1.2077
B(  5-C , 76-H ) :   0.9999 B(  6-C ,  7-C ) :   1.2542 B(  6-C , 11-C ) :   1.1940
B(  7-C ,  8-C ) :   1.2223 B(  8-C ,  9-C ) :   1.4360 B(  8-C , 77-H ) :   0.9885
B(  9-C , 10-C ) :   1.2129 B(  9-C , 15-C ) :   1.0042 B( 10-C , 11-C ) :   1.4752
B( 10-C , 12-C ) :   0.9456 B( 11-C , 78-H ) :   1.0069 B( 12-C , 13-O ) :   2.2297
B( 12-C , 14-C ) :   0.8978 B( 14-C , 15-C ) :   1.0344 B( 14-C , 21-C ) :   1.7231
B( 15-C , 16-C ) :   1.6665 B( 16-C , 17-C ) :   1.1383 B( 16-C , 19-C ) :   1.1412
B( 17-C , 18-N ) :   2.9655 B( 19-C , 20-N ) :   2.9656 B( 21-C , 22-C ) :   1.0672
B( 21-C , 79-H ) :   0.9228 B( 22-C , 23-C ) :   1.4674 B( 22-C , 28-C ) :   1.2586
B( 23-C , 24-C ) :   1.2093 B( 23-C , 26-S ) :   1.1346 B( 23-C , 27-C ) :   0.1230
B( 24-C , 25-N ) :   2.9987 B( 26-S , 27-C ) :   1.1620 B( 27-C , 28-C ) :   1.4861
B( 27-C , 31-C ) :   1.1068 B( 28-C , 29-C ) :   1.1330 B( 29-C , 30-N ) :   2.9902
B( 31-C , 32-O ) :   1.1848 B( 31-C , 33-C ) :   1.4523 B( 32-O , 40-C ) :   1.1436
B( 33-C , 34-C ) :   0.8663 B( 33-C , 39-C ) :   1.2795 B( 34-C , 35-O ) :   2.2587
B( 34-C , 36-N ) :   1.0965 B( 36-N , 37-C ) :   1.0665 B( 36-N , 80-H ) :   0.9131
B( 37-C , 38-O ) :   2.2737 B( 37-C , 39-C ) :   0.8805 B( 39-C , 40-C ) :   1.3760
B( 40-C , 41-C ) :   1.1799 B( 41-C , 42-C ) :   1.5816 B( 41-C , 81-H ) :   0.9685
B( 42-C , 43-C ) :   1.1549 B( 42-C , 82-H ) :   0.9807 B( 43-C , 44-C ) :   1.5520
B( 43-C , 83-H ) :   0.9826 B( 44-C , 45-C ) :   1.1420 B( 44-C , 48-S ) :   1.0389
B( 45-C , 46-C ) :   1.5880 B( 45-C , 84-H ) :   1.0005 B( 46-C , 47-C ) :   1.1886
B( 46-C , 85-H ) :   0.9945 B( 47-C , 48-S ) :   1.0742 B( 47-C , 49-C ) :   1.4794
B( 49-C , 50-C ) :   1.2051 B( 49-C , 53-S ) :   1.0504 B( 50-C , 51-C ) :   1.5526
B( 50-C , 86-H ) :   0.9938 B( 51-C , 52-C ) :   1.1729 B( 51-C , 87-H ) :   1.0007
B( 52-C , 53-S ) :   1.0643 B( 52-C , 54-C ) :   1.4488 B( 54-C , 55-C ) :   1.2315
B( 54-C , 88-H ) :   0.9697 B( 55-C , 56-C ) :   1.5034 B( 55-C , 89-H ) :   0.9460
B( 56-C , 57-C ) :   1.1010 B( 56-C , 65-C ) :   0.9574 B( 57-C , 58-C ) :   1.5825
B( 57-C , 63-C ) :   0.9953 B( 58-C , 59-C ) :   1.1429 B( 58-C , 61-C ) :   1.1675
B( 59-C , 60-N ) :   2.9658 B( 61-C , 62-N ) :   2.9052 B( 63-C , 64-C ) :   1.2759
B( 63-C , 70-C ) :   1.4130 B( 64-C , 65-C ) :   0.9394 B( 64-C , 67-C ) :   1.4294
B( 65-C , 66-O ) :   2.1822 B( 67-C , 68-C ) :   1.2387 B( 67-C , 90-H ) :   1.0169
B( 68-C , 69-C ) :   1.3100 B( 68-C , 73-C ) :   1.1616 B( 69-C , 70-C ) :   1.3267
B( 69-C , 71-S ) :   1.0855 B( 70-C , 91-H ) :   0.9793 B( 71-S , 72-C ) :   1.0873
B( 72-C , 73-C ) :   1.6180 B( 72-C , 74-Br) :   1.0178 B( 73-C , 92-H ) :   1.0007

-----------------------------------------------------------------------------
         ABSORPTION SPECTRUM VIA TRANSITION ELECTRIC DIPOLE MOMENTS
-----------------------------------------------------------------------------
State   Energy  Wavelength   fosc         T2         TX        TY        TZ
        (cm-1)    (nm)                  (au**2)     (au)      (au)      (au)
-----------------------------------------------------------------------------
   0   11147.4    897.1   1.118046138  33.01879  -2.42911  -5.14725  -0.78997
   1   17527.3    570.5   0.005427118   0.10194   0.03498  -0.20564  -0.24171
   2   19511.8    512.5   0.200995082   3.39128   0.24111  -0.83203   1.62508
   3   21833.4    458.0   0.784625470  11.83086  -0.50410   1.72298  -2.93395
   4   22632.6    441.8   0.139214293   2.02500   0.12627   0.97298   1.03071
   5   23294.5    429.3   0.037638495   0.53193   0.18678  -0.20001   0.67605
   6   23640.8    423.0   0.277126064   3.85914  -0.58145  -1.75740  -0.65772
   7   24893.5    401.7   0.162574888   2.15002   0.33655   1.23331  -0.71812
   8   25125.7    398.0   0.072930045   0.95557   0.60309   0.68563  -0.34896
   9   25267.0    395.8   0.024426279   0.31826   0.29215  -0.31512   0.36552
  10   25933.5    385.6   0.064838754   0.82309   0.16551   0.24542   0.85759
  11   26180.6    382.0   0.006679810   0.08400  -0.00579   0.26863   0.10862
  12   26304.0    380.2   0.191428425   2.39585   0.11997  -1.15822  -1.01980
  13   27095.4    369.1   0.000178853   0.00217   0.02800  -0.02117   0.03067
  14   27472.4    364.0   0.044180134   0.52943   0.17543   0.31158   0.63369
  15   27780.1    360.0   0.067988626   0.80571  -0.71964   0.11287  -0.52449
  16   28166.0    355.0   0.043076360   0.50349  -0.20528  -0.07131   0.67547
  17   29847.9    335.0   0.015938259   0.17579  -0.09372  -0.26454   0.31149
  18   30243.1    330.7   0.520443254   5.66529   0.05347   2.37663  -0.11869
  19   30612.2    326.7   0.031085868   0.33431   0.34284  -0.16551  -0.43517
  20   30701.2    325.7   0.036290706   0.38915   0.32268  -0.29367  -0.44586
  21   31051.6    322.0   0.125755611   1.33327   0.24590   0.92564   0.64498
  22   31701.7    315.4   0.146866474   1.52516  -1.12659  -0.40633  -0.30143
  23   31778.4    314.7   0.443506247   4.59456  -1.00038  -1.74907  -0.73113
  24   31961.7    312.9   0.012364776   0.12736  -0.10423  -0.29353  -0.17417
  25   32152.2    311.0   0.078214609   0.80085   0.05690   0.69010   0.56690
  26   32440.7    308.3   0.058203639   0.59066   0.62949  -0.23978   0.37001
  27   32602.1    306.7   0.067322885   0.67982   0.34490   0.53779   0.52119
  28   32885.5    304.1   0.474595552   4.75110  -0.67701  -1.18558  -1.69917
  29   33336.7    300.0   0.477619214   4.71666   0.99363   0.13539   1.92640
  30   33710.2    296.6   0.110321226   1.07739   0.33403   0.33796   0.92282
  31   34016.1    294.0   0.167328320   1.61942  -0.22967  -1.06115  -0.66380
  32   34156.3    292.8   0.008871800   0.08551  -0.10262  -0.20299  -0.18378
  33   34587.6    289.1   0.084817150   0.80731   0.18099   0.24627   0.84493
  34   34676.5    288.4   0.028407961   0.26970   0.08951  -0.51061   0.03108
  35   34957.0    286.1   0.018267814   0.17204  -0.06048  -0.21095  -0.35197
  36   35135.0    284.6   0.005277110   0.04945   0.16359   0.09442  -0.11734
  37   35342.8    282.9   0.040816477   0.38020  -0.10107   0.14391   0.59099
  38   35818.1    279.2   0.003087154   0.02837  -0.10678   0.12218   0.04523
  39   35970.9    278.0   0.026652612   0.24393  -0.39132   0.19726   0.22778
  40   36237.6    276.0   0.030097622   0.27343   0.43107   0.22424   0.19321
  41   36578.7    273.4   0.006010315   0.05409  -0.05731  -0.09756  -0.20320
  42   36643.1    272.9   0.107756275   0.96811   0.22432   0.78027   0.55585
  43   36807.7    271.7   0.106864775   0.95581   0.04684  -0.85807  -0.46620
  44   36967.1    270.5   0.192262764   1.71220  -0.36246  -0.81963  -0.95344
  45   37549.9    266.3   0.257207945   2.25503   0.74826  -1.17762   0.55528
  46   37876.6    264.0   0.009961610   0.08658  -0.08451   0.18892  -0.20916
  47   37953.5    263.5   0.036627935   0.31771  -0.10181  -0.48748   0.26404
  48   38432.7    260.2   0.015047574   0.12890   0.03715   0.33994  -0.10936
  49   38603.7    259.0   0.120935305   1.03133   0.32771  -0.96051   0.03673
  50   38679.2    258.5   0.014278736   0.12153   0.09364  -0.31745  -0.10950
  51   38995.5    256.4   0.108675396   0.91747   0.32319   0.59449   0.67794
  52   39236.2    254.9   0.004388069   0.03682  -0.18400   0.02369  -0.04898
  53   39355.0    254.1   0.009212367   0.07706   0.14087  -0.07948  -0.22561
  54   39450.7    253.5   0.009230729   0.07703  -0.03114   0.26784  -0.06575
  55   39644.0    252.2   0.027965598   0.23223   0.15797   0.35252   0.28811
  56   39801.1    251.2   0.042172090   0.34882   0.26754   0.26802   0.45322
  57   40052.8    249.7   0.022161129   0.18215   0.34601  -0.07654   0.23785
  58   40261.0    248.4   0.000488122   0.00399   0.02539  -0.05781  -0.00212
  59   40313.4    248.1   0.008991453   0.07343   0.16051  -0.10361   0.19217

FINAL SINGLE POINT ENERGY     -7266.134860297875

DIPOLE MOMENT
-------------
                                X             Y             Z
Electronic contribution:     58.50087     121.12642     -17.24567
Nuclear contribution   :    -56.20082    -123.48089      22.24238
                        -----------------------------------------
Total Dipole Moment    :      2.30005      -2.35446       4.99671
                        -----------------------------------------
Magnitude (a.u.)       :      5.98338
Magnitude (Debye)      :     15.20855

Rotational constants in cm-1:     0.001121     0.000339     0.000296
Rotational constants in MHz :    33.606012    10.165567     8.868803

                             ****ORCA TERMINATED NORMALLY****
TOTAL RUN TIME: 0 days 0 hours 11 minutes 57 seconds 605 msec
